Membrane in water
40347
    1TMC1    C1    1   0.493   3.855  12.018 -0.6213  0.0519  0.0934
    1TMC1    C2    2   0.455   3.854  11.884  0.3171  0.3597  0.7118
    1TMC1    C3    3   0.356   3.762  11.853  0.3157 -0.0101  0.1127
    1TMC1    C4    4   0.433   3.777  12.114 -0.3511 -0.8233 -0.2848
    1TMC1    C5    5   0.342   3.685  12.072  0.4066  0.1679 -0.2381
    1TMC1    C6    6   0.293   3.683  11.945  0.0583  0.3887  0.7663
    1TMC1     C    7   0.618   3.914  12.043 -1.0896 -0.1418 -0.6373
    1TMC1     O    8   0.633   3.942  12.161  0.1252 -0.0619  0.1127
    1TMC1     H    9   0.489   3.922  11.807  1.2474  0.2146  0.9986
    1TMC1    H1   10   0.461   3.775  12.218  2.3594  0.1693 -1.0051
    1TMC1    H2   11   0.217   3.613  11.913 -0.1421  0.0483  2.0083
    1TMC1    C7   12   0.278   3.594  12.165  0.4800 -0.0219 -0.3960
    1TMC1    C8   13   0.298   3.767  11.719 -0.1042  0.8898 -0.9759
    1TMC1    O1   14   0.213   3.494  12.125  0.2652 -0.0882  0.3738
    1TMC1    O2   15   0.179   3.746  11.697  0.3786  0.0113  0.2412
    1TMC1    O3   16   0.268   3.655  12.284 -0.5453  0.2562  0.2953
    1TMC1    H3   17   0.318   3.739  12.283 -0.2332  0.0396 -2.1172
    1TMC1    O5   18   0.393   3.767  11.626  0.3689 -0.2884 -0.5796
    1TMC1    H5   19   0.484   3.777  11.661 -0.0321  0.8489  0.1488
    2MPD2     C   20   1.118   3.934  11.931 -0.4051  0.7511 -0.0384
    2MPD2    C1   21   1.052   3.954  12.052  0.1588 -0.3485  1.0252
    2MPD2    C2   22   0.912   3.968  12.055 -0.5589  0.1471  0.2801
    2MPD2    C3   23   0.834   3.941  11.943  0.1843 -0.2818  0.5316
    2MPD2    C4   24   0.904   3.924  11.823  0.0059 -0.5041 -0.1169
    2MPD2    C5   25   1.041   3.936  11.813  0.2715  0.4263  1.4438
    2MPD2     H   26   0.864   3.984  12.151  0.8362 -1.1817  1.2013
    2MPD2    H1   27   0.858   3.912  11.726  0.4846  1.7255 -0.6275
    2MPD2    H2   28   1.226   3.933  11.926 -0.3704 -0.6155  1.3306
    2MPD2    H3   29   1.077   3.925  11.711 -0.8725  1.1041  0.9623
    2MPD2     N   30   0.699   3.922  11.932 -0.2578  0.5615  1.0871
    2MPD2    H5   31   0.660   3.889  11.845 -0.6423  3.0772  0.2943
    2MPD2    N1   32   1.122   3.961  12.177 -0.3364  0.0203 -0.5719
    2MPD2    H7   33   1.073   3.983  12.263  0.6125 -1.1458  0.2620
    3TMC1    C1   34   0.756   4.565  10.719 -0.1525  0.2261  0.0787
    3TMC1    C2   35   0.807   4.692  10.697  0.7984 -0.2494  0.6152
    3TMC1    C3   36   0.899   4.701  10.595 -0.1273 -0.0887  0.5815
    3TMC1    C4   37   0.787   4.462  10.634 -0.9593  0.1979 -0.6564
    3TMC1    C5   38   0.872   4.480  10.530 -0.7426  0.1949  0.7259
    3TMC1    C6   39   0.912   4.606  10.501 -0.4239 -0.3733  0.1121
    3TMC1     C   40   0.649   4.545  10.816  0.0758  0.1107  0.1815
    3TMC1     O   41   0.577   4.443  10.803 -0.4175 -0.0113 -0.4804
    3TMC1     H   42   0.772   0.040  10.754 -1.1780 -1.7133  1.5827
    3TMC1    H1   43   0.750   4.364  10.663 -3.0185  0.9840 -0.6673
    3TMC1    H2   44   0.957   4.625  10.404 -0.2516  0.8060  0.4206
    3TMC1    C7   45   0.932   4.362  10.465  0.5854 -0.0396  0.3157
    3TMC1    C8   46   0.935   0.098  10.555  0.3982  0.5738 -0.5005
    3TMC1    O1   47   0.880   4.249  10.464 -0.4433 -0.5084  0.4268
    3TMC1    O2   48   0.883   0.197  10.607  0.6186  0.1608 -0.9593
    3TMC1    O3   49   1.065   4.391  10.431  0.6718 -0.1629  0.4684
    3TMC1    H3   50   1.080   4.487  10.442  1.0484 -0.0224 -1.2567
    3TMC1    O5   51   1.068   0.097  10.530 -0.1820  0.6080 -0.3874
    3TMC1    H5   52   1.088   0.008  10.495  2.2893  0.2021  2.0401
    4MPD2     C   53   0.354   4.699  11.212 -0.2434 -0.6944  0.2937
    4MPD2    C1   54   0.460   0.049  11.205  0.4932 -0.6043  0.4214
    4MPD2    C2   55   0.554   0.030  11.103 -0.0315 -0.3891  0.6995
    4MPD2    C3   56   0.543   4.665  11.009  0.6049 -0.2551  0.0154
    4MPD2    C4   57   0.433   4.583  11.017  0.5424 -0.2676  0.2948
    4MPD2    C5   58   0.339   4.600  11.117 -0.8666  0.4898 -0.2727
    4MPD2     H   59   0.639   0.097  11.101 -1.5069  1.3684 -2.4185
    4MPD2    H1   60   0.409   4.514  10.937 -0.0392  0.8414 -0.4758
    4MPD2    H2   61   0.285   4.701  11.296 -0.7437 -2.6194 -0.0594
    4MPD2    H3   62   0.248   4.541  11.122 -0.8477  0.2981 -2.0919
    4MPD2     N   63   0.649   4.643  10.916  0.1129 -0.0981  0.3231
    4MPD2    H5   64   0.728   4.707  10.918  0.0501 -0.0699  1.8908
    4MPD2    N1   65   0.476   0.165  11.292 -0.1473  0.8410 -0.4745
    4MPD2    H7   66   0.554   0.226  11.268  0.1557  1.6668  2.6588
    5TCq1    O1   67   0.780   2.498  12.162  0.2411 -0.1741  0.4127
    5TCq1    C1   68   0.784   2.451  12.037  0.7003 -0.8030  0.4524
    5TCq1    O2   69   0.821   2.516  11.941  0.3871  0.2725  0.5335
    5TCq1    C2   70   0.826   2.310  12.042 -0.0695  0.5822 -0.2650
    5TCq1    C3   71   0.882   2.252  12.162 -0.4184  0.7848  0.3281
    5TCq1    C4   72   0.934   2.128  12.149  0.3536 -0.6962  0.1333
    5TCq1    C5   73   0.942   2.062  12.031  0.2054 -0.1356  0.3428
    5TCq1    C6   74   0.901   2.124  11.914 -0.8233  0.5946  0.0925
    5TCq1    C7   75   0.837   2.252  11.915 -0.3425 -0.4725  0.2888
    5TCq1    C8   76   0.916   2.067  11.785 -0.5971  0.1309 -0.1834
    5TCq1    O4   77   1.031   2.042  11.753  0.4869 -0.1609  0.3220
    5TCq1    C9   78   0.996   2.057  12.257  0.1550  0.8848  0.2397
    5TCq1    O5   79   1.091   1.984  12.242 -0.4918 -0.0013  0.2422
    5TCq1    O6   80   0.974   2.096  12.373 -0.0954  0.8299  0.1483
    5TCq1    H1   81   0.735   2.432  12.219 -0.8829  0.7264  0.5739
    5TCq1    H2   82   0.876   2.297  12.260 -2.3527  0.2731  0.4644
    5TCq1    H3   83   0.988   1.964  12.023 -1.5186 -0.8095 -1.1893
    5TCq1    H4   84   0.810   2.305  11.825 -2.7807 -0.2314  1.1639
    6MPD2     C   85   0.644   2.055  11.548  0.3076  0.1020  0.1518
    6MPD2    C1   86   0.766   2.010  11.591 -0.1824  0.0595  0.0458
    6MPD2    C2   87   0.856   1.937  11.514 -0.0007  0.2734  0.2651
    6MPD2    C3   88   0.814   1.894  11.389  0.0888  0.0727  0.7973
    6MPD2    C4   89   0.691   1.942  11.342  0.3343 -0.1827  0.2279
    6MPD2    C5   90   0.611   2.015  11.428 -0.1225  0.5302 -0.0865
    6MPD2     H   91   0.953   1.907  11.552  0.5153  0.7481 -0.6881
    6MPD2    H1   92   0.657   1.907  11.245  0.3592 -0.7091  0.4086
    6MPD2    H2   93   0.575   2.108  11.612  0.3237 -0.7520  0.8871
    6MPD2    H3   94   0.514   2.047  11.392 -2.7610 -3.7292  3.1971
    6MPD2     N   95   0.905   1.807  11.325 -0.3877  0.1562  0.0830
    6MPD2    H5   96   0.992   1.789  11.374 -0.4294  0.2227  0.1813
    6MPD2    N1   97   0.799   2.068  11.718  0.1632 -0.0644 -0.3446
    6MPD2    H7   98   0.722   2.112  11.766  0.7727 -0.5848  1.1067
    7TCq1    O1   99   2.869   1.246  12.778  0.6704 -0.3414  0.2461
    7TCq1    C1  100   2.813   1.183  12.675 -1.0840  0.4185 -0.3452
    7TCq1    O2  101   2.807   1.225  12.561  0.3231 -0.0628 -0.7646
    7TCq1    C2  102   2.777   1.052  12.715  0.0061 -0.0555  0.0230
    7TCq1    C3  103   2.650   1.012  12.673 -0.0886 -1.1485 -0.2914
    7TCq1    C4  104   2.586   0.916  12.749  0.3984  0.1641  0.1971
    7TCq1    C5  105   2.646   0.853  12.854 -0.2636 -0.3777 -0.1461
    7TCq1    C6  106   2.771   0.886  12.879  0.2532  0.2653 -0.3120
    7TCq1    C7  107   2.840   0.989  12.817  0.2571  0.5233  0.3941
    7TCq1    C8  108   2.825   0.825  12.997 -0.3045  0.7533  0.6642
    7TCq1    O4  109   2.785   0.709  13.005  0.7893  0.0344  0.3987
    7TCq1    C9  110   2.458   0.859  12.702  0.0151  0.5146 -0.8193
    7TCq1    O5  111   2.396   0.770  12.774  0.0881 -0.2100 -0.3122
    7TCq1    O6  112   2.415   0.908  12.596  0.0504 -0.0348 -0.0249
    7TCq1    H1  113   2.847   1.203  12.863 -0.7934  2.5404  1.3299
    7TCq1    H2  114   2.612   1.069  12.589  2.4748  0.6275 -0.2660
    7TCq1    H3  115   2.590   0.780  12.912  0.2488 -1.0789 -0.5305
    7TCq1    H4  116   2.946   1.003  12.837  0.1490  0.5893  0.9305
    8MPD2     C  117   3.051   0.824  13.437 -0.7402 -0.0790 -0.0412
    8MPD2    C1  118   3.011   0.723  13.359  0.4737  0.3040  0.4444
    8MPD2    C2  119   2.963   0.750  13.235  0.1495 -0.6034  0.7133
    8MPD2    C3  120   2.948   0.888  13.198 -0.4579  0.0479 -0.1494
    8MPD2    C4  121   2.994   0.989  13.281 -0.3145  0.3697 -0.0191
    8MPD2    C5  122   3.050   0.957  13.402 -0.4770  0.1593 -0.2602
    8MPD2     H  123   2.922   0.667  13.178 -2.6398  0.3488  1.3017
    8MPD2    H1  124   2.998   1.090  13.242  0.2039  0.5313  0.4472
    8MPD2    H2  125   3.100   0.797  13.530  0.5628 -0.8660 -0.9551
    8MPD2    H3  126   3.106   1.028  13.461  0.5342 -1.2249  0.4396
    8MPD2     N  127   2.894   0.918  13.069 -0.4118  0.1217  0.2274
    8MPD2    H5  128   2.894   1.016  13.045  0.7457  0.0867  0.0661
    8MPD2    N1  129   3.044   0.601  13.412 -0.2514  0.2190 -0.4893
    8MPD2    H7  130   3.070   0.600  13.510  1.9919 -3.2001 -1.1151
    9TMC1    C1  131   0.381   3.975  11.232  0.0093 -0.3866  0.4433
    9TMC1    C2  132   0.418   3.878  11.134 -0.6136  0.6720  0.1569
    9TMC1    C3  133   0.364   3.897  11.008  0.1265 -0.4493 -0.2369
    9TMC1    C4  134   0.292   4.072  11.206  0.0847 -0.6879 -0.1062
    9TMC1    C5  135   0.241   4.078  11.083 -0.2374  0.3380 -0.7582
    9TMC1    C6  136   0.279   4.000  10.982  0.1553  0.4039  0.6909
    9TMC1     C  137   0.478   4.002  11.336 -0.6205  0.7082 -0.2977
    9TMC1     O  138   0.589   3.957  11.311 -0.0794 -0.0776  0.0045
    9TMC1     H  139   0.484   3.794  11.150 -2.0111 -0.6334 -0.8852
    9TMC1    H1  140   0.255   4.143  11.280  1.3218 -1.0693  0.8891
    9TMC1    H2  141   0.226   4.010  10.888 -0.5426  2.8071  1.3554
    9TMC1    C7  142   0.190   4.202  11.036  0.1443  0.5458  0.0376
    9TMC1    C8  143   0.377   3.792  10.904  0.3798  0.1141  0.1540
    9TMC1    O1  144   0.097   4.193  10.957 -0.0647 -0.2077  0.2579
    9TMC1    O2  145   0.374   3.673  10.924  0.2241  0.0293  0.2783
    9TMC1    O3  146   0.301   4.277  11.023 -0.2381 -0.1656 -0.0972
    9TMC1    H3  147   0.364   4.260  11.097 -0.0046  1.5321  0.0891
    9TMC1    O5  148   0.368   3.861  10.787  0.5809  0.4348  0.1227
    9TMC1    H5  149   0.408   3.949  10.800  1.7362  0.1184 -1.3066
   10MPD2     C  150   0.643   4.142  11.539  0.9076  0.6768 -0.8011
   10MPD2    C1  151   0.510   4.108  11.561  0.4804  0.8944 -0.9703
   10MPD2    C2  152   0.444   4.128  11.682  0.6565 -0.2656  0.4531
   10MPD2    C3  153   0.513   4.193  11.781 -0.5059 -0.0378  0.3124
   10MPD2    C4  154   0.635   4.242  11.759 -0.6427 -0.9708  0.1016
   10MPD2    C5  155   0.704   4.206  11.639 -0.6239 -0.1486  0.5910
   10MPD2     H  156   0.351   4.076  11.701  0.5823 -0.2023  0.2623
   10MPD2    H1  157   0.691   4.306  11.827 -1.9333  0.5927 -0.3163
   10MPD2    H2  158   0.689   4.150  11.442  0.0475  2.2153 -1.0740
   10MPD2    H3  159   0.807   4.235  11.625 -0.8050 -0.8623 -2.0897
   10MPD2     N  160   0.447   4.233  11.904  0.2529  0.0134  0.3365
   10MPD2    H5  161   0.504   4.284  11.971  1.1828 -2.0871  1.1598
   10MPD2    N1  162   0.428   4.061  11.451 -0.3081 -0.1420 -0.7745
   10MPD2    H7  163   0.328   4.054  11.472  0.0162  0.0697  0.8806
   11TCq1    O1  164   1.352   0.480  14.639  0.0021  0.1207  0.0967
   11TCq1    C1  165   1.220   0.445  14.649 -0.0872  0.2512  0.4577
   11TCq1    O2  166   1.129   0.515  14.687  0.0214  0.0368  0.8817
   11TCq1    C2  167   1.204   0.320  14.579 -0.3997  0.5912  0.3367
   11TCq1    C3  168   1.281   0.212  14.612  0.3636 -0.3218 -0.2011
   11TCq1    C4  169   1.255   0.096  14.546  0.1524 -0.0169 -0.1494
   11TCq1    C5  170   1.161   0.083  14.449  0.1916  0.3512 -0.0898
   11TCq1    C6  171   1.078   0.188  14.422 -0.4786  0.2188  0.2771
   11TCq1    C7  172   1.095   0.309  14.490  0.0216 -0.1180 -0.0249
   11TCq1    C8  173   0.998   0.200  14.301 -0.3551 -0.4933 -0.0438
   11TCq1    O4  174   0.928   0.298  14.278 -0.3944  0.1532 -0.0986
   11TCq1    C9  175   1.336   4.719  14.571 -0.2359  0.7532  0.0708
   11TCq1    O5  176   1.453   4.736  14.617 -0.0165  0.5382 -0.8386
   11TCq1    O6  177   1.275   4.611  14.560  0.4928 -0.1277  0.0764
   11TCq1    H1  178   1.396   0.414  14.582  0.2734  1.2641 -1.0405
   11TCq1    H2  179   1.363   0.218  14.681  0.0233  0.7305  0.1090
   11TCq1    H3  180   1.157   4.723  14.401 -4.2600  0.4870 -0.0028
   11TCq1    H4  181   1.032   0.397  14.482  1.9796  1.2638 -0.2492
   12MPD2     C  182   0.847   0.131  14.046  0.4234  0.2911 -0.1233
   12MPD2    C1  183   0.931   0.046  14.111  0.2800  0.2548  0.0033
   12MPD2    C2  184   0.969   4.657  14.063  0.0140 -0.5241  0.5541
   12MPD2    C3  185   0.897   4.614  13.945 -0.1626 -0.1990  0.1627
   12MPD2    C4  186   0.803   4.698  13.886  1.0483  0.0566  0.0971
   12MPD2    C5  187   0.781   0.083  13.940 -0.5043 -0.0735  0.1267
   12MPD2     H  188   1.040   4.592  14.112 -0.6356 -2.5241 -1.1262
   12MPD2    H1  189   0.728   4.659  13.819  0.5837  2.0762 -0.5550
   12MPD2    H2  190   0.811   0.226  14.082 -1.4283 -1.2352  2.0937
   12MPD2    H3  191   0.700   0.142  13.898  0.2656 -0.2945 -1.6573
   12MPD2     N  192   0.900   4.482  13.896 -0.3073  0.6438  0.2455
   12MPD2    H5  193   0.832   4.465  13.822 -0.1073  0.5017  0.0965
   12MPD2    N1  194   1.000   0.078  14.231  0.0000  0.0583  0.0822
   12MPD2    H7  195   1.048   4.734  14.268 -0.1588 -0.2382 -0.3588
   13TCq1    O1  196   1.531   0.013  10.969 -0.2519 -0.2439 -0.3438
   13TCq1    C1  197   1.576   4.648  10.893 -0.0967 -0.6066  0.2633
   13TCq1    O2  198   1.693   4.644  10.856  0.2992 -0.4245 -0.2252
   13TCq1    C2  199   1.465   4.594  10.826  0.2668 -0.3896 -0.4059
   13TCq1    C3  200   1.452   4.607  10.693 -0.0543 -0.0293  0.0627
   13TCq1    C4  201   1.328   4.585  10.639  0.2828 -0.0395 -0.0830
   13TCq1    C5  202   1.215   4.558  10.709  0.0590  0.4286 -0.0096
   13TCq1    C6  203   1.235   4.552  10.841 -0.0496  0.4778  0.5410
   13TCq1    C7  204   1.362   4.553  10.900  0.0285 -0.1517  0.0726
   13TCq1    C8  205   1.121   4.508  10.915 -0.5045 -0.4225  0.6161
   13TCq1    O4  206   1.105   4.570  11.018 -0.5907  0.4886  0.0938
   13TCq1    C9  207   1.311   4.585  10.495  0.0620 -0.3678  0.3608
   13TCq1    O5  208   1.193   4.608  10.454 -0.0686  0.1260 -0.0554
   13TCq1    O6  209   1.417   4.591  10.426 -0.2806 -0.2219  0.0868
   13TCq1    H1  210   1.435   0.021  10.950 -0.2304  0.4705 -0.1303
   13TCq1    H2  211   1.540   4.640  10.638 -0.0198 -1.1449 -0.5463
   13TCq1    H3  212   1.119   4.560  10.659  1.5555  1.1997 -2.8407
   13TCq1    H4  213   1.382   4.556  11.007  0.9948  0.2867 -0.1202
   14MPD2     C  214   0.907   4.221  10.880 -0.2432  0.6993 -0.0635
   14MPD2    C1  215   0.945   4.344  10.921  0.3060 -0.5383 -0.2373
   14MPD2    C2  216   0.867   4.402  11.023 -0.3614 -0.0245 -0.4328
   14MPD2    C3  217   0.763   4.334  11.087 -0.4824 -0.3392  0.0940
   14MPD2    C4  218   0.732   4.205  11.043  0.8568 -0.5640 -0.1006
   14MPD2    C5  219   0.802   4.156  10.938  0.0958  0.3980 -1.4777
   14MPD2     H  220   0.887   4.500  11.064  0.7018  0.0936 -1.2313
   14MPD2    H1  221   0.656   4.143  11.089 -1.5761  1.0975 -1.8582
   14MPD2    H2  222   0.959   4.174  10.797  0.9949  1.6622  0.1794
   14MPD2    H3  223   0.786   4.051  10.914 -0.4329 -0.0953  1.0622
   14MPD2     N  224   0.690   4.386  11.195 -0.4354  0.5830 -0.2397
   14MPD2    H5  225   0.724   4.478  11.224  2.6774 -0.4524 -0.5820
   14MPD2    N1  226   1.055   4.402  10.856 -0.2918 -0.0747 -0.0634
   14MPD2    H7  227   1.098   4.336  10.791  0.2947 -1.2698  1.5463
   15TCq1    O1  228   1.512   3.687   1.645 -0.2838  0.4987  0.6993
   15TCq1    C1  229   1.571   3.578   1.586 -0.1161 -0.1922 -0.6988
   15TCq1    O2  230   1.506   3.497   1.523  0.1774  0.5379  0.6018
   15TCq1    C2  231   1.711   3.570   1.627  0.6423 -0.8808 -0.0374
   15TCq1    C3  232   1.779   3.684   1.669 -0.1877  0.2261 -0.4744
   15TCq1    C4  233   1.915   3.692   1.689  0.1923  0.5943 -0.7549
   15TCq1    C5  234   1.992   3.588   1.647  0.3260  0.6729  0.4809
   15TCq1    C6  235   1.927   3.481   1.591  0.3430  0.2817  0.3885
   15TCq1    C7  236   1.789   3.458   1.603  0.1399  0.0116  0.4496
   15TCq1    C8  237   2.005   3.366   1.541  0.1276  0.2363 -0.2850
   15TCq1    O4  238   2.124   3.356   1.557  0.1730 -0.5468 -0.3168
   15TCq1    C9  239   1.982   3.815   1.734  0.7515  0.5870  0.4403
   15TCq1    O5  240   2.104   3.827   1.728  0.3844 -0.3528 -0.0832
   15TCq1    O6  241   1.911   3.912   1.769  0.1660 -0.3359  0.2677
   15TCq1    H1  242   1.529   3.686   1.741 -0.3123 -2.3079  0.7009
   15TCq1    H2  243   1.725   3.777   1.685 -0.6791  0.0496 -1.1011
   15TCq1    H3  244   2.099   3.599   1.630 -0.1213  1.0117 -2.0738
   15TCq1    H4  245   1.745   3.365   1.570 -0.1918 -0.0631  1.0917
   16MPD2     C  246   1.902   3.110   1.299  0.2978  0.5518 -0.4881
   16MPD2    C1  247   1.972   3.169   1.396 -0.7016  0.8186  0.5615
   16MPD2    C2  248   2.085   3.101   1.445 -0.3735  0.0326  0.8227
   16MPD2    C3  249   2.130   2.986   1.382  0.2261  0.1005  0.5507
   16MPD2    C4  250   2.061   2.930   1.277  0.2436 -0.3211 -1.0084
   16MPD2    C5  251   1.947   2.996   1.230 -0.0650  0.7963 -0.9229
   16MPD2     H  252   2.140   3.136   1.531  1.1395 -1.8984  0.6327
   16MPD2    H1  253   2.083   2.841   1.219  1.8993 -0.2909 -0.4342
   16MPD2    H2  254   1.814   3.163   1.263  0.1827  0.9556  0.3853
   16MPD2    H3  255   1.885   2.951   1.154 -0.3352 -0.3185 -0.0375
   16MPD2     N  256   2.244   2.911   1.419  0.0049 -0.1691  0.3608
   16MPD2    H5  257   2.268   2.837   1.354 -0.6014  0.7313 -0.8983
   16MPD2    N1  258   1.927   3.292   1.458  0.0436 -0.1330 -0.2055
   16MPD2    H7  259   1.836   3.329   1.433 -0.2532 -0.0667  0.9720
   17TMC1    C1  260   0.946   3.492   9.779  0.4477 -0.3915 -0.2676
   17TMC1    C2  261   1.067   3.544   9.726  0.0799  0.0332  0.4125
   17TMC1    C3  262   1.101   3.487   9.608 -0.4757  1.0919 -0.3058
   17TMC1    C4  263   0.866   3.407   9.713 -0.1889 -0.3881  0.2191
   17TMC1    C5  264   0.919   3.346   9.599  0.2706 -0.1899 -0.0338
   17TMC1    C6  265   1.035   3.389   9.541  0.4884 -0.6596  0.0631
   17TMC1     C  266   0.893   3.558   9.905  0.5781  0.5670 -0.7300
   17TMC1     O  267   0.782   3.513   9.933  0.0723  0.1428  0.0015
   17TMC1     H  268   1.129   3.612   9.782 -1.0732  2.8556 -1.7452
   17TMC1    H1  269   0.778   3.361   9.757 -0.3548  0.2142  0.5271
   17TMC1    H2  270   1.069   3.348   9.447  0.8054  2.3154 -1.1164
   17TMC1    C7  271   0.835   3.264   9.512  0.6693  0.3606  1.4695
   17TMC1    C8  272   1.228   3.520   9.545  0.4203 -0.3303  0.4658
   17TMC1    O1  273   0.879   3.171   9.442 -0.5807  0.0770 -0.7583
   17TMC1    O2  274   1.298   3.437   9.486  0.2109  0.0324  0.5420
   17TMC1    O3  275   0.706   3.293   9.539 -0.6839  0.8225 -0.0852
   17TMC1    H3  276   0.688   3.387   9.561  0.8770  1.0946 -0.0026
   17TMC1    O5  277   1.228   3.656   9.530 -0.2425  0.2785 -0.6314
   17TMC1    H5  278   1.139   3.695   9.542 -1.0854 -1.3423 -1.6093
   18MPD2     C  279   0.836   3.728  10.148  0.0729  0.2871 -0.5428
   18MPD2    C1  280   0.962   3.721  10.082  0.4798 -0.0871 -0.3505
   18MPD2    C2  281   1.064   3.800  10.136  0.7158 -0.3551  1.0629
   18MPD2    C3  282   1.041   3.882  10.243 -0.6288  0.7127  0.0368
   18MPD2    C4  283   0.915   3.890  10.290  0.1581 -0.0290  0.4544
   18MPD2    C5  284   0.810   3.815  10.251 -0.1382  0.1284  0.7424
   18MPD2     H  285   1.164   3.791  10.095 -0.1296 -1.9170 -0.6535
   18MPD2    H1  286   0.899   3.948  10.380 -0.7958  2.1140 -1.1258
   18MPD2    H2  287   0.748   3.681  10.105 -0.8175  1.1132  0.3813
   18MPD2    H3  288   0.721   3.805  10.312 -0.2124 -0.6198  0.5133
   18MPD2     N  289   1.139   3.966  10.306 -0.3290 -0.1774  0.3842
   18MPD2    H5  290   1.096   4.027  10.375 -2.2074 -0.9507 -0.1165
   18MPD2    N1  291   0.987   3.631   9.972 -0.2624 -0.0919 -0.0492
   18MPD2    H7  292   1.078   3.644   9.928 -0.1709 -0.1376  0.1262
   19TMC2    C1  293   2.476   4.399  13.907 -0.6320  0.3295  0.3508
   19TMC2    C2  294   2.430   4.471  13.803  0.1443  0.0170 -0.1431
   19TMC2    C3  295   2.297   4.504  13.796 -0.2670  0.3937 -0.2055
   19TMC2    C4  296   2.393   4.352  14.006 -0.6723  0.2110  0.7941
   19TMC2    C5  297   2.254   4.389  13.999 -0.1690 -0.5612 -0.3712
   19TMC2    C6  298   2.204   4.463  13.891  0.0919  0.3566 -0.8554
   19TMC2     C  299   2.607   4.349  13.904  0.4303 -0.2149 -0.2699
   19TMC2     O  300   2.666   4.361  13.798  0.1683 -0.3388  0.1702
   19TMC2     H  301   2.490   4.480  13.713 -0.6359  1.0616 -0.5570
   19TMC2    H1  302   2.418   4.312  14.104  0.1632  0.5337  0.7113
   19TMC2    H2  303   2.101   4.493  13.883  0.0932  0.3949 -0.7309
   19TMC2    C7  304   2.160   4.323  14.088 -0.6748 -0.0644 -0.8232
   19TMC2    C8  305   2.250   4.608  13.707 -0.4620 -0.1702  0.3678
   19TMC2    O1  306   2.196   4.227  14.159  0.1173  0.0188 -0.3949
   19TMC2    O2  307   2.137   4.598  13.664 -1.1543 -0.1590  0.4753
   19TMC2    O5  308   2.355   4.685  13.669 -0.3528  0.0538  0.0091
   19TMC2    H5  309   2.435   4.673  13.725  0.2723 -0.2337 -0.9484
   20MPD2     C  310   2.908   4.323  13.972  0.7082 -0.0612 -0.3240
   20MPD2    C1  311   2.803   4.276  14.047 -0.6267 -0.4551 -0.5714
   20MPD2    C2  312   2.840   4.201  14.155  0.2943 -0.0907 -0.1694
   20MPD2    C3  313   2.969   4.165  14.195  0.3741  0.0334 -0.2304
   20MPD2    C4  314   3.073   4.224  14.121 -0.5556  0.1598 -0.5676
   20MPD2    C5  315   3.038   4.292  14.009  0.3597 -0.4922  0.0158
   20MPD2     H  316   2.755   4.174  14.217 -0.5610  0.9165 -0.8932
   20MPD2    H1  317   3.178   4.211  14.144 -0.9911 -0.5901  1.0472
   20MPD2    H2  318   2.890   4.379  13.881  0.4208 -0.0168 -0.2414
   20MPD2    H3  319   3.117   4.323  13.940 -0.8314 -0.8695 -1.5098
   20MPD2     N  320   2.999   4.087  14.308 -0.0208  0.5033 -0.3803
   20MPD2    H5  321   3.091   4.103  14.348 -0.6288  1.6084  0.5635
   20MPD2    N1  322   2.661   4.306  14.025  0.3761  0.5114 -0.3362
   20MPD2    H7  323   2.598   4.305  14.104  2.1854 -0.0471  1.1008
   21TMC2    C1  324   0.031   0.160  13.821  0.0367  1.0949  0.9183
   21TMC2    C2  325   4.711   0.060  13.753  0.5704  0.1321 -0.4495
   21TMC2    C3  326   4.585   0.012  13.790  0.2507 -0.3332  0.5827
   21TMC2    C4  327   4.696   0.219  13.922  1.3142 -0.5206 -0.1830
   21TMC2    C5  328   4.575   0.165  13.958 -0.2496  0.4465 -0.3734
   21TMC2    C6  329   4.511   0.060  13.894  0.9242 -0.1759  0.3792
   21TMC2     C  330   0.161   0.108  13.866 -0.5802  0.4318 -0.5234
   21TMC2     O  331   0.171   4.722  13.860  0.3270  0.3796  0.3769
   21TMC2     H  332   0.028   0.011  13.674 -0.4657 -0.4937 -0.7695
   21TMC2    H1  333   0.002   0.292  13.990  0.3333  0.2867 -0.4371
   21TMC2    H2  334   4.420   0.023  13.940 -0.5063  2.3676 -0.4389
   21TMC2    C7  335   4.539   0.181  14.103  0.3240  0.5113 -0.1259
   21TMC2    C8  336   4.538   4.633  13.717  0.3183 -0.3410  0.5521
   21TMC2    O1  337   4.628   0.161  14.183 -0.0394 -0.0103 -0.0110
   21TMC2    O2  338   4.621   4.563  13.657 -0.3862 -0.6974 -0.8038
   21TMC2    O5  339   4.409   4.609  13.726  0.1155  0.3894  0.7356
   21TMC2    H5  340   4.352   4.669  13.779 -0.8807  0.2669 -0.2018
   22MPD2     C  341   0.510   0.104  14.244 -0.1985 -0.1968  0.3176
   22MPD2    C1  342   0.464   0.004  14.164 -0.2747  0.4370  0.5731
   22MPD2    C2  343   0.378   0.035  14.059 -0.7849  0.5961 -0.6205
   22MPD2    C3  344   0.338   0.165  14.040 -0.2384 -0.2617 -0.2792
   22MPD2    C4  345   0.376   0.266  14.125 -0.5983 -0.3637  0.1292
   22MPD2    C5  346   0.466   0.236  14.226 -0.1829 -0.4717  0.2347
   22MPD2     H  347   0.356   4.694  13.986 -0.7285 -1.0593  1.1444
   22MPD2    H1  348   0.341   0.367  14.110  1.0705 -0.0513 -1.6944
   22MPD2    H2  349   0.586   0.090  14.320  0.4623 -1.9213 -0.6846
   22MPD2    H3  350   0.494   0.315  14.295 -1.5600 -0.6181  0.9659
   22MPD2     N  351   0.237   0.199  13.944  0.2506 -0.3695  0.3242
   22MPD2    H5  352   0.212   0.296  13.931  1.9271 -0.4987 -3.7106
   22MPD2    N1  353   0.511   4.608  14.169 -0.5545  0.1667 -0.0531
   22MPD2    H7  354   0.472   4.538  14.106 -1.4353  1.6058 -1.1203
   23TMC2    C1  355   1.487   1.254  14.690 -0.1691  0.0450  0.0218
   23TMC2    C2  356   1.567   1.353  14.635  0.5507  0.2379  1.3877
   23TMC2    C3  357   1.498   1.462  14.593  0.0955  0.4147  0.6204
   23TMC2    C4  358   1.350   1.252  14.680  0.2130  0.3568 -0.3401
   23TMC2    C5  359   1.287   1.371  14.649  0.7487 -0.7814  0.2663
   23TMC2    C6  360   1.362   1.484  14.600 -0.3571 -0.2924 -0.1551
   23TMC2     C  361   1.556   1.137  14.740  0.5014  0.3437 -0.1077
   23TMC2     O  362   1.492   1.048  14.800  0.4254 -0.0272 -0.8927
   23TMC2     H  363   1.674   1.358  14.619  0.4474 -0.4730  0.4580
   23TMC2    H1  364   1.295   1.164  14.714  2.2661 -0.3594  1.1016
   23TMC2    H2  365   1.305   1.571  14.568 -1.4703 -1.9122 -2.5707
   23TMC2    C7  366   1.142   1.385  14.638 -0.1372  0.3800  0.2229
   23TMC2    C8  367   1.579   1.556  14.524 -0.3267 -0.3533  0.1802
   23TMC2    O1  368   1.084   1.494  14.637 -0.2446 -0.0221  0.3755
   23TMC2    O2  369   1.689   1.532  14.478 -0.2001 -0.6187 -0.3592
   23TMC2    O5  370   1.539   1.679  14.554 -0.4914  0.3402  0.2985
   23TMC2    H5  371   1.472   1.681  14.626 -1.6730 -0.5433 -0.7824
   24MPD2     C  372   1.933   0.788  14.730  0.0649  0.4148 -0.0600
   24MPD2    C1  373   1.840   0.812  14.827  0.2576 -0.1920 -0.0834
   24MPD2    C2  374   1.751   0.915  14.815 -0.1893 -0.5349  0.2410
   24MPD2    C3  375   1.764   1.007  14.706 -0.6037 -0.1013  0.5848
   24MPD2    C4  376   1.861   0.976  14.608 -0.1026  0.4747 -0.4213
   24MPD2    C5  377   1.953   0.876  14.625  0.2993  0.4441 -0.4521
   24MPD2     H  378   1.676   0.930  14.891  0.9322  0.4211  1.1460
   24MPD2    H1  379   1.876   1.038  14.520  0.2425 -0.7801 -1.2340
   24MPD2    H2  380   2.015   0.719  14.743  0.4210  1.1177  1.3392
   24MPD2    H3  381   2.042   0.864  14.565 -1.3890 -1.9551 -2.4811
   24MPD2     N  382   1.688   1.125  14.694  0.5697  0.2067  0.2119
   24MPD2    H5  383   1.714   1.199  14.630 -1.6686  0.7125 -0.1084
   24MPD2    N1  384   1.837   0.744  14.948  0.0872 -0.0237  0.1592
   24MPD2    H7  385   1.767   0.769  15.017  0.4932  0.1295  0.5108
   25TMC2    C1  386   0.678   3.325  11.472 -0.1913 -1.0078  0.6727
   25TMC2    C2  387   0.804   3.375  11.454  0.3313  0.7442  0.5588
   25TMC2    C3  388   0.868   3.442  11.553  0.3775 -0.6782 -0.0604
   25TMC2    C4  389   0.621   3.340  11.598 -0.2107  0.1771  0.3110
   25TMC2    C5  390   0.685   3.418  11.690  0.1059 -0.3478  0.5055
   25TMC2    C6  391   0.808   3.471  11.666  0.6989 -0.3202  0.5679
   25TMC2     C  392   0.613   3.266  11.359 -0.6094  0.3151 -0.4863
   25TMC2     O  393   0.664   3.306  11.253  0.4510 -0.1260 -0.6563
   25TMC2     H  394   0.857   3.348  11.364 -1.1603 -0.4792  0.0565
   25TMC2    H1  395   0.524   3.298  11.625  0.1357 -0.1302  1.0829
   25TMC2    H2  396   0.851   3.536  11.741  0.7591  0.0286  0.2279
   25TMC2    C7  397   0.625   3.437  11.820  0.1696  0.2376 -0.4094
   25TMC2    C8  398   0.930   3.564  11.502  0.0458  0.6674  0.0069
   25TMC2    O1  399   0.511   3.395  11.828  0.1262  0.2959  0.8693
   25TMC2    O2  400   0.911   3.672  11.560  0.4125  0.4676 -0.2678
   25TMC2    O5  401   0.999   3.541  11.385 -0.1488  0.1157  0.1817
   25TMC2    H5  402   1.006   3.444  11.374  3.0701  0.5312 -1.4661
   26MPD2     C  403   0.425   2.862  11.111  0.0561  0.2568 -0.3910
   26MPD2    C1  404   0.423   2.839  11.245  0.6268 -0.0534 -0.0036
   26MPD2    C2  405   0.460   2.936  11.337  0.3561 -0.5928  0.4191
   26MPD2    C3  406   0.504   3.059  11.292  0.8070  0.5565 -0.5193
   26MPD2    C4  407   0.507   3.081  11.151 -1.1808  0.2157 -0.1088
   26MPD2    C5  408   0.468   2.981  11.063  0.3914 -0.4190  0.5621
   26MPD2     H  409   0.448   2.916  11.443 -0.4938  2.8470  0.9561
   26MPD2    H1  410   0.551   3.173  11.113 -1.2044  0.4716  0.4729
   26MPD2    H2  411   0.403   2.786  11.038 -3.4906  1.3784 -0.4620
   26MPD2    H3  412   0.471   3.000  10.956 -1.0978 -0.6764  0.4846
   26MPD2     N  413   0.543   3.152  11.391  0.2097  0.1151  0.1757
   26MPD2    H5  414   0.538   3.129  11.490 -3.7827  2.0520  0.4694
   26MPD2    N1  415   0.394   2.708  11.280  0.0671  0.3807 -0.3395
   26MPD2    H7  416   0.415   2.634  11.214  1.5277  0.1075  0.4217
   27TMC2    C1  417   4.338   0.502  12.029  0.5054  0.2882 -0.4487
   27TMC2    C2  418   4.365   0.621  11.976 -0.1437  0.5054  0.4191
   27TMC2    C3  419   4.412   0.721  12.056  1.3146 -0.2593 -1.0041
   27TMC2    C4  420   4.371   0.473  12.157 -0.0227  0.4583  0.0140
   27TMC2    C5  421   4.431   0.564  12.234 -0.6125  0.6212 -0.0149
   27TMC2    C6  422   4.458   0.690  12.183  0.0809  0.5200 -0.5871
   27TMC2     C  423   4.228   0.428  11.980  0.3782  0.6868 -0.2267
   27TMC2     O  424   4.213   0.425  11.856 -0.5668  0.0365 -0.2687
   27TMC2     H  425   4.332   0.655  11.878 -2.4895 -1.0138  0.6988
   27TMC2    H1  426   4.352   0.379  12.208  0.4927  0.3535  0.0113
   27TMC2    H2  427   4.517   0.763  12.237  1.7122 -1.4609  0.2726
   27TMC2    C7  428   4.358   0.574  12.360  0.4899 -0.3049  1.1085
   27TMC2    C8  429   4.475   0.837  11.987  0.3467 -0.0762  0.3850
   27TMC2    O1  430   4.255   0.505  12.371  0.5727 -0.1330  0.3328
   27TMC2    O2  431   4.596   0.822  11.984 -0.0599 -0.2047  0.0462
   27TMC2    O5  432   4.394   0.880  11.889 -0.1690 -0.0874  0.1886
   27TMC2    H5  433   4.299   0.865  11.907 -0.1589  0.2796  0.5456
   28MPD2     C  434   3.797   0.146  12.047  0.1446 -1.6322  0.4224
   28MPD2    C1  435   3.823   0.219  12.161 -0.2368  0.4547  0.5912
   28MPD2    C2  436   3.934   0.305  12.167 -0.1428  0.4131 -0.0278
   28MPD2    C3  437   4.017   0.323  12.059  0.4587 -0.0987  0.1780
   28MPD2    C4  438   3.980   0.267  11.942  0.2381  0.1623  0.2495
   28MPD2    C5  439   3.876   0.179  11.938 -0.3112 -0.0295 -0.3853
   28MPD2     H  440   3.948   0.366  12.255 -1.5502  1.5679 -0.6023
   28MPD2    H1  441   4.030   0.295  11.850 -1.1994  2.0839  0.0467
   28MPD2    H2  442   3.706   0.088  12.041 -0.7777  0.1818 -2.8402
   28MPD2    H3  443   3.851   0.113  11.856 -3.5995 -2.6462  2.7147
   28MPD2     N  444   4.138   0.397  12.082 -0.8458 -0.0439 -0.0039
   28MPD2    H5  445   4.153   0.429  12.177 -0.7695 -2.2614  0.7334
   28MPD2    N1  446   3.734   0.202  12.268 -0.3204  0.0179  0.2773
   28MPD2    H7  447   3.644   0.161  12.245 -0.1810  1.1984 -2.3888
   29TMC2    C1  448   3.046   3.107  14.514 -0.0558  0.0165 -0.4017
   29TMC2    C2  449   3.020   3.152  14.645  0.1469 -0.3777 -0.3725
   29TMC2    C3  450   3.073   3.274  14.668  0.7146  0.5591  0.0332
   29TMC2    C4  451   3.108   3.175  14.415 -0.1130  0.1315  0.2491
   29TMC2    C5  452   3.176   3.282  14.456  0.1765  0.6392  0.4135
   29TMC2    C6  453   3.148   3.341  14.575 -0.4181  0.3811  0.5534
   29TMC2     C  454   3.014   2.968  14.476  0.3646  0.6223  0.2146
   29TMC2     O  455   3.004   2.883  14.565 -0.2663 -0.0642  0.5585
   29TMC2     H  456   2.968   3.080  14.706  0.3107  1.2524  1.6724
   29TMC2    H1  457   3.149   3.128  14.326 -0.4359 -0.4542  0.4035
   29TMC2    H2  458   3.199   3.427  14.616  1.2069 -0.7977  1.0185
   29TMC2    C7  459   3.224   3.372  14.362 -1.0416 -0.3704  0.3373
   29TMC2    C8  460   3.051   3.340  14.793 -0.3132 -0.0329  0.6575
   29TMC2    O1  461   3.180   3.346  14.250  0.6292  0.1463 -0.4320
   29TMC2    O2  462   3.129   3.416  14.849  0.3690  0.0216  0.2254
   29TMC2    O5  463   2.948   3.272  14.857 -0.0275  0.0112 -0.5172
   29TMC2    H5  464   2.882   3.226  14.801 -0.2867 -2.9933  2.2546
   30MPD2     C  465   2.821   2.646  14.138  0.2483 -0.3455 -0.2021
   30MPD2    C1  466   2.909   2.621  14.246  0.1514 -0.1435  0.1299
   30MPD2    C2  467   2.958   2.726  14.323  0.1425  0.3523  0.2720
   30MPD2    C3  468   2.910   2.855  14.287 -0.0317  0.4616 -0.0927
   30MPD2    C4  469   2.823   2.878  14.189  0.4844 -0.6289  0.7981
   30MPD2    C5  470   2.772   2.770  14.119  0.3304 -1.0035  0.0416
   30MPD2     H  471   3.022   2.708  14.408  0.5308 -0.7630 -0.2628
   30MPD2    H1  472   2.784   2.978  14.171  1.1992 -0.2177  1.4995
   30MPD2    H2  473   2.779   2.569  14.074  1.4879  0.4565 -1.9751
   30MPD2    H3  474   2.696   2.778  14.042  0.3916  0.4536  0.1401
   30MPD2     N  475   2.974   2.963  14.346 -0.2177  0.1260 -0.6387
   30MPD2    H5  476   2.944   3.055  14.314 -1.3988  0.4903  1.4961
   30MPD2    N1  477   2.978   2.495  14.248 -0.1117  0.0643 -0.2182
   30MPD2    H7  478   3.056   2.498  14.313 -0.3491 -0.1582  0.0751
   31TMC2    C1  479   0.722   1.697  15.485  0.4446 -0.3164  0.9594
   31TMC2    C2  480   0.614   1.752  15.543 -0.4026 -0.7327 -0.5992
   31TMC2    C3  481   0.587   1.734  15.676  0.3689  0.5000 -0.2104
   31TMC2    C4  482   0.812   1.626  15.561  0.3294  0.0655 -0.1252
   31TMC2    C5  483   0.782   1.608  15.693 -0.8804 -0.0706 -0.0159
   31TMC2    C6  484   0.665   1.656  15.753  0.5110 -0.4319 -0.2885
   31TMC2     C  485   0.747   1.717  15.342 -0.8569  0.0642  0.8191
   31TMC2     O  486   0.664   1.785  15.286  0.3659 -0.2204  0.3736
   31TMC2     H  487   0.546   1.814  15.486 -0.3959 -1.2666 -1.1830
   31TMC2    H1  488   0.905   1.585  15.523  1.5634  0.9873  1.9064
   31TMC2    H2  489   0.641   1.634  15.857  1.8267  2.6014  0.6335
   31TMC2    C7  490   0.882   1.540  15.769 -1.5845 -0.3522 -0.0297
   31TMC2    C8  491   0.453   1.727  15.718  0.3692  0.2244 -0.4335
   31TMC2    O1  492   0.979   1.493  15.715  0.2031  0.2359  0.0636
   31TMC2    O2  493   0.420   1.648  15.812  0.2795  0.5802  0.4764
   31TMC2    O5  494   0.408   1.849  15.697 -0.5549  0.0324  0.3106
   31TMC2    H5  495   0.444   1.907  15.627 -0.3108  1.7039  1.8216
   32MPD2     C  496   0.996   1.746  14.905 -0.1363  0.3724 -0.2893
   32MPD2    C1  497   0.877   1.801  14.935  0.5174 -0.0356 -0.6396
   32MPD2    C2  498   0.829   1.766  15.056  0.2475  0.8175 -0.8101
   32MPD2    C3  499   0.902   1.698  15.156 -1.0249 -0.8227  0.1624
   32MPD2    C4  500   1.021   1.649  15.121  0.0472  0.3253  0.2313
   32MPD2    C5  501   1.064   1.664  14.996 -0.0789  0.3367 -0.0634
   32MPD2     H  502   0.731   1.803  15.084  1.3635  2.4704  0.8909
   32MPD2    H1  503   1.077   1.580  15.182 -1.7518  1.0375  2.6965
   32MPD2    H2  504   1.051   1.759  14.813  0.9040  1.1629  0.4376
   32MPD2    H3  505   1.159   1.615  14.977  1.1204  2.8322 -0.5843
   32MPD2     N  506   0.863   1.676  15.289 -0.0047  0.2472  0.0808
   32MPD2    H5  507   0.926   1.624  15.350  0.1634 -1.1371 -1.2549
   32MPD2    N1  508   0.825   1.896  14.846  0.2881 -0.3353 -1.0362
   32MPD2    H7  509   0.874   1.895  14.757  1.0536 -0.6102 -0.6132
   33TMC2    C1  510   2.034   4.468   9.797 -0.7164  0.1749  0.4394
   33TMC2    C2  511   2.062   4.356   9.727  0.1304 -0.3414  1.0037
   33TMC2    C3  512   2.141   4.371   9.617 -0.1609  0.2808  0.2886
   33TMC2    C4  513   2.090   4.591   9.764  0.2775  0.2543  0.6897
   33TMC2    C5  514   2.175   4.598   9.658  0.1770  0.1651 -0.1630
   33TMC2    C6  515   2.199   4.492   9.580 -0.1070 -0.1921 -0.5243
   33TMC2     C  516   1.940   4.449   9.912  0.2329 -0.1911  0.1789
   33TMC2     O  517   1.894   4.336   9.933 -0.0366  0.4485  0.8108
   33TMC2     H  518   2.005   4.265   9.741  1.5417 -1.4335 -0.4129
   33TMC2    H1  519   2.041   4.679   9.804 -2.7429 -1.1686  0.1367
   33TMC2    H2  520   2.277   4.493   9.505  1.0193  1.9293  0.6723
   33TMC2    C7  521   2.204   4.735   9.618 -0.1293  0.4221 -0.3307
   33TMC2    C8  522   2.206   4.253   9.565  0.4406  0.3529 -0.9276
   33TMC2    O1  523   2.174   0.087   9.696 -0.2402 -0.4518 -0.5061
   33TMC2    O2  524   2.325   4.263   9.539  0.1160  0.5487 -0.6277
   33TMC2    O5  525   2.132   4.145   9.597  0.3193  0.1390  0.4876
   33TMC2    H5  526   2.038   4.170   9.606  0.0925  0.0795 -1.6094
   34MPD2     C  527   1.715   4.628  10.332  0.4831 -0.1952 -0.4790
   34MPD2    C1  528   1.732   4.502  10.296  0.5275  0.1081  0.3093
   34MPD2    C2  529   1.811   4.470  10.184 -0.3706 -0.1489  0.2893
   34MPD2    C3  530   1.858   4.579  10.111  0.0432  0.6214 -0.0284
   34MPD2    C4  531   1.846   4.710  10.154 -0.3166  0.4679 -0.2366
   34MPD2    C5  532   1.771   4.733  10.270  0.6135  0.7488  0.4584
   34MPD2     H  533   1.823   4.369  10.146  1.5261 -0.6213  2.1656
   34MPD2    H1  534   1.897   0.057  10.107  1.7009 -0.6793 -0.0884
   34MPD2    H2  535   1.647   4.640  10.416 -0.0495 -1.4865 -0.7246
   34MPD2    H3  536   1.753   0.098  10.304  0.1088  0.8873 -0.2209
   34MPD2     N  537   1.934   4.564   9.991 -0.3314  1.0160  0.8303
   34MPD2    H5  538   1.991   4.645   9.970 -3.2682  2.9340  0.2979
   34MPD2    N1  539   1.648   4.402  10.355 -0.8274  0.2773  0.4632
   34MPD2    H7  540   1.574   4.442  10.412 -3.2777 -1.3864 -1.5322
   35TMC2    C1  541   1.858   1.130  11.782 -0.3831 -0.1424 -0.2379
   35TMC2    C2  542   1.789   1.216  11.707  0.1543  0.3118  0.2185
   35TMC2    C3  543   1.673   1.172  11.660  0.2833 -0.4488 -0.7935
   35TMC2    C4  544   1.812   1.008  11.816 -0.3294 -0.6122  0.3619
   35TMC2    C5  545   1.689   0.976  11.771 -0.1965 -0.0609  0.2068
   35TMC2    C6  546   1.622   1.052  11.676 -0.5402 -0.2284  0.7162
   35TMC2     C  547   1.998   1.170  11.795  0.2291  0.3792 -0.1283
   35TMC2     O  548   2.037   1.282  11.755 -0.1414 -0.0753  0.1147
   35TMC2     H  549   1.820   1.319  11.693 -1.9741  1.1214  1.4294
   35TMC2    H1  550   1.862   0.952  11.894  0.0966  0.7719  1.0803
   35TMC2    H2  551   1.528   1.023  11.631  1.1195 -3.5285 -0.6803
   35TMC2    C7  552   1.628   0.846  11.785 -0.5076  0.2390 -0.3756
   35TMC2    C8  553   1.591   1.267  11.585 -0.0571 -0.0207  0.5893
   35TMC2    O1  554   1.515   0.830  11.746 -0.0274  0.4901  0.0534
   35TMC2    O2  555   1.472   1.247  11.574 -0.7309 -0.0316  0.7529
   35TMC2    O5  556   1.684   1.308  11.497 -0.1288  0.5556 -0.1730
   35TMC2    H5  557   1.781   1.302  11.512 -0.1074  0.2322 -0.4467
   36MPD2     C  558   2.467   1.109  11.981  0.6303  0.2828 -0.6404
   36MPD2    C1  559   2.424   0.981  11.937  0.3356 -0.5101 -0.7083
   36MPD2    C2  560   2.302   0.974  11.886  0.0933 -0.3686  0.3870
   36MPD2    C3  561   2.217   1.085  11.871 -0.5956  0.2428 -0.4803
   36MPD2    C4  562   2.264   1.211  11.900 -0.5246 -0.0190  0.6568
   36MPD2    C5  563   2.393   1.212  11.945  0.5356  0.2476 -0.5623
   36MPD2     H  564   2.261   0.880  11.853  0.4349 -1.0672  1.9342
   36MPD2    H1  565   2.203   1.300  11.906  0.0071  0.3728  0.1801
   36MPD2    H2  566   2.558   1.140  12.031 -0.5818  0.5616  1.3946
   36MPD2    H3  567   2.427   1.312  11.969  1.0162 -0.1157  0.2781
   36MPD2     N  568   2.080   1.064  11.826  0.0483  0.7608  0.3826
   36MPD2    H5  569   2.053   0.969  11.801  0.1108  0.6004  0.9180
   36MPD2    N1  570   2.513   0.868  11.944  0.3454 -0.7856 -0.0275
   36MPD2    H7  571   2.596   0.882  12.001  1.1086 -1.0166 -1.0855
   37TMC2    C1  572   4.475   1.393  11.718  0.0393  0.8008 -0.4541
   37TMC2    C2  573   4.394   1.496  11.665  0.1112  0.5992 -0.3067
   37TMC2    C3  574   4.470   1.597  11.604 -0.0088  0.5171 -1.1864
   37TMC2    C4  575   4.605   1.390  11.710 -0.1432 -0.0957  0.4889
   37TMC2    C5  576   4.674   1.489  11.638  0.0730 -0.4666 -0.3146
   37TMC2    C6  577   4.605   1.601  11.593 -0.1525  0.4997 -0.4274
   37TMC2     C  578   4.398   1.319  11.820 -0.1885 -0.5147 -0.2868
   37TMC2     O  579   4.278   1.324  11.841  0.2037 -0.9337  0.0241
   37TMC2     H  580   4.286   1.500  11.677 -0.0484 -3.0088 -0.6176
   37TMC2    H1  581   4.674   1.312  11.740 -0.2978 -0.3226  0.2526
   37TMC2    H2  582   4.656   1.682  11.541  1.4816 -0.8258 -0.9158
   37TMC2    C7  583   0.082   1.490  11.635 -0.8046 -0.2930 -0.2354
   37TMC2    C8  584   4.400   1.710  11.553  0.4049  0.2959  0.2145
   37TMC2    O1  585   0.133   1.409  11.712  0.3427 -0.2099 -0.0324
   37TMC2    O2  586   4.297   1.700  11.486  0.1706  0.0753 -0.3998
   37TMC2    O5  587   4.477   1.817  11.590 -0.4354 -0.3864 -0.7482
   37TMC2    H5  588   4.549   1.791  11.652 -2.3791  1.9430  2.4469
   38MPD2     C  589   4.454   1.064  12.270 -0.5396 -0.1550  0.5535
   38MPD2    C1  590   4.575   1.094  12.219 -0.0409 -0.1768  0.0362
   38MPD2    C2  591   4.584   1.157  12.098 -0.1496 -0.0001 -0.4418
   38MPD2    C3  592   4.475   1.191  12.021  0.1193  0.1539 -0.4543
   38MPD2    C4  593   4.356   1.171  12.080 -0.2714  0.4014 -0.2859
   38MPD2    C5  594   4.343   1.113  12.206  0.2154 -0.1906 -0.4953
   38MPD2     H  595   4.682   1.187  12.063  1.0560 -0.5968  2.4530
   38MPD2    H1  596   4.269   1.201  12.023  0.0577  0.3894 -0.7971
   38MPD2    H2  597   4.437   1.019  12.367 -0.4047 -0.5288  0.4040
   38MPD2    H3  598   4.245   1.081  12.238 -0.1937  2.8123  1.2230
   38MPD2     N  599   4.490   1.262  11.905 -0.1080 -0.5748  0.0263
   38MPD2    H5  600   4.584   1.270  11.867 -0.2192  3.8998  0.5762
   38MPD2    N1  601   4.696   1.042  12.273 -0.0097  0.1232  0.0950
   38MPD2    H7  602   0.046   1.079  12.236 -0.0086  0.3911  0.3610
   39TMC2    C1  603   2.952   2.612   1.990  0.2592  0.3710  0.4123
   39TMC2    C2  604   2.935   2.737   2.051 -0.4474 -0.2611  0.6363
   39TMC2    C3  605   3.046   2.810   2.083  0.0209  0.7249 -0.7731
   39TMC2    C4  606   3.071   2.575   1.931  0.1384  0.3518 -1.3463
   39TMC2    C5  607   3.180   2.645   1.982  0.4627 -0.0207 -0.1368
   39TMC2    C6  608   3.175   2.753   2.063 -0.3444 -0.7757 -0.1600
   39TMC2     C  609   2.828   2.563   1.937 -0.4725  1.0313  0.2228
   39TMC2     O  610   2.748   2.645   1.906 -0.3227 -0.1566 -0.0257
   39TMC2     H  611   2.843   2.769   2.097 -0.5697  0.7684 -0.3225
   39TMC2    H1  612   3.070   2.488   1.866  1.5223  0.4112 -1.4488
   39TMC2    H2  613   3.263   2.793   2.112 -0.8993  1.2069 -0.7954
   39TMC2    C7  614   3.314   2.598   1.955  0.0147 -0.2645  0.1006
   39TMC2    C8  615   3.042   2.930   2.169  0.0103 -0.4158 -0.6627
   39TMC2    O1  616   3.317   2.479   1.929  0.0123  0.0482 -0.4029
   39TMC2    O2  617   3.153   2.979   2.192 -0.2615  0.3058 -0.3073
   39TMC2    O5  618   2.916   2.990   2.175 -0.1400 -0.1730 -0.1368
   39TMC2    H5  619   2.850   2.948   2.116 -0.2880 -0.8313  0.4936
   40MPD2     C  620   2.824   2.256   1.735  0.1696 -0.1168  0.2546
   40MPD2    C1  621   2.770   2.366   1.792  0.5057  1.1501  0.5823
   40MPD2    C2  622   2.645   2.415   1.752 -0.3089 -0.0300  0.1245
   40MPD2    C3  623   2.572   2.345   1.657 -0.4163 -0.5991  0.0251
   40MPD2    C4  624   2.632   2.241   1.593 -0.2944 -0.0058  0.3299
   40MPD2    C5  625   2.753   2.198   1.636  0.2334 -0.5218  0.3492
   40MPD2     H  626   2.590   2.497   1.797  2.0215  2.3776 -1.4309
   40MPD2    H1  627   2.593   2.207   1.498  2.9799  0.9428 -1.3628
   40MPD2    H2  628   2.922   2.219   1.763 -0.3394 -0.9746  0.8759
   40MPD2    H3  629   2.804   2.122   1.578  1.3127  0.5847 -0.1477
   40MPD2     N  630   2.446   2.378   1.601 -0.2726  0.3662  0.4271
   40MPD2    H5  631   2.417   2.320   1.523  0.6374 -0.4890  0.7205
   40MPD2    N1  632   2.849   2.433   1.887  0.3436  0.3015  0.7403
   40MPD2    H7  633   2.939   2.392   1.904  0.8386  1.0251 -0.1253
   41TMC2    C1  634   2.412   0.387  13.960 -0.2930  0.6102  0.0207
   41TMC2    C2  635   2.421   0.522  13.952 -0.3236 -0.8986  0.6611
   41TMC2    C3  636   2.416   0.595  13.837 -0.6182  0.1927 -0.4824
   41TMC2    C4  637   2.413   0.311  13.847 -0.0920 -0.2043 -0.0696
   41TMC2    C5  638   2.418   0.381  13.727  0.0860 -0.2072  0.3056
   41TMC2    C6  639   2.417   0.521  13.719  0.1836  0.5331 -0.5639
   41TMC2     C  640   2.393   0.312  14.090 -0.0261 -0.5241 -0.3057
   41TMC2     O  641   2.373   0.194  14.075  0.6255 -0.5296  0.2245
   41TMC2     H  642   2.428   0.584  14.041 -1.2256  0.2491 -0.0666
   41TMC2    H1  643   2.401   0.203  13.855 -2.3379  0.0224 -0.3751
   41TMC2    H2  644   2.411   0.562  13.618  0.2978  0.7291 -0.4910
   41TMC2    C7  645   2.341   0.319  13.618 -0.4061 -0.3922 -0.1523
   41TMC2    C8  646   2.501   0.711  13.841 -0.4658 -0.0774 -0.1558
   41TMC2    O1  647   2.250   0.243  13.646  0.2741 -0.5368  0.0711
   41TMC2    O2  648   2.596   0.722  13.917  0.0852 -0.1878 -0.8921
   41TMC2    O5  649   2.491   0.772  13.730  0.1646 -0.2638 -0.3245
   41TMC2    H5  650   2.397   0.758  13.706 -0.6210  0.2668  2.4137
   42MPD2     C  651   2.276   0.194  14.342 -0.8811  0.5874  0.2661
   42MPD2    C1  652   2.333   0.318  14.332 -0.3377 -0.3387 -0.2449
   42MPD2    C2  653   2.329   0.397  14.441  0.0409  0.1771  0.8269
   42MPD2    C3  654   2.276   0.350  14.566  0.0888  0.6532 -0.3204
   42MPD2    C4  655   2.209   0.235  14.574 -0.7735  0.0830 -0.1701
   42MPD2    C5  656   2.215   0.158  14.458 -0.0735  0.5540 -0.2639
   42MPD2     H  657   2.387   0.487  14.424  0.9150 -0.4500  0.4991
   42MPD2    H1  658   2.162   0.195  14.663 -0.2335  0.6903  0.3810
   42MPD2    H2  659   2.270   0.120  14.263  0.9392  0.8480 -0.1184
   42MPD2    H3  660   2.171   0.058  14.459  0.9228  0.1150  0.1353
   42MPD2     N  661   2.279   0.426  14.687  0.1702 -0.1507  0.3026
   42MPD2    H5  662   2.241   0.388  14.773 -0.3760 -5.4318 -2.2934
   42MPD2    N1  663   2.382   0.378  14.212  0.1722 -0.2846  0.4460
   42MPD2    H7  664   2.396   0.478  14.212 -0.0911 -0.2241 -2.3897
   43TMC2    C1  665   3.545   4.019   1.422 -0.3012  0.2466 -0.1314
   43TMC2    C2  666   3.529   3.927   1.521 -0.5800 -0.5046 -0.2048
   43TMC2    C3  667   3.510   3.985   1.640  0.3319  0.4390  0.0208
   43TMC2    C4  668   3.509   4.153   1.439 -0.3229 -0.6108  0.5058
   43TMC2    C5  669   3.495   4.194   1.566 -0.1344 -0.6500  0.2401
   43TMC2    C6  670   3.502   4.115   1.663  0.6882  1.0158 -0.2417
   43TMC2     C  671   3.580   3.972   1.289 -0.4601  0.7222 -0.3363
   43TMC2     O  672   3.553   3.852   1.272 -0.1785 -0.3672  0.0712
   43TMC2     H  673   3.565   3.825   1.511 -0.0371 -0.6082  2.9722
   43TMC2    H1  674   3.509   4.221   1.355  0.1811 -1.0002  0.1882
   43TMC2    H2  675   3.482   4.150   1.764  2.0150 -2.0168  1.0699
   43TMC2    C7  676   3.432   4.324   1.600 -0.1735 -0.3724 -0.1401
   43TMC2    C8  677   3.474   3.897   1.752 -0.5157 -0.6341  0.5067
   43TMC2    O1  678   3.455   4.378   1.711  0.0326  0.7865  0.2800
   43TMC2    O2  679   3.421   3.785   1.746 -0.0399 -0.4259 -0.2746
   43TMC2    O5  680   3.559   3.936   1.850 -0.0668  0.3512 -0.0026
   43TMC2    H5  681   3.604   4.022   1.840  0.2490  0.1124 -0.6515
   44MPD2     C  682   3.768   4.067   0.814  0.0349 -0.2000 -0.3847
   44MPD2    C1  683   3.688   3.968   0.864 -0.3850  0.1928  0.1137
   44MPD2    C2  684   3.644   3.966   0.996 -0.0400 -0.1468 -0.1536
   44MPD2    C3  685   3.675   4.070   1.084 -0.2643 -0.0822  0.5853
   44MPD2    C4  686   3.749   4.178   1.033 -0.4360  0.2414 -0.1576
   44MPD2    C5  687   3.787   4.176   0.903 -0.1581  0.9745  0.7059
   44MPD2     H  688   3.591   3.882   1.039  0.3132  0.1271  0.8164
   44MPD2    H1  689   3.775   4.261   1.098 -0.0435  0.4554 -0.5879
   44MPD2    H2  690   3.818   4.071   0.718  1.5480  0.4317  0.4230
   44MPD2    H3  691   3.847   4.256   0.862 -1.1329  1.2667 -0.1632
   44MPD2     N  692   3.646   4.069   1.221 -0.8412 -0.1844 -0.5405
   44MPD2    H5  693   3.684   4.143   1.279 -1.5424  0.0256 -0.3453
   44MPD2    N1  694   3.660   3.849   0.796  0.4794  0.0244 -0.0798
   44MPD2    H7  695   3.610   3.776   0.846 -1.7063  1.9204  0.4819
   45TMC2    C1  696   4.714   0.721   9.862  0.6657  0.7064 -0.6551
   45TMC2    C2  697   4.711   0.616   9.942  0.6428  0.0842 -0.1767
   45TMC2    C3  698   0.029   0.619  10.069  0.5537  0.1381  0.3125
   45TMC2    C4  699   0.039   0.835   9.913  0.2314 -0.3667 -0.4352
   45TMC2    C5  700   0.093   0.840  10.040  0.0533 -0.8963  0.6587
   45TMC2    C6  701   0.092   0.730  10.120  0.1437 -0.3355 -0.0493
   45TMC2     C  702   4.631   0.719   9.744  0.0487 -0.3185  0.5739
   45TMC2     O  703   4.622   0.608   9.691 -0.1859 -0.3238  0.4740
   45TMC2     H  704   4.660   0.524   9.914  0.2263 -0.5758  2.8062
   45TMC2    H1  705   0.021   0.926   9.857 -3.0982 -1.3256 -0.8987
   45TMC2    H2  706   0.132   0.738  10.220  0.9633  1.2594 -0.5179
   45TMC2    C7  707   0.178   0.956  10.077  0.2491 -0.0486 -0.1682
   45TMC2    C8  708   4.728   0.515  10.160 -0.2356  0.0742  0.5555
   45TMC2    O1  709   0.228   0.953  10.190 -0.4964 -0.5990 -0.9831
   45TMC2    O2  710   4.696   0.404  10.125 -0.4746  0.2444  0.0637
   45TMC2    O5  711   4.703   0.566  10.281  0.1327 -0.5513 -0.1555
   45TMC2    H5  712   4.728   0.660  10.272  2.0915 -0.8412  2.2620
   46MPD2     C  713   4.428   0.744   9.536  0.0093 -0.3455  0.1588
   46MPD2    C1  714   4.481   0.852   9.607  0.2464  0.1744  0.1310
   46MPD2    C2  715   4.418   0.973   9.589 -0.0291  1.0179  0.3356
   46MPD2    C3  716   4.310   0.991   9.507 -0.0519 -0.4590  0.3668
   46MPD2    C4  717   4.264   0.880   9.435  0.5334 -0.7006  0.1578
   46MPD2    C5  718   4.325   0.758   9.447 -0.0130  0.7193 -0.2224
   46MPD2     H  719   4.463   1.063   9.629  1.4012  1.0293 -1.3395
   46MPD2    H1  720   4.181   0.886   9.366 -1.0091 -3.8431  1.7604
   46MPD2    H2  721   4.455   0.641   9.559  0.8968 -0.3663 -1.0155
   46MPD2    H3  722   4.274   0.670   9.411  1.1966 -1.1565  2.6026
   46MPD2     N  723   4.246   1.119   9.508  0.1225 -0.3920 -0.2237
   46MPD2    H5  724   4.292   1.191   9.562 -1.7529  1.8135 -1.6144
   46MPD2    N1  725   4.584   0.839   9.704 -0.3812 -0.4235  0.7060
   46MPD2    H7  726   4.613   0.924   9.750 -1.2274  1.9698 -3.1883
   47TMC2    C1  727   1.913   2.710   9.526  0.3544 -0.0548 -0.6685
   47TMC2    C2  728   1.857   2.833   9.500  0.6121  0.1738 -0.0443
   47TMC2    C3  729   1.747   2.867   9.567  0.6380 -0.0680 -0.0156
   47TMC2    C4  730   1.867   2.627   9.625 -0.2610  0.1781  0.0471
   47TMC2    C5  731   1.757   2.671   9.704 -0.0606  0.2259 -0.2291
   47TMC2    C6  732   1.691   2.783   9.668  0.2881 -0.2086 -0.6182
   47TMC2     C  733   2.049   2.696   9.477 -0.3225  0.3037 -1.1686
   47TMC2     O  734   2.098   2.787   9.406 -0.2066 -0.1853 -0.3675
   47TMC2     H  735   1.899   2.908   9.434 -0.2556  0.8574  0.1784
   47TMC2    H1  736   1.927   2.545   9.661 -0.7150  0.2445  0.9527
   47TMC2    H2  737   1.615   2.832   9.728  0.1687  0.3404 -1.2132
   47TMC2    C7  738   1.685   2.563   9.786  0.1731 -0.2568 -0.2530
   47TMC2    C8  739   1.672   2.986   9.533 -0.0957  0.0070 -0.0544
   47TMC2    O1  740   1.744   2.457   9.803  0.1673  0.1129  0.3490
   47TMC2    O2  741   1.605   3.045   9.620 -0.3013  0.2943  0.5837
   47TMC2    O5  742   1.635   2.974   9.406 -0.3147 -0.0005 -0.7722
   47TMC2    H5  743   1.689   2.907   9.358  0.6935 -0.1869  0.6193
   48MPD2     C  744   2.307   2.595   9.373  0.6456 -0.4048 -0.8160
   48MPD2    C1  745   2.218   2.514   9.445  0.1380 -0.0197 -0.6337
   48MPD2    C2  746   2.253   2.391   9.481 -0.0026  0.1972  0.5704
   48MPD2    C3  747   2.377   2.342   9.444  0.1224  0.0660  0.4142
   48MPD2    C4  748   2.464   2.427   9.377 -0.5306  0.4074  0.7557
   48MPD2    C5  749   2.433   2.553   9.340  0.2119 -0.0965 -0.4174
   48MPD2     H  750   2.192   2.331   9.546 -3.2903 -1.4138 -4.0053
   48MPD2    H1  751   2.551   2.381   9.333  0.4565  2.1698  0.8633
   48MPD2    H2  752   2.272   2.689   9.333 -0.0480 -0.6384 -0.7602
   48MPD2    H3  753   2.499   2.606   9.272  1.0754  0.5878  0.9439
   48MPD2     N  754   2.413   2.201   9.471  0.3230 -0.5482 -0.3480
   48MPD2    H5  755   2.341   2.149   9.520 -0.3253 -1.6478 -2.4806
   48MPD2    N1  756   2.092   2.566   9.481 -0.2004 -0.0998  0.1808
   48MPD2    H7  757   2.033   2.499   9.530 -0.9538  1.6904  1.7207
   49TMC2    C1  758   0.807   4.109   9.975 -0.1132 -0.3994  0.1957
   49TMC2    C2  759   0.725   4.069   9.880 -0.6425 -0.2174  0.4778
   49TMC2    C3  760   0.776   3.990   9.780  0.0796 -0.8755  0.2573
   49TMC2    C4  761   0.940   4.081   9.965  0.2916  0.6422 -0.7833
   49TMC2    C5  762   0.988   4.012   9.859 -0.0330 -0.0668  0.1343
   49TMC2    C6  763   0.905   3.965   9.765  0.0601  0.4399 -0.1885
   49TMC2     C  764   0.763   4.160  10.106 -0.5053  0.1578 -0.1087
   49TMC2     O  765   0.834   4.237  10.169  0.0996  0.3720  0.0976
   49TMC2     H  766   0.617   4.084   9.877 -0.6984 -0.5170  1.0281
   49TMC2    H1  767   1.015   4.105  10.039  0.4491  0.6231 -0.9353
   49TMC2    H2  768   0.950   3.933   9.672  0.6176 -0.6853  0.4786
   49TMC2    C7  769   1.128   3.995   9.827  0.3045 -0.3067  0.0461
   49TMC2    C8  770   0.691   3.923   9.684 -0.0819  0.1308 -0.2393
   49TMC2    O1  771   1.157   3.896   9.757  0.2021 -0.0039  0.1475
   49TMC2    O2  772   0.727   3.829   9.619 -0.3693 -0.0798 -0.1631
   49TMC2    O5  773   0.607   4.016   9.644  0.2779 -0.0909 -0.1177
   49TMC2    H5  774   0.593   4.103   9.686  0.2279  0.5823 -1.5534
   50MPD2     C  775   0.596   4.242  10.333  0.6262 -0.1110 -0.4282
   50MPD2    C1  776   0.569   4.134  10.255 -0.4612  0.0145  0.3458
   50MPD2    C2  777   0.459   4.059  10.284 -1.0125 -0.6535  0.7086
   50MPD2    C3  778   0.387   4.079  10.396  0.4167 -0.3334 -0.0131
   50MPD2    C4  779   0.419   4.182  10.479 -0.5297  0.2157  0.2201
   50MPD2    C5  780   0.526   4.260  10.451 -0.1655 -0.1128 -0.6179
   50MPD2     H  781   0.426   3.996  10.202  1.0441  0.0704 -0.6803
   50MPD2    H1  782   0.354   4.204  10.563 -0.3370  1.0533  0.1577
   50MPD2    H2  783   0.679   4.310  10.315  0.1168 -0.0319 -2.4758
   50MPD2    H3  784   0.554   4.345  10.513 -2.0200  0.2439 -0.2526
   50MPD2     N  785   0.281   4.000  10.434  0.2917 -0.1015  0.7905
   50MPD2    H5  786   0.234   4.019  10.522  1.1013  2.1067  0.7471
   50MPD2    N1  787   0.642   4.104  10.139  0.1072  0.3906  0.0275
   50MPD2    H7  788   0.605   4.034  10.076  0.9584  1.0478 -1.1984
   51TMC2    C1  789   4.343   3.263   1.671 -0.1908  0.0660  0.4589
   51TMC2    C2  790   4.273   3.384   1.653  0.1441 -0.0812 -0.7156
   51TMC2    C3  791   4.313   3.462   1.549  0.4878  0.6918 -0.1622
   51TMC2    C4  792   4.457   3.241   1.597 -0.5457 -0.0810  0.4544
   51TMC2    C5  793   4.483   3.321   1.491 -1.0311 -0.8054  0.1545
   51TMC2    C6  794   4.406   3.430   1.461 -0.5051 -0.0153 -0.5083
   51TMC2     C  795   4.286   3.145   1.731  0.3716  0.6005  0.2077
   51TMC2     O  796   4.348   3.043   1.710  0.2059 -0.1423  0.2109
   51TMC2     H  797   4.198   3.419   1.723  0.4056  0.3971 -0.6769
   51TMC2    H1  798   4.507   3.145   1.610  0.2508  0.0437 -1.5843
   51TMC2    H2  799   4.432   3.513   1.396  1.6753 -1.5564 -1.5865
   51TMC2    C7  800   4.566   3.269   1.385  0.0656 -0.4043 -0.5761
   51TMC2    C8  801   4.226   3.568   1.507  0.6928  0.0278  0.0656
   51TMC2    O1  802   4.665   3.208   1.412  0.4637  0.0759 -0.0732
   51TMC2    O2  803   4.153   3.566   1.406 -0.4063  0.2139 -0.0539
   51TMC2    O5  804   4.228   3.668   1.595  0.0044 -0.5843  0.0637
   51TMC2    H5  805   4.294   3.662   1.668 -0.8328 -0.0492  0.8738
   52MPD2     C  806   3.972   2.869   2.013  0.8042  0.3276 -0.1191
   52MPD2    C1  807   4.081   2.833   1.933 -0.4954  0.1841 -0.1628
   52MPD2    C2  808   4.149   2.931   1.869 -0.0416  0.5077 -0.0180
   52MPD2    C3  809   4.118   3.066   1.892 -0.5836  0.5717  0.0083
   52MPD2    C4  810   4.021   3.099   1.984 -0.2252 -0.1161 -0.1589
   52MPD2    C5  811   3.952   2.998   2.045 -0.0177  1.0057 -0.3780
   52MPD2     H  812   4.228   2.888   1.807 -0.0638  1.6554 -0.8429
   52MPD2    H1  813   3.996   3.202   2.004  1.8693  0.1678  1.0532
   52MPD2    H2  814   3.908   2.800   2.067  0.3057 -0.8263 -2.1904
   52MPD2    H3  815   3.881   3.031   2.120 -1.6522 -2.4367 -0.4374
   52MPD2     N  816   4.172   3.167   1.811  0.2754  1.0697 -0.0489
   52MPD2    H5  817   4.135   3.259   1.832  0.8651  0.8529  1.9231
   52MPD2    N1  818   4.116   2.703   1.896 -0.3281  0.5814 -0.0872
   52MPD2    H7  819   4.182   2.695   1.820 -2.0328 -1.7351 -1.3102
   53TMC2    C1  820   0.774   1.363  11.756  0.9975 -0.7620 -0.7081
   53TMC2    C2  821   0.910   1.341  11.757  0.2511  0.2762 -0.1680
   53TMC2    C3  822   0.960   1.259  11.852  0.9929 -0.0239 -0.4251
   53TMC2    C4  823   0.698   1.312  11.858 -1.1772 -0.6645 -0.3357
   53TMC2    C5  824   0.755   1.222  11.942  0.5048 -0.2636 -0.2803
   53TMC2    C6  825   0.888   1.197  11.949 -0.0043  0.5395  0.7451
   53TMC2     C  826   0.723   1.459  11.660  0.8397 -0.1764  0.1873
   53TMC2     O  827   0.795   1.495  11.568 -0.8613  0.2272 -0.0325
   53TMC2     H  828   0.970   1.379  11.675  0.1141  1.1782  0.1474
   53TMC2    H1  829   0.590   1.322  11.859 -1.3182 -2.3228  0.6006
   53TMC2    H2  830   0.936   1.136  12.024 -0.2469  1.7001  1.8414
   53TMC2    C7  831   0.685   1.203  12.070  0.0580  0.5975  0.2639
   53TMC2    C8  832   1.109   1.265  11.851  0.7961  0.3399  0.0046
   53TMC2    O1  833   0.589   1.279  12.093 -0.2514 -0.0691  0.1743
   53TMC2    O2  834   1.170   1.308  11.758  0.3148 -0.3504 -0.4462
   53TMC2    O5  835   1.168   1.227  11.963  0.2427 -0.1975  0.1535
   53TMC2    H5  836   1.102   1.208  12.034 -0.4465 -2.7893 -1.1571
   54MPD2     C  837   0.555   1.630  11.495  0.0873  0.3606 -0.3097
   54MPD2    C1  838   0.510   1.554  11.592  0.2542 -0.0589 -0.4060
   54MPD2    C2  839   0.378   1.538  11.614 -0.0195 -0.3098 -0.0639
   54MPD2    C3  840   0.284   1.597  11.530 -0.6295  0.0074  0.1088
   54MPD2    C4  841   0.328   1.680  11.432  0.1568  0.2527  0.0621
   54MPD2    C5  842   0.458   1.696  11.414  1.1253  0.0021  0.1332
   54MPD2     H  843   0.353   1.487  11.706  0.1405 -0.2278  0.0268
   54MPD2    H1  844   0.262   1.734  11.365  0.3223  0.7308  0.2863
   54MPD2    H2  845   0.661   1.650  11.478 -0.6122  2.7818 -1.8410
   54MPD2    H3  846   0.490   1.761  11.333 -2.1902  0.2187 -0.9706
   54MPD2     N  847   0.138   1.587  11.549 -0.1293 -0.4743  0.8162
   54MPD2    H5  848   0.080   1.629  11.477 -0.9204  0.3014  1.9012
   54MPD2    N1  849   0.590   1.477  11.680  0.1128 -1.0765  0.1302
   54MPD2    H7  850   0.539   1.422  11.748 -0.6938  0.7550  1.0164
   55TMC2    C1  851   1.378   4.134   0.393 -0.3804  0.0053  0.2962
   55TMC2    C2  852   1.470   4.228   0.370  0.3131  0.7433  0.6833
   55TMC2    C3  853   1.595   4.175   0.351 -0.3481 -0.6184  0.2859
   55TMC2    C4  854   1.408   4.001   0.412 -0.2951 -0.1490  0.3496
   55TMC2    C5  855   1.540   3.954   0.397  0.5259 -0.3032 -0.0931
   55TMC2    C6  856   1.638   4.044   0.367  0.2181  0.3072  0.1525
   55TMC2     C  857   1.249   4.176   0.441  0.5348 -0.2397 -0.2553
   55TMC2     O  858   1.211   4.107   0.533  0.8948  0.5501 -0.0912
   55TMC2     H  859   1.443   4.333   0.366 -1.5471  0.1827 -1.7028
   55TMC2    H1  860   1.320   3.938   0.417 -1.0389  0.8412 -0.3457
   55TMC2    H2  861   1.744   4.024   0.378 -0.2299 -0.5226  2.9338
   55TMC2    C7  862   1.594   3.820   0.439 -0.1170 -0.2335  0.6611
   55TMC2    C8  863   1.686   4.263   0.279 -0.0553 -0.1425  0.0022
   55TMC2    O1  864   1.714   3.798   0.432 -0.8093 -0.3141 -0.7625
   55TMC2    O2  865   1.678   4.384   0.283 -0.9696  0.4496  0.5076
   55TMC2    O5  866   1.741   4.198   0.176  0.0859  0.0200 -0.0453
   55TMC2    H5  867   1.713   4.104   0.175  0.9454 -0.2110 -1.1980
   56MPD2     C  868   1.003   4.440   0.359  0.3975  0.1406  0.3623
   56MPD2    C1  869   1.052   4.321   0.404  0.3881 -0.1385  0.0695
   56MPD2    C2  870   0.968   4.246   0.481 -0.4151  0.2165  0.5155
   56MPD2    C3  871   0.839   4.289   0.515 -0.3253  0.4380  0.2630
   56MPD2    C4  872   0.800   4.416   0.475  0.1151 -0.2588  0.6564
   56MPD2    C5  873   0.883   4.493   0.396 -0.6528  0.4971  0.0812
   56MPD2     H  874   0.991   4.153   0.532 -0.8446  0.2225  0.7188
   56MPD2    H1  875   0.700   4.454   0.494  1.0323  1.8676  1.3024
   56MPD2    H2  876   1.069   4.500   0.298 -0.6650  2.2916  1.3252
   56MPD2    H3  877   0.856   4.596   0.376  1.2536  1.6310  3.2357
   56MPD2     N  878   0.763   4.206   0.602  0.0671  0.0437 -0.3013
   56MPD2    H5  879   0.803   4.114   0.616  0.2985  0.2751  0.5680
   56MPD2    N1  880   1.181   4.270   0.371 -1.2563  0.0302  0.8757
   56MPD2    H7  881   1.222   4.300   0.284  0.2611 -0.2940  1.4828
   57TMC2    C1  882   0.841   0.139  13.521  0.3680 -0.3244  0.5684
   57TMC2    C2  883   0.970   0.183  13.504 -0.2055  0.1306  0.2519
   57TMC2    C3  884   1.052   0.086  13.450  1.0342 -0.6435 -0.7713
   57TMC2    C4  885   0.799   0.014  13.490  0.2994 -0.4938 -0.2304
   57TMC2    C5  886   0.888   4.661  13.442  0.4075 -0.1081 -0.3928
   57TMC2    C6  887   1.020   4.693  13.421 -0.1313  0.9321 -0.3608
   57TMC2     C  888   0.735   0.230  13.547 -0.5539 -0.5513  1.0833
   57TMC2     O  889   0.631   0.225  13.482  0.1989  0.3992 -0.1482
   57TMC2     H  890   1.005   0.284  13.523 -0.5581  1.2025 -4.7377
   57TMC2    H1  891   0.695   4.722  13.498  0.6286 -1.4437  0.5940
   57TMC2    H2  892   1.090   4.621  13.379  1.9175  1.9728  1.2828
   57TMC2    C7  893   0.837   4.526  13.441 -0.2113 -0.5374 -0.1513
   57TMC2    C8  894   1.168   0.137  13.399  0.6452 -0.4100  0.4119
   57TMC2    O1  895   0.716   4.499  13.451 -0.4835 -0.6671  0.0912
   57TMC2    O2  896   1.162   0.237  13.333  0.4252  0.0391 -0.0907
   57TMC2    O5  897   1.263   0.044  13.395  0.7002 -0.0684 -0.4471
   57TMC2    H5  898   1.234   4.699  13.440  0.1807  0.7841  0.7534
   58MPD2     C  899   0.465   0.514  13.866  0.7712 -0.2114  0.0544
   58MPD2    C1  900   0.436   0.463  13.739 -0.0505 -0.1449  0.0980
   58MPD2    C2  901   0.541   0.411  13.673  0.6359  0.1177  0.2062
   58MPD2    C3  902   0.667   0.386  13.726 -0.4351 -0.2266  0.5424
   58MPD2    C4  903   0.695   0.435  13.854  0.2828 -0.2566 -0.1176
   58MPD2    C5  904   0.594   0.501  13.916 -0.2738 -1.0297 -0.1441
   58MPD2     H  905   0.510   0.386  13.572  1.1600 -1.5740  0.4772
   58MPD2    H1  906   0.786   0.417  13.910  1.4091  1.4108 -1.4109
   58MPD2    H2  907   0.394   0.561  13.933  0.9476 -0.5662  0.4950
   58MPD2    H3  908   0.612   0.545  14.014 -0.0341 -0.7220 -0.3255
   58MPD2     N  909   0.766   0.312  13.654 -0.0712 -0.3733  0.2755
   58MPD2    H5  910   0.855   0.303  13.701  1.5607 -1.3640 -3.0000
   58MPD2    N1  911   0.311   0.474  13.674  0.8749 -0.4826  0.2048
   58MPD2    H7  912   0.312   0.455  13.575 -1.2785 -0.6036  0.2054
   59TMC2    C1  913   2.913   4.534  12.539  0.5772  0.1682 -0.2722
   59TMC2    C2  914   2.906   4.424  12.622 -0.1077  0.0475 -0.0285
   59TMC2    C3  915   2.791   4.351  12.594 -0.4720 -0.4130  0.0648
   59TMC2    C4  916   2.807   4.577  12.454  0.7271 -0.0120  0.9705
   59TMC2    C5  917   2.689   4.501  12.452 -0.1843  0.2669  0.8951
   59TMC2    C6  918   2.681   4.386  12.523  0.1708  0.3524 -0.4323
   59TMC2     C  919   3.041   4.597  12.518 -0.1107  0.1152 -0.1112
   59TMC2     O  920   3.065   4.628  12.399  0.2810 -0.0661 -0.0050
   59TMC2     H  921   2.994   4.381  12.668 -1.0848 -1.7166  0.1898
   59TMC2    H1  922   2.824   4.658  12.385 -2.4200  1.2852  1.7125
   59TMC2    H2  923   2.599   4.316  12.517  0.8287 -0.4002 -0.7592
   59TMC2    C7  924   2.565   4.537  12.381  0.4280 -0.2260 -0.6058
   59TMC2    C8  925   2.760   4.231  12.670  0.8291  0.7465 -0.6677
   59TMC2    O1  926   2.454   4.493  12.414  0.3527 -0.1157  0.0129
   59TMC2    O2  927   2.656   4.231  12.734 -0.1851 -0.2115 -0.2225
   59TMC2    O5  928   2.880   4.185  12.705 -0.4687  0.2154  0.2545
   59TMC2    H5  929   2.937   4.198  12.626 -1.4696 -0.8395 -0.6533
   60MPD2     C  930   3.305   4.708  12.544 -0.3356  0.0589 -0.5761
   60MPD2    C1  931   3.220   4.705  12.657 -0.6473 -0.6008  0.0483
   60MPD2    C2  932   3.258   0.022  12.776 -0.1483 -0.3028 -0.8233
   60MPD2    C3  933   3.386   0.076  12.790  0.6283 -0.1484 -0.0056
   60MPD2    C4  934   3.476   0.060  12.689  0.4193 -0.0444 -0.0056
   60MPD2    C5  935   3.431   0.015  12.569 -0.8787 -0.6725 -0.9706
   60MPD2     H  936   3.194   0.027  12.863  1.6098  3.8077  0.1955
   60MPD2    H1  937   3.578   0.094  12.704  0.2160  0.3716  0.4272
   60MPD2    H2  938   3.282   4.671  12.445  1.3061  0.0628 -0.9627
   60MPD2    H3  939   3.507   0.017  12.492  0.8087 -4.8458  0.6166
   60MPD2     N  940   3.433   0.121  12.913 -0.0946  0.3052 -0.4392
   60MPD2    H5  941   3.533   0.116  12.930 -0.1142 -1.5861 -0.8938
   60MPD2    N1  942   3.094   4.640  12.637  0.7024  0.3121  0.1399
   60MPD2    H7  943   3.040   4.619  12.720 -0.4139 -0.4616 -0.7817
   61TMC2    C1  944   2.796   1.145  14.695  0.3353 -0.6507 -0.1338
   61TMC2    C2  945   2.817   1.057  14.799 -0.0370 -0.5523 -0.6785
   61TMC2    C3  946   2.772   1.098  14.921 -0.0698  0.4041 -0.2699
   61TMC2    C4  947   2.756   1.271  14.719 -0.1042  0.5366 -0.5844
   61TMC2    C5  948   2.714   1.303  14.845 -0.4938  0.3931 -0.0542
   61TMC2    C6  949   2.724   1.222  14.952 -1.1402  0.2214 -0.4024
   61TMC2     C  950   2.755   1.088  14.567  0.0546 -0.1932  0.1840
   61TMC2     O  951   2.797   0.977  14.536  0.0707 -0.2960 -0.0103
   61TMC2     H  952   2.850   0.956  14.780 -1.9807 -1.2027 -0.6651
   61TMC2    H1  953   2.749   1.348  14.643 -0.5689  0.7831 -0.2876
   61TMC2    H2  954   2.684   1.244  15.050  0.6795  2.3494 -0.1356
   61TMC2    C7  955   2.676   1.440  14.867  0.1883  0.2060  0.0392
   61TMC2    C8  956   2.803   1.006  15.026 -0.2738  0.4448 -0.4516
   61TMC2    O1  957   2.625   1.505  14.777 -0.9941  0.4834 -0.4556
   61TMC2    O2  958   2.837   0.892  15.007 -0.0281 -0.1518 -0.5384
   61TMC2    O5  959   2.858   1.089  15.120 -0.3733 -0.2177 -0.0913
   61TMC2    H5  960   2.864   1.186  15.110 -1.2257 -0.0569  1.1035
   62MPD2     C  961   2.633   1.062  14.303  0.3168 -0.0321  0.9328
   62MPD2    C1  962   2.586   1.136  14.400  0.5677  0.2693 -0.1681
   62MPD2    C2  963   2.464   1.205  14.389 -0.3623 -0.0463 -0.3040
   62MPD2    C3  964   2.387   1.188  14.277  0.3374 -0.4863  0.6917
   62MPD2    C4  965   2.432   1.095  14.188 -0.3172 -0.6301 -0.6803
   62MPD2    C5  966   2.557   1.034  14.190  0.6849  0.6768  0.0204
   62MPD2     H  967   2.439   1.281  14.462  0.3144  0.5338 -0.6771
   62MPD2    H1  968   2.376   1.073  14.098 -0.6615  2.8748 -1.3115
   62MPD2    H2  969   2.739   1.037  14.306  0.1144 -0.8973  1.0754
   62MPD2    H3  970   2.593   0.969  14.111 -1.1315 -0.3012 -0.0118
   62MPD2     N  971   2.273   1.264  14.246 -0.2172  0.0336  0.1107
   62MPD2    H5  972   2.240   1.269  14.150  0.6185  0.8661 -0.1329
   62MPD2    N1  973   2.649   1.153  14.524  0.0074  0.9122 -0.1625
   62MPD2    H7  974   2.623   1.233  14.581  0.6519  0.5280  0.6652
   63TMC2    C1  975   2.606   1.498  10.994 -0.0129  0.2898 -0.2378
   63TMC2    C2  976   2.709   1.498  11.084  0.0357  0.2028  0.5024
   63TMC2    C3  977   2.805   1.586  11.044 -0.2679 -0.6020 -0.8013
   63TMC2    C4  978   2.594   1.573  10.882 -0.4062  0.9477 -0.3241
   63TMC2    C5  979   2.696   1.657  10.852  0.4525 -0.1988  0.1866
   63TMC2    C6  980   2.799   1.674  10.934 -0.1469  0.1570  0.4436
   63TMC2     C  981   2.501   1.411  11.039  0.7084  0.3678 -0.0438
   63TMC2     O  982   2.503   1.397  11.158 -0.2938 -0.0966 -0.4211
   63TMC2     H  983   2.725   1.437  11.173 -0.7914 -1.7857 -0.6972
   63TMC2    H1  984   2.505   1.568  10.821  0.6866  0.0440 -1.8429
   63TMC2    H2  985   2.884   1.733  10.902 -0.4815  0.4113  0.0203
   63TMC2    C7  986   2.674   1.724  10.728 -0.1627  0.0184 -0.8506
   63TMC2    C8  987   2.892   1.619  11.154  0.1516  0.7287  0.5551
   63TMC2    O1  988   2.594   1.670  10.650 -0.2503 -0.4639 -0.1092
   63TMC2    O2  989   2.855   1.622  11.271 -0.4322  0.0674  0.0301
   63TMC2    O5  990   3.013   1.639  11.101  0.1781  0.0530  0.2785
   63TMC2    H5  991   3.016   1.623  11.004 -0.8083  2.4059 -0.1251
   64MPD2     C  992   2.160   1.049  10.986 -0.0738  0.5940  0.0207
   64MPD2    C1  993   2.218   1.067  10.860  0.4422  0.4483 -0.0021
   64MPD2    C2  994   2.317   1.164  10.851  0.2694  0.0690  0.2948
   64MPD2    C3  995   2.350   1.239  10.957 -0.2602 -0.8190 -0.1968
   64MPD2    C4  996   2.296   1.217  11.082  0.7310  0.4371  0.2627
   64MPD2    C5  997   2.207   1.113  11.100  0.0481 -0.4001 -0.2413
   64MPD2     H  998   2.365   1.161  10.754 -1.4153  0.8185 -0.5722
   64MPD2    H1  999   2.318   1.269  11.174  0.6593 -0.7043  0.9239
   64MPD2    H2 1000   2.086   0.971  10.993 -0.2106  0.6496 -0.7599
   64MPD2    H3 1001   2.163   1.088  11.196 -1.6373  1.7809 -0.4712
   64MPD2     N 1002   2.444   1.337  10.934  0.1183  0.1714  0.0220
   64MPD2    H5 1003   2.460   1.358  10.836  0.8336 -0.9460 -0.0954
   64MPD2    N1 1004   2.183   0.990  10.743  0.0486  0.7971 -0.0742
   64MPD2    H7 1005   2.218   1.021  10.653  0.3962 -1.5877 -0.7513
   65TMC2    C1 1006   2.299   1.340  15.104 -0.5614  0.3022  0.3862
   65TMC2    C2 1007   2.343   1.329  14.976 -0.1889 -0.0191  0.3161
   65TMC2    C3 1008   2.298   1.428  14.890  0.5471  1.1948  0.5106
   65TMC2    C4 1009   2.228   1.450  15.147  0.1824  0.5997  0.2477
   65TMC2    C5 1010   2.176   1.543  15.051 -0.0307  0.0796 -0.3715
   65TMC2    C6 1011   2.206   1.526  14.922 -0.1521 -0.2938 -0.5740
   65TMC2     C 1012   2.341   1.255  15.219 -0.0607  1.6431 -0.5635
   65TMC2     O 1013   2.325   1.308  15.333 -0.6710 -0.3528  0.0300
   65TMC2     H 1014   2.387   1.236  14.940 -1.1968 -0.3870  0.0237
   65TMC2    H1 1015   2.175   1.447  15.241 -1.7422  2.3029 -0.7831
   65TMC2    H2 1016   2.156   1.601  14.861 -1.9393 -0.9150  0.1260
   65TMC2    C7 1017   2.154   1.681  15.098 -0.1906 -0.0069 -0.4889
   65TMC2    C8 1018   2.325   1.410  14.747  0.1142 -0.0032 -0.4811
   65TMC2    O1 1019   2.115   1.760  15.022 -0.4517  0.1316  0.0938
   65TMC2    O2 1020   2.376   1.304  14.708  0.4948 -0.0854 -0.5010
   65TMC2    O5 1021   2.332   1.531  14.691  0.8473 -0.3297  0.1169
   65TMC2    H5 1022   2.329   1.612  14.748  1.6525  0.1018 -0.4662
   66MPD2     C 1023   2.557   1.145  15.372 -0.1359 -0.2983 -0.4282
   66MPD2    C1 1024   2.494   1.074  15.272  0.6596 -0.0332 -0.0866
   66MPD2    C2 1025   2.537   0.947  15.245 -0.4067  0.1891  0.0686
   66MPD2    C3 1026   2.628   0.887  15.332 -0.2050 -0.7637  0.4316
   66MPD2    C4 1027   2.675   0.956  15.440  0.1372 -0.1488  0.4605
   66MPD2    C5 1028   2.628   1.082  15.469 -0.3028  0.0924  0.2384
   66MPD2     H 1029   2.499   0.894  15.159 -0.2252 -0.9504  0.6900
   66MPD2    H1 1030   2.745   0.919  15.514  2.4307  1.3277 -0.9471
   66MPD2    H2 1031   2.547   1.253  15.383  0.1961 -0.3227  0.0771
   66MPD2    H3 1032   2.684   1.136  15.545  0.1425  0.0576 -0.0692
   66MPD2     N 1033   2.667   0.758  15.301  0.4341 -0.4394 -0.2836
   66MPD2    H5 1034   2.633   0.716  15.215  3.2535  1.2748 -2.2275
   66MPD2    N1 1035   2.409   1.137  15.182 -0.3005 -0.4182 -0.0338
   66MPD2    H7 1036   2.385   1.088  15.096  0.7720 -0.9109 -0.0513
   67TMC2    C1 1037   3.568   0.297  14.523  0.6276  0.0690 -0.5317
   67TMC2    C2 1038   3.446   0.348  14.551  0.5280  0.4027 -0.5867
   67TMC2    C3 1039   3.447   0.460  14.634  0.3768  0.2025 -0.3650
   67TMC2    C4 1040   3.686   0.341  14.581 -0.2100 -0.5366 -0.7387
   67TMC2    C5 1041   3.680   0.438  14.673  1.2967 -0.6859  0.0097
   67TMC2    C6 1042   3.563   0.500  14.694 -0.2669  0.2620 -0.1148
   67TMC2     C 1043   3.583   0.200  14.412  0.1329 -0.0401 -0.2837
   67TMC2     O 1044   3.697   0.180  14.376  0.4077  0.3941 -0.0814
   67TMC2     H 1045   3.354   0.319  14.501  0.4544 -1.4326  0.5916
   67TMC2    H1 1046   3.782   0.309  14.543 -0.6347 -1.2657 -1.1931
   67TMC2    H2 1047   3.560   0.587  14.758  2.2926  0.5129 -0.3660
   67TMC2    C7 1048   3.806   0.486  14.725  0.1022  0.8151  0.7019
   67TMC2    C8 1049   3.338   0.544  14.615  0.6117  0.5861  0.1354
   67TMC2    O1 1050   3.903   0.443  14.658 -0.2547 -0.0620 -0.5775
   67TMC2    O2 1051   3.269   0.555  14.512 -0.0856 -0.6937 -0.2144
   67TMC2    O5 1052   3.311   0.589  14.734 -0.9929  0.3173  0.3348
   67TMC2    H5 1053   3.365   0.554  14.808  1.0010 -0.5057 -1.5143
   68MPD2     C 1054   3.531   4.717  14.193  0.0085  0.2363  0.8890
   68MPD2    C1 1055   3.441   0.042  14.268 -0.4344  0.5111 -0.7597
   68MPD2    C2 1056   3.310   0.021  14.245 -0.2640 -0.0340 -0.7392
   68MPD2    C3 1057   3.260   4.664  14.154 -0.5590 -0.2735  0.0258
   68MPD2    C4 1058   3.359   4.589  14.083 -0.0162 -0.3894  0.5779
   68MPD2    C5 1059   3.492   4.622  14.105 -0.0580 -0.9092 -0.1475
   68MPD2     H 1060   3.239   0.078  14.304  0.9704  0.4826  0.2432
   68MPD2    H1 1061   3.337   4.512  14.011  0.3102 -0.3749  0.4633
   68MPD2    H2 1062   3.634   0.011  14.202 -0.3932  2.7083 -2.7226
   68MPD2    H3 1063   3.572   4.569  14.054  1.2541  2.5065 -1.6744
   68MPD2     N 1064   3.122   4.649  14.126  0.2116  0.4369 -0.2666
   68MPD2    H5 1065   3.090   4.594  14.047  3.8356  2.5046 -3.2511
   68MPD2    N1 1066   3.470   0.145  14.361  0.2507  0.3735 -0.8685
   68MPD2    H7 1067   3.389   0.184  14.407  0.1034 -0.2793 -0.5778
   69TMC2    C1 1068   0.630   1.403  12.560  0.6545 -0.5914  0.4160
   69TMC2    C2 1069   0.506   1.436  12.531  0.3323  0.2949 -1.0722
   69TMC2    C3 1070   0.480   1.468  12.401 -0.3908 -0.2717 -1.0066
   69TMC2    C4 1071   0.735   1.405  12.475 -0.4138 -0.6120 -0.0574
   69TMC2    C5 1072   0.714   1.452  12.352  0.1875  0.2263 -0.0716
   69TMC2    C6 1073   0.586   1.492  12.314  0.5992  0.1350  0.6537
   69TMC2     C 1074   0.646   1.379  12.703 -0.6513  0.3499 -0.0713
   69TMC2     O 1075   0.557   1.310  12.757  0.0276 -0.1115  0.0697
   69TMC2     H 1076   0.433   1.435  12.611  0.1009  1.4144 -1.2765
   69TMC2    H1 1077   0.835   1.372  12.501 -0.4960  0.5269  1.6324
   69TMC2    H2 1078   0.558   1.537  12.220 -0.9939 -1.8130  0.1781
   69TMC2    C7 1079   0.832   1.473  12.268  0.1811 -0.2055  0.1256
   69TMC2    C8 1080   0.357   1.451  12.351  0.0732  0.1364  0.5329
   69TMC2    O1 1081   0.935   1.419  12.307 -0.0870  0.5799  0.9251
   69TMC2    O2 1082   0.260   1.444  12.421 -0.0159 -0.0291 -0.1416
   69TMC2    O5 1083   0.378   1.366  12.246 -0.0562 -0.7760 -0.1934
   69TMC2    H5 1084   0.453   1.393  12.188 -0.5322  0.7590 -0.0712
   70MPD2     C 1085   0.949   1.460  12.903  0.4910  0.1207  0.1950
   70MPD2    C1 1086   0.824   1.406  12.880 -0.4056 -0.2345 -0.6975
   70MPD2    C2 1087   0.760   1.343  12.982 -0.0334  0.9532 -0.3995
   70MPD2    C3 1088   0.825   1.308  13.103 -0.5932 -0.2303  0.3561
   70MPD2    C4 1089   0.950   1.349  13.114 -0.0868 -0.0176 -0.2510
   70MPD2    C5 1090   1.011   1.427  13.020 -0.3818  0.5755  0.6200
   70MPD2     H 1091   0.657   1.318  12.959  0.2890 -1.1764  0.4757
   70MPD2    H1 1092   1.000   1.317  13.205  0.3812  1.0915 -0.1146
   70MPD2    H2 1093   1.003   1.515  12.827 -2.0762  3.0365  0.4802
   70MPD2    H3 1094   1.114   1.457  13.031  0.1661 -1.2966  0.6694
   70MPD2     N 1095   0.769   1.231  13.216  0.3051 -0.3224  0.3280
   70MPD2    H5 1096   0.821   1.227  13.303 -0.0115 -2.2006  0.4217
   70MPD2    N1 1097   0.769   1.426  12.752  0.3392  0.4969  0.0069
   70MPD2    H7 1098   0.829   1.485  12.695 -0.7472  0.9936 -0.6246
   71TMC2    C1 1099   1.782   2.429   1.662 -0.0076  0.0491  0.8974
   71TMC2    C2 1100   1.869   2.488   1.752  0.2014  0.7067 -0.0747
   71TMC2    C3 1101   1.803   2.548   1.860  0.4475 -0.6365 -0.4283
   71TMC2    C4 1102   1.642   2.431   1.675 -0.4659 -0.3161  0.5574
   71TMC2    C5 1103   1.590   2.496   1.782  0.5679  0.0580 -0.2189
   71TMC2    C6 1104   1.671   2.543   1.884  0.0281 -0.3059 -0.2446
   71TMC2     C 1105   1.842   2.351   1.552 -0.1203  0.3469  0.8240
   71TMC2     O 1106   1.952   2.303   1.578 -0.1156  0.1221  0.3855
   71TMC2     H 1107   1.976   2.472   1.750  0.1695  0.2999  1.4998
   71TMC2    H1 1108   1.583   2.364   1.613  2.3480  0.5936 -3.0716
   71TMC2    H2 1109   1.622   2.597   1.964  2.0720  2.6028 -0.9158
   71TMC2    C7 1110   1.443   2.494   1.788  0.4489 -0.4498  0.3165
   71TMC2    C8 1111   1.891   2.578   1.974 -0.2062  0.0981  0.2892
   71TMC2    O1 1112   1.393   2.505   1.898  0.5845 -0.2097 -0.0266
   71TMC2    O2 1113   2.012   2.558   1.965 -0.3781 -0.3236 -0.2733
   71TMC2    O5 1114   1.843   2.689   2.029 -0.3641  0.7315  0.5143
   71TMC2    H5 1115   1.751   2.702   1.997 -0.3533 -1.7542 -0.5546
   72MPD2     C 1116   1.814   2.204   1.071 -0.0840  0.3895  0.2202
   72MPD2    C1 1117   1.914   2.182   1.158  0.2871 -0.7456 -0.0072
   72MPD2    C2 1118   1.892   2.228   1.286 -0.0369  0.7729  0.7473
   72MPD2    C3 1119   1.780   2.302   1.319 -0.8332  0.4574 -0.1525
   72MPD2    C4 1120   1.688   2.325   1.225 -0.1305 -0.4674 -0.4194
   72MPD2    C5 1121   1.700   2.270   1.104 -0.9910 -0.2261  0.9924
   72MPD2     H 1122   1.969   2.206   1.358  1.0130 -0.6325 -0.7962
   72MPD2    H1 1123   1.599   2.386   1.242  1.6677  2.6061 -1.9608
   72MPD2    H2 1124   1.811   2.166   0.970  1.9312 -1.2698  0.7760
   72MPD2    H3 1125   1.631   2.282   1.022 -0.2371 -0.5437  0.3225
   72MPD2     N 1126   1.754   2.353   1.446 -0.1372 -0.3477  0.1879
   72MPD2    H5 1127   1.682   2.423   1.458 -1.1654 -1.1019 -1.5672
   72MPD2    N1 1128   2.028   2.103   1.133  0.6317 -0.2770 -0.7315
   72MPD2    H7 1129   2.091   2.092   1.212 -0.6997  0.0685  0.3864
   73TMC2    C1 1130   2.260   3.718  14.239  0.4530  0.2444 -0.4721
   73TMC2    C2 1131   2.189   3.606  14.213  0.1004  0.1234 -0.1502
   73TMC2    C3 1132   2.227   3.482  14.266 -1.3360  0.0224  0.0776
   73TMC2    C4 1133   2.365   3.705  14.328  0.9641  0.0726  0.2051
   73TMC2    C5 1134   2.409   3.577  14.370  0.9941 -0.3328  0.5342
   73TMC2    C6 1135   2.331   3.470  14.354 -0.4976 -0.0864  0.2680
   73TMC2     C 1136   2.308   3.780  14.119 -0.3225 -0.4355 -0.1123
   73TMC2     O 1137   2.406   3.726  14.067  0.4299 -0.6219  0.1843
   73TMC2     H 1138   2.108   3.615  14.142  0.0186  1.9282  0.1526
   73TMC2    H1 1139   2.413   3.798  14.352  0.1137  0.2828  1.1293
   73TMC2    H2 1140   2.380   3.379  14.386  0.0145  0.6077  1.4597
   73TMC2    C7 1141   2.553   3.558  14.380  0.1726  0.7768 -0.1251
   73TMC2    C8 1142   2.141   3.378  14.229 -0.3423 -0.1581  0.1774
   73TMC2    O1 1143   2.600   3.458  14.427  0.3804  0.4814  0.3041
   73TMC2    O2 1144   2.046   3.393  14.156 -0.4309 -0.0133 -0.2404
   73TMC2    O5 1145   2.166   3.268  14.311 -0.3254 -0.4020  0.4505
   73TMC2    H5 1146   2.236   3.291  14.375  0.0660 -3.5307  1.1746
   74MPD2     C 1147   2.306   4.116  13.731  0.1238 -0.2775 -0.8499
   74MPD2    C1 1148   2.402   4.029  13.774  1.0040 -0.3845 -0.0208
   74MPD2    C2 1149   2.383   3.949  13.882  0.1984  0.1639 -0.1325
   74MPD2    C3 1150   2.266   3.950  13.949  0.4692 -0.0161 -0.6092
   74MPD2    C4 1151   2.167   4.032  13.905 -0.1811  0.1625  0.3855
   74MPD2    C5 1152   2.187   4.115  13.797  0.0509  0.3505 -0.7449
   74MPD2     H 1153   2.463   3.893  13.929  0.0906 -0.6501 -0.9016
   74MPD2    H1 1154   2.069   4.042  13.949  0.0649  0.1803  0.9217
   74MPD2    H2 1155   2.339   4.179  13.649 -0.9355  1.8425  0.3510
   74MPD2    H3 1156   2.111   4.184  13.764  1.2697  1.9155 -0.2943
   74MPD2     N 1157   2.224   3.868  14.057 -0.7002 -0.7380 -0.2669
   74MPD2    H5 1158   2.132   3.896  14.090  0.6735  0.9553  2.0607
   74MPD2    N1 1159   2.536   4.023  13.722  0.0534 -0.1504  0.0303
   74MPD2    H7 1160   2.544   4.062  13.629  0.8546 -1.1083 -0.3029
   75TMC2    C1 1161   2.892   4.695  14.139  0.5793  0.6183  0.0127
   75TMC2    C2 1162   2.785   4.692  14.225 -0.2229 -0.2632  0.1734
   75TMC2    C3 1163   2.662   4.696  14.171  0.2485  0.1605  0.3372
   75TMC2    C4 1164   2.874   4.702  14.004  0.2473 -0.6239 -0.3051
   75TMC2    C5 1165   2.745   4.701  13.950 -0.8036 -0.0359 -0.3893
   75TMC2    C6 1166   2.633   4.701  14.033  0.4228  0.3199 -0.6499
   75TMC2     C 1167   3.025   4.708  14.201  0.0508 -0.1379  0.5983
   75TMC2     O 1168   3.039   0.003  14.318  0.5293 -0.5785 -0.3245
   75TMC2     H 1169   2.805   4.688  14.332 -2.6688 -1.5689  0.5680
   75TMC2    H1 1170   2.959   4.715  13.939  0.7518 -0.2648  0.4286
   75TMC2    H2 1171   2.532   4.685  13.999 -0.9224 -0.4255  3.7667
   75TMC2    C7 1172   2.720   4.691  13.811  0.4438 -0.6092  0.2138
   75TMC2    C8 1173   2.546   4.691  14.264  0.6303 -0.0368 -0.6470
   75TMC2    O1 1174   2.608   4.713  13.763 -0.1614  0.3525 -0.4353
   75TMC2    O2 1175   2.448   4.631  14.224  1.1576  0.9304 -0.0932
   75TMC2    O5 1176   2.581   0.000  14.388 -0.2080  0.7489 -0.3805
   75TMC2    H5 1177   2.650   0.068  14.373  0.8763  0.0824  1.7034
   76TMC2    C1 1178   1.589   0.631  12.244 -0.3159 -0.4145  0.1790
   76TMC2    C2 1179   1.458   0.597  12.285  0.0365  0.1340  0.6325
   76TMC2    C3 1180   1.434   0.467  12.323  0.1098  0.2992  0.6637
   76TMC2    C4 1181   1.689   0.539  12.251 -0.2991 -0.5156  0.3923
   76TMC2    C5 1182   1.659   0.413  12.290  0.8527  0.0340  0.0712
   76TMC2    C6 1183   1.529   0.372  12.318 -0.3776  0.1406  0.3223
   76TMC2     C 1184   1.610   0.774  12.215  0.2313  0.2229  0.1387
   76TMC2     O 1185   1.511   0.841  12.200 -0.4867  0.3886 -0.5364
   76TMC2     H 1186   1.374   0.665  12.285 -0.3823 -0.3811  0.8294
   76TMC2    H1 1187   1.784   0.564  12.205 -1.2115  0.9370 -0.7172
   76TMC2    H2 1188   1.518   0.265  12.332  0.1329 -0.0047 -0.3327
   76TMC2    C7 1189   1.757   0.302  12.281 -0.0015 -0.2685 -0.0558
   76TMC2    C8 1190   1.291   0.423  12.336 -0.3124 -0.4234  0.5157
   76TMC2    O1 1191   1.710   0.192  12.271 -0.3062 -0.5508 -0.0415
   76TMC2    O2 1192   1.203   0.480  12.272 -0.2447  0.4937 -0.1665
   76TMC2    O5 1193   1.291   0.297  12.383 -0.6343 -0.6346 -0.0125
   76TMC2    H5 1194   1.380   0.279  12.420 -0.8133 -1.5609 -0.0503
   77MPD2     C 1195   1.934   1.168  12.156 -0.3958  0.1858 -0.2360
   77MPD2    C1 1196   1.799   1.161  12.135 -0.1018  0.1963 -0.6200
   77MPD2    C2 1197   1.728   1.047  12.173  0.1251 -0.2628 -0.1586
   77MPD2    C3 1198   1.799   0.939  12.214  0.4597 -0.0327  0.2519
   77MPD2    C4 1199   1.939   0.940  12.225  0.0434 -0.0930  0.2212
   77MPD2    C5 1200   2.007   1.058  12.197 -0.4875 -0.5301  0.0615
   77MPD2     H 1201   1.621   1.037  12.157  0.1727 -0.4151 -0.3732
   77MPD2    H1 1202   2.003   0.855  12.244 -0.3783 -0.5716 -0.4663
   77MPD2    H2 1203   1.983   1.260  12.126 -0.3267  0.3209  0.2904
   77MPD2    H3 1204   2.116   1.059  12.200 -0.4891 -0.5961  0.1435
   77MPD2     N 1205   1.738   0.815  12.241  0.4578  0.0679 -0.9222
   77MPD2    H5 1206   1.792   0.735  12.273 -0.7449 -0.1948  0.4381
   77MPD2    N1 1207   1.721   1.272  12.076 -0.0034  0.7674 -0.2387
   77MPD2    H7 1208   1.620   1.259  12.069  0.2517  0.0365 -2.5371
   78TMC2    C1 1209   1.767   1.823   1.271 -0.4231  0.2419 -0.2422
   78TMC2    C2 1210   1.652   1.818   1.201 -0.0372 -0.5346  0.3435
   78TMC2    C3 1211   1.660   1.756   1.080 -0.3391 -0.0909 -0.2937
   78TMC2    C4 1212   1.880   1.768   1.219  0.2367 -0.3487  0.5400
   78TMC2    C5 1213   1.886   1.717   1.090 -0.1391 -0.2244  0.7477
   78TMC2    C6 1214   1.773   1.704   1.022  0.2618 -0.0611 -0.4057
   78TMC2     C 1215   1.776   1.888   1.400  0.3977  0.0065  0.0843
   78TMC2     O 1216   1.885   1.872   1.461 -0.0007  0.1497 -0.3753
   78TMC2     H 1217   1.558   1.861   1.233  1.9276  3.5495  0.5141
   78TMC2    H1 1218   1.972   1.775   1.275  0.9711 -2.4052 -0.4058
   78TMC2    H2 1219   1.774   1.660   0.923  4.5847 -1.1097  0.1110
   78TMC2    C7 1220   2.016   1.667   1.033 -0.5298 -0.3929  0.0787
   78TMC2    C8 1221   1.541   1.738   1.000 -0.2968 -0.4597 -0.1099
   78TMC2    O1 1222   2.120   1.698   1.085  0.2770  0.0208  0.2618
   78TMC2    O2 1223   1.429   1.738   1.053 -0.1799 -0.3406  0.4919
   78TMC2    O5 1224   1.566   1.774   0.873  0.2110 -0.1545 -0.6803
   78TMC2    H5 1225   1.661   1.789   0.859 -0.1539  1.1153 -1.7753
   79MPD1     C 1226   1.596   2.111   1.814 -0.3485 -0.2883  0.2223
   79MPD1    C1 1227   1.716   2.047   1.792 -0.1867 -0.3130  0.0781
   79MPD1    C2 1228   1.732   2.005   1.664 -0.0169  0.9462 -0.3716
   79MPD1    C3 1229   1.640   2.005   1.563 -1.1346 -0.1052 -0.2642
   79MPD1    C4 1230   1.520   2.071   1.585  0.1955 -0.0883  0.7149
   79MPD1    C5 1231   1.507   2.124   1.708  0.6955 -0.1462 -0.3972
   79MPD1     H 1232   1.830   1.962   1.647 -0.1928  2.1130 -4.5252
   79MPD1    H1 1233   1.441   2.075   1.511 -0.6673  0.1651  1.6460
   79MPD1    H2 1234   1.583   2.163   1.908 -0.1730  0.6952 -0.2926
   79MPD1    H3 1235   1.420   2.185   1.729 -0.8020 -1.9590 -1.3392
   79MPD1     N 1236   1.662   1.953   1.437  0.5144  0.2507  0.3662
   79MPD1    H5 1237   1.581   1.962   1.377  0.9742 -0.9830 -0.4411
   79MPD1    N1 1238   1.821   2.051   1.889 -1.1284 -0.3963  0.3309
   79MPD1    H6 1239   1.779   2.037   1.980 -2.1775 -1.8426 -0.3601
   79MPD1    H7 1240   1.885   1.972   1.878 -2.5099 -1.7925  2.3345
   80TMC2    C1 1241   0.371   0.146  11.914 -0.0651  0.2720  0.1210
   80TMC2    C2 1242   0.483   0.189  11.975 -0.6292 -0.7143 -0.1372
   80TMC2    C3 1243   0.501   0.167  12.109 -0.4115  0.7601 -0.2272
   80TMC2    C4 1244   0.283   0.073  11.973  0.5976  0.0694  0.3162
   80TMC2    C5 1245   0.298   0.048  12.109  0.2623  0.1237 -0.0238
   80TMC2    C6 1246   0.409   0.103  12.181 -0.0562  0.3444 -0.0939
   80TMC2     C 1247   0.319   0.250  11.828  0.3222 -0.8968  0.4910
   80TMC2     O 1248   0.225   0.215  11.758  0.1804  0.2246  0.1352
   80TMC2     H 1249   0.570   0.222  11.919  0.5155 -1.1630  1.3379
   80TMC2    H1 1250   0.192   0.042  11.924 -0.1679  1.3103  0.9599
   80TMC2    H2 1251   0.435   0.061  12.277 -0.1102  0.5967  0.0296
   80TMC2    C7 1252   0.211   4.694  12.175  0.3761 -0.6227 -0.2653
   80TMC2    C8 1253   0.639   0.189  12.151  0.5045 -0.8912 -0.2373
   80TMC2    O1 1254   0.142   4.620  12.106 -0.6562  0.1887  0.4590
   80TMC2    O2 1255   0.730   0.168  12.071  0.9076  0.0135  0.2216
   80TMC2    O5 1256   0.643   0.159  12.285 -0.7007  0.2861  0.5366
   80TMC2    H5 1257   0.565   0.163  12.345 -1.3995 -1.9814 -0.2190
   81MPD2     C 1258   0.220   0.527  11.750  0.1494  0.2909 -0.0515
   81MPD2    C1 1259   0.311   0.503  11.848 -0.2098  0.6517 -0.4522
   81MPD2    C2 1260   0.353   0.608  11.924  0.7349  0.2925 -0.6223
   81MPD2    C3 1261   0.293   0.733  11.922  0.0710  0.6558  0.4185
   81MPD2    C4 1262   0.198   0.759  11.820  0.2630  0.8664 -0.4171
   81MPD2    C5 1263   0.173   0.653  11.735  0.1105  0.2690 -0.0704
   81MPD2     H 1264   0.420   0.587  12.007 -2.2876 -1.6963  1.2752
   81MPD2    H1 1265   0.141   0.849  11.800  0.2639  0.7648 -0.8633
   81MPD2    H2 1266   0.177   0.459  11.677 -1.9195  0.7332  0.7627
   81MPD2    H3 1267   0.115   0.681  11.648  1.5299 -0.1370 -1.1333
   81MPD2     N 1268   0.304   0.830  12.028  0.1053 -0.2768 -0.4649
   81MPD2    H5 1269   0.251   0.916  12.020 -2.1812 -1.5148  1.3253
   81MPD2    N1 1270   0.360   0.376  11.883 -0.4856 -0.7332  0.1748
   81MPD2    H7 1271   0.422   0.382  11.963  0.1484 -3.6161 -0.0953
   82TMC2    C1 1272   4.097   4.163  11.394  0.1885  0.1110  0.3039
   82TMC2    C2 1273   4.189   4.089  11.319 -0.0616 -0.0143 -0.2753
   82TMC2    C3 1274   4.203   3.957  11.365 -0.1543 -0.6415  0.7634
   82TMC2    C4 1275   4.033   4.118  11.509 -0.4287 -0.9501  0.6090
   82TMC2    C5 1276   4.064   3.991  11.548  0.0338 -0.3281  0.2388
   82TMC2    C6 1277   4.138   3.904  11.475  0.0593 -0.3278 -0.4924
   82TMC2     C 1278   4.084   4.300  11.344  0.1435 -0.7475  0.2435
   82TMC2     O 1279   4.068   4.309  11.224  0.1849  0.4329 -0.3472
   82TMC2     H 1280   4.249   4.132  11.240 -1.7632  0.6324 -1.2165
   82TMC2    H1 1281   3.957   4.170  11.568  2.5596  0.6567  3.0455
   82TMC2    H2 1282   4.136   3.798  11.498  2.2474 -0.0839  0.8077
   82TMC2    C7 1283   3.984   3.944  11.661  0.1248 -0.3341 -0.4238
   82TMC2    C8 1284   4.272   3.870  11.274 -0.2587 -0.1035  0.0323
   82TMC2    O1 1285   3.882   4.005  11.689  0.0536  0.0587  0.5162
   82TMC2    O2 1286   4.287   3.898  11.155 -0.1021  0.0472  0.0033
   82TMC2    O5 1287   4.337   3.774  11.349  0.3083  0.1828  0.0173
   82TMC2    H5 1288   4.296   3.752  11.435 -0.1974 -0.1052 -0.2921
   83MPD2     C 1289   3.943   0.045  11.469 -0.3881  0.6748  0.3402
   83MPD2    C1 1290   3.926   4.709  11.348  0.0303 -0.5949  0.9311
   83MPD2    C2 1291   3.970   4.580  11.341 -0.1610 -0.1604  0.8390
   83MPD2    C3 1292   4.019   4.511  11.452  0.0713  0.6309  0.4957
   83MPD2    C4 1293   4.027   4.582  11.572 -1.0717 -0.3662 -0.2455
   83MPD2    C5 1294   3.998   4.714  11.577  0.0663 -0.0346  0.1101
   83MPD2     H 1295   3.981   4.521  11.251  1.4025  0.9205  0.3260
   83MPD2    H1 1296   4.063   4.530  11.660  2.7887 -0.2989 -1.7897
   83MPD2    H2 1297   3.935   0.153  11.471 -0.6954  0.5806  3.1515
   83MPD2    H3 1298   4.014   0.031  11.670 -1.4418  3.7046 -1.8046
   83MPD2     N 1299   4.069   4.380  11.452 -0.5241  0.7065  0.7448
   83MPD2    H5 1300   4.101   4.338  11.539  0.2162  0.7421  0.4833
   83MPD2    N1 1301   3.870   0.046  11.243 -0.4630  0.2151 -0.4213
   83MPD2    H7 1302   3.846   0.144  11.258  1.2716  0.1630  2.6407
   84TMC2    C1 1303   0.071   3.742  10.658 -0.0181  0.3944 -0.0841
   84TMC2    C2 1304   0.059   3.608  10.627 -0.4393 -0.3774  0.7862
   84TMC2    C3 1305   0.095   3.570  10.499  0.2522  0.2848  0.3948
   84TMC2    C4 1306   0.119   3.833  10.576  0.6689 -0.3219  0.8207
   84TMC2    C5 1307   0.152   3.794  10.444  1.2466  0.3958 -0.1685
   84TMC2    C6 1308   0.137   3.659  10.405 -0.4829  0.1444 -0.1292
   84TMC2     C 1309   0.006   3.793  10.777 -0.2171  0.2349 -0.6285
   84TMC2     O 1310   4.719   3.913  10.790  0.3656 -0.1874  0.1162
   84TMC2     H 1311   0.008   3.534  10.688 -3.2415 -0.7472 -1.9473
   84TMC2    H1 1312   0.124   3.934  10.612 -1.1758 -1.0810  3.2308
   84TMC2    H2 1313   0.171   3.613  10.313  1.0367 -1.4825  1.2573
   84TMC2    C7 1314   0.255   3.871  10.382 -0.0348  0.6081  0.1185
   84TMC2    C8 1315   0.107   3.430  10.461 -0.0271 -0.3196  0.4782
   84TMC2    O1 1316   0.308   3.825  10.284  0.2457 -0.3820 -0.1934
   84TMC2    O2 1317   0.090   3.387  10.345 -0.1008  0.9735 -0.1665
   84TMC2    O5 1318   0.134   3.360  10.576  0.8276  0.4951  0.3864
   84TMC2    H5 1319   0.173   3.408  10.652  1.3118  3.3803 -1.6656
   85TMC2    C1 1320   0.663   2.028  15.917 -0.3297 -0.7660  0.5253
   85TMC2    C2 1321   0.550   2.101  15.879  0.1492  0.6830 -0.3260
   85TMC2    C3 1322   0.564   2.237  15.866  0.3178  0.0944  0.2999
   85TMC2    C4 1323   0.789   2.086  15.911 -0.0823 -0.7450 -0.4467
   85TMC2    C5 1324   0.797   2.223  15.883  0.5176  0.3400 -0.4719
   85TMC2    C6 1325   0.689   2.304  15.870  0.7484  0.1764  0.4438
   85TMC2     C 1326   0.654   1.901  15.981 -0.8088  0.1639 -0.3607
   85TMC2     O 1327   0.756   1.834  15.992  0.4070  0.4095  0.0445
   85TMC2     H 1328   0.451   2.058  15.877  0.3014  0.2801  1.0860
   85TMC2    H1 1329   0.880   2.029  15.926 -0.0319 -0.6416 -0.3639
   85TMC2    H2 1330   0.703   2.407  15.841 -0.1884  0.0319 -0.5076
   85TMC2    C7 1331   0.919   2.264  15.818 -0.0846 -0.0685 -0.2381
   85TMC2    C8 1332   0.445   2.312  15.860  0.2259  0.3383 -0.0625
   85TMC2    O1 1333   0.985   2.173  15.773 -0.1914  0.1551 -0.3371
   85TMC2    O2 1334   0.450   2.423  15.906  0.1541 -0.0012  0.3745
   85TMC2    O5 1335   0.373   2.273  15.752 -0.1057  0.0011 -0.4627
   85TMC2    H5 1336   0.412   2.199  15.700 -0.9891 -0.5704 -0.3123
   86MPD2     C 1337   0.421   1.574  16.306 -0.5276 -0.3760  0.2342
   86MPD2    C1 1338   0.331   1.615  16.204  0.7857 -0.4593 -1.0211
   86MPD2    C2 1339   0.375   1.714  16.118  0.2016  0.4287  0.8025
   86MPD2    C3 1340   0.505   1.762  16.119  0.2103 -0.6926  0.7171
   86MPD2    C4 1341   0.593   1.706  16.203  0.0647 -0.0403 -0.1554
   86MPD2    C5 1342   0.551   1.618  16.301  0.2456 -0.0395  0.0851
   86MPD2     H 1343   0.306   1.744  16.040  2.4486  0.7324 -1.0931
   86MPD2    H1 1344   0.694   1.745  16.207 -0.1291  0.5200 -0.8502
   86MPD2    H2 1345   0.388   1.508  16.385  0.9524 -0.9101  0.3998
   86MPD2    H3 1346   0.620   1.592  16.381 -0.3475  1.1938  0.9786
   86MPD2     N 1347   0.532   1.869  16.028 -0.3101  0.5620  0.0847
   86MPD2    H5 1348   0.451   1.916  15.989 -1.1475 -0.1518  0.9640
   86MPD2    N1 1349   0.204   1.550  16.191 -0.6228  0.4357 -0.5947
   86MPD2    H7 1350   0.146   1.580  16.113 -3.2151  0.8282  1.4842
   87TMC2    C1 1351   2.550   0.394   0.343 -0.2358 -0.0242  0.3345
   87TMC2    C2 1352   2.607   0.488   0.427 -0.0501 -0.5859 -0.2928
   87TMC2    C3 1353   2.534   0.591   0.468  0.1956 -0.3062  0.1654
   87TMC2    C4 1354   2.417   0.397   0.322 -0.4343 -0.1062 -0.6750
   87TMC2    C5 1355   2.338   0.493   0.378 -0.0486  1.0214 -0.2035
   87TMC2    C6 1356   2.398   0.595   0.449 -0.1045 -0.1370  0.1717
   87TMC2     C 1357   2.645   0.316   0.266 -0.3252  0.0422  0.6819
   87TMC2     O 1358   2.763   0.353   0.268 -0.1016  0.4767 -0.3318
   87TMC2     H 1359   2.712   0.489   0.455  0.0530  0.8840 -0.7400
   87TMC2    H1 1360   2.376   0.325   0.253  1.0286 -0.3725 -1.2710
   87TMC2    H2 1361   2.340   0.682   0.478  0.9943 -0.1243  2.3103
   87TMC2    C7 1362   2.200   0.505   0.345  0.1914 -0.5669  0.1849
   87TMC2    C8 1363   2.596   0.680   0.569  0.3640 -0.7553  0.0914
   87TMC2    O1 1364   2.148   0.613   0.364 -0.3123  0.4142 -0.0681
   87TMC2    O2 1365   2.715   0.699   0.566  0.3448 -0.0561 -0.6853
   87TMC2    O5 1366   2.502   0.737   0.647  0.2950 -0.3399  0.5690
   87TMC2    H5 1367   2.412   0.703   0.630  0.4711  0.8224 -2.7845
   88MPD2     C 1368   1.992   0.258   0.164  0.2307 -0.0946  0.0885
   88MPD2    C1 1369   2.036   0.381   0.202 -0.0092  0.6701 -0.5943
   88MPD2    C2 1370   1.958   0.485   0.156 -0.2353 -0.0605 -0.5851
   88MPD2    C3 1371   1.838   0.457   0.079 -0.2590 -0.0381 -0.0296
   88MPD2    C4 1372   1.803   0.328   0.056 -0.0710  0.7180 -0.0630
   88MPD2    C5 1373   1.876   0.231   0.098 -0.1866 -0.1964 -0.2470
   88MPD2     H 1374   1.995   0.586   0.166 -0.2495 -0.0691 -0.4451
   88MPD2    H1 1375   1.715   0.310  17.740  0.1986  2.7204 -1.0311
   88MPD2    H2 1376   2.044   0.169   0.198 -0.0614  0.1632  1.2004
   88MPD2    H3 1377   1.840   0.129   0.094 -2.7901  0.6772  0.7194
   88MPD2     N 1378   1.760   0.558   0.024 -0.3360  0.2071 -0.1755
   88MPD2    H5 1379   1.683   0.521  17.715  0.3277 -0.5235 -0.6184
   88MPD2    N1 1380   2.152   0.394   0.277 -0.1305  0.2497 -0.4239
   88MPD2    H7 1381   2.213   0.312   0.280 -1.2239 -0.5754 -0.8101
   89TMC2    C1 1382   3.928   3.044   1.597 -0.7998 -0.1304 -0.1656
   89TMC2    C2 1383   4.006   3.047   1.488 -0.4643 -0.8500 -0.0248
   89TMC2    C3 1384   4.025   3.169   1.428 -0.0481 -0.2673 -1.0279
   89TMC2    C4 1385   3.860   3.153   1.647  0.6388  0.1119 -0.1403
   89TMC2    C5 1386   3.889   3.276   1.591  0.5445  0.1023 -0.1388
   89TMC2    C6 1387   3.963   3.288   1.478  0.3354 -0.5337 -0.2112
   89TMC2     C 1388   3.890   2.916   1.642 -0.3488  0.6076  0.2531
   89TMC2     O 1389   3.971   2.831   1.608 -0.1114 -0.7486  0.0431
   89TMC2     H 1390   4.064   2.963   1.453  0.4731  0.0763 -0.6893
   89TMC2    H1 1391   3.856   3.151   1.756  1.8262  0.0728 -0.1027
   89TMC2    H2 1392   4.005   3.385   1.452 -0.0066 -1.1457 -3.0628
   89TMC2    C7 1393   3.846   3.393   1.666 -0.0078 -0.9059  0.3286
   89TMC2    C8 1394   4.132   3.183   1.333 -0.4731  0.0587 -0.4558
   89TMC2    O1 1395   3.840   3.389   1.786  0.7320 -0.3232  0.2766
   89TMC2    O2 1396   4.240   3.140   1.368  0.3510  0.0986 -0.3537
   89TMC2    O5 1397   4.114   3.291   1.264 -0.2836 -0.1398  0.0615
   89TMC2    H5 1398   4.019   3.313   1.262 -0.0420  0.9156  0.1910
   90MPD2     C 1399   3.565   2.559   1.802  0.3261  0.0984  0.6883
   90MPD2    C1 1400   3.517   2.679   1.847  0.8155 -0.1830 -0.1936
   90MPD2    C2 1401   3.588   2.794   1.813 -0.0869 -0.5678 -0.8435
   90MPD2    C3 1402   3.709   2.786   1.741 -0.3179  0.1665  0.5332
   90MPD2    C4 1403   3.751   2.665   1.691  0.5470 -0.0103 -0.0729
   90MPD2    C5 1404   3.682   2.558   1.725  0.0067  0.1425  0.2008
   90MPD2     H 1405   3.552   2.892   1.844 -2.3723 -1.8579  0.5478
   90MPD2    H1 1406   3.833   2.654   1.621  0.7553  0.7340  0.0511
   90MPD2    H2 1407   3.522   2.461   1.821  0.4017  0.0453  0.5856
   90MPD2    H3 1408   3.736   2.467   1.704 -2.0988  0.0374 -4.7628
   90MPD2     N 1409   3.779   2.907   1.713 -0.4196  0.0346  0.5685
   90MPD2    H5 1410   3.735   2.993   1.744 -1.3189 -1.5086  3.6112
   90MPD2    N1 1411   3.402   2.703   1.918  0.0180  0.0181  0.0975
   90MPD2    H7 1412   3.380   2.798   1.948  1.0457  0.3509 -0.1851
   91TMC2    C1 1413   4.647   2.969  16.772 -0.1690 -0.3261 -0.2655
   91TMC2    C2 1414   0.019   3.044  16.807 -0.1585  0.0119  0.4581
   91TMC2    C3 1415   0.019   3.177  16.763 -0.1481 -0.1037 -0.7991
   91TMC2    C4 1416   4.545   3.017  16.703  0.1821 -0.5581 -0.1831
   91TMC2    C5 1417   4.550   3.144  16.663  0.2455  0.5393  0.9574
   91TMC2    C6 1418   4.654   3.229  16.690 -0.1310 -0.2908  0.1018
   91TMC2     C 1419   4.655   2.825  16.808 -0.2772 -0.1742  0.4960
   91TMC2     O 1420   4.549   2.767  16.819  0.0193 -0.7333 -0.2988
   91TMC2     H 1421   0.078   3.014  16.893  1.2978 -0.7289 -0.8263
   91TMC2    H1 1422   4.467   2.946  16.678  2.0365 -2.8264  0.4589
   91TMC2    H2 1423   4.658   3.333  16.659  1.0442 -0.8172 -1.4785
   91TMC2    C7 1424   4.443   3.186  16.577  0.4531 -0.0645  0.4900
   91TMC2    C8 1425   0.085   3.278  16.845  0.4570 -0.0775 -0.0180
   91TMC2    O1 1426   4.326   3.182  16.623  0.1194 -0.1244  0.2512
   91TMC2    O2 1427   0.046   3.393  16.851 -0.0517  0.1561 -0.1564
   91TMC2    O5 1428   0.199   3.229  16.894 -0.2671  0.2885  0.1552
   91TMC2    H5 1429   0.235   3.161  16.833  0.0733 -1.6846  2.5035
   92MPD2     C 1430   0.009   2.534  16.812 -1.1238  0.3256  0.1707
   92MPD2    C1 1431   0.083   2.645  16.829  0.4419 -0.5492  0.2183
   92MPD2    C2 1432   0.222   2.631  16.837 -0.0104 -0.2161 -0.9725
   92MPD2    C3 1433   0.280   2.506  16.837  0.6129  0.5064  0.0392
   92MPD2    C4 1434   0.202   2.398  16.811 -0.1618  0.0584  0.5737
   92MPD2    C5 1435   0.069   2.413  16.806 -0.3326 -0.9744  0.0739
   92MPD2     H 1436   0.275   2.725  16.835 -1.6126  0.7607  1.9340
   92MPD2    H1 1437   0.252   2.302  16.805 -0.5761 -0.1557  0.4977
   92MPD2    H2 1438   4.641   2.546  16.786 -1.8486 -2.5868  1.7864
   92MPD2    H3 1439   0.009   2.325  16.784  0.7836 -1.1564 -2.1484
   92MPD2     N 1440   0.422   2.492  16.853 -0.0975 -0.5572  0.3361
   92MPD2    H5 1441   0.453   2.399  16.828  1.1571  0.4314 -1.8137
   92MPD2    N1 1442   0.047   2.776  16.820 -0.1454 -0.2941 -0.6463
   92MPD2    H7 1443   0.116   2.850  16.823  0.0207 -0.4404 -0.9062
   93TMC2    C1 1444   2.826   3.335  14.070 -0.2589  0.0879 -0.2232
   93TMC2    C2 1445   2.735   3.399  13.993 -0.6071  0.8545  1.1357
   93TMC2    C3 1446   2.794   3.457  13.884  0.0086  0.6930  0.3189
   93TMC2    C4 1447   2.962   3.325  14.032 -0.7726 -0.9827  0.2841
   93TMC2    C5 1448   3.001   3.385  13.919  0.0456 -0.3497 -0.7389
   93TMC2    C6 1449   2.922   3.462  13.844 -0.0594 -0.5007  0.0444
   93TMC2     C 1450   2.777   3.253  14.189 -0.0188 -0.5341  0.4438
   93TMC2     O 1451   2.865   3.209  14.260 -0.1371  0.1798 -0.0531
   93TMC2     H 1452   2.631   3.415  14.019 -1.5010 -2.3453 -0.5419
   93TMC2    H1 1453   3.030   3.263  14.089 -0.2203 -1.5532 -1.0125
   93TMC2    H2 1454   2.954   3.484  13.743  1.9137 -1.1486  0.5253
   93TMC2    C7 1455   3.126   3.366  13.873  0.1594 -0.1172 -0.4513
   93TMC2    C8 1456   2.698   3.496  13.788  0.4743  0.0870  0.3181
   93TMC2    O1 1457   3.164   3.251  13.863  0.3307  0.9405  0.2095
   93TMC2    O2 1458   2.690   3.611  13.742 -0.4017 -0.4262  0.1100
   93TMC2    O5 1459   2.627   3.394  13.755  0.2371 -0.5956  0.4903
   93TMC2    H5 1460   2.660   3.314  13.803 -0.5669 -0.1189  1.8349
   94MPD2     C 1461   2.609   3.155  14.413 -0.2000  0.2136  0.5358
   94MPD2    C1 1462   2.584   3.139  14.281 -1.0886 -0.4392  0.5088
   94MPD2    C2 1463   2.466   3.074  14.241 -0.3227  0.3878  0.1814
   94MPD2    C3 1464   2.383   3.011  14.334  0.5658  0.1900  0.1004
   94MPD2    C4 1465   2.414   3.028  14.468  0.1301 -0.1230 -0.5769
   94MPD2    C5 1466   2.521   3.105  14.504 -0.0313 -0.0001  0.7434
   94MPD2     H 1467   2.445   3.078  14.134  0.2475  2.5942  0.1470
   94MPD2    H1 1468   2.354   2.988  14.548  1.7138  1.4254  1.3606
   94MPD2    H2 1469   2.697   3.212  14.441 -0.0963  0.9381 -1.2601
   94MPD2    H3 1470   2.544   3.114  14.610  0.4284 -1.0895  0.7454
   94MPD2     N 1471   2.265   2.938  14.306 -0.0432 -0.5018  0.0574
   94MPD2    H5 1472   2.209   2.899  14.381 -0.8812  0.9180  0.1626
   94MPD2    N1 1473   2.652   3.209  14.175  0.1155 -0.2845 -0.2968
   94MPD2    H7 1474   2.607   3.218  14.084 -4.4861  2.7453  2.2257
   95TMC2    C1 1475   3.298   4.445  14.816  0.4786 -0.6472 -0.6500
   95TMC2    C2 1476   3.277   4.435  14.683  0.3714  0.4980  0.5178
   95TMC2    C3 1477   3.236   4.311  14.636  0.1161 -0.3851 -0.3205
   95TMC2    C4 1478   3.305   4.338  14.898 -0.2032 -0.1165  0.1787
   95TMC2    C5 1479   3.273   4.215  14.841 -0.3182  0.6221 -0.1128
   95TMC2    C6 1480   3.220   4.205  14.717 -0.9659  0.2329 -0.7405
   95TMC2     C 1481   3.291   4.579  14.867 -0.0599  0.0640 -0.1783
   95TMC2     O 1482   3.246   4.671  14.810  1.0423 -0.0795 -0.1553
   95TMC2     H 1483   3.296   4.524  14.623  2.3563 -0.2022  0.0873
   95TMC2    H1 1484   3.327   4.341  15.004 -0.0371  0.5161  0.1270
   95TMC2    H2 1485   3.200   4.107  14.675 -0.1950 -0.8997  1.5368
   95TMC2    C7 1486   3.328   4.088  14.880 -0.5348 -0.1205  0.1790
   95TMC2    C8 1487   3.228   4.287  14.495  0.3944 -0.2763 -0.6394
   95TMC2    O1 1488   3.272   3.981  14.864 -0.4198  0.3759 -0.5925
   95TMC2    O2 1489   3.230   4.173  14.448  0.4915  0.1921 -0.5190
   95TMC2    O5 1490   3.189   4.398  14.424  0.1319  0.6174  0.2082
   95TMC2    H5 1491   3.160   4.473  14.481  2.3374  1.2964  0.4407
   96MPD2     C 1492   3.327   0.156  15.268 -0.0610 -0.1495  0.6663
   96MPD2    C1 1493   3.225   0.136  15.180 -0.9153 -0.4470 -0.6589
   96MPD2    C2 1494   3.241   0.040  15.079 -0.1182 -0.0034  0.4687
   96MPD2    C3 1495   3.356   4.704  15.070  0.1186 -0.3601  0.4959
   96MPD2    C4 1496   3.465   0.001  15.153  0.0298  0.4088 -0.7306
   96MPD2    C5 1497   3.445   0.091  15.251  0.3701  0.0074 -0.0291
   96MPD2     H 1498   3.160   0.017  15.011 -0.1298 -0.3628  0.6011
   96MPD2    H1 1499   3.558   4.688  15.129  0.2955  2.3604 -3.7505
   96MPD2    H2 1500   3.334   0.234  15.344 -0.5034  0.4306  0.1173
   96MPD2    H3 1501   3.529   0.111  15.317 -2.3199  3.0150  2.4383
   96MPD2     N 1502   3.363   4.592  14.984  0.4023  0.4887  0.1308
   96MPD2    H5 1503   3.438   4.529  15.009  0.1659 -0.0313 -0.4623
   96MPD2    N1 1504   3.098   0.202  15.194 -0.8597  0.2745  0.3150
   96MPD2    H7 1505   3.024   0.162  15.137 -1.3349  0.1072  1.0546
   97TMC2    C1 1506   4.541   2.139   0.404  0.0057  0.2383 -0.7534
   97TMC2    C2 1507   4.643   2.048   0.410 -0.4667  0.1343 -1.1003
   97TMC2    C3 1508   0.020   2.088   0.344 -0.0071 -0.0757  0.1087
   97TMC2    C4 1509   4.549   2.254   0.334  0.1217  0.0043  0.2788
   97TMC2    C5 1510   4.661   2.282   0.269 -0.1913  0.1893 -0.1019
   97TMC2    C6 1511   0.039   2.205   0.274 -0.1189 -0.1779 -0.0560
   97TMC2     C 1512   4.457   2.139   0.523 -0.0035 -0.1090  0.2077
   97TMC2     O 1513   4.405   2.031   0.558 -0.8034  0.0947 -0.1811
   97TMC2     H 1514   4.647   1.963   0.477  1.4159 -0.2337 -1.6627
   97TMC2    H1 1515   4.457   2.310   0.335 -0.7775 -1.4219 -2.4234
   97TMC2    H2 1516   0.132   2.228   0.224 -0.2663 -0.2431 -0.3574
   97TMC2    C7 1517   4.675   2.424   0.231  0.3370 -0.0066 -0.6217
   97TMC2    C8 1518   0.143   2.012   0.368  0.1568  0.2679 -0.0287
   97TMC2    O1 1519   0.054   2.460   0.224  0.1868 -0.1358 -0.2212
   97TMC2    O2 1520   0.170   1.950   0.475 -0.5630  0.0051  0.5238
   97TMC2    O5 1521   0.228   2.003   0.257 -0.3498  0.2376 -0.1249
   97TMC2    H5 1522   0.194   2.054   0.181  2.2818 -0.2199 -1.6314
   98MPD2     C 1523   4.349   2.354   0.982  0.6185  0.0029 -0.9143
   98MPD2    C1 1524   4.313   2.237   0.928 -0.2652 -1.1467 -0.3828
   98MPD2    C2 1525   4.356   2.196   0.798  0.4361 -0.3332 -0.2520
   98MPD2    C3 1526   4.425   2.286   0.718  0.4637 -0.1001 -0.2237
   98MPD2    C4 1527   4.455   2.406   0.776  0.1948  0.4412  0.3027
   98MPD2    C5 1528   4.419   2.439   0.905  0.2621  0.1665 -0.1326
   98MPD2     H 1529   4.338   2.094   0.766 -2.1501  0.7683 -2.2754
   98MPD2    H1 1530   4.519   2.471   0.718 -0.7249 -0.4033 -1.6624
   98MPD2    H2 1531   4.334   2.396   1.081 -0.5178 -1.8090 -0.3198
   98MPD2    H3 1532   4.457   2.533   0.943 -0.0961  0.4577 -0.4890
   98MPD2     N 1533   4.474   2.261   0.590 -0.4565  0.6089  0.2347
   98MPD2    H5 1534   4.538   2.324   0.543  0.9775 -0.5600  0.6264
   98MPD2    N1 1535   4.241   2.156   1.017 -0.2563  0.0625  0.1278
   98MPD2    H7 1536   4.212   2.202   1.103  0.4651  1.6670 -0.4967
   99TMC2    C1 1537   2.893   4.641   1.055 -0.3994 -1.1092 -0.0898
   99TMC2    C2 1538   2.910   4.512   1.005  0.7061  0.6490  0.3420
   99TMC2    C3 1539   2.823   4.483   0.898 -0.0619  0.2416 -0.3256
   99TMC2    C4 1540   2.799   4.730   1.010  0.5945 -0.3352  0.4595
   99TMC2    C5 1541   2.720   4.695   0.906  0.0335 -0.4731  0.6619
   99TMC2    C6 1542   2.732   4.571   0.844 -0.0404 -0.8368 -0.1928
   99TMC2     C 1543   2.962   4.686   1.172 -0.2755  0.0387 -0.7137
   99TMC2     O 1544   2.954   0.069   1.196  0.2716  0.2195  0.2153
   99TMC2     H 1545   3.001   4.457   1.026 -0.1491 -1.7642 -2.2814
   99TMC2    H1 1546   2.776   0.085   1.062 -1.5427 -0.6115  0.0308
   99TMC2    H2 1547   2.679   4.536   0.756  0.6462 -0.0365 -0.9208
   99TMC2    C7 1548   2.585   0.015   0.908 -0.1315 -0.1937  0.2134
   99TMC2    C8 1549   2.857   4.385   0.798  0.9924 -0.4963 -0.3984
   99TMC2    O1 1550   2.568   0.129   0.936 -0.7355  0.4435  0.6047
   99TMC2    O2 1551   2.848   4.410   0.677 -0.1690 -0.1939  0.0729
   99TMC2    O5 1552   2.946   4.296   0.847  0.3971 -0.7632 -0.5376
   99TMC2    H5 1553   2.909   4.290   0.938 -0.8494 -1.9233 -1.1310
  100MPD2     C 1554   3.162   4.719   1.394 -0.5982  0.6103  0.7669
  100MPD2    C1 1555   3.128   4.603   1.337  0.4257 -0.5010  0.1804
  100MPD2    C2 1556   3.187   4.489   1.380  0.3366  0.1352  0.1629
  100MPD2    C3 1557   3.299   4.494   1.468 -0.5849 -0.2095 -0.6406
  100MPD2    C4 1558   3.333   4.614   1.525  0.5871 -0.2168  0.1370
  100MPD2    C5 1559   3.266   4.731   1.487  0.2112 -0.0617  0.7096
  100MPD2     H 1560   3.160   4.394   1.337  1.1083  0.3980 -0.9338
  100MPD2    H1 1561   3.424   4.619   1.585  0.3721 -0.0781  0.4514
  100MPD2    H2 1562   3.102   0.072   1.383  2.0661  2.3292  0.4283
  100MPD2    H3 1563   3.290   0.084   1.543  1.4906  1.4468 -2.2841
  100MPD2     N 1564   3.360   4.370   1.489  0.3198  0.4505 -0.2334
  100MPD2    H5 1565   3.336   4.295   1.424  2.8877 -0.4345 -0.1438
  100MPD2    N1 1566   3.033   4.584   1.231 -0.4256  0.1986  0.0455
  100MPD2    H7 1567   3.027   4.486   1.205  3.2416 -0.5821  2.2173
  101TMC2    C1 1568   4.306   0.585  13.381  0.2003 -0.5299 -0.1271
  101TMC2    C2 1569   4.296   0.596  13.513  0.5455  0.0094  0.3824
  101TMC2    C3 1570   4.347   0.710  13.571  0.3402  0.1850 -0.1212
  101TMC2    C4 1571   4.361   0.687  13.302 -0.4884 -0.2031  0.3438
  101TMC2    C5 1572   4.411   0.792  13.368  1.0177 -0.3346  0.8520
  101TMC2    C6 1573   4.412   0.802  13.501  0.6892 -0.6241  0.3187
  101TMC2     C 1574   4.200   0.505  13.334  0.4840  0.4794 -1.0018
  101TMC2     O 1575   4.094   0.512  13.396  0.0629 -0.5206  0.0715
  101TMC2     H 1576   4.230   0.530  13.567 -0.4894  1.6709  1.1510
  101TMC2    H1 1577   4.338   0.680  13.196 -1.5366  0.9647  0.4884
  101TMC2    H2 1578   4.445   0.893  13.550 -2.2936  0.1231  0.8882
  101TMC2    C7 1579   4.440   0.904  13.282  0.3449 -0.3351 -0.2178
  101TMC2    C8 1580   4.323   0.723  13.713  0.6211 -0.0583 -0.5268
  101TMC2    O1 1581   4.435   0.881  13.161  0.3398  0.0292 -0.1047
  101TMC2    O2 1582   4.289   0.631  13.785  0.3142  0.2230 -0.0601
  101TMC2    O5 1583   4.303   0.851  13.743 -0.6534 -0.0038  0.1619
  101TMC2    H5 1584   4.311   0.916  13.670  0.1124 -1.0032 -0.6438
  102MPD2     C 1585   4.229   0.215  13.105 -0.8144 -0.3516  0.5161
  102MPD2    C1 1586   4.166   0.301  13.194 -0.1513 -0.5546  0.5917
  102MPD2    C2 1587   4.037   0.281  13.229  0.4010  0.3067 -0.0988
  102MPD2    C3 1588   3.966   0.174  13.194 -0.1369 -0.3858 -0.1627
  102MPD2    C4 1589   4.032   0.074  13.119  0.0538 -0.0304 -0.5642
  102MPD2    C5 1590   4.161   0.098  13.074  0.1182  0.2930 -0.4332
  102MPD2     H 1591   3.985   0.347  13.298 -0.4404  2.8844 -3.1965
  102MPD2    H1 1592   3.988   4.716  13.092 -2.8153  1.7019 -1.9283
  102MPD2    H2 1593   4.332   0.229  13.073 -0.7763 -0.5568  0.5470
  102MPD2    H3 1594   4.219   0.023  13.023  0.1499  1.0774 -1.5466
  102MPD2     N 1595   3.835   0.155  13.239 -0.0818 -0.2719  0.3542
  102MPD2    H5 1596   3.796   0.228  13.298 -0.3256 -0.0391 -0.1001
  102MPD2    N1 1597   4.250   0.406  13.244 -0.3603  0.0847  0.2124
  102MPD2    H7 1598   4.347   0.408  13.215 -0.3387 -0.5821  0.2523
  103TMC2    C1 1599   2.472   0.439  12.600 -0.3827 -0.3088 -0.2942
  103TMC2    C2 1600   2.568   0.528  12.584  0.4616 -0.1059 -0.8212
  103TMC2    C3 1601   2.658   0.550  12.691  0.3955  0.2529  0.2543
  103TMC2    C4 1602   2.448   0.380  12.723  0.0009 -0.6567  0.3882
  103TMC2    C5 1603   2.523   0.422  12.834  0.1548 -0.9506 -0.6234
  103TMC2    C6 1604   2.639   0.491  12.816  1.0848 -0.8401 -0.5835
  103TMC2     C 1605   2.380   0.410  12.490 -0.2432  0.5196  0.8912
  103TMC2     O 1606   2.356   0.495  12.406 -0.3592 -0.1710 -0.1082
  103TMC2     H 1607   2.595   0.559  12.484  0.3909 -0.4232 -0.9377
  103TMC2    H1 1608   2.354   0.328  12.731 -1.2942  1.1947 -2.9898
  103TMC2    H2 1609   2.704   0.517  12.899  2.1519  1.5213 -2.1528
  103TMC2    C7 1610   2.495   0.375  12.970  0.1178 -0.2717 -0.0038
  103TMC2    C8 1611   2.787   0.593  12.647 -0.0459 -1.0352  0.5092
  103TMC2    O1 1612   2.593   0.380  13.045  0.5975 -0.0640  0.0841
  103TMC2    O2 1613   2.805   0.627  12.531  0.2413  0.1484 -0.6875
  103TMC2    O5 1614   2.880   0.575  12.737  0.2621  0.3855  0.1746
  103TMC2    H5 1615   2.844   0.546  12.823  0.5611 -0.6273 -0.0400
  104MPD2     C 1616   2.210   0.091  12.452 -0.5572  0.6397 -0.4054
  104MPD2    C1 1617   2.227   0.227  12.438  0.1139 -0.0453  0.0137
  104MPD2    C2 1618   2.120   0.312  12.399  0.2817  0.1346 -0.0863
  104MPD2    C3 1619   1.996   0.253  12.369  0.1460 -0.9549  0.0451
  104MPD2    C4 1620   1.984   0.117  12.371  0.3429 -0.5668 -0.0720
  104MPD2    C5 1621   2.089   0.037  12.413 -0.5104  0.3976  0.1910
  104MPD2     H 1622   2.120   0.420  12.399  1.6597  0.1307 -1.7697
  104MPD2    H1 1623   1.889   0.066  12.358  0.1752 -0.7070  1.6913
  104MPD2    H2 1624   2.280   0.026  12.503 -0.3044  0.8748 -0.4535
  104MPD2    H3 1625   2.077   4.667  12.427 -1.2190  0.3705 -0.6298
  104MPD2     N 1626   1.885   0.336  12.324  0.0997  0.1684  0.0115
  104MPD2    H5 1627   1.898   0.436  12.335 -0.4839 -0.1285  3.3082
  104MPD2    N1 1628   2.345   0.279  12.497 -0.1597  0.0583  0.1900
  104MPD2    H7 1629   2.416   0.219  12.537 -0.6772  1.0359  2.5182
  105TMC2    C1 1630   3.372   0.082  17.455 -0.2630  0.1769 -0.3097
  105TMC2    C2 1631   3.370   0.215  17.432 -0.2695 -0.3613 -0.0739
  105TMC2    C3 1632   3.260   0.282  17.472  0.7604  0.0904 -0.3568
  105TMC2    C4 1633   3.278   0.015  17.521  0.1725  0.4703 -0.2635
  105TMC2    C5 1634   3.174   0.087  17.568  0.4343  0.3151  0.1266
  105TMC2    C6 1635   3.156   0.223  17.540  0.2191 -0.6811 -0.3584
  105TMC2     C 1636   3.474   4.730  17.392 -0.3521 -0.5383  0.1959
  105TMC2     O 1637   3.471   4.610  17.422  0.1858  0.0703 -0.6278
  105TMC2     H 1638   3.458   0.262  17.388 -0.2802 -1.5750 -1.3897
  105TMC2    H1 1639   3.279   4.645  17.537  0.6643  0.6242  0.7213
  105TMC2    H2 1640   3.072   0.281  17.576  1.1272  0.5665 -0.2713
  105TMC2    C7 1641   3.061   0.013  17.630  0.4616  0.4883 -0.9505
  105TMC2    C8 1642   3.239   0.424  17.438 -0.5758 -0.5187 -0.0918
  105TMC2    O1 1643   3.072   4.626  17.616 -0.2826  0.3990  0.3892
  105TMC2    O2 1644   3.176   0.500  17.514  0.2633  0.3164 -0.5842
  105TMC2    O5 1645   3.294   0.461  17.318 -0.0901  0.3069 -0.2939
  105TMC2    H5 1646   3.342   0.390  17.271  1.6193 -0.3815  2.4361
  106MPD2     C 1647   3.844   4.613  17.042 -0.5037 -0.1923 -0.1764
  106MPD2    C1 1648   3.796   0.003  17.020  0.0811 -0.3775 -0.9626
  106MPD2    C2 1649   3.689   0.049  17.102 -0.1580  0.5402  0.4118
  106MPD2    C3 1650   3.643   4.722  17.211 -0.0126 -0.0682  0.4422
  106MPD2    C4 1651   3.693   4.596  17.231  0.2789  0.0062  0.2950
  106MPD2    C5 1652   3.785   4.543  17.144  0.6668  0.8731 -0.3186
  106MPD2     H 1653   3.628   0.134  17.074 -1.7865 -0.3690  1.1715
  106MPD2    H1 1654   3.649   4.531  17.306 -1.6404  1.0579  0.0899
  106MPD2    H2 1655   3.910   4.550  16.984  1.1371  0.6740  0.7652
  106MPD2    H3 1656   3.830   4.447  17.165  1.4648  1.0271 -1.3400
  106MPD2     N 1657   3.536   0.047  17.284 -0.0424 -0.0656  0.2350
  106MPD2    H5 1658   3.504   0.137  17.249  0.5747 -0.8313 -2.3298
  106MPD2    N1 1659   3.814   0.073  16.900 -0.1513  0.2672 -0.4961
  106MPD2    H7 1660   3.775   0.165  16.881 -0.8359 -0.1037 -0.8808
  107TMC2    C1 1661   4.482   4.378  11.495  0.2692 -0.2781  0.3122
  107TMC2    C2 1662   4.526   4.469  11.406 -0.1569 -0.6776  0.2202
  107TMC2    C3 1663   4.609   4.425  11.302 -0.3668 -0.3915  0.3385
  107TMC2    C4 1664   4.493   4.247  11.470 -0.2480 -0.3726  0.5193
  107TMC2    C5 1665   4.578   4.205  11.368 -0.7171 -0.0082  0.5276
  107TMC2    C6 1666   4.625   4.290  11.276  0.2344 -0.4332  0.2835
  107TMC2     C 1667   4.398   4.425  11.604  0.8128 -0.0047  0.3098
  107TMC2     O 1668   4.323   4.340  11.656  0.2057  0.1137 -0.5881
  107TMC2     H 1669   4.509   4.574  11.424  1.1414 -0.1570 -1.5926
  107TMC2    H1 1670   4.465   4.180  11.550 -1.3220  1.3746  1.6174
  107TMC2    H2 1671   4.698   4.258  11.203  0.8165  0.9737  0.2535
  107TMC2    C7 1672   4.617   4.070  11.366 -0.3878  0.8258 -0.3787
  107TMC2    C8 1673   4.688   4.510  11.212  0.3053 -0.5689 -0.7558
  107TMC2    O1 1674   4.611   4.003  11.468 -0.0167  0.1915 -0.2144
  107TMC2    O2 1675   4.736   4.464  11.117  0.0604 -0.4067 -0.0028
  107TMC2    O5 1676   0.014   4.597  11.295  0.2859 -0.2116  0.6512
  107TMC2    H5 1677   4.714   4.597  11.386  3.2264  1.2276  1.8762
  108MPD2     C 1678   4.363   0.024  11.757 -0.6757 -0.2520 -0.4904
  108MPD2    C1 1679   4.337   4.625  11.745 -0.0560  0.7195 -0.2850
  108MPD2    C2 1680   4.246   4.568  11.833  0.5388  0.3275 -0.2944
  108MPD2    C3 1681   4.188   4.645  11.936 -0.9485 -0.7373  0.2571
  108MPD2    C4 1682   4.226   0.036  11.946 -0.4531  0.5868  0.4995
  108MPD2    C5 1683   4.309   0.098  11.858 -0.6423 -0.0541  0.0937
  108MPD2     H 1684   4.219   4.463  11.829  3.6621 -0.4999  0.7982
  108MPD2    H1 1685   4.184   0.097  12.026 -0.3472  0.2181  0.8361
  108MPD2    H2 1686   4.439   0.067  11.693  1.0134 -1.9700  0.3604
  108MPD2    H3 1687   4.344   0.200  11.872 -0.6852 -0.1449  0.8241
  108MPD2     N 1688   4.099   4.584  12.036 -0.2744  0.3137 -0.3938
  108MPD2    H5 1689   4.056   4.631  12.114  0.3267 -1.3274  0.9279
  108MPD2    N1 1690   4.418   4.556  11.648 -0.2597 -0.3271 -0.4689
  108MPD2    H7 1691   4.497   4.603  11.605 -0.0182 -1.8883 -1.7381
  109TMC2    C1 1692   3.436   2.377   0.948  0.8264  0.3225  1.0805
  109TMC2    C2 1693   3.512   2.494   0.956  0.5343 -0.0350 -0.4103
  109TMC2    C3 1694   3.644   2.484   0.964 -0.5671  0.3947 -0.6861
  109TMC2    C4 1695   3.501   2.256   0.943 -0.3394  0.0307 -0.5688
  109TMC2    C5 1696   3.637   2.250   0.950  0.7881 -0.6057 -0.3215
  109TMC2    C6 1697   3.708   2.363   0.957 -0.7421 -0.4719  0.1401
  109TMC2     C 1698   3.293   2.383   0.924  0.1280 -0.7292 -0.4479
  109TMC2     O 1699   3.239   2.482   0.974  0.6139  0.0197 -0.1880
  109TMC2     H 1700   3.461   2.587   0.980  0.6526 -0.4108  1.2685
  109TMC2    H1 1701   3.437   2.169   0.940 -0.0388 -0.3171  2.5901
  109TMC2    H2 1702   3.814   2.360   0.979 -0.7683  1.0435  0.4582
  109TMC2    C7 1703   3.710   2.123   0.945 -0.2315  0.5833 -0.4629
  109TMC2    C8 1704   3.711   2.610   0.956 -0.2240 -0.2472 -0.2384
  109TMC2    O1 1705   3.830   2.123   0.959 -0.4172  0.2376  0.6315
  109TMC2    O2 1706   3.655   2.713   0.982 -0.1566  0.4186 -0.4815
  109TMC2    O5 1707   3.822   2.596   0.880 -0.2168  0.2835  0.2661
  109TMC2    H5 1708   3.844   2.501   0.866 -0.4432  0.6543 -2.6461
  110MPD2     C 1709   2.831   2.176   0.840  0.2921 -0.8311  0.0684
  110MPD2    C1 1710   2.930   2.088   0.808  1.1238  0.8479 -0.2574
  110MPD2    C2 1711   3.067   2.118   0.824 -0.1975 -0.2330  0.5990
  110MPD2    C3 1712   3.100   2.248   0.866  0.1269  0.2813 -0.2088
  110MPD2    C4 1713   3.003   2.329   0.911  0.3285  0.3302  0.0825
  110MPD2    C5 1714   2.870   2.293   0.900 -0.1862 -0.0605 -0.2818
  110MPD2     H 1715   3.140   2.054   0.777  0.6720 -0.1020  1.7566
  110MPD2    H1 1716   3.013   2.431   0.949  2.8476  0.6354 -1.4112
  110MPD2    H2 1717   2.727   2.145   0.831 -0.1284  0.7372 -0.6869
  110MPD2    H3 1718   2.790   2.361   0.928 -0.8431 -0.6664 -0.6989
  110MPD2     N 1719   3.238   2.270   0.877  0.8233  0.1748 -0.2354
  110MPD2    H5 1720   3.298   2.208   0.823  2.5123  1.5612  0.0418
  110MPD2    N1 1721   2.877   1.967   0.766 -0.0007  0.6355  0.5085
  110MPD2    H7 1722   2.776   1.963   0.758  0.0405  0.9085 -0.1998
  111TMC2    C1 1723   4.000   1.640  11.957  0.4841 -0.1734  0.2019
  111TMC2    C2 1724   3.898   1.694  12.036  0.7573  0.4899  1.3902
  111TMC2    C3 1725   3.901   1.669  12.166 -0.0551  0.4901  0.3687
  111TMC2    C4 1726   4.090   1.560  12.019  0.6318  0.0393 -0.6228
  111TMC2    C5 1727   4.093   1.543  12.153 -0.1285 -0.6124  0.5553
  111TMC2    C6 1728   3.990   1.587  12.234  0.6762  0.2819 -0.2265
  111TMC2     C 1729   4.043   1.710  11.838  0.2681 -0.5804 -0.0923
  111TMC2     O 1730   4.137   1.662  11.778  0.3654 -0.4593 -0.0377
  111TMC2     H 1731   3.818   1.753  11.994 -0.6104 -2.4451 -0.1014
  111TMC2    H1 1732   4.155   1.507  11.950 -0.4477 -0.1521 -1.4886
  111TMC2    H2 1733   3.988   1.581  12.342  3.2842  0.8899 -0.1546
  111TMC2    C7 1734   4.224   1.510  12.212  0.4375  0.2191  0.6359
  111TMC2    C8 1735   3.800   1.730  12.244 -0.5118 -0.6401  0.2181
  111TMC2    O1 1736   4.227   1.472  12.326 -0.2432 -0.6574  0.3660
  111TMC2    O2 1737   3.810   1.774  12.361  0.7384  0.1236  0.1417
  111TMC2    O5 1738   3.687   1.695  12.183 -0.1669  0.3541  0.3651
  111TMC2    H5 1739   3.712   1.627  12.118 -0.6242  0.2266  0.3218
  112MPD2     C 1740   4.084   2.140  11.564  0.1240  0.2560  0.5418
  112MPD2    C1 1741   4.130   2.009  11.541 -0.1806  0.4298  0.1698
  112MPD2    C2 1742   4.092   1.897  11.619  0.0643  0.1487 -0.1588
  112MPD2    C3 1743   4.019   1.930  11.736  0.6901 -0.1249 -0.2726
  112MPD2    C4 1744   3.976   2.056  11.756 -0.6997 -0.5328  0.0077
  112MPD2    C5 1745   4.006   2.162  11.675  0.4609 -0.1943 -0.3427
  112MPD2     H 1746   4.119   1.794  11.599  1.7585  0.0923  2.4592
  112MPD2    H1 1747   3.910   2.083  11.838  0.7398 -1.0027  1.3190
  112MPD2    H2 1748   4.099   2.229  11.504 -1.7909 -0.3223 -0.7992
  112MPD2    H3 1749   3.952   2.256  11.681 -0.8431 -1.0481  1.1138
  112MPD2     N 1750   3.984   1.834  11.827 -0.2327  0.2516 -0.9382
  112MPD2    H5 1751   3.918   1.865  11.898  1.0931 -0.8844  0.7848
  112MPD2    N1 1752   4.187   1.974  11.415  0.3977 -0.2803 -0.2125
  112MPD2    H7 1753   4.213   1.876  11.406 -0.1437 -0.5068  0.6963
  113TMC2    C1 1754   1.537   4.069   0.862 -0.2815  0.1297 -1.1903
  113TMC2    C2 1755   1.417   4.134   0.848  0.3915  0.2687  0.2342
  113TMC2    C3 1756   1.304   4.052   0.854 -0.3092  0.0796 -0.2737
  113TMC2    C4 1757   1.546   3.935   0.881  0.3955 -0.0989  0.3074
  113TMC2    C5 1758   1.431   3.863   0.870 -1.1137 -0.1228  0.3917
  113TMC2    C6 1759   1.310   3.920   0.865  0.1289  0.0246 -0.5202
  113TMC2     C 1760   1.637   4.140   0.778  0.5780  0.6062  0.1175
  113TMC2     O 1761   1.606   4.258   0.768  0.0813 -0.4138 -0.0181
  113TMC2     H 1762   1.408   4.242   0.855 -0.5296  0.2273 -0.2424
  113TMC2    H1 1763   1.643   3.887   0.886  1.4598  1.7517 -2.4545
  113TMC2    H2 1764   1.224   3.860   0.839  1.0537 -1.5425  0.0617
  113TMC2    C7 1765   1.429   3.722   0.903  0.0425 -0.4052  0.5102
  113TMC2    C8 1766   1.175   4.127   0.875 -0.3123 -0.0623 -0.3975
  113TMC2    O1 1767   1.319   3.674   0.915  0.5665 -0.2708 -0.1111
  113TMC2    O2 1768   1.163   4.246   0.846 -0.0841 -0.3257  0.6191
  113TMC2    O5 1769   1.071   4.033   0.853 -0.1887  0.3952 -0.3288
  113TMC2    H5 1770   1.076   3.959   0.918 -1.9913 -0.3407 -1.0159
  114MPD2     C 1771   2.059   4.203   0.470  0.3593  0.2952  0.2163
  114MPD2    C1 1772   1.961   4.288   0.523  0.2371 -0.2551 -0.0818
  114MPD2    C2 1773   1.854   4.236   0.597 -0.1068 -0.3083 -0.0629
  114MPD2    C3 1774   1.847   4.106   0.632 -0.1137  0.0168 -0.3426
  114MPD2    C4 1775   1.953   4.016   0.589 -0.6693  0.2322 -0.6036
  114MPD2    C5 1776   2.045   4.063   0.498 -0.3251  0.4994 -0.1987
  114MPD2     H 1777   1.779   4.307   0.628  0.1747 -0.6763  1.4728
  114MPD2    H1 1778   1.948   3.910   0.609  0.7401  0.3845  0.5262
  114MPD2    H2 1779   2.137   4.235   0.401  0.2509 -0.7272 -0.3847
  114MPD2    H3 1780   2.124   3.998   0.463 -0.7632  0.7357 -1.5954
  114MPD2     N 1781   1.739   4.060   0.722  0.2465  0.0458  0.3158
  114MPD2    H5 1782   1.750   3.962   0.744 -0.1684 -0.5622 -2.2603
  114MPD2    N1 1783   1.974   4.427   0.498  0.0669  0.4348  0.2878
  114MPD2    H7 1784   1.890   4.478   0.525 -0.0003 -1.0257  2.8830
  115TMC2    C1 1785   3.144   1.954   0.064 -0.2168 -0.1144 -0.8720
  115TMC2    C2 1786   3.218   1.840   0.060  0.7371 -0.5138  0.1817
  115TMC2    C3 1787   3.349   1.850   0.100  0.3512 -0.0788  0.2247
  115TMC2    C4 1788   3.179   2.064   0.134  0.3154 -0.0265  1.1669
  115TMC2    C5 1789   3.306   2.063   0.185 -0.0180  0.2508  0.0226
  115TMC2    C6 1790   3.397   1.961   0.170  0.8701  0.1921 -0.4832
  115TMC2     C 1791   3.004   1.939   0.032  0.3209  0.9134 -0.3503
  115TMC2     O 1792   2.921   1.987   0.106 -0.2619 -0.4364 -0.1124
  115TMC2     H 1793   3.180   1.747   0.019 -1.9146 -0.2068  1.9957
  115TMC2    H1 1794   3.112   2.147   0.151 -0.0680 -0.0513 -0.2236
  115TMC2    H2 1795   3.502   1.982   0.184  0.6719  0.3547  0.8074
  115TMC2    C7 1796   3.372   2.190   0.189  0.5658 -0.2813 -0.3461
  115TMC2    C8 1797   3.423   1.725   0.097  0.4824 -0.9374 -0.2914
  115TMC2    O1 1798   3.481   2.198   0.250 -0.2474 -0.6612 -0.0006
  115TMC2    O2 1799   3.418   1.642   0.007 -0.1650  0.0757 -0.6456
  115TMC2    O5 1800   3.515   1.732   0.200  0.5909  0.2364 -0.1026
  115TMC2    H5 1801   3.487   1.786   0.277 -0.5908  0.9530 -1.0298
  116MPD2     C 1802   2.643   1.713  17.490 -0.8146  0.7643 -0.0940
  116MPD2    C1 1803   2.760   1.709  17.421  0.5767 -0.0803  0.1960
  116MPD2    C2 1804   2.872   1.759  17.478 -0.3343 -0.3859 -0.3176
  116MPD2    C3 1805   2.870   1.828  17.598 -0.2000  0.0746 -0.2622
  116MPD2    C4 1806   2.751   1.843  17.656 -0.3509  0.6762  0.1077
  116MPD2    C5 1807   2.641   1.781  17.606 -0.0376  0.3125 -0.1741
  116MPD2     H 1808   2.969   1.743  17.432  1.2397 -1.1905  3.2902
  116MPD2    H1 1809   2.737   1.901   0.001  0.1616  1.5353 -0.3602
  116MPD2    H2 1810   2.558   1.670  17.437  0.6753 -1.5332 -0.6349
  116MPD2    H3 1811   2.545   1.798  17.653  0.4911  0.4974  0.8281
  116MPD2     N 1812   2.991   1.877  17.654 -0.1393 -0.1494  0.0998
  116MPD2    H5 1813   3.070   1.870  17.590 -2.1069 -1.1844 -2.2066
  116MPD2    N1 1814   2.759   1.632  17.305 -0.8758 -0.2468  0.1092
  116MPD2    H7 1815   2.669   1.593  17.277  0.4889 -1.3284 -2.8618
  117TMC2    C1 1816   1.696   3.580  14.224 -0.0421 -0.3911 -0.1185
  117TMC2    C2 1817   1.738   3.496  14.319 -0.4126 -0.1122  0.3707
  117TMC2    C3 1818   1.822   3.556  14.416 -0.6455  0.4434  0.7843
  117TMC2    C4 1819   1.731   3.709  14.223  0.7524  0.4832 -0.6848
  117TMC2    C5 1820   1.820   3.760  14.307 -0.1899  0.7990 -0.2738
  117TMC2    C6 1821   1.875   3.687  14.401  0.0825  0.5186 -0.7704
  117TMC2     C 1822   1.595   3.530  14.140 -0.4184  0.1626  0.1632
  117TMC2     O 1823   1.595   3.408  14.116 -0.1300  0.4940 -0.6796
  117TMC2     H 1824   1.702   3.394  14.321 -0.5755 -0.0283  2.1025
  117TMC2    H1 1825   1.699   3.768  14.137  2.3880 -1.7073 -2.8194
  117TMC2    H2 1826   1.936   3.739  14.475 -0.0444 -0.3674 -0.0417
  117TMC2    C7 1827   1.871   3.898  14.291 -0.0960  0.7388 -0.1539
  117TMC2    C8 1828   1.873   3.476  14.524  0.3838  0.3028 -0.2468
  117TMC2    O1 1829   1.988   3.912  14.326  0.2768 -0.1039 -0.1721
  117TMC2    O2 1830   1.972   3.499  14.592 -0.1949  0.5159  0.1103
  117TMC2    O5 1831   1.775   3.395  14.566  0.0926 -0.5185 -0.0416
  117TMC2    H5 1832   1.684   3.422  14.539  0.0838  1.1738  1.6419
  118MPD2     C 1833   1.670   4.192  14.204 -0.4321 -0.3258 -0.0974
  118MPD2    C1 1834   1.786   4.119  14.204 -0.3218  0.2116 -0.0585
  118MPD2    C2 1835   1.910   4.164  14.170  0.9607  0.1754  0.3914
  118MPD2    C3 1836   1.917   4.292  14.117  0.5128  0.1754 -0.2583
  118MPD2    C4 1837   1.800   4.365  14.109 -0.3025  0.0200 -0.1333
  118MPD2    C5 1838   1.685   4.319  14.159 -0.0882 -0.2600  0.3813
  118MPD2     H 1839   2.001   4.109  14.191  1.0575 -0.3550 -1.3796
  118MPD2    H1 1840   1.790   4.465  14.069  0.0884  1.0045  2.2155
  118MPD2    H2 1841   1.573   4.165  14.243 -0.5861  0.1948 -0.1138
  118MPD2    H3 1842   1.601   4.386  14.170 -0.3018 -0.3155 -0.8468
  118MPD2     N 1843   2.031   4.362  14.068 -0.2847  0.0732  0.9078
  118MPD2    H5 1844   2.006   4.450  14.025 -1.8520  0.7387  3.1302
  118MPD2    N1 1845   1.773   3.985  14.244  0.1986  0.6891  0.2872
  118MPD2    H7 1846   1.677   3.953  14.232 -0.0890  1.5251  0.3294
  119TMC2    C1 1847   0.287   0.059  13.409  0.2911 -0.5605  0.6314
  119TMC2    C2 1848   0.354   0.042  13.525  0.0146  0.3538 -0.0576
  119TMC2    C3 1849   0.319   4.662  13.588 -0.1474 -0.1422 -0.4957
  119TMC2    C4 1850   0.192   4.714  13.368 -0.6730  0.3125  0.2133
  119TMC2    C5 1851   0.159   4.600  13.429  0.3637 -0.0472  0.8431
  119TMC2    C6 1852   0.227   4.574  13.546  0.1169 -0.0325  0.2838
  119TMC2     C 1853   0.269   0.193  13.356 -0.4014  0.4387 -0.1379
  119TMC2     O 1854   0.181   0.217  13.274 -0.2047 -0.3450  0.7227
  119TMC2     H 1855   0.438   0.102  13.561 -0.1349  0.4852  0.0738
  119TMC2    H1 1856   0.155   4.717  13.266 -0.4310 -0.5107  0.1024
  119TMC2    H2 1857   0.205   4.486  13.607  3.3200  0.0590  1.5590
  119TMC2    C7 1858   0.099   4.492  13.355 -0.4907  0.3589 -0.4726
  119TMC2    C8 1859   0.409   4.632  13.696  0.6321 -0.1461 -0.0397
  119TMC2    O1 1860   0.155   4.468  13.249  0.6766  0.1244  0.5244
  119TMC2    O2 1861   0.514   4.694  13.706 -0.0864 -0.0036  0.5803
  119TMC2    O5 1862   0.390   4.508  13.734 -0.0589 -0.2443 -0.4731
  119TMC2    H5 1863   0.298   4.476  13.725 -0.6162  1.2788 -0.2474
  120MPD2     C 1864   0.430   0.677  13.248  0.3400  0.4636 -0.2297
  120MPD2    C1 1865   0.303   0.624  13.263 -0.0169  0.4614  0.1474
  120MPD2    C2 1866   0.285   0.487  13.280 -0.2611 -0.2345 -0.3095
  120MPD2    C3 1867   0.389   0.408  13.320 -0.3728  0.1080  0.0337
  120MPD2    C4 1868   0.516   0.460  13.320 -0.0213 -0.1056 -0.0897
  120MPD2    C5 1869   0.532   0.587  13.277  1.4475  0.0090 -0.2127
  120MPD2     H 1870   0.184   0.447  13.279 -0.5131  0.4332 -1.1255
  120MPD2    H1 1871   0.608   0.405  13.337 -0.0161 -0.2807 -0.6906
  120MPD2    H2 1872   0.449   0.776  13.207 -1.4033  0.9593  0.1810
  120MPD2    H3 1873   0.634   0.608  13.246  0.4977 -2.3670 -4.9510
  120MPD2     N 1874   0.382   0.273  13.371 -0.1244 -0.5626  0.2070
  120MPD2    H5 1875   0.470   0.237  13.407  0.1705  0.2090  0.2648
  120MPD2    N1 1876   0.192   0.713  13.259  0.0871  0.3208  1.0088
  120MPD2    H7 1877   0.210   0.805  13.221 -0.9312  0.1858  0.1971
  121TMC2    C1 1878   1.407   1.417  13.841  0.2494 -0.3433 -0.5865
  121TMC2    C2 1879   1.478   1.309  13.797 -0.5128  0.0571 -0.1547
  121TMC2    C3 1880   1.413   1.191  13.772  0.2565 -0.2825  0.3129
  121TMC2    C4 1881   1.274   1.404  13.865 -0.1216 -0.3112 -0.2087
  121TMC2    C5 1882   1.218   1.276  13.852 -0.2071  0.4380  0.7987
  121TMC2    C6 1883   1.283   1.172  13.800  0.4398 -0.3337 -0.6385
  121TMC2     C 1884   1.461   1.544  13.867  0.2549 -0.0842 -0.2432
  121TMC2     O 1885   1.406   1.617  13.949  0.6078 -0.3124 -0.3950
  121TMC2     H 1886   1.586   1.304  13.786 -0.3573 -0.0860  1.5077
  121TMC2    H1 1887   1.212   1.492  13.876  0.1683 -0.1663  0.2177
  121TMC2    H2 1888   1.223   1.089  13.768 -1.5938  2.0116 -2.8854
  121TMC2    C7 1889   1.081   1.249  13.895  0.6245  0.3659  0.0883
  121TMC2    C8 1890   1.499   1.083  13.715  0.2871  0.3138 -0.0536
  121TMC2    O1 1891   1.053   1.139  13.932  0.3782 -0.3767 -0.4481
  121TMC2    O2 1892   1.590   1.116  13.639  0.3385 -0.3421 -0.7548
  121TMC2    O5 1893   1.495   0.977  13.798  0.1347  0.0824  0.2005
  121TMC2    H5 1894   1.436   0.994  13.874  0.4954 -0.2089  0.5463
  122MPD2     C 1895   1.643   1.787  13.888 -0.4616  0.2937 -0.0486
  122MPD2    C1 1896   1.653   1.681  13.803 -0.5853  0.3653  0.3421
  122MPD2    C2 1897   1.759   1.669  13.710  0.0842 -0.7944 -0.0446
  122MPD2    C3 1898   1.852   1.768  13.706 -0.1593 -0.2352  0.0882
  122MPD2    C4 1899   1.850   1.869  13.807 -0.3901 -0.9778 -0.1670
  122MPD2    C5 1900   1.741   1.876  13.893 -0.1784  0.5426  0.1249
  122MPD2     H 1901   1.762   1.590  13.635  2.7062  0.4625 -1.2608
  122MPD2    H1 1902   1.915   1.955  13.811 -1.0965 -0.4967  0.9167
  122MPD2    H2 1903   1.564   1.800  13.960  0.0931  0.8914  0.4609
  122MPD2    H3 1904   1.727   1.956  13.965  2.1550  0.2729  0.8943
  122MPD2     N 1905   1.939   1.794  13.596  0.0057 -0.3150 -0.2526
  122MPD2    H5 1906   1.976   1.888  13.597  0.5242 -0.5195 -0.5603
  122MPD2    N1 1907   1.577   1.566  13.798  0.9204 -0.2842  0.2692
  122MPD2    H7 1908   1.598   1.499  13.725  0.4514  1.6848 -1.6495
  123TMC2    C1 1909   0.133   0.208  11.055  0.1972  0.6285  0.4820
  123TMC2    C2 1910   0.203   0.322  11.074 -0.1360  0.2525  0.0979
  123TMC2    C3 1911   0.289   0.355  10.974  0.2661 -0.1309 -0.0132
  123TMC2    C4 1912   0.154   0.123  10.953 -0.1467 -0.2603 -0.7252
  123TMC2    C5 1913   0.253   0.158  10.863 -0.1089  0.6086 -0.4073
  123TMC2    C6 1914   0.313   0.279  10.865 -0.5545  0.1230  0.5050
  123TMC2     C 1915   4.733   0.205  11.119 -0.2779  0.1877  0.1226
  123TMC2     O 1916   4.712   0.288  11.207  0.0009  0.2299  0.3320
  123TMC2     H 1917   0.176   0.399  11.146  2.4794  1.5910 -0.3503
  123TMC2    H1 1918   0.100   0.030  10.940 -3.0996  1.2796  0.4253
  123TMC2    H2 1919   0.386   0.301  10.787 -0.6721  1.3423  0.7379
  123TMC2    C7 1920   0.290   0.056  10.764  0.5567 -0.6307 -0.3106
  123TMC2    C8 1921   0.370   0.475  10.992  0.3468  0.4555  0.2116
  123TMC2    O1 1922   0.210   4.701  10.746 -0.4085 -0.2042  0.1985
  123TMC2    O2 1923   0.433   0.496  11.093 -0.4588 -0.4068  0.4229
  123TMC2    O5 1924   0.409   0.526  10.869  0.6337 -0.0594 -0.0715
  123TMC2    H5 1925   0.342   0.502  10.801 -0.4506  1.3461  0.5161
  124MPD2     C 1926   4.283   4.732  11.240 -0.8759  0.2758  0.2084
  124MPD2    C1 1927   4.333   4.674  11.129 -0.6093  0.1212 -0.5677
  124MPD2    C2 1928   4.447   4.722  11.075 -0.2643 -0.3880 -0.0530
  124MPD2    C3 1929   4.516   0.085  11.129  0.5990  0.0200 -0.3584
  124MPD2    C4 1930   4.475   0.135  11.247  0.0468  0.1477  0.2252
  124MPD2    C5 1931   4.352   0.087  11.304  0.3726 -0.9329  0.1929
  124MPD2     H 1932   4.485   4.678  10.983  0.5717 -3.4989  1.8013
  124MPD2    H1 1933   4.519   0.218  11.300  0.4019  1.2117 -1.7357
  124MPD2    H2 1934   4.198   4.702  11.301  0.1134 -0.9968  0.9775
  124MPD2    H3 1935   4.327   0.114  11.406  0.7897 -3.7851  1.0480
  124MPD2     N 1936   4.645   0.115  11.071 -0.6757 -0.0977  1.0198
  124MPD2    H5 1937   4.673   0.053  10.996  1.9438  1.5978  0.6061
  124MPD2    N1 1938   4.268   4.559  11.070 -0.2208 -0.2493  0.0221
  124MPD2    H7 1939   4.172   4.536  11.091 -0.8827 -1.2859 -4.0281
  125TMC2    C1 1940   1.549   1.855  10.230 -0.0611  1.0359  0.6924
  125TMC2    C2 1941   1.449   1.769  10.262  0.1410 -0.6359 -0.1123
  125TMC2    C3 1942   1.320   1.809  10.263 -0.2195  0.7000  0.8472
  125TMC2    C4 1943   1.514   1.990  10.202 -0.0821  0.3715 -0.6159
  125TMC2    C5 1944   1.383   2.025  10.206 -1.1441  0.4229 -0.2562
  125TMC2    C6 1945   1.283   1.935  10.236 -0.4010  0.0553 -0.1266
  125TMC2     C 1946   1.691   1.825  10.256  0.0643  0.3343 -0.1486
  125TMC2     O 1947   1.760   1.925  10.236  0.0440 -0.5734 -1.2105
  125TMC2     H 1948   1.463   1.661  10.267  0.2487 -0.6806 -1.3747
  125TMC2    H1 1949   1.586   2.069  10.186  1.0614 -0.8533 -1.4577
  125TMC2    H2 1950   1.182   1.973  10.247 -0.6813 -0.4541 -0.9573
  125TMC2    C7 1951   1.347   2.159  10.176 -0.4947 -0.3209 -0.1382
  125TMC2    C8 1952   1.222   1.710  10.302  0.7012  0.1465  0.4791
  125TMC2    O1 1953   1.228   2.179  10.193  0.3346 -0.4160 -0.0862
  125TMC2    O2 1954   1.233   1.630  10.396  0.0228 -0.2712  0.2734
  125TMC2    O5 1955   1.105   1.754  10.248 -0.1117 -0.0757  0.5160
  125TMC2    H5 1956   1.112   1.825  10.181  0.2928  0.0979  0.7475
  126MPD1     C 1957   2.070   1.557  10.470 -0.1718 -0.0281  0.2206
  126MPD1    C1 1958   1.959   1.473  10.477  1.2498 -0.1660  0.8872
  126MPD1    C2 1959   1.839   1.528  10.431  0.1565  0.4025  1.1603
  126MPD1    C3 1960   1.840   1.660  10.380  0.0757 -0.5520 -0.1034
  126MPD1    C4 1961   1.948   1.737  10.384 -0.1807  0.7914  0.1180
  126MPD1    C5 1962   2.067   1.685  10.426  0.5277 -0.1305 -0.1874
  126MPD1     H 1963   1.750   1.466  10.422  0.1360  0.5791  0.1463
  126MPD1    H1 1964   1.960   1.839  10.351 -0.7574 -0.4320 -3.9346
  126MPD1    H2 1965   2.165   1.510  10.492 -0.1694 -1.1992 -2.2686
  126MPD1    H3 1966   2.152   1.752  10.421  0.0367  0.4758 -0.4535
  126MPD1     N 1967   1.716   1.706  10.326 -0.4063 -0.3605 -0.6827
  126MPD1    H5 1968   1.638   1.642  10.333 -1.4020  0.5628 -3.0962
  126MPD1    N1 1969   1.964   1.339  10.514 -0.0878 -0.2514 -0.4570
  126MPD1    H6 1970   1.872   1.308  10.545 -0.1871 -1.6138 -2.1301
  126MPD1    H7 1971   2.046   1.303  10.563  1.4678  2.3765 -1.1592
  127TMC2    C1 1972   2.395   0.937   9.645  0.4153  0.5091  0.4718
  127TMC2    C2 1973   2.482   0.896   9.741  0.2482 -0.4814  0.0765
  127TMC2    C3 1974   2.521   0.762   9.750 -0.5704 -0.2096  0.2866
  127TMC2    C4 1975   2.330   0.840   9.579 -0.1902 -0.6582  0.1903
  127TMC2    C5 1976   2.359   0.707   9.597 -0.2251 -0.2227 -0.2638
  127TMC2    C6 1977   2.453   0.665   9.688  0.0239 -0.1348  0.3350
  127TMC2     C 1978   2.374   1.078   9.628 -0.1639 -0.4065  0.2050
  127TMC2     O 1979   2.445   1.158   9.686 -0.9287  0.2019  0.6117
  127TMC2     H 1980   2.542   0.971   9.792 -0.2883 -0.3739  0.5511
  127TMC2    H1 1981   2.256   0.865   9.505  0.7788 -1.2422 -0.9711
  127TMC2    H2 1982   2.485   0.563   9.704  1.1378  0.5769  2.6986
  127TMC2    C7 1983   2.331   0.616   9.488 -0.4749 -0.6464  0.3891
  127TMC2    C8 1984   2.599   0.716   9.863  1.1912  0.4010 -0.1689
  127TMC2    O1 1985   2.306   0.674   9.385  0.4519 -0.2245  0.2592
  127TMC2    O2 1986   2.561   0.625   9.935  0.0786  0.2920 -0.7141
  127TMC2    O5 1987   2.693   0.810   9.896  0.1908 -0.1444  0.7412
  127TMC2    H5 1988   2.715   0.861   9.815 -0.8766  1.2750  1.3519
  128MPD2     C 1989   2.137   1.244   9.403  0.4406 -0.2884  0.2966
  128MPD2    C1 1990   2.257   1.230   9.476 -0.8531  0.3882  0.0416
  128MPD2    C2 1991   2.341   1.340   9.491 -0.0175  0.9361 -0.0356
  128MPD2    C3 1992   2.295   1.456   9.434  0.5827  0.1981 -0.5515
  128MPD2    C4 1993   2.176   1.467   9.357  0.3931  0.1429  0.0440
  128MPD2    C5 1994   2.101   1.357   9.331  0.1111 -0.5623  0.8490
  128MPD2     H 1995   2.436   1.343   9.543  0.3763 -2.0886 -0.6157
  128MPD2    H1 1996   2.137   1.551   9.300  2.6550  0.4506 -1.0160
  128MPD2    H2 1997   2.074   1.158   9.382 -2.0389  1.3466  1.0434
  128MPD2    H3 1998   2.014   1.356   9.266  1.5620 -0.1272 -1.0804
  128MPD2     N 1999   2.373   1.563   9.468  0.2242  0.0147 -0.4349
  128MPD2    H5 2000   2.444   1.538   9.536  0.3363  2.4044  0.3177
  128MPD2    N1 2001   2.279   1.106   9.535 -0.2617  0.4021 -0.1818
  128MPD2    H7 2002   2.211   1.034   9.512 -1.3654  1.0348  1.0980
  129TMC2    C1 2003   3.988   1.403   1.546 -0.5239  0.6837  0.1890
  129TMC2    C2 2004   4.104   1.446   1.482 -0.0563  0.0684 -0.7283
  129TMC2    C3 2005   4.190   1.346   1.437  0.0749 -0.0009  0.9108
  129TMC2    C4 2006   3.959   1.268   1.557 -0.5650  0.1722 -0.0877
  129TMC2    C5 2007   4.050   1.177   1.526 -0.0462 -0.1977  0.6795
  129TMC2    C6 2008   4.167   1.212   1.464 -0.0047  0.3341  0.2337
  129TMC2     C 2009   3.875   1.498   1.559 -0.3363  0.4299 -0.0199
  129TMC2     O 2010   3.760   1.453   1.556  1.0571 -0.3792 -0.5215
  129TMC2     H 2011   4.122   1.551   1.463  0.7111 -0.0674 -0.7495
  129TMC2    H1 2012   3.862   1.237   1.593 -1.2404  0.8627 -1.3001
  129TMC2    H2 2013   4.229   1.135   1.419  1.4376  0.7134  1.5919
  129TMC2    C7 2014   4.022   1.041   1.554  0.3593 -0.3882 -0.2336
  129TMC2    C8 2015   4.238   1.364   1.300  0.0017  0.4532 -0.4250
  129TMC2    O1 2016   3.906   1.009   1.583 -0.5028 -0.8113 -0.3775
  129TMC2    O2 2017   4.318   1.279   1.267  0.2179  0.1741 -0.5616
  129TMC2    O5 2018   4.131   1.405   1.224  0.5430  0.2255  0.0705
  129TMC2    H5 2019   4.076   1.475   1.264  0.5137  0.7024 -0.8084
  130MPD2     C 2020   3.708   1.746   1.561  0.8826  0.1760 -0.0862
  130MPD2    C1 2021   3.839   1.744   1.591 -0.2025 -0.7103 -0.2149
  130MPD2    C2 2022   3.905   1.856   1.634  0.0472 -0.4954  0.2830
  130MPD2    C3 2023   3.832   1.971   1.655  0.2946 -0.3597 -0.1003
  130MPD2    C4 2024   3.696   1.969   1.637  0.1383  0.2847 -0.2064
  130MPD2    C5 2025   3.630   1.855   1.595  0.4945  0.2045  0.4388
  130MPD2     H 2026   4.010   1.859   1.663  0.3883 -1.8876 -0.7909
  130MPD2    H1 2027   3.640   2.061   1.645  0.3932  0.4701 -0.5848
  130MPD2    H2 2028   3.660   1.658   1.518 -0.7700 -0.4854  3.0486
  130MPD2    H3 2029   3.525   1.863   1.571  1.0807  0.9874 -1.8994
  130MPD2     N 2030   3.908   2.085   1.686 -0.3675  0.6252  0.7669
  130MPD2    H5 2031   4.009   2.084   1.671 -0.5196  0.3435 -0.2496
  130MPD2    N1 2032   3.917   1.631   1.581 -0.4408  0.2032  0.4671
  130MPD2    H7 2033   4.017   1.636   1.598  0.5503 -1.4146 -5.1348
  131TMC2    C1 2034   0.056   0.069  10.376  0.1006 -0.0630  0.1631
  131TMC2    C2 2035   0.077   0.157  10.487 -0.4998 -0.1319  0.1581
  131TMC2    C3 2036   0.163   0.256  10.459 -0.2512  0.0293  0.0669
  131TMC2    C4 2037   0.122   0.078  10.257  0.6520 -0.5954 -0.7224
  131TMC2    C5 2038   0.220   0.175  10.241  0.6500  0.6367  0.4080
  131TMC2    C6 2039   0.233   0.269  10.340 -0.0890 -0.7596 -0.5963
  131TMC2     C 2040   4.713   4.686  10.406 -0.2861 -0.1723 -0.0254
  131TMC2     O 2041   4.692   4.662  10.523  0.4788 -0.0688 -0.1715
  131TMC2     H 2042   0.033   0.147  10.586 -0.9566  1.9357  0.1582
  131TMC2    H1 2043   0.127   4.733  10.186 -3.6235 -2.2044  0.8542
  131TMC2    H2 2044   0.294   0.358  10.332  0.4387 -1.0324  0.4559
  131TMC2    C7 2045   0.244   0.197  10.109  0.3255  0.2745 -0.0829
  131TMC2    C8 2046   0.199   0.353  10.558 -0.5778 -0.2273 -0.2071
  131TMC2    O1 2047   0.192   0.130  10.021 -0.0583  0.5359 -0.5075
  131TMC2    O2 2048   0.315   0.398  10.576 -0.0605 -0.3586 -0.3822
  131TMC2    O5 2049   0.096   0.346  10.650  0.2134  0.5371  0.0863
  131TMC2    H5 2050   0.002   0.335  10.625  0.8775  0.0720 -2.1381
  132MPD2     C 2051   4.544   4.422  10.186  0.1887  0.3363  0.0812
  132MPD2    C1 2052   4.574   4.495  10.305 -0.7365  0.4492 -0.9134
  132MPD2    C2 2053   4.510   4.454  10.423  0.7306 -0.1932 -0.5927
  132MPD2    C3 2054   4.427   4.346  10.424  0.6854  0.0773 -0.3581
  132MPD2    C4 2055   4.400   4.272  10.313 -0.4346  0.1508 -0.3566
  132MPD2    C5 2056   4.467   4.310  10.195  0.2973 -0.1362  0.4920
  132MPD2     H 2057   4.522   4.513  10.513  2.7527 -0.1779 -0.8815
  132MPD2    H1 2058   4.337   4.184  10.314 -0.5581  0.2478  0.2569
  132MPD2    H2 2059   4.596   4.454  10.096 -0.8959  0.6505 -0.4311
  132MPD2    H3 2060   4.454   4.251  10.105  3.3618  0.8820 -0.5997
  132MPD2     N 2061   4.367   4.317  10.546 -0.1582  0.4805 -0.4444
  132MPD2    H5 2062   4.398   4.377  10.622 -0.0424 -0.0595 -0.0637
  132MPD2    N1 2063   4.661   4.611  10.295  0.9980 -0.4890  0.4848
  132MPD2    H7 2064   4.694   4.641  10.204 -1.7551  1.6823  0.2121
  133TMC2    C1 2065   0.061   1.936   9.708  0.6865 -0.4371  0.0638
  133TMC2    C2 2066   0.172   1.863   9.675 -0.3806 -0.1590 -0.1128
  133TMC2    C3 2067   0.297   1.895   9.724  0.2283 -0.2495  0.0966
  133TMC2    C4 2068   0.066   2.039   9.790 -0.2795  0.9166 -0.1235
  133TMC2    C5 2069   0.186   2.070   9.845 -0.3714 -0.1721  0.1663
  133TMC2    C6 2070   0.301   1.999   9.811  0.5081 -0.8542  0.8877
  133TMC2     C 2071   4.668   1.878   9.679 -0.3990  0.2365 -0.9439
  133TMC2     O 2072   4.669   1.760   9.642 -0.0992 -0.2413 -0.1121
  133TMC2     H 2073   0.163   1.774   9.616 -1.5852 -0.2663  0.2382
  133TMC2    H1 2074   4.714   2.090   9.825 -2.0344 -1.5791 -0.8833
  133TMC2    H2 2075   0.403   2.030   9.830  0.4193  0.5273 -0.8819
  133TMC2    C7 2076   0.197   2.182   9.942  0.1772 -0.5947  0.3876
  133TMC2    C8 2077   0.407   1.801   9.733  0.5138  0.4552  0.2987
  133TMC2    O1 2078   0.091   2.241   9.967 -0.0079  0.3078 -0.3373
  133TMC2    O2 2079   0.487   1.789   9.823  0.2851 -0.3297 -0.0005
  133TMC2    O5 2080   0.400   1.713   9.629 -0.5331  0.1926 -0.2165
  133TMC2    H5 2081   0.340   1.738   9.555  2.0303 -1.2308 -2.7791
  134MPD2     C 2082   4.357   2.078   9.645  0.3698  0.0706 -0.0471
  134MPD2    C1 2083   4.432   1.962   9.653 -0.1208  0.0122 -0.2696
  134MPD2    C2 2084   4.372   1.845   9.616  0.2188 -0.3783  0.6324
  134MPD2    C3 2085   4.235   1.834   9.606  0.0928  0.3108 -0.0376
  134MPD2    C4 2086   4.165   1.945   9.617  0.7150 -0.3329  0.3739
  134MPD2    C5 2087   4.224   2.065   9.630 -0.0232 -0.2594 -0.3592
  134MPD2     H 2088   4.432   1.755   9.605 -1.1564 -1.4221  1.6445
  134MPD2    H1 2089   4.060   1.929   9.638  1.0794 -1.1413  1.5804
  134MPD2    H2 2090   4.392   2.179   9.668 -1.9823  1.0253 -0.7100
  134MPD2    H3 2091   4.161   2.152   9.645  1.0715  0.9105 -2.6403
  134MPD2     N 2092   4.167   1.711   9.588  0.1546  0.3729  0.0767
  134MPD2    H5 2093   4.066   1.713   9.575  0.1801 -1.0983 -0.3938
  134MPD2    N1 2094   4.569   1.978   9.675 -0.1782 -0.1195  0.1305
  134MPD2    H7 2095   4.588   2.077   9.681  0.4286 -0.1289 -1.5540
  135TMC2    C1 2096   1.375   2.695  10.330 -0.4450  0.2814 -0.0781
  135TMC2    C2 2097   1.281   2.719  10.428  0.6971  0.4155  0.7019
  135TMC2    C3 2098   1.249   2.623  10.523  0.6386  0.0858 -0.2223
  135TMC2    C4 2099   1.424   2.564  10.324  0.3952 -0.5060  0.2977
  135TMC2    C5 2100   1.388   2.472  10.417 -0.5356 -0.5670  0.5481
  135TMC2    C6 2101   1.316   2.506  10.525 -0.5363  0.7875  0.4307
  135TMC2     C 2102   1.401   2.801  10.237  0.4363 -0.1110 -0.9520
  135TMC2     O 2103   1.325   2.898  10.242  0.0531  0.0818 -0.2009
  135TMC2     H 2104   1.229   2.813  10.419 -0.8999 -0.7148 -1.7997
  135TMC2    H1 2105   1.499   2.547  10.247 -0.8805 -0.2389 -1.0048
  135TMC2    H2 2106   1.312   2.445  10.614  0.3565 -0.1002 -0.1338
  135TMC2    C7 2107   1.472   2.353  10.424 -0.7439  0.0753  0.2409
  135TMC2    C8 2108   1.194   2.673  10.641 -0.9776 -0.1133 -0.5733
  135TMC2    O1 2109   1.584   2.359  10.369 -0.4665 -0.0984  0.2068
  135TMC2    O2 2110   1.226   2.637  10.756 -0.2311  0.1544  0.5823
  135TMC2    O5 2111   1.094   2.761  10.610  0.0877 -0.3241  0.4990
  135TMC2    H5 2112   1.054   2.749  10.521 -0.9844 -0.0630  0.9495
  136MPD2     C 2113   1.498   2.984  10.027 -0.2175 -0.6169 -0.1100
  136MPD2    C1 2114   1.581   2.887  10.080 -0.1385 -0.3459 -0.2075
  136MPD2    C2 2115   1.717   2.876  10.040  0.0186  0.6306 -0.1519
  136MPD2    C3 2116   1.764   2.967   9.947  0.5322  0.5758  0.3142
  136MPD2    C4 2117   1.682   3.070   9.906 -0.2575 -0.6414  0.0222
  136MPD2    C5 2118   1.551   3.084   9.951  0.1436 -0.2821  0.6634
  136MPD2     H 2119   1.779   2.794  10.074 -1.5211  0.5478  2.5197
  136MPD2    H1 2120   1.708   3.149   9.836  0.9652  0.1535  1.3733
  136MPD2    H2 2121   1.393   2.991  10.053 -0.6769  1.1754 -2.4520
  136MPD2    H3 2122   1.487   3.157   9.904 -0.3000  0.7864  2.9254
  136MPD2     N 2123   1.894   2.959   9.888 -0.2866 -0.0701  0.6064
  136MPD2    H5 2124   1.902   3.023   9.809  1.6883 -0.1327  0.7710
  136MPD2    N1 2125   1.525   2.797  10.175 -0.6565 -0.4859 -0.3584
  136MPD2    H7 2126   1.584   2.719  10.204 -0.2369  0.1045  0.3593
  137TMC2    C1 2127   1.528   0.858   9.331  0.7086 -0.3285 -0.8218
  137TMC2    C2 2128   1.606   0.936   9.249  0.0871 -0.5956  0.3144
  137TMC2    C3 2129   1.550   0.976   9.128 -0.1109 -0.2493 -1.1564
  137TMC2    C4 2130   1.393   0.838   9.301  0.3001  0.5617 -0.4582
  137TMC2    C5 2131   1.342   0.888   9.187  0.2222  0.4719  0.0441
  137TMC2    C6 2132   1.420   0.951   9.097 -0.0024 -0.0587  0.5480
  137TMC2     C 2133   1.600   0.793   9.439 -0.1707 -0.4636 -0.7542
  137TMC2     O 2134   1.712   0.830   9.464  0.1652 -0.1354  0.6643
  137TMC2     H 2135   1.710   0.950   9.276 -0.4360  3.4589  0.2113
  137TMC2    H1 2136   1.319   0.788   9.363 -0.0515  1.7535  0.0870
  137TMC2    H2 2137   1.395   0.969   8.993  0.9425  2.1863  0.7150
  137TMC2    C7 2138   1.198   0.913   9.160  0.1371 -0.4170 -0.6359
  137TMC2    C8 2139   1.641   1.030   9.031  0.3336 -0.2371  0.0071
  137TMC2    O1 2140   1.151   0.923   9.046 -0.5748  0.1334  0.3360
  137TMC2    O2 2141   1.626   1.134   8.961  0.5056  0.0641  0.0524
  137TMC2    O5 2142   1.758   0.965   9.045 -0.3739 -0.4721 -0.2350
  137TMC2    H5 2143   1.743   0.881   9.093  0.2925 -2.0191 -2.7381
  138MPD2     C 2144   1.471   0.572   9.706 -0.5164  0.1850  0.8234
  138MPD2    C1 2145   1.537   0.679   9.651  0.4538  0.2750  0.1777
  138MPD2    C2 2146   1.627   0.749   9.730 -0.1233  0.7370 -0.6782
  138MPD2    C3 2147   1.635   0.718   9.868  0.6420  0.7493 -0.3334
  138MPD2    C4 2148   1.560   0.612   9.922 -0.0839  0.4700  0.3992
  138MPD2    C5 2149   1.477   0.540   9.838 -0.1350 -0.2014 -0.0704
  138MPD2     H 2150   1.686   0.831   9.690  3.8712 -0.1492  3.3460
  138MPD2    H1 2151   1.563   0.588  10.028 -0.2176  2.0833  0.7622
  138MPD2    H2 2152   1.398   0.517   9.648  2.4601 -0.9060 -1.9041
  138MPD2    H3 2153   1.424   0.456   9.879  3.2379 -1.0109  2.6280
  138MPD2     N 2154   1.720   0.802   9.947  0.5640 -0.2367  0.1927
  138MPD2    H5 2155   1.753   0.884   9.898  2.7496 -0.0598  1.9893
  138MPD2    N1 2156   1.520   0.705   9.511 -0.5259  0.1357 -0.0913
  138MPD2    H7 2157   1.437   0.663   9.471 -0.6813 -0.8693  1.2639
  139TMC2    C1 2158   1.738   4.531  13.712  0.2203  0.1822  1.2225
  139TMC2    C2 2159   1.817   4.603  13.621  0.0477 -0.0783 -0.2952
  139TMC2    C3 2160   1.764   4.712  13.565 -0.0886  0.6567  0.4545
  139TMC2    C4 2161   1.614   4.577  13.758  0.7040 -0.2078 -0.5523
  139TMC2    C5 2162   1.570   4.689  13.693 -0.1504 -0.2963 -0.0712
  139TMC2    C6 2163   1.633   0.012  13.589  0.0441  0.0682 -0.3514
  139TMC2     C 2164   1.770   4.398  13.752 -0.3406 -0.3499  0.3389
  139TMC2     O 2165   1.893   4.375  13.753  0.2403 -0.1259 -0.1193
  139TMC2     H 2166   1.910   4.558  13.586  1.4113  1.7239  0.9799
  139TMC2    H1 2167   1.552   4.526  13.831  0.6903 -0.2378 -0.5847
  139TMC2    H2 2168   1.592   0.098  13.538  0.7335 -0.1121 -1.2208
  139TMC2    C7 2169   1.462   0.028  13.750 -0.6316 -0.2190 -0.8463
  139TMC2    C8 2170   1.820   0.009  13.447 -0.0439  0.1002 -0.6809
  139TMC2    O1 2171   1.404   0.111  13.683 -0.6554 -0.2684 -0.4596
  139TMC2    O2 2172   1.760   4.725  13.342  0.4994 -0.2402 -0.0675
  139TMC2    O5 2173   1.958   0.008  13.472  0.3884 -0.3596 -0.2550
  139TMC2    H5 2174   1.968   0.026  13.567 -1.6763  0.2449 -0.1597
  140MPD2     C 2175   1.569   4.104  13.870 -0.1557 -0.1062  0.1484
  140MPD2    C1 2176   1.673   4.175  13.816 -0.6411  0.2690  0.6432
  140MPD2    C2 2177   1.788   4.103  13.795  0.5012  0.6092  0.4924
  140MPD2    C3 2178   1.804   3.972  13.834  0.0385 -0.5703 -0.2471
  140MPD2    C4 2179   1.700   3.911  13.889 -0.2912  0.1908  0.6025
  140MPD2    C5 2180   1.584   3.977  13.908  0.6507  0.2897 -0.2780
  140MPD2     H 2181   1.872   4.146  13.742  1.6176 -0.2332  1.5958
  140MPD2    H1 2182   1.702   3.804  13.911  1.0568 -0.4369 -2.5316
  140MPD2    H2 2183   1.473   4.155  13.882 -0.0641 -0.1212  0.9613
  140MPD2    H3 2184   1.498   3.922  13.942 -0.5847  1.1790 -1.9524
  140MPD2     N 2185   1.919   3.904  13.783  0.1540  0.4885  0.2793
  140MPD2    H5 2186   1.983   3.967  13.738  1.6609 -0.6008  0.9035
  140MPD2    N1 2187   1.666   4.310  13.780 -0.6069 -0.0903 -0.4046
  140MPD2    H7 2188   1.574   4.351  13.774 -0.5084  0.5486  2.6768
  141TMC2    C1 2189   2.320   0.599  14.832 -0.0867 -0.1258 -0.5006
  141TMC2    C2 2190   2.314   0.512  14.939 -0.6020 -0.2344 -0.1510
  141TMC2    C3 2191   2.278   0.561  15.058 -0.4813  0.4941 -0.1544
  141TMC2    C4 2192   2.292   0.735  14.851 -0.0244 -0.0569  1.0211
  141TMC2    C5 2193   2.266   0.779  14.980 -0.0686  0.4273 -0.0871
  141TMC2    C6 2194   2.265   0.694  15.086 -0.1864 -0.4391  0.7382
  141TMC2     C 2195   2.341   0.545  14.701  0.1505 -0.4428 -1.1379
  141TMC2     O 2196   2.375   0.627  14.615  0.0455  0.1752 -0.0375
  141TMC2     H 2197   2.319   0.404  14.931 -2.5720 -0.4711  1.8355
  141TMC2    H1 2198   2.287   0.810  14.774  1.6691  0.1078  1.0806
  141TMC2    H2 2199   2.248   0.729  15.188  2.1557 -1.2475  1.4112
  141TMC2    C7 2200   2.185   0.892  15.011  0.2736 -0.1786 -0.5776
  141TMC2    C8 2201   2.240   0.454  15.159  0.5184  0.7688  0.2283
  141TMC2    O1 2202   2.160   0.912  15.128  0.0735  0.6024  0.4679
  141TMC2    O2 2203   2.196   0.348  15.124  0.4260  0.2085  0.4061
  141TMC2    O5 2204   2.194   0.518  15.270  0.3642  0.0851  0.1379
  141TMC2    H5 2205   2.257   0.587  15.302  1.4581 -0.2974 -1.2072
  142TMC2    C1 2206   0.052   4.172  10.182 -0.4027 -0.6025 -0.3669
  142TMC2    C2 2207   0.102   4.164  10.055 -0.1816 -0.0800  0.5440
  142TMC2    C3 2208   0.207   4.251  10.031  0.7129 -0.7251  0.5987
  142TMC2    C4 2209   0.099   4.259  10.280  0.4066  0.9787 -0.4869
  142TMC2    C5 2210   0.199   4.343  10.243  0.9198  0.4473 -0.3923
  142TMC2    C6 2211   0.260   4.343  10.118  0.2556  0.0217 -0.5338
  142TMC2     C 2212   4.709   4.053  10.222  0.2750  0.2078 -0.2251
  142TMC2     O 2213   0.002   3.950  10.164 -0.2750  0.0048 -0.7601
  142TMC2     H 2214   0.055   4.106   9.976  0.2400 -1.3175  1.1858
  142TMC2    H1 2215   0.060   4.261  10.381 -0.9148  1.7133 -1.0091
  142TMC2    H2 2216   0.351   4.400  10.101  1.5120 -1.9805 -0.5508
  142TMC2    C7 2217   0.234   4.447  10.341  0.0145 -0.1277 -0.9979
  142TMC2    C8 2218   0.284   4.239   9.910 -0.1396  0.1651 -0.0857
  142TMC2    O1 2219   0.174   4.448  10.451 -0.5371  0.1483 -0.7098
  142TMC2    O2 2220   0.405   4.252   9.913 -0.6540  0.6333 -1.0790
  142TMC2    O5 2221   0.199   4.208   9.809 -0.2744  0.1411  0.5014
  142TMC2    H5 2222   0.104   4.207   9.832 -0.1121  1.9184  1.2082
  143MPD2     C 2223   4.413   3.777  10.529  0.3397 -0.1445 -0.1681
  143MPD2    C1 2224   4.468   3.745  10.405 -0.4593  1.0380  0.0519
  143MPD2    C2 2225   4.540   3.839  10.342  0.1360 -0.1764 -0.6056
  143MPD2    C3 2226   4.551   3.966  10.397  0.2610  0.2534  0.1845
  143MPD2    C4 2227   4.484   4.000  10.509  0.4211  0.1980  0.6908
  143MPD2    C5 2228   4.426   3.900  10.584 -0.0953 -0.1938  1.4348
  143MPD2     H 2229   4.586   3.819  10.246  0.9737  0.0485 -0.2533
  143MPD2    H1 2230   4.488   4.100  10.551 -0.2071  0.2631  0.5973
  143MPD2    H2 2231   4.361   3.702  10.586 -2.4682  1.7105 -0.2674
  143MPD2    H3 2232   4.391   3.920  10.684 -1.5502 -0.1556  0.9164
  143MPD2     N 2233   4.634   4.066  10.340 -0.0752 -0.0081  0.4399
  143MPD2    H5 2234   4.632   4.159  10.380  0.5166 -0.1682  0.8444
  143MPD2    N1 2235   4.456   3.614  10.359  0.1555  0.5696 -0.5444
  143MPD2    H7 2236   4.392   3.551  10.408  2.6231 -0.5441  1.2184
  144TMC2    C1 2237   2.262   2.974   0.589  0.1684 -0.1431 -0.3010
  144TMC2    C2 2238   2.373   2.895   0.591 -0.2672 -0.2156 -0.6767
  144TMC2    C3 2239   2.461   2.919   0.692 -0.3926  0.2127  0.4574
  144TMC2    C4 2240   2.234   3.063   0.688 -0.0794  0.7436 -0.1521
  144TMC2    C5 2241   2.327   3.082   0.784  0.3664  0.0405 -1.0425
  144TMC2    C6 2242   2.441   3.009   0.794 -0.3840  0.4104 -0.3933
  144TMC2     C 2243   2.175   2.939   0.488  0.4817 -0.0889  0.1018
  144TMC2     O 2244   2.222   2.888   0.386  0.4508 -0.0029 -0.3923
  144TMC2     H 2245   2.401   2.821   0.516 -3.0082 -1.9630  0.0461
  144TMC2    H1 2246   2.146   3.127   0.688 -0.7947 -0.2637  1.1912
  144TMC2    H2 2247   2.519   3.038   0.864  0.1915 -0.2222 -0.7700
  144TMC2    C7 2248   2.300   3.157   0.907 -0.8534 -0.2675 -0.2243
  144TMC2    C8 2249   2.566   2.813   0.699 -0.9861 -0.1933  0.1120
  144TMC2    O1 2250   2.360   3.117   1.000  0.2421 -0.2915  0.0618
  144TMC2    O2 2251   2.582   2.727   0.613  0.4296 -0.6934 -0.3355
  144TMC2    O5 2252   2.653   2.841   0.800 -0.1384  0.0281 -0.4133
  144TMC2    H5 2253   2.627   2.927   0.839 -1.7752 -0.8351  0.3621
  145MPD2     C 2254   1.705   3.025   0.293 -0.3202  0.2907 -0.3658
  145MPD2    C1 2255   1.819   2.971   0.228 -0.2192  0.2136 -0.6381
  145MPD2    C2 2256   1.933   2.944   0.301  0.0285 -0.2427  0.5155
  145MPD2    C3 2257   1.930   2.972   0.439  0.6297  0.3849 -0.4191
  145MPD2    C4 2258   1.817   3.006   0.499 -0.0778 -0.4491  0.6208
  145MPD2    C5 2259   1.704   3.025   0.425  0.1990  0.0161  0.8872
  145MPD2     H 2260   2.021   2.910   0.248 -0.9856 -0.0798 -1.2987
  145MPD2    H1 2261   1.805   3.013   0.606  0.3256  1.0620  0.5756
  145MPD2    H2 2262   1.609   3.044   0.247 -0.4323 -0.7852 -0.5883
  145MPD2    H3 2263   1.617   3.056   0.482  0.4416 -0.7299  1.6598
  145MPD2     N 2264   2.049   2.971   0.520  0.3768  0.1538  0.0328
  145MPD2    H5 2265   2.042   3.008   0.615 -1.9696  0.6978 -0.3577
  145MPD2    N1 2266   1.814   2.947   0.094 -0.5219  0.4881 -0.4783
  145MPD2    H7 2267   1.898   2.902   0.061 -0.6893  0.0342 -0.2789
  146TMC2    C1 2268   3.712   2.227  12.442 -0.9271  0.1138 -0.7972
  146TMC2    C2 2269   3.592   2.239  12.376 -0.1558 -0.2520 -0.6230
  146TMC2    C3 2270   3.581   2.175  12.253 -0.1081  0.1251 -0.1800
  146TMC2    C4 2271   3.808   2.144  12.388 -0.1870  0.6239  0.1630
  146TMC2    C5 2272   3.787   2.078  12.267  0.0216  0.4239 -0.7857
  146TMC2    C6 2273   3.669   2.088  12.196  0.5565  0.8480 -0.9886
  146TMC2     C 2274   3.739   2.309  12.556 -0.0119 -0.0411  0.2114
  146TMC2     O 2275   3.684   2.423  12.564 -0.4638  0.0700 -0.4042
  146TMC2     H 2276   3.512   2.302  12.411  0.8064  1.1393 -0.9502
  146TMC2    H1 2277   3.906   2.146  12.433 -0.4228 -1.8919  0.7880
  146TMC2    H2 2278   3.650   2.042  12.100  1.0355 -0.3103 -0.5299
  146TMC2    C7 2279   3.906   2.024  12.192 -0.3372 -1.0103  0.1298
  146TMC2    C8 2280   3.463   2.207  12.173 -0.5724  0.3469  0.2816
  146TMC2    O1 2281   3.885   2.009  12.074 -0.0055  0.1992 -0.3873
  146TMC2    O2 2282   3.419   2.126  12.091 -0.2206 -0.0077 -0.2380
  146TMC2    O5 2283   3.483   2.334  12.134 -0.4205  0.5250 -0.0493
  146TMC2    H5 2284   3.542   2.396  12.183 -0.3853  0.0331  0.5287
  147MPD2     C 2285   4.392   1.892  12.102  0.3315 -0.2686  0.4921
  147MPD2    C1 2286   4.366   1.876  12.238  0.3715 -0.1372  0.6768
  147MPD2    C2 2287   4.249   1.913  12.291 -0.6007 -0.2598  0.1944
  147MPD2    C3 2288   4.146   1.970  12.213  0.8546 -0.4936 -0.2409
  147MPD2    C4 2289   4.177   1.980  12.078 -0.1680 -0.1118  0.0091
  147MPD2    C5 2290   4.295   1.942  12.027  0.1267 -0.3206 -0.5975
  147MPD2     H 2291   4.238   1.884  12.395  1.4998  1.4695  0.9086
  147MPD2    H1 2292   4.099   2.011  12.009  0.1408  2.1141  0.6394
  147MPD2    H2 2293   4.485   1.857  12.058 -0.9881 -0.3652 -2.2114
  147MPD2    H3 2294   4.308   1.937  11.920  2.3288 -1.6160 -0.2768
  147MPD2     N 2295   4.020   2.003  12.272 -0.0190  0.2220  0.0715
  147MPD2    H5 2296   4.020   1.996  12.373 -2.0679  4.2853  0.3338
  147MPD2    N1 2297   4.472   1.823  12.316  1.2883 -0.1138  0.1579
  147MPD2    H7 2298   4.559   1.814  12.265  0.2344  0.2711 -1.6709
  148TMC2    C1 2299   4.444   0.638  10.719 -0.8309 -0.4623 -0.2041
  148TMC2    C2 2300   4.544   0.702  10.779  0.2578 -0.4366 -0.1617
  148TMC2    C3 2301   4.623   0.629  10.867  0.0201  0.4346 -0.1382
  148TMC2    C4 2302   4.405   0.513  10.762  1.0361 -0.2257 -0.2961
  148TMC2    C5 2303   4.481   0.435  10.842 -0.8750 -0.4809 -0.0291
  148TMC2    C6 2304   4.602   0.494  10.879 -0.5032  0.1882 -0.1366
  148TMC2     C 2305   4.408   0.682  10.582 -0.2561 -0.4663 -0.3437
  148TMC2     O 2306   4.434   0.798  10.547 -0.4163 -0.4851 -0.4100
  148TMC2     H 2307   4.576   0.802  10.754 -1.5818 -0.0478 -0.9541
  148TMC2    H1 2308   4.322   0.459  10.718  0.3230 -0.1595  0.9680
  148TMC2    H2 2309   4.680   0.427  10.913 -3.9569 -2.6684  2.0712
  148TMC2    C7 2310   4.496   0.298  10.798  0.6613 -0.1921 -0.0470
  148TMC2    C8 2311   0.022   0.675  10.881 -0.3984 -0.0193 -0.0993
  148TMC2    O1 2312   4.603   0.260  10.760  0.7711  0.0228 -0.4079
  148TMC2    O2 2313   0.075   0.730  10.787 -0.0289  0.5617 -0.2166
  148TMC2    O5 2314   0.090   0.585  10.952  0.5558 -0.1086 -0.1717
  148TMC2    H5 2315   0.028   0.551  11.020 -1.6601  1.8852 -1.2000
  149MPD2     C 2316   4.271   0.733  10.329 -0.3623  0.2706 -0.2524
  149MPD2    C1 2317   4.288   0.607  10.382 -0.6062  0.1661  0.1384
  149MPD2    C2 2318   4.238   0.495  10.321  0.9447  0.0347 -0.3118
  149MPD2    C3 2319   4.143   0.507  10.221 -0.4684 -0.2010  0.4296
  149MPD2    C4 2320   4.118   0.631  10.167  0.6427  0.5190  0.0908
  149MPD2    C5 2321   4.188   0.739  10.214  0.0654  1.3734 -0.1314
  149MPD2     H 2322   4.261   0.399  10.366 -0.0758  0.5878  1.3948
  149MPD2    H1 2323   4.041   0.637  10.091  0.8643 -0.4279 -0.2088
  149MPD2    H2 2324   4.330   0.818  10.358  0.8545 -1.1344  1.3775
  149MPD2    H3 2325   4.169   0.838  10.175  0.1906  1.3510 -0.2509
  149MPD2     N 2326   4.064   0.404  10.169 -0.4405  0.3966 -0.0429
  149MPD2    H5 2327   4.002   0.423  10.090  1.5480  1.9690 -1.2229
  149MPD2    N1 2328   4.349   0.582  10.509  0.6117  0.7438 -0.2894
  149MPD2    H7 2329   4.344   0.490  10.550  1.6619  0.1753 -1.4173
  150TMC2    C1 2330   1.091   0.048  12.387 -0.1983  0.5014  0.2849
  150TMC2    C2 2331   1.046   0.092  12.262 -1.1617  0.4704  0.8269
  150TMC2    C3 2332   1.133   0.067  12.159 -0.7365  0.1294  0.0947
  150TMC2    C4 2333   1.211   4.729  12.412 -0.7248 -0.1756  0.4277
  150TMC2    C5 2334   1.304   4.722  12.312 -0.2313  0.3816  0.1145
  150TMC2    C6 2335   1.262   0.008  12.179  0.7469 -0.0009  0.4456
  150TMC2     C 2336   0.992   0.016  12.486  0.6183  0.4379  0.0265
  150TMC2     O 2337   1.021   0.021  12.605  0.2329 -0.4108  0.3519
  150TMC2     H 2338   0.944   0.124  12.242 -1.1271 -0.3439 -0.7038
  150TMC2    H1 2339   1.229   4.702  12.516 -0.5092  0.3008  0.5113
  150TMC2    H2 2340   1.325   0.007  12.091 -1.1611 -2.0581 -0.9018
  150TMC2    C7 2341   1.442   4.678  12.321 -0.1801 -0.0916 -0.6331
  150TMC2    C8 2342   1.092   0.088  12.026 -0.5529  0.0267 -0.2295
  150TMC2    O1 2343   1.502   4.665  12.214  0.1821 -0.0776 -0.4944
  150TMC2    O2 2344   1.155   0.043  11.930  0.4551  0.2285 -0.2838
  150TMC2    O5 2345   1.056   0.221  12.031 -0.0868 -0.7375  0.4994
  150TMC2    H5 2346   1.043   0.250  12.124  1.3382 -0.4094  0.5812
  151MPD2     C 2347   0.506   4.639  12.617  0.0514  0.1175  0.0235
  151MPD2    C1 2348   0.534   4.592  12.490  0.6860 -0.0291  0.0706
  151MPD2    C2 2349   0.656   4.617  12.432 -0.0293  0.0618 -0.2002
  151MPD2    C3 2350   0.752   4.699  12.494  0.3294 -0.1511  0.4822
  151MPD2    C4 2351   0.730   0.013  12.615  0.0743 -0.5928  0.4612
  151MPD2    C5 2352   0.610   4.714  12.673 -0.0419 -0.0379 -0.6396
  151MPD2     H 2353   0.677   4.571  12.336 -0.2809  0.5874 -0.5105
  151MPD2    H1 2354   0.801   0.066  12.677 -1.3722  0.4873  1.1850
  151MPD2    H2 2355   0.416   4.606  12.667  1.0432 -2.7799 -0.0891
  151MPD2    H3 2356   0.602   0.012  12.776  0.2038 -2.7726  0.3088
  151MPD2     N 2357   0.878   4.711  12.426  0.2424  0.0501 -0.0834
  151MPD2    H5 2358   0.873   4.686  12.328 -0.0140  1.2619 -0.3770
  151MPD2    N1 2359   0.451   4.498  12.436 -0.4799 -0.2187  0.1461
  151MPD2    H7 2360   0.388   4.457  12.505 -2.3072  1.7030 -0.3727
  152TMC2    C1 2361   1.336   4.541  13.143  0.7620  0.1951 -0.8488
  152TMC2    C2 2362   1.407   4.449  13.216 -0.1892  0.0555 -0.0079
  152TMC2    C3 2363   1.546   4.462  13.212  0.2490  0.1110 -0.0015
  152TMC2    C4 2364   1.392   4.660  13.104  0.3125 -0.4426 -0.7737
  152TMC2    C5 2365   1.528   4.667  13.109 -1.4316 -0.4891 -0.1974
  152TMC2    C6 2366   1.608   4.567  13.161 -0.3093  0.7875 -0.3420
  152TMC2     C 2367   1.188   4.538  13.127 -0.2935  0.1086 -0.3806
  152TMC2     O 2368   1.140   4.639  13.072 -0.3934  0.3533  0.1348
  152TMC2     H 2369   1.356   4.365  13.262  0.6228 -0.4071  0.0579
  152TMC2    H1 2370   1.342   4.734  13.043  1.1826 -0.0498 -1.0096
  152TMC2    H2 2371   1.716   4.566  13.163 -0.2844  2.2691 -0.7148
  152TMC2    C7 2372   1.591   0.016  13.010 -0.2445 -0.1022 -0.1734
  152TMC2    C8 2373   1.615   4.365  13.288  0.3635 -0.1479  0.3239
  152TMC2    O1 2374   1.524   0.072  12.923  0.9004 -0.2032 -0.4191
  152TMC2    O2 2375   1.580   4.248  13.297  0.2265 -0.0373 -0.2220
  152TMC2    O5 2376   1.658   4.441  13.393 -0.3076 -0.1856 -0.6922
  152TMC2    H5 2377   1.656   4.534  13.361 -1.0142 -0.2029 -0.6935
  153MPD2     C 2378   0.958   4.256  13.175 -0.6203  0.0295  0.4272
  153MPD2    C1 2379   0.994   4.383  13.145 -0.4305  0.4780  0.8076
  153MPD2    C2 2380   0.903   4.477  13.100 -0.6335  0.5795  0.3117
  153MPD2    C3 2381   0.766   4.443  13.095 -0.0093 -0.0191 -0.4403
  153MPD2    C4 2382   0.726   4.316  13.134 -0.2218 -0.2030 -1.4654
  153MPD2    C5 2383   0.817   4.218  13.168 -0.3698  0.1406  0.0259
  153MPD2     H 2384   0.928   4.580  13.079 -0.5965  0.0142 -2.4012
  153MPD2    H1 2385   0.623   4.283  13.121 -0.2960 -0.0357 -1.3032
  153MPD2    H2 2386   1.026   4.174  13.196 -0.1776  0.4208  0.5386
  153MPD2    H3 2387   0.782   4.115  13.164  0.3902 -0.1722  1.4804
  153MPD2     N 2388   0.679   4.547  13.057  0.4010 -0.4199 -0.0296
  153MPD2    H5 2389   0.725   4.631  13.021  0.2178  0.1584  1.0603
  153MPD2    N1 2390   1.129   4.415  13.160 -0.4876 -0.7206 -0.3133
  153MPD2    H7 2391   1.186   4.346  13.207  0.8322 -0.6642 -1.8264
  154TMC2    C1 2392   2.509   4.383  17.402  0.0937  0.0476  0.0201
  154TMC2    C2 2393   2.548   4.266  17.461  0.2139  0.0719 -0.6413
  154TMC2    C3 2394   2.678   4.262  17.505  0.0909  0.1947 -0.0235
  154TMC2    C4 2395   2.595   4.485  17.379  0.6529  0.4363  0.1912
  154TMC2    C5 2396   2.724   4.478  17.423  0.6423 -0.1083 -0.6615
  154TMC2    C6 2397   2.773   4.360  17.474  0.2596 -0.8239  0.4397
  154TMC2     C 2398   2.391   4.374  17.323  0.1487  0.1689 -0.0285
  154TMC2     O 2399   2.351   4.478  17.276  0.2015 -0.4154  0.0273
  154TMC2     H 2400   2.480   4.186  17.488  1.9260 -1.0310  0.4063
  154TMC2    H1 2401   2.563   4.578  17.333 -0.7654  0.2434  0.8039
  154TMC2    H2 2402   2.876   4.342  17.505  0.2070  0.7354  1.5370
  154TMC2    C7 2403   2.826   4.561  17.366  0.0314  0.3927 -0.4693
  154TMC2    C8 2404   2.735   4.139  17.547  0.0529 -0.3309  0.0828
  154TMC2    O1 2405   2.937   4.509  17.358 -0.1107  0.3141  0.5540
  154TMC2    O2 2406   2.852   4.106  17.534  0.1100 -0.0735 -0.0410
  154TMC2    O5 2407   2.653   4.086  17.637 -0.7225 -0.6288 -0.7539
  154TMC2    H5 2408   2.579   4.140  17.672 -1.0547 -1.7709  0.3278
  155MPD2     C 2409   2.190   4.076  17.219 -1.3514 -0.1267  0.4944
  155MPD2    C1 2410   2.216   4.212  17.249  1.1588  0.0125  0.2041
  155MPD2    C2 2411   2.113   4.300  17.234  0.6803  0.2365  0.6550
  155MPD2    C3 2412   1.988   4.256  17.195 -0.2366 -0.1727  0.3382
  155MPD2    C4 2413   1.966   4.119  17.179 -0.2227  0.5297  0.5197
  155MPD2    C5 2414   2.070   4.032  17.187  0.1651  0.1635 -0.0447
  155MPD2     H 2415   2.129   4.399  17.277  0.6587  0.2549  0.6200
  155MPD2    H1 2416   1.869   4.089  17.141  0.1606 -0.5911  0.4269
  155MPD2    H2 2417   2.255   3.989  17.221  1.1069  1.7026 -0.5707
  155MPD2    H3 2418   2.056   3.927  17.164  0.9643  0.5655 -2.3612
  155MPD2     N 2419   1.871   4.334  17.214  0.0383  0.4465  0.4601
  155MPD2    H5 2420   1.780   4.289  17.218 -0.1773  0.7254 -1.5262
  155MPD2    N1 2421   2.348   4.245  17.295 -0.4775 -0.2191 -0.3403
  155MPD2    H7 2422   2.410   4.166  17.308  0.7111  0.6724 -0.5762
  156TMC2    C1 2423   1.563   2.448  11.448 -1.5948  0.8528 -0.6530
  156TMC2    C2 2424   1.645   2.373  11.370  0.1511  0.0889 -0.2228
  156TMC2    C3 2425   1.651   2.397  11.240  0.4568  0.9927  0.0477
  156TMC2    C4 2426   1.499   2.558  11.403 -0.3383  0.3867  0.2144
  156TMC2    C5 2427   1.498   2.577  11.264 -0.4096 -0.0517 -0.3299
  156TMC2    C6 2428   1.574   2.496  11.181  0.5908 -0.0692  0.0162
  156TMC2     C 2429   1.553   2.424  11.590  0.0267 -0.6674  1.4198
  156TMC2     O 2430   1.559   2.528  11.654  0.0153 -0.0101 -0.0436
  156TMC2     H 2431   1.709   2.304  11.423 -0.1068 -0.2832 -0.3988
  156TMC2    H1 2432   1.445   2.625  11.470  1.5591  2.1683 -0.0468
  156TMC2    H2 2433   1.568   2.512  11.074  2.2504 -1.6869 -0.3093
  156TMC2    C7 2434   1.432   2.693  11.210  0.8568 -0.7521 -0.1677
  156TMC2    C8 2435   1.752   2.336  11.156 -0.1308  0.4905 -0.4870
  156TMC2    O1 2436   1.494   2.769  11.134  0.5991  0.3570 -0.3671
  156TMC2    O2 2437   1.799   2.407  11.066 -0.3760 -0.2591 -0.4011
  156TMC2    O5 2438   1.823   2.257  11.229 -0.2512 -0.5433 -0.2806
  156TMC2    H5 2439   1.763   2.194  11.275 -1.5266 -0.2557 -1.5652
  157MPD2     C 2440   1.551   2.122  11.801 -0.4803  0.1944 -0.9560
  157MPD2    C1 2441   1.568   2.256  11.767  0.5548  0.0579  0.2068
  157MPD2    C2 2442   1.597   2.350  11.865 -0.5757 -0.1449 -0.1652
  157MPD2    C3 2443   1.590   2.308  11.998  0.3013  0.0761 -0.8552
  157MPD2    C4 2444   1.573   2.169  12.024  0.1784  0.0155 -0.1503
  157MPD2    C5 2445   1.562   2.074  11.927  0.2091  1.0144  0.5991
  157MPD2     H 2446   1.612   2.456  11.851 -0.5926 -0.2887 -1.2648
  157MPD2    H1 2447   1.568   2.133  12.126 -4.8026 -1.0240 -0.7823
  157MPD2    H2 2448   1.542   2.063  11.711 -0.2555 -1.4759  0.1290
  157MPD2    H3 2449   1.538   1.972  11.955 -1.0697  0.9541 -0.7108
  157MPD2     N 2450   1.599   2.408  12.098 -0.4619  0.6359 -0.0484
  157MPD2    H5 2451   1.619   2.501  12.063 -0.9441  0.1059 -1.7500
  157MPD2    N1 2452   1.558   2.294  11.629 -0.6598  0.1039 -0.1042
  157MPD2    H7 2453   1.538   2.222  11.560 -1.2312  0.3925 -0.2402
  158TMC2    C1 2454   1.899   0.649  13.433 -0.4541  0.1322 -0.4805
  158TMC2    C2 2455   1.951   0.614  13.309  0.5685  0.3758  0.1302
  158TMC2    C3 2456   1.914   0.683  13.198  0.6167  0.3997 -0.3631
  158TMC2    C4 2457   1.795   0.738  13.448 -0.3396 -0.1101  0.2679
  158TMC2    C5 2458   1.763   0.812  13.337 -0.8692 -0.1040 -0.2041
  158TMC2    C6 2459   1.823   0.792  13.216  0.1451 -0.2350  0.3961
  158TMC2     C 2460   1.971   0.592  13.543  0.2052  0.1940 -0.2405
  158TMC2     O 2461   2.070   0.531  13.514  0.6058 -0.2528  0.8277
  158TMC2     H 2462   2.029   0.539  13.297  0.0188 -0.4172  1.4503
  158TMC2    H1 2463   1.758   0.768  13.546 -2.0520  2.1429 -1.0556
  158TMC2    H2 2464   1.785   0.842  13.129 -0.5702 -1.6695 -0.1182
  158TMC2    C7 2465   1.634   0.876  13.324 -0.7092 -0.3806  0.9510
  158TMC2    C8 2466   1.891   0.604  13.077 -0.4514  0.4076  0.7738
  158TMC2    O1 2467   1.601   0.955  13.235  0.1655  0.3734  0.5131
  158TMC2    O2 2468   1.778   0.604  13.030  0.3535  0.9698  0.0846
  158TMC2    O5 2469   1.968   0.497  13.082  0.0515  0.1570 -0.3059
  158TMC2    H5 2470   2.051   0.538  13.116 -0.7753  1.3659  0.2780
  159MPD2     C 2471   2.031   0.479  14.026  0.8049 -0.1274 -0.9200
  159MPD2    C1 2472   1.948   0.586  14.023  0.5625 -0.1709  0.8339
  159MPD2    C2 2473   1.912   0.640  13.905  1.4622  0.3833  0.0211
  159MPD2    C3 2474   1.965   0.585  13.792 -0.1238 -0.0461 -0.4691
  159MPD2    C4 2475   2.039   0.470  13.792  0.2134  0.7873 -0.5467
  159MPD2    C5 2476   2.075   0.416  13.912 -0.1912 -0.0820  0.7748
  159MPD2     H 2477   1.843   0.723  13.894  1.4666  0.5861  1.5921
  159MPD2    H1 2478   2.075   0.422  13.702  1.0011  0.8794 -0.2875
  159MPD2    H2 2479   2.067   0.439  14.120 -0.2496  1.6828  0.2563
  159MPD2    H3 2480   2.130   0.322  13.919  1.0058  0.5383 -0.1699
  159MPD2     N 2481   1.925   0.637  13.661  0.7363  0.0721 -0.3310
  159MPD2    H5 2482   1.874   0.725  13.658  0.0027 -0.4443 -2.9231
  159MPD2    N1 2483   1.903   0.628  14.154  0.4244  0.3910  0.1704
  159MPD2    H7 2484   1.924   0.575  14.237  0.9172 -0.8617 -0.7492
  160TMC2    C1 2485   0.317   3.409   1.932  0.5228  0.2628  0.2941
  160TMC2    C2 2486   0.278   3.293   1.984  0.0808 -0.1519  0.4731
  160TMC2    C3 2487   0.363   3.190   1.969  0.4700 -0.1363 -0.4284
  160TMC2    C4 2488   0.436   3.425   1.869 -0.3097 -0.4681 -0.4291
  160TMC2    C5 2489   0.523   3.318   1.864  0.1188  0.0476  0.6808
  160TMC2    C6 2490   0.487   3.196   1.913 -0.3551 -0.1499 -0.9099
  160TMC2     C 2491   0.218   3.522   1.941 -0.2433 -0.5164  0.3597
  160TMC2     O 2492   0.132   3.510   2.028 -0.1733  0.7865 -0.1098
  160TMC2     H 2493   0.177   3.274   2.019 -0.5954  1.3162 -0.6672
  160TMC2    H1 2494   0.472   3.523   1.840  0.4240 -1.1316 -1.7315
  160TMC2    H2 2495   0.546   3.106   1.901  1.2834  0.6276  1.4099
  160TMC2    C7 2496   0.662   3.328   1.822 -0.0953  0.5610 -0.1297
  160TMC2    C8 2497   0.317   3.052   2.006 -0.1607 -0.7321  0.0993
  160TMC2    O1 2498   0.737   3.239   1.859  0.1769  0.3034  0.3231
  160TMC2    O2 2499   0.197   3.023   1.997  0.3448 -0.1269 -0.5721
  160TMC2    O5 2500   0.421   2.981   2.053 -0.5228 -0.3233 -0.4249
  160TMC2    H5 2501   0.490   3.039   2.092  0.5492 -1.7207 -0.2250
  161MPD2     C 2502   0.065   3.760   1.934 -0.3959 -0.2100 -0.0500
  161MPD2    C1 2503   0.143   3.723   1.824 -0.6986  0.1168 -0.1911
  161MPD2    C2 2504   0.140   3.778   1.697  0.1445  0.3527  0.6198
  161MPD2    C3 2505   0.048   3.884   1.687 -0.1341 -1.0688  0.3725
  161MPD2    C4 2506   4.709   3.928   1.791 -0.5772  0.7538 -0.0642
  161MPD2    C5 2507   4.711   3.864   1.910 -0.5794 -0.5475  0.0552
  161MPD2     H 2508   0.215   3.754   1.623 -0.7402 -2.9346  0.8087
  161MPD2    H1 2509   4.635   4.006   1.774  0.6836  1.5163 -2.1140
  161MPD2    H2 2510   0.064   3.720   2.035 -2.5483 -1.1769 -0.4499
  161MPD2    H3 2511   4.651   3.910   1.989 -1.0740 -2.7169  0.9411
  161MPD2     N 2512   0.031   3.962   1.565  0.0434 -0.6032 -0.0063
  161MPD2    H5 2513   4.696   4.034   1.561 -0.1130 -0.5790  2.8910
  161MPD2    N1 2514   0.234   3.620   1.840  0.6900  0.0930  0.5375
  161MPD2    H7 2515   0.300   3.595   1.768  0.1749  1.3015 -0.3521
  162TMC2    C1 2516   3.085   0.838   0.519 -0.0551  0.2327  0.2648
  162TMC2    C2 2517   2.956   0.887   0.535 -0.0398  0.3720  0.0926
  162TMC2    C3 2518   2.937   0.968   0.641 -0.4497  0.2374 -0.9377
  162TMC2    C4 2519   3.183   0.866   0.608 -0.1725 -0.5237  1.2219
  162TMC2    C5 2520   3.160   0.953   0.708  0.4904 -0.0866  0.0177
  162TMC2    C6 2521   3.033   0.996   0.736 -0.6831  0.1896  0.0363
  162TMC2     C 2522   3.113   0.786   0.387 -0.7725 -0.7929  0.7291
  162TMC2     O 2523   3.015   0.773   0.314  0.2350  0.4028  0.6610
  162TMC2     H 2524   2.870   0.845   0.483 -0.1393  2.6272 -1.5516
  162TMC2    H1 2525   3.283   0.828   0.589  0.6667 -0.1931  4.9556
  162TMC2    H2 2526   3.010   1.077   0.805  0.1770  1.1895 -0.8614
  162TMC2    C7 2527   3.254   0.995   0.804  0.0080 -0.0642 -0.0640
  162TMC2    C8 2528   2.804   1.025   0.659 -0.3913 -0.7147 -0.1892
  162TMC2    O1 2529   3.240   1.108   0.862  0.0786  0.6662 -0.3198
  162TMC2    O2 2530   2.776   1.081   0.768  0.5130 -0.0801 -0.1120
  162TMC2    O5 2531   2.720   1.009   0.552 -0.7233  0.3748 -0.0043
  162TMC2    H5 2532   2.761   0.958   0.479  1.0872 -1.1615  2.0725
  163MPD2     C 2533   3.396   0.700  17.722  0.1857  0.2200 -0.9326
  163MPD2    C1 2534   3.472   0.663   0.081  0.2825  0.5126 -0.6079
  163MPD2    C2 2535   3.426   0.695   0.208  0.1002 -0.1357  0.2599
  163MPD2    C3 2536   3.297   0.734   0.229 -0.2105  0.4936  0.0901
  163MPD2    C4 2537   3.224   0.769   0.119 -0.0885  0.2616  0.4345
  163MPD2    C5 2538   3.269   0.744  17.742  0.0733  0.1814  0.1430
  163MPD2     H 2539   3.491   0.667   0.290  0.1222 -1.3960 -0.1893
  163MPD2    H1 2540   3.127   0.815   0.132 -0.6423  0.0160 -2.8553
  163MPD2    H2 2541   3.430   0.695  17.619  0.9675 -0.6638 -0.6302
  163MPD2    H3 2542   3.213   0.765  17.652 -0.6224 -3.4863 -0.2763
  163MPD2     N 2543   3.241   0.743   0.358 -0.3906 -0.1301 -0.8503
  163MPD2    H5 2544   3.302   0.733   0.438  1.6855  0.2938 -2.3755
  163MPD2    N1 2545   3.594   0.595   0.047 -0.4738 -0.6947  0.2017
  163MPD2    H7 2546   3.623   0.590  17.696  3.0966 -0.6293  1.2837
  164TMC2    C1 2547   0.426   0.342  11.426 -0.5630  0.4896 -0.0392
  164TMC2    C2 2548   0.556   0.387  11.413  0.3261  0.0735 -0.4425
  164TMC2    C3 2549   0.570   0.522  11.405 -0.4297  0.1346  0.3178
  164TMC2    C4 2550   0.312   0.426  11.442  0.2240  0.0876  0.7856
  164TMC2    C5 2551   0.342   0.557  11.421 -0.3855  0.7043 -0.4677
  164TMC2    C6 2552   0.469   0.607  11.410  0.2494 -0.0997 -0.0716
  164TMC2     C 2553   0.398   0.203  11.394 -0.0848 -0.4004  0.7304
  164TMC2     O 2554   0.284   0.167  11.423  0.0129  0.3400 -0.8410
  164TMC2     H 2555   0.647   0.328  11.411  0.2522  0.0684 -2.8992
  164TMC2    H1 2556   0.216   0.377  11.438  0.6012 -0.3802 -3.5556
  164TMC2    H2 2557   0.486   0.714  11.403 -1.6096  0.1684 -0.6988
  164TMC2    C7 2558   0.233   0.625  11.357  0.3278  0.1378 -0.0094
  164TMC2    C8 2559   0.697   0.582  11.440  0.4668 -0.2872  0.0142
  164TMC2    O1 2560   0.117   0.606  11.395 -0.1870 -1.1996  0.9011
  164TMC2    O2 2561   0.709   0.659  11.530 -1.0862 -0.2586 -0.2594
  164TMC2    O5 2562   0.766   0.601  11.324  0.3725 -0.3176 -0.7367
  164TMC2    H5 2563   0.716   0.567  11.247  1.0833 -2.2596 -0.3576
  165TMC2    C1 2564   0.279   2.956   1.001 -0.7625 -0.3212  0.1843
  165TMC2    C2 2565   0.261   2.835   0.939  0.2637  0.3258 -0.2520
  165TMC2    C3 2566   0.373   2.760   0.922  0.6342  0.3246 -0.6396
  165TMC2    C4 2567   0.399   2.992   1.067  0.7995  0.0961  0.1181
  165TMC2    C5 2568   0.505   2.902   1.055  0.3071  0.3396 -0.7367
  165TMC2    C6 2569   0.494   2.793   0.973  1.0487  0.2286 -0.5892
  165TMC2     C 2570   0.171   3.047   1.027  0.6447 -0.3688  0.4509
  165TMC2     O 2571   0.211   3.155   1.073  0.5044 -0.2422  0.3549
  165TMC2     H 2572   0.168   2.795   0.901  0.4996 -0.7829  0.3430
  165TMC2    H1 2573   0.414   3.079   1.129 -1.2247  1.3447 -1.1209
  165TMC2    H2 2574   0.586   2.736   0.966  0.3467 -1.0123  0.3398
  165TMC2    C7 2575   0.619   2.921   1.136 -0.1772  0.2844 -0.0079
  165TMC2    C8 2576   0.374   2.674   0.805  0.4730 -0.8208 -0.4959
  165TMC2    O1 2577   0.730   2.892   1.094  0.3909  0.6800 -0.0824
  165TMC2    O2 2578   0.286   2.676   0.720 -0.2209 -0.0848 -0.2990
  165TMC2    O5 2579   0.440   2.560   0.848  0.1488  0.1711 -0.1222
  165TMC2    H5 2580   0.456   2.573   0.944  1.0547  1.0016 -0.3925
  166MPD2     C 2581   4.432   3.213   1.053 -0.4061 -0.1569 -0.6094
  166MPD2    C1 2582   4.531   3.217   1.152  0.1496  0.6770  0.4124
  166MPD2    C2 2583   4.654   3.160   1.124  0.5426  0.9496 -0.4860
  166MPD2    C3 2584   4.672   3.085   1.006  0.6056  0.2267 -0.2891
  166MPD2    C4 2585   4.565   3.075   0.920 -0.0746  0.1947 -0.4921
  166MPD2    C5 2586   4.442   3.135   0.940  0.5256 -0.4352 -0.2828
  166MPD2     H 2587   0.001   3.170   1.192 -1.4602  0.2868  2.0952
  166MPD2    H1 2588   4.564   3.017   0.828  1.8570 -0.2735 -0.2071
  166MPD2    H2 2589   4.341   3.271   1.065 -0.1873  0.2086 -0.7083
  166MPD2    H3 2590   4.355   3.136   0.876 -0.9420  5.2521  1.7528
  166MPD2     N 2591   0.050   3.009   0.977 -0.0969  0.0301 -0.4664
  166MPD2    H5 2592   0.037   2.924   0.923 -1.3097  0.1109 -0.3020
  166MPD2    N1 2593   4.497   3.276   1.272  0.5576 -0.2885 -0.5191
  166MPD2    H7 2594   4.405   3.315   1.291 -0.6678 -3.2020 -0.4432
  167TMC2    C1 2595   3.965   0.539  12.998  0.8637 -0.1383  0.5292
  167TMC2    C2 2596   3.867   0.588  13.084 -0.2189 -0.0975  0.5081
  167TMC2    C3 2597   3.742   0.525  13.076 -0.3227  0.1062  0.0447
  167TMC2    C4 2598   3.955   0.417  12.932  0.0673  0.1505 -0.2216
  167TMC2    C5 2599   3.833   0.354  12.940  0.1594 -0.3950 -0.2971
  167TMC2    C6 2600   3.722   0.407  13.010  0.1353 -0.4201  0.5077
  167TMC2     C 2601   4.088   0.606  12.977 -0.3720 -0.4349  0.3517
  167TMC2     O 2602   4.132   0.677  13.066 -0.2310  0.0800  0.2661
  167TMC2     H 2603   3.900   0.668  13.150  0.3462 -1.1464  1.4958
  167TMC2    H1 2604   4.048   0.377  12.894 -0.7971 -1.8795 -0.1849
  167TMC2    H2 2605   3.626   0.356  13.011  0.6443 -1.3744 -0.3358
  167TMC2    C7 2606   3.802   0.227  12.872 -0.2162 -0.3287 -0.7228
  167TMC2    C8 2607   3.638   0.561  13.170  0.2157 -0.3720 -0.3145
  167TMC2    O1 2608   3.704   0.162  12.895  0.3610 -0.1513  0.4486
  167TMC2    O2 2609   3.556   0.484  13.210 -0.2051  0.1368 -0.1263
  167TMC2    O5 2610   3.668   0.682  13.223  0.3785 -0.3379 -0.0291
  167TMC2    H5 2611   3.711   0.741  13.157 -0.2897  0.1863  0.0031
  168MPD2     C 2612   4.282   0.773  12.832  0.1630  0.0976  0.1729
  168MPD2    C1 2613   4.216   0.670  12.769 -0.6647 -0.6031  0.4070
  168MPD2    C2 2614   4.249   0.638  12.640 -0.3039 -0.2187 -0.0962
  168MPD2    C3 2615   4.361   0.692  12.583 -0.2218 -0.0303 -1.2196
  168MPD2    C4 2616   4.432   0.781  12.650 -0.4260  0.5466 -0.1218
  168MPD2    C5 2617   4.395   0.822  12.777  0.9048  0.3560 -0.3240
  168MPD2     H 2618   4.192   0.560  12.592 -1.3846  0.6940 -0.2905
  168MPD2    H1 2619   4.522   0.829  12.612  1.9753 -3.1341  0.8605
  168MPD2    H2 2620   4.265   0.793  12.938  0.0888  0.3894  0.1068
  168MPD2    H3 2621   4.452   0.895  12.833 -1.0370  0.5353  1.4158
  168MPD2     N 2622   4.407   0.667  12.452 -1.2295 -0.5236 -0.0896
  168MPD2    H5 2623   4.491   0.714  12.421 -1.1493  0.8662  2.2441
  168MPD2    N1 2624   4.116   0.605  12.844  0.0624 -0.3649 -0.3812
  168MPD2    H7 2625   4.054   0.541  12.796 -1.1859  0.0817  0.6234
  169MPD1     C 2626   2.312   0.761   8.700 -0.0044  0.1976 -0.9002
  169MPD1    C1 2627   2.397   0.821   8.791 -0.3576 -0.2521  1.0648
  169MPD1    C2 2628   2.458   0.744   8.880 -0.2904  0.3102 -0.4659
  169MPD1    C3 2629   2.439   0.606   8.869  0.6009  0.6681  0.5488
  169MPD1    C4 2630   2.356   0.549   8.779  0.3274 -0.1490 -0.3986
  169MPD1    C5 2631   2.291   0.634   8.701  0.4109  0.0618 -0.2508
  169MPD1     H 2632   2.523   0.781   8.958 -0.8583  1.5307 -0.5563
  169MPD1    H1 2633   2.323   0.446   8.790  0.5675  0.0631  2.3743
  169MPD1    H2 2634   2.272   0.822   8.620  2.5885  3.1092 -0.0010
  169MPD1    H3 2635   2.220   0.591   8.632  0.6710  1.1221 -1.1865
  169MPD1     N 2636   2.518   0.520   8.952 -0.1708 -0.0639  0.8894
  169MPD1    H5 2637   2.601   0.550   9.002 -1.3700  3.0949  1.0374
  169MPD1    N1 2638   2.422   0.956   8.793  0.1145 -0.0267  0.7082
  169MPD1    H6 2639   2.373   1.010   8.722  0.6624 -0.3741  0.0534
  169MPD1    H7 2640   2.387   0.992   8.881 -1.9203 -1.7571  0.6092
  170MPD1     C 2641   4.645   2.541  12.618 -0.3275 -0.4296 -0.2195
  170MPD1    C1 2642   4.611   2.665  12.661 -0.0696 -0.4674  0.5353
  170MPD1    C2 2643   4.637   2.701  12.791 -0.5076 -0.5200 -0.3576
  170MPD1    C3 2644   4.717   2.619  12.872 -0.7975 -0.8660  0.0107
  170MPD1    C4 2645   0.031   2.500  12.819 -0.4029 -0.3342 -0.1276
  170MPD1    C5 2646   4.721   2.457  12.697 -0.0427 -0.0171  0.3657
  170MPD1     H 2647   4.606   2.799  12.823  0.4644  0.0567 -1.1808
  170MPD1    H1 2648   0.097   2.435  12.875  2.4555  2.8005  0.1846
  170MPD1    H2 2649   4.633   2.506  12.516  2.9015 -0.7840 -0.4625
  170MPD1    H3 2650   0.022   2.364  12.656  0.4248 -0.1345  1.0551
  170MPD1     N 2651   0.015   2.676  12.999  0.0295 -0.0900  0.7369
  170MPD1    H5 2652   4.710   2.765  13.021 -1.0381 -1.4788  4.4628
  170MPD1    N1 2653   4.578   2.759  12.562 -0.2119  0.3919 -0.6024
  170MPD1    H6 2654   4.516   2.831  12.600 -0.5990  0.7133 -1.8380
  170MPD1    H7 2655   4.536   2.721  12.478  1.1705  0.2633 -1.2372
  171MPD1     C 2656   2.557   3.341  15.069  0.5036 -0.4729 -0.6675
  171MPD1    C1 2657   2.494   3.290  15.183 -0.4044 -0.3565 -0.0725
  171MPD1    C2 2658   2.575   3.256  15.288 -0.4308  0.4398 -0.5740
  171MPD1    C3 2659   2.709   3.289  15.285 -0.0212  0.3313  0.9306
  171MPD1    C4 2660   2.774   3.332  15.172  0.4798  0.3650  0.5079
  171MPD1    C5 2661   2.689   3.356  15.065 -0.0869  0.4966 -0.1892
  171MPD1     H 2662   2.533   3.205  15.373 -2.0109  0.7270 -1.1784
  171MPD1    H1 2663   2.881   3.336  15.156  0.2290  1.7253 -0.8275
  171MPD1    H2 2664   2.498   3.358  14.980  0.0170  1.3844  0.0025
  171MPD1    H3 2665   2.734   3.399  14.976 -0.0748  2.9773  1.0136
  171MPD1     N 2666   2.788   3.278  15.404  0.3840 -0.0600  0.3562
  171MPD1    H5 2667   2.888   3.294  15.398  0.7070 -1.7785  1.2929
  171MPD1    N1 2668   2.360   3.241  15.182  0.0760  0.1106 -0.0283
  171MPD1    H6 2669   2.299   3.287  15.115 -1.1232 -0.3744  0.7149
  171MPD1    H7 2670   2.326   3.251  15.278 -0.9686  1.5621 -0.5632
  172MPD1     C 2671   2.590   2.922  17.170 -0.3542 -0.2380 -0.1301
  172MPD1    C1 2672   2.603   2.851  17.288 -1.0269  0.0103  0.0503
  172MPD1    C2 2673   2.582   2.917  17.407  0.4035 -0.1476  0.1161
  172MPD1    C3 2674   2.540   3.046  17.418  0.2872  0.0785 -0.0050
  172MPD1    C4 2675   2.533   3.117  17.298  0.4577  0.0944 -0.1789
  172MPD1    C5 2676   2.559   3.056  17.179 -0.3331  0.3267  0.1915
  172MPD1     H 2677   2.578   2.853  17.494  1.9710  2.3740  2.0310
  172MPD1    H1 2678   2.508   3.222  17.302 -3.5294 -0.8887  0.0250
  172MPD1    H2 2679   2.595   2.871  17.074 -2.7588 -0.8092  0.0419
  172MPD1    H3 2680   2.548   3.111  17.086  0.3026 -0.8950 -0.6050
  172MPD1     N 2681   2.480   3.100  17.536  0.1006 -0.1255 -0.9438
  172MPD1    H5 2682   2.435   3.188  17.512  0.5299  0.4637  0.4210
  172MPD1    N1 2683   2.661   2.720  17.296 -0.3070 -0.4408  0.6179
  172MPD1    H6 2684   2.608   2.664  17.363 -1.6153  1.2844  1.0130
  172MPD1    H7 2685   2.652   2.674  17.205 -0.5435  0.2677  0.2797
  173MPD1     C 2686   3.169   2.821  13.710  1.0785 -0.2492  0.2429
  173MPD1    C1 2687   3.209   2.947  13.744 -0.3100 -0.7512  0.2732
  173MPD1    C2 2688   3.258   2.960  13.864  0.0055 -0.7124 -0.1056
  173MPD1    C3 2689   3.253   2.856  13.961  0.0019  0.0200 -0.5597
  173MPD1    C4 2690   3.210   2.735  13.929 -0.0745 -0.0458  0.3112
  173MPD1    C5 2691   3.159   2.718  13.799 -0.4617  0.1115 -0.4659
  173MPD1     H 2692   3.300   3.058  13.884 -1.1015 -0.6992  2.0751
  173MPD1    H1 2693   3.209   2.651  13.998 -1.7697 -0.8986 -0.7500
  173MPD1    H2 2694   3.142   2.800  13.607 -0.6122  1.0415  0.4417
  173MPD1    H3 2695   3.092   2.637  13.770 -0.2582 -0.7641  1.5012
  173MPD1     N 2696   3.300   2.900  14.085  0.0098  0.2171  0.7548
  173MPD1    H5 2697   3.323   2.999  14.085 -1.6475  0.6103 -1.4739
  173MPD1    N1 2698   3.215   3.052  13.652 -0.2750 -0.1726 -0.1317
  173MPD1    H6 2699   3.185   3.136  13.701 -0.3622  1.8125 -3.5640
  173MPD1    H7 2700   3.148   3.038  13.577 -0.3292 -0.2865 -0.0621
  174MPD1     C 2701   3.813   3.576  14.151  0.5538  0.6792 -0.8259
  174MPD1    C1 2702   3.853   3.504  14.258 -0.0258  0.8617  0.1450
  174MPD1    C2 2703   3.779   3.397  14.302  0.5068  0.2708  0.2639
  174MPD1    C3 2704   3.673   3.350  14.228 -0.0194  0.3733 -0.2263
  174MPD1    C4 2705   3.646   3.410  14.109  0.6520  0.6730 -0.7101
  174MPD1    C5 2706   3.710   3.530  14.074 -0.5556 -0.0164  0.3702
  174MPD1     H 2707   3.807   3.353  14.396 -2.3754 -2.2672 -0.0720
  174MPD1    H1 2708   3.551   3.383  14.063  0.5515 -0.3876  0.1085
  174MPD1    H2 2709   3.867   3.656  14.104  0.2089  0.1524 -2.1071
  174MPD1    H3 2710   3.663   3.586  13.994  1.9216  0.2863 -0.8680
  174MPD1     N 2711   3.598   3.238  14.262 -0.0480  0.3868 -0.3387
  174MPD1    H5 2712   3.525   3.218  14.195  1.0468 -0.8593 -1.1672
  174MPD1    N1 2713   3.962   3.548  14.336 -0.8662  0.2195 -0.1639
  174MPD1    H6 2714   4.008   3.479  14.395 -1.3411 -1.0330 -1.2793
  174MPD1    H7 2715   4.027   3.605  14.283  0.4328 -1.2050 -0.0850
  175MPD1     C 2716   2.225   4.234  15.677 -1.1977 -0.2361  0.1275
  175MPD1    C1 2717   2.103   4.231  15.739  0.2203 -0.4098 -0.3641
  175MPD1    C2 2718   2.095   4.192  15.870 -0.1947 -0.1545  0.2727
  175MPD1    C3 2719   2.203   4.152  15.944  0.5677  0.5050 -0.1470
  175MPD1    C4 2720   2.320   4.144  15.875  0.1615 -0.0290 -0.0028
  175MPD1    C5 2721   2.334   4.181  15.742 -0.1580 -0.7254 -0.3251
  175MPD1     H 2722   1.993   4.195  15.906 -0.4425  1.8216 -0.5504
  175MPD1    H1 2723   2.410   4.120  15.931  0.1563  1.1931  0.5290
  175MPD1    H2 2724   2.230   4.276  15.577  0.1040 -1.7609 -0.4659
  175MPD1    H3 2725   2.430   4.168  15.694 -1.3381 -2.1676 -2.3368
  175MPD1     N 2726   2.191   4.143  16.082  0.3307 -0.0104  0.3753
  175MPD1    H5 2727   2.279   4.117  16.126 -1.1851 -2.7474  1.7669
  175MPD1    N1 2728   2.003   4.296  15.671  0.1390 -0.4164  0.0929
  175MPD1    H6 2729   2.010   4.290  15.570 -2.0133  1.4585 -0.1564
  175MPD1    H7 2730   1.915   4.262  15.709 -1.0218  0.9737 -1.4019
  176MPD1     C 2731   4.383   1.173  16.165 -0.5520  0.0905  0.2547
  176MPD1    C1 2732   4.371   1.293  16.233  0.4608  0.1784 -0.0257
  176MPD1    C2 2733   4.276   1.312  16.328 -0.1374 -0.1269  0.2268
  176MPD1    C3 2734   4.178   1.214  16.341 -0.0242 -0.0856 -0.5632
  176MPD1    C4 2735   4.186   1.102  16.261 -0.8834  0.5916 -0.3406
  176MPD1    C5 2736   4.292   1.079  16.187  0.8111 -0.8770 -0.0896
  176MPD1     H 2737   4.278   1.396  16.396  1.5019  1.2911 -1.5588
  176MPD1    H1 2738   4.116   1.020  16.255 -0.5689  0.1695  1.9390
  176MPD1    H2 2739   4.460   1.146  16.093 -1.8871 -0.3469 -1.0208
  176MPD1    H3 2740   4.307   0.983  16.138 -0.3440 -0.6161 -0.9674
  176MPD1     N 2741   4.082   1.234  16.437 -0.2175  0.4394 -0.1183
  176MPD1    H5 2742   4.086   1.323  16.486 -3.7851  1.1480 -1.0844
  176MPD1    N1 2743   4.477   1.395  16.216  0.2507  0.3285  0.4208
  176MPD1    H6 2744   4.529   1.406  16.129 -1.7681  1.4146 -0.6377
  176MPD1    H7 2745   4.448   1.487  16.250 -0.8981  0.3390 -0.6338
  177MPD1     C 2746   3.106   1.458   9.858  0.0797 -0.4423 -0.4243
  177MPD1    C1 2747   2.976   1.437   9.897 -0.1876  0.9308 -0.3191
  177MPD1    C2 2748   2.881   1.528   9.852 -0.3388  0.2087 -0.1419
  177MPD1    C3 2749   2.903   1.608   9.741 -0.3482  0.6607  0.1541
  177MPD1    C4 2750   3.036   1.610   9.701 -0.3445 -0.0502  0.1619
  177MPD1    C5 2751   3.136   1.546   9.759 -0.5191  0.1240  0.1185
  177MPD1     H 2752   2.789   1.536   9.908  1.3439  0.6409  2.5537
  177MPD1    H1 2753   3.068   1.669   9.616 -1.8654 -0.7050 -0.8702
  177MPD1    H2 2754   3.180   1.385   9.890  1.5698  1.1715 -0.2004
  177MPD1    H3 2755   3.232   1.548   9.710 -0.3973  1.4578  0.4232
  177MPD1     N 2756   2.792   1.679   9.681 -0.3018 -0.3856  0.0593
  177MPD1    H5 2757   2.697   1.652   9.707  0.6083 -0.3272  3.4514
  177MPD1    N1 2758   2.951   1.356  10.009 -0.3081  0.2504 -0.1316
  177MPD1    H6 2759   2.851   1.336  10.018 -0.3379  1.9524  3.4292
  177MPD1    H7 2760   3.010   1.274  10.005 -0.0508  0.3682  1.2505
  178MPD1     C 2761   4.651   1.688   0.279 -1.3991  0.6215 -0.4058
  178MPD1    C1 2762   4.571   1.743   0.186  0.2030  0.2640 -0.3650
  178MPD1    C2 2763   4.622   1.773   0.062  0.1945 -0.1874  0.4538
  178MPD1    C3 2764   0.012   1.742   0.026 -0.5394 -0.4797  0.4145
  178MPD1    C4 2765   0.091   1.664   0.115  0.2404 -0.8017 -0.2174
  178MPD1    C5 2766   0.032   1.641   0.237 -0.2925 -0.6801 -0.4543
  178MPD1     H 2767   4.552   1.808  17.733  1.3868 -0.0019 -0.5813
  178MPD1    H1 2768   0.187   1.619   0.095 -0.3999 -2.4548  0.4264
  178MPD1    H2 2769   4.623   1.664   0.381  1.5029  0.7468  0.4113
  178MPD1    H3 2770   0.093   1.582   0.305  1.2842  0.1766 -1.1108
  178MPD1     N 2771   0.057   1.763  17.636  0.1165  0.0399  0.3668
  178MPD1    H5 2772   0.152   1.729  17.619  0.3023 -0.4726  2.4059
  178MPD1    N1 2773   4.433   1.760   0.216  0.1907  0.3780  0.7967
  178MPD1    H6 2774   4.397   1.845   0.173 -0.3083  0.0423  0.5531
  178MPD1    H7 2775   4.415   1.763   0.316 -0.5618 -0.1353  0.6711
  179MPD1     C 2776   0.071   0.083  15.035  0.0481 -0.3725 -0.3324
  179MPD1    C1 2777   4.705   0.159  14.993 -0.1885 -0.2305  0.3653
  179MPD1    C2 2778   4.605   0.200  15.082 -0.3165  0.4059 -0.1526
  179MPD1    C3 2779   4.600   0.140  15.213 -0.3501  0.0584 -1.0747
  179MPD1    C4 2780   4.713   0.070  15.248  0.2231  0.1311  0.5552
  179MPD1    C5 2781   0.081   0.050  15.165 -0.5942  0.3855 -0.1122
  179MPD1     H 2782   4.523   0.259  15.042  0.2030  2.0180  1.1296
  179MPD1    H1 2783   4.726   0.044  15.353  1.3199 -0.5396  0.2636
  179MPD1    H2 2784   0.144   0.045  14.965  0.2624 -0.9573  0.2121
  179MPD1    H3 2785   0.171   4.735  15.199  1.1086  0.4405 -4.5048
  179MPD1     N 2786   4.484   0.159  15.295  0.0889 -0.0312  0.4069
  179MPD1    H5 2787   4.407   0.209  15.253  0.4514 -0.6846 -1.0382
  179MPD1    N1 2788   4.702   0.206  14.858 -0.0859  0.0899 -0.4165
  179MPD1    H6 2789   0.061   0.235  14.837 -1.2178  2.6194 -1.9739
  179MPD1    H7 2790   4.630   0.275  14.840  0.5711  0.2424 -2.4633
  180MPD1     C 2791   3.966   1.552  15.252  0.3261  0.4422  0.1474
  180MPD1    C1 2792   3.920   1.476  15.152 -0.4073  0.2286  0.5696
  180MPD1    C2 2793   3.899   1.535  15.029 -0.0375  0.1961  0.1785
  180MPD1    C3 2794   3.962   1.656  15.005  0.4869  0.2842 -0.5418
  180MPD1    C4 2795   4.031   1.718  15.105  0.6401 -0.4273  0.6786
  180MPD1    C5 2796   4.035   1.669  15.230  0.1733 -0.6004  0.7511
  180MPD1     H 2797   3.857   1.482  14.944 -1.8016  1.3654  0.3171
  180MPD1    H1 2798   4.058   1.823  15.105 -0.1782 -0.2428 -2.1985
  180MPD1    H2 2799   3.949   1.520  15.354  3.8242  0.1117  0.6395
  180MPD1    H3 2800   4.077   1.727  15.311  2.1855 -0.8160 -0.1501
  180MPD1     N 2801   3.972   1.702  14.879 -0.5500  0.1735 -0.4355
  180MPD1    H5 2802   3.926   1.643  14.811 -0.7795  1.2104 -1.1971
  180MPD1    N1 2803   3.852   1.362  15.186  0.3931 -0.2573  0.2839
  180MPD1    H6 2804   3.900   1.308  15.258  2.5980  1.2013 -0.1002
  180MPD1    H7 2805   3.836   1.300  15.106  0.7284 -1.4102  1.1071
  181MPD1     C 2806   1.649   3.307  10.243  0.1284  0.4487 -0.1033
  181MPD1    C1 2807   1.638   3.414  10.331  0.1738 -0.6512  0.4065
  181MPD1    C2 2808   1.740   3.510  10.326  0.0971 -0.0642  0.0003
  181MPD1    C3 2809   1.850   3.492  10.248  0.0319 -0.4471 -0.3412
  181MPD1    C4 2810   1.863   3.382  10.165  0.4532 -0.1780 -0.2267
  181MPD1    C5 2811   1.764   3.289  10.172  0.3753  0.6278 -0.3522
  181MPD1     H 2812   1.747   3.594  10.394  1.8785 -1.2716  1.2903
  181MPD1    H1 2813   1.949   3.356  10.104 -0.4789 -2.1540 -0.7148
  181MPD1    H2 2814   1.570   3.233  10.245 -0.2789  0.8389 -1.6649
  181MPD1    H3 2815   1.773   3.193  10.123 -1.3393  0.0253  0.5114
  181MPD1     N 2816   1.953   3.590  10.240 -0.5172 -0.5407 -0.2660
  181MPD1    H5 2817   2.022   3.553  10.176 -1.5286 -0.0763 -1.6175
  181MPD1    N1 2818   1.523   3.423  10.413 -0.1062 -0.3306 -0.3637
  181MPD1    H6 2819   1.475   3.335  10.430 -1.5395  0.3109 -1.0766
  181MPD1    H7 2820   1.529   3.482  10.496  3.8910 -0.3531 -0.6613
  182MPD1     C 2821   1.415   2.907   2.032 -0.3291 -0.5283  0.0668
  182MPD1    C1 2822   1.499   2.885   1.919 -0.8032 -0.4632  0.0996
  182MPD1    C2 2823   1.444   2.849   1.795 -0.4973 -0.3958  0.6433
  182MPD1    C3 2824   1.309   2.819   1.796 -0.2140 -0.4064  0.5144
  182MPD1    C4 2825   1.233   2.828   1.914  0.9247 -0.2648  0.7399
  182MPD1    C5 2826   1.283   2.876   2.027  0.4242  0.1212 -0.2535
  182MPD1     H 2827   1.495   2.831   1.702  0.9253  0.5828  1.2381
  182MPD1    H1 2828   1.126   2.815   1.906  1.2946 -2.8764  0.0983
  182MPD1    H2 2829   1.448   2.943   2.129  0.7468  0.2505 -0.5855
  182MPD1    H3 2830   1.213   2.893   2.107  0.2775 -0.5117 -0.2478
  182MPD1     N 2831   1.228   2.783   1.684 -0.5760 -0.6691 -0.0301
  182MPD1    H5 2832   1.130   2.766   1.705 -0.7640  0.1116 -0.2632
  182MPD1    N1 2833   1.638   2.889   1.930 -0.3717 -0.4025  0.4698
  182MPD1    H6 2834   1.679   2.934   1.848  0.3926 -3.8480 -1.0330
  182MPD1    H7 2835   1.657   2.949   2.011  0.5427 -2.1526  1.5466
  183MPD1     C 2836   3.566   3.072   8.756 -0.2412  0.4870 -0.1906
  183MPD1    C1 2837   3.599   3.050   8.891 -0.2632 -0.1817 -0.4514
  183MPD1    C2 2838   3.570   3.151   8.986 -0.2886 -0.3341 -0.6033
  183MPD1    C3 2839   3.525   3.278   8.955 -1.1170  0.1895 -0.2506
  183MPD1    C4 2840   3.497   3.298   8.824 -0.4428  0.0022 -0.2226
  183MPD1    C5 2841   3.527   3.198   8.729  0.7867  1.0403  0.4019
  183MPD1     H 2842   3.582   3.138   9.093  1.5641  2.7935 -0.4181
  183MPD1    H1 2843   3.477   3.395   8.780  1.0652 -0.3527 -1.7091
  183MPD1    H2 2844   3.580   2.995   8.680 -1.2261 -0.8979  1.0310
  183MPD1    H3 2845   3.506   3.220   8.625 -0.5758 -1.9153  0.0438
  183MPD1     N 2846   3.506   3.371   9.060  0.0088  0.1691  0.0640
  183MPD1    H5 2847   3.519   3.346   9.157 -0.5653 -0.0544  0.0781
  183MPD1    N1 2848   3.654   2.931   8.932 -0.2573 -0.3178 -0.3256
  183MPD1    H6 2849   3.717   2.933   9.012  1.7333 -0.0165 -1.8981
  183MPD1    H7 2850   3.704   2.896   8.851  0.4017 -0.6277  0.2200
  184MPD1     C 2851   2.207   0.839   9.969 -0.3308 -0.3889 -0.3061
  184MPD1    C1 2852   2.130   0.844   9.859 -0.0520  0.9128 -0.0368
  184MPD1    C2 2853   2.107   0.967   9.805  0.3151  0.4234 -0.1704
  184MPD1    C3 2854   2.151   1.084   9.878  0.3193  0.3165  0.0736
  184MPD1    C4 2855   2.231   1.072   9.993 -0.2202 -0.4867 -0.2235
  184MPD1    C5 2856   2.260   0.948  10.036  0.1042 -0.3195 -0.4588
  184MPD1     H 2857   2.050   0.966   9.713 -0.5930 -0.5031  0.4036
  184MPD1    H1 2858   2.275   1.159  10.041 -2.9332  1.1284 -0.6730
  184MPD1    H2 2859   2.235   0.745  10.017 -1.0633  0.3684  1.6015
  184MPD1    H3 2860   2.319   0.931  10.125 -1.0393  1.4985  0.6387
  184MPD1     N 2861   2.112   1.213   9.846  0.1312  0.3166 -0.4225
  184MPD1    H5 2862   2.164   1.283   9.899 -0.7565  0.2056  0.5938
  184MPD1    N1 2863   2.092   0.722   9.789  0.4314 -0.0802  0.6579
  184MPD1    H6 2864   2.031   0.747   9.711 -0.1170  2.2151  1.8434
  184MPD1    H7 2865   2.053   0.655   9.855 -1.0641  0.3894  0.2568
  185MPD1     C 2866   1.477   2.014   9.510  0.3009  0.2610 -0.3966
  185MPD1    C1 2867   1.484   1.925   9.617  0.5369 -0.0267 -0.1190
  185MPD1    C2 2868   1.586   1.830   9.616 -0.0754  0.1335  0.7545
  185MPD1    C3 2869   1.688   1.840   9.526  1.0261  0.1821  0.0201
  185MPD1    C4 2870   1.686   1.938   9.429 -0.2491 -0.4197  1.0254
  185MPD1    C5 2871   1.578   2.024   9.418 -0.2383  0.7363  0.5421
  185MPD1     H 2872   1.585   1.754   9.694 -0.4081  0.2337  0.8505
  185MPD1    H1 2873   1.764   1.947   9.354 -0.4753 -0.7168  0.7553
  185MPD1    H2 2874   1.387   2.073   9.505 -0.4808 -1.0769 -2.0818
  185MPD1    H3 2875   1.578   2.096   9.337  0.5095  0.8655  0.6608
  185MPD1     N 2876   1.798   1.752   9.528  0.0282  0.4546 -0.0538
  185MPD1    H5 2877   1.887   1.763   9.478  0.5089 -0.5562  0.5890
  185MPD1    N1 2878   1.375   1.922   9.711  0.7348  0.0612 -0.6046
  185MPD1    H6 2879   1.328   2.011   9.720  0.1125 -0.5303  1.7890
  185MPD1    H7 2880   1.401   1.884   9.802  0.6738  1.9022  0.1723
  186MPD1     C 2881   0.260   4.703  15.503  0.5924 -0.0375  0.2216
  186MPD1    C1 2882   0.135   4.727  15.549 -0.0683  0.3146  0.6251
  186MPD1    C2 2883   0.106   0.118  15.601 -0.4595 -0.0794  0.4136
  186MPD1    C3 2884   0.193   0.226  15.592 -0.0730  0.2630  0.2248
  186MPD1    C4 2885   0.319   0.205  15.539  0.0030 -1.0819 -0.4995
  186MPD1    C5 2886   0.351   0.074  15.499 -0.4822 -0.1255  0.3127
  186MPD1     H 2887   0.005   0.126  15.639 -0.7010  3.4284 -1.0314
  186MPD1    H1 2888   0.400   0.277  15.541 -2.6392  1.8419 -0.1566
  186MPD1    H2 2889   0.307   4.607  15.488 -1.1134 -0.8126 -0.1268
  186MPD1    H3 2890   0.456   0.056  15.479 -0.3179 -0.2417  1.3121
  186MPD1     N 2891   0.164   0.353  15.645  0.8756  0.0472 -0.6156
  186MPD1    H5 2892   0.224   0.435  15.641  0.7814  0.1837  0.7973
  186MPD1    N1 2893   0.033   4.632  15.552 -0.4643 -0.3284 -0.2201
  186MPD1    H6 2894   0.041   4.554  15.487 -0.3495  0.1720 -0.8065
  186MPD1    H7 2895   4.683   4.683  15.540  0.2216  0.5566 -1.5146
  187MPD1     C 2896   3.799   2.787   0.482  0.0033 -0.1953 -0.1832
  187MPD1    C1 2897   3.839   2.668   0.415  0.0709  0.5127 -0.9079
  187MPD1    C2 2898   3.792   2.645   0.283  0.4201 -0.5648  0.4867
  187MPD1    C3 2899   3.741   2.749   0.209  0.1288 -0.8358  0.4232
  187MPD1    C4 2900   3.721   2.873   0.273  0.4959 -0.4724  0.3846
  187MPD1    C5 2901   3.743   2.887   0.411 -0.7465 -0.5921  0.8762
  187MPD1     H 2902   3.818   2.549   0.239 -0.1210  0.0300 -1.1522
  187MPD1    H1 2903   3.695   2.958   0.213  1.5852 -0.0074  0.5619
  187MPD1    H2 2904   3.821   2.811   0.586  0.2748  2.4475 -0.8587
  187MPD1    H3 2905   3.727   2.984   0.456  0.9621 -0.7547  1.8383
  187MPD1     N 2906   3.699   2.736   0.076  0.5878 -0.2028  0.3468
  187MPD1    H5 2907   3.664   2.817   0.027 -0.9350  0.8111  3.1401
  187MPD1    N1 2908   3.886   2.559   0.489  0.4314 -0.6778 -0.2250
  187MPD1    H6 2909   3.954   2.587   0.559 -1.1776  1.6898  0.3639
  187MPD1    H7 2910   3.931   2.492   0.426 -1.0213 -3.5735  1.7847
  188MPD1     C 2911   0.543   2.387  10.749  0.5064 -0.1708 -0.1936
  188MPD1    C1 2912   0.430   2.447  10.701 -0.3112  0.2775  0.3562
  188MPD1    C2 2913   0.344   2.377  10.616 -1.3815  0.3664  0.2479
  188MPD1    C3 2914   0.384   2.250  10.572  0.0438  0.4821  0.2868
  188MPD1    C4 2915   0.502   2.202  10.611  0.1091  1.6002  0.1777
  188MPD1    C5 2916   0.586   2.276  10.692  0.1645  0.0129  0.6314
  188MPD1     H 2917   0.254   2.426  10.582 -0.4471  0.7673 -1.6773
  188MPD1    H1 2918   0.536   2.106  10.574 -2.3025  0.8690 -0.1283
  188MPD1    H2 2919   0.612   2.439  10.815  0.7040  1.1719 -1.4611
  188MPD1    H3 2920   0.686   2.244  10.718 -0.1555 -0.2475  1.5528
  188MPD1     N 2921   0.314   2.166  10.483  0.1208 -0.0255 -0.0223
  188MPD1    H5 2922   0.357   2.077  10.456  1.6012  0.1298  1.8732
  188MPD1    N1 2923   0.392   2.566  10.755  0.4999  0.6156  0.5059
  188MPD1    H6 2924   0.309   2.609  10.715  0.8079  0.9373  0.2150
  188MPD1    H7 2925   0.461   2.641  10.760  1.9098 -0.6378 -0.4206
  189MPD1     C 2926   0.859   2.865  17.573  0.4393 -0.0604 -0.1121
  189MPD1    C1 2927   0.753   2.924  17.514 -0.1805 -0.4339 -0.7423
  189MPD1    C2 2928   0.652   2.969  17.597 -0.6418 -0.2536 -0.1031
  189MPD1    C3 2929   0.676   2.985  17.733  0.4326  0.3519  0.6544
  189MPD1    C4 2930   0.800   2.952   0.039 -0.4205 -0.4258 -0.2631
  189MPD1    C5 2931   0.886   2.889  17.701 -0.4618 -0.0965  0.1234
  189MPD1     H 2932   0.555   2.991  17.553 -0.1950  0.1377 -0.8966
  189MPD1    H1 2933   0.833   2.965   0.142  0.1057 -0.4629 -0.4272
  189MPD1    H2 2934   0.942   2.823  17.517 -0.3277  1.6974 -2.5879
  189MPD1    H3 2935   0.978   2.849  17.742  0.1985  1.2874 -0.0069
  189MPD1     N 2936   0.565   3.026   0.069 -0.1464  0.9996  0.4787
  189MPD1    H5 2937   0.474   3.032   0.023 -0.0485 -1.4056  0.0031
  189MPD1    N1 2938   0.730   2.903  17.378 -0.4600  0.9201  0.3061
  189MPD1    H6 2939   0.647   2.950  17.343  0.1145  2.0940  0.5121
  189MPD1    H7 2940   0.813   2.913  17.321  0.5223 -0.4348  1.4964
  190MPD1     C 2941   4.102   2.138  15.476  0.0137 -0.1025 -0.3133
  190MPD1    C1 2942   4.082   2.064  15.587  0.8114 -0.1537  0.5866
  190MPD1    C2 2943   4.184   1.985  15.623  0.4497 -0.0193  0.7364
  190MPD1    C3 2944   4.304   1.973  15.545 -0.6614  0.7933  0.1225
  190MPD1    C4 2945   4.315   2.037  15.427 -0.1726  0.2466 -0.4284
  190MPD1    C5 2946   4.212   2.126  15.395 -0.7573 -0.0882  0.1364
  190MPD1     H 2947   4.181   1.933  15.719  0.2730 -0.3433  0.5556
  190MPD1    H1 2948   4.398   2.024  15.358  1.1438  0.8562  1.0523
  190MPD1    H2 2949   4.035   2.218  15.447  0.9389  1.3382  1.5175
  190MPD1    H3 2950   4.217   2.189  15.306 -0.6526 -0.5014 -0.1537
  190MPD1     N 2951   4.407   1.893  15.601 -0.0506  0.1081  0.2209
  190MPD1    H5 2952   4.394   1.858  15.695  0.0135  0.7354  0.4622
  190MPD1    N1 2953   3.968   2.089  15.663  0.0174  0.2544 -0.3789
  190MPD1    H6 2954   3.952   2.003  15.715  2.4745  0.5608  0.9289
  190MPD1    H7 2955   3.884   2.108  15.610 -0.6154 -1.3684  0.0370
  191MPD1     C 2956   3.830   3.282  12.561  0.3392  0.0551 -0.1662
  191MPD1    C1 2957   3.965   3.307  12.528  0.1062  0.3588 -0.1132
  191MPD1    C2 2958   3.990   3.410  12.444 -0.2552 -0.1110  0.6088
  191MPD1    C3 2959   3.893   3.503  12.406  0.2431 -0.4934  0.1056
  191MPD1    C4 2960   3.769   3.486  12.458 -0.3466  0.0404  0.0125
  191MPD1    C5 2961   3.734   3.373  12.526  0.3773 -0.2034 -0.1479
  191MPD1     H 2962   4.083   3.418  12.390  0.1767 -0.3802  1.3074
  191MPD1    H1 2963   3.692   3.554  12.423 -0.1768  0.2995  0.1454
  191MPD1    H2 2964   3.790   3.192  12.606 -1.9190  0.9272 -0.3985
  191MPD1    H3 2965   3.629   3.352  12.542  0.1567 -0.7455 -2.2148
  191MPD1     N 2966   3.935   3.615  12.327  0.4048 -0.1207 -0.1332
  191MPD1    H5 2967   4.032   3.618  12.298 -0.4606  1.8835 -2.8498
  191MPD1    N1 2968   4.054   3.206  12.559 -0.2710  0.1802 -0.7038
  191MPD1    H6 2969   4.012   3.160  12.640 -1.4766 -0.2554 -1.5656
  191MPD1    H7 2970   4.145   3.241  12.587 -0.5652  0.1253  0.3571
  192MPD1     C 2971   3.675   4.562  11.809  0.4426 -1.1135 -0.3253
  192MPD1    C1 2972   3.629   4.520  11.931 -0.8541  0.5015 -0.2432
  192MPD1    C2 2973   3.676   4.399  11.984  0.0608  0.0071 -0.2751
  192MPD1    C3 2974   3.763   4.320  11.921  0.7216 -0.8264 -0.5806
  192MPD1    C4 2975   3.801   4.356  11.792  0.0485  0.1047  0.3135
  192MPD1    C5 2976   3.764   4.477  11.741  0.6208  0.5182  0.1055
  192MPD1     H 2977   3.635   4.364  12.078  3.8024  0.3256  1.4912
  192MPD1    H1 2978   3.858   4.290  11.728  0.1012 -0.0019  0.4696
  192MPD1    H2 2979   3.620   4.637  11.753 -0.7711  0.7856  3.4216
  192MPD1    H3 2980   3.794   4.500  11.639  1.8675 -1.2667  0.0628
  192MPD1     N 2981   3.817   4.196  11.958  0.4911  0.5155  0.5729
  192MPD1    H5 2982   3.882   4.146  11.897  0.7070  1.2668  0.1936
  192MPD1    N1 2983   3.521   4.579  11.990 -0.5959 -0.7275 -0.5643
  192MPD1    H6 2984   3.523   4.577  12.092  1.6612 -0.4184 -0.6029
  192MPD1    H7 2985   3.527   4.679  11.971 -0.0575  0.2849  4.7010
  193MPD1     C 2986   3.465   3.198  16.424 -0.1460 -0.0820 -0.7002
  193MPD1    C1 2987   3.377   3.304  16.426  0.0145 -0.0722  0.1811
  193MPD1    C2 2988   3.400   3.401  16.524  1.5799  0.9712 -0.7857
  193MPD1    C3 2989   3.514   3.389  16.605  0.3405  0.1561  0.0131
  193MPD1    C4 2990   3.596   3.284  16.595 -0.8004  0.1521 -0.6252
  193MPD1    C5 2991   3.575   3.189  16.501 -0.1261  0.0947 -0.2543
  193MPD1     H 2992   3.323   3.475  16.543  0.0707 -0.9891  0.8004
  193MPD1    H1 2993   3.684   3.277  16.658 -1.0845 -3.4565 -0.6581
  193MPD1    H2 2994   3.469   3.120  16.348 -3.5047 -1.7602  0.8287
  193MPD1    H3 2995   3.645   3.107  16.484 -0.8055 -0.4333 -0.5114
  193MPD1     N 2996   3.554   3.493  16.695  0.3187  0.0715  0.5025
  193MPD1    H5 2997   3.641   3.481  16.746  1.0483  0.9250 -0.5374
  193MPD1    N1 2998   3.263   3.305  16.341 -0.3619 -0.1249 -0.4694
  193MPD1    H6 2999   3.273   3.253  16.254  0.4638  0.8211 -0.9359
  193MPD1    H7 3000   3.221   3.396  16.322 -0.7444 -0.2235 -0.1035
  194MPD1     C 3001   0.274   1.260  17.139 -0.0390 -0.3779  0.5166
  194MPD1    C1 3002   0.401   1.235  17.087  0.6350  0.4137 -0.3622
  194MPD1    C2 3003   0.475   1.129  17.129 -0.5751 -0.1152  0.4497
  194MPD1    C3 3004   0.420   1.045  17.225  0.7214 -0.5915  0.9279
  194MPD1    C4 3005   0.290   1.057  17.266 -0.3132 -0.4316  0.3793
  194MPD1    C5 3006   0.215   1.174  17.227  0.6693 -0.5645  0.0766
  194MPD1     H 3007   0.574   1.109  17.091 -0.4361 -0.4796  1.0180
  194MPD1    H1 3008   0.245   0.985  17.333  2.6113 -0.2241  2.5653
  194MPD1    H2 3009   0.216   1.345  17.104  0.1551 -0.9251 -1.1195
  194MPD1    H3 3010   0.117   1.181  17.271 -0.3452 -2.5599 -1.8469
  194MPD1     N 3011   0.486   0.921  17.273 -0.5053 -0.0281 -0.2850
  194MPD1    H5 3012   0.436   0.876  17.349  1.7220  0.6208  1.5822
  194MPD1    N1 3013   0.458   1.347  17.031  0.3778  0.0438 -0.2804
  194MPD1    H6 3014   0.400   1.409  16.974  1.8289  0.1280 -1.6875
  194MPD1    H7 3015   0.535   1.328  16.967 -2.3004 -2.2923 -2.7877
  195MPD1     C 3016   4.015   1.839   0.386 -0.1872 -0.1268  0.0967
  195MPD1    C1 3017   4.038   1.797   0.259 -0.3033  0.4724  0.5900
  195MPD1    C2 3018   3.964   1.694   0.205 -0.1633  0.1961  0.3238
  195MPD1    C3 3019   3.870   1.636   0.278  0.4240 -0.8622 -0.2873
  195MPD1    C4 3020   3.854   1.664   0.414 -0.3227 -0.1255  0.4496
  195MPD1    C5 3021   3.929   1.767   0.462  0.2161 -0.0469  0.2452
  195MPD1     H 3022   3.969   1.680   0.098  3.9991 -1.1932  0.6957
  195MPD1    H1 3023   3.792   1.612   0.487 -3.7606  0.2715 -2.1844
  195MPD1    H2 3024   4.065   1.929   0.422  1.8907 -0.9216 -0.7699
  195MPD1    H3 3025   3.901   1.806   0.559 -2.5706 -0.0847 -0.5376
  195MPD1     N 3026   3.786   1.527   0.229 -0.0683 -0.5112 -0.6857
  195MPD1    H5 3027   3.710   1.494   0.287 -0.5295  0.8716 -0.5263
  195MPD1    N1 3028   4.107   1.878   0.165 -0.4064  0.5992  0.4130
  195MPD1    H6 3029   4.191   1.927   0.195 -0.9206  1.7898 -0.0904
  195MPD1    H7 3030   4.139   1.821   0.087 -0.3076 -0.2176  1.0541
  196MPD1     C 3031   2.413   1.832   0.233  0.0607  0.2787  0.4894
  196MPD1    C1 3032   2.525   1.865   0.313  0.0918 -0.7207  0.1444
  196MPD1    C2 3033   2.501   1.907   0.437  0.3182  0.3698  0.1564
  196MPD1    C3 3034   2.377   1.907   0.495  0.1182  0.0342 -0.0098
  196MPD1    C4 3035   2.274   1.848   0.422  0.2188  0.5794  0.2326
  196MPD1    C5 3036   2.292   1.829   0.292 -0.0170 -0.1657 -0.3398
  196MPD1     H 3037   2.586   1.943   0.494  0.3992  1.9504 -0.9833
  196MPD1    H1 3038   2.178   1.826   0.467  1.4470 -0.6988  2.2035
  196MPD1    H2 3039   2.426   1.800   0.130 -1.6328 -0.8974  0.6465
  196MPD1    H3 3040   2.206   1.789   0.241 -0.1087  0.7817 -0.9261
  196MPD1     N 3041   2.351   1.956   0.628 -0.1443  0.3148  0.0471
  196MPD1    H5 3042   2.254   1.953   0.658 -0.1421 -0.8343 -0.0316
  196MPD1    N1 3043   2.653   1.882   0.259 -0.8877 -0.0531 -0.2426
  196MPD1    H6 3044   2.733   1.880   0.323 -0.6705  0.0166 -0.5094
  196MPD1    H7 3045   2.679   1.819   0.182  0.3115 -0.5183  0.5293
  197MPD1     C 3046   1.480   4.435  16.307  0.9023  0.4809  0.7028
  197MPD1    C1 3047   1.544   4.511  16.400 -0.5959 -0.3731 -0.7823
  197MPD1    C2 3048   1.682   4.516  16.392  0.4235 -0.6730 -0.4006
  197MPD1    C3 3049   1.753   4.441  16.295 -0.3380  0.0302  0.5860
  197MPD1    C4 3050   1.683   4.363  16.204  0.3684  0.0022 -0.4475
  197MPD1    C5 3051   1.546   4.364  16.210  0.2687  1.1257 -0.4006
  197MPD1     H 3052   1.728   4.584  16.463 -1.7288 -1.3011  1.6017
  197MPD1    H1 3053   1.729   4.317  16.118 -0.5484  0.4511 -1.1730
  197MPD1    H2 3054   1.372   4.432  16.306  0.9539 -1.5590 -0.1591
  197MPD1    H3 3055   1.493   4.310  16.132  1.1386 -0.9666  0.4299
  197MPD1     N 3056   1.892   4.440  16.285  0.2885  0.4492 -0.5980
  197MPD1    H5 3057   1.935   4.388  16.209  0.5442  0.7933 -0.6854
  197MPD1    N1 3058   1.476   4.615  16.473  0.0082  0.1806 -0.0371
  197MPD1    H6 3059   1.376   4.602  16.486 -0.1503 -0.3374 -1.7639
  197MPD1    H7 3060   1.520   4.611  16.565  2.3844 -0.4897 -1.2234
  198MPD1     C 3061   3.910   2.809  15.573  0.9671  0.8076 -0.8298
  198MPD1    C1 3062   3.932   2.853  15.700 -0.0850 -0.1158 -0.3346
  198MPD1    C2 3063   4.027   2.949  15.719  0.9692  0.3078 -0.3123
  198MPD1    C3 3064   4.114   2.976  15.614  0.1550 -0.0814  0.4430
  198MPD1    C4 3065   4.092   2.933  15.484 -0.5217  0.8723  0.3729
  198MPD1    C5 3066   3.981   2.859  15.464 -0.2775  0.3000  0.5957
  198MPD1     H 3067   4.047   2.988  15.818  0.5302 -1.4978  0.4889
  198MPD1    H1 3068   4.147   2.960  15.395 -0.7724  1.6582  0.4574
  198MPD1    H2 3069   3.825   2.743  15.559  1.1688  0.3168  0.2625
  198MPD1    H3 3070   3.963   2.822  15.364 -0.4084  0.7028  0.4719
  198MPD1     N 3071   4.223   3.054  15.647  0.4493 -0.8088 -0.3091
  198MPD1    H5 3072   4.227   3.089  15.743  1.3893 -0.1483 -0.5844
  198MPD1    N1 3073   3.845   2.823  15.803  0.0309  0.5638  0.4344
  198MPD1    H6 3074   3.800   2.733  15.786 -2.3512  1.4443  2.0762
  198MPD1    H7 3075   3.898   2.816  15.889  1.5520 -1.1563 -0.6447
  199MPD1     C 3076   1.962   4.431  10.729 -0.5681 -0.8585  0.0752
  199MPD1    C1 3077   1.969   4.541  10.639 -0.6500 -0.1117  0.1467
  199MPD1    C2 3078   2.042   4.517  10.520  0.2190 -0.6124  0.5117
  199MPD1    C3 3079   2.072   4.392  10.479  0.5210 -0.4643 -0.5434
  199MPD1    C4 3080   2.054   4.286  10.566 -0.1660  0.5161  0.6213
  199MPD1    C5 3081   2.003   4.310  10.695 -0.2197 -0.5038  0.4118
  199MPD1     H 3082   2.063   4.594  10.446 -1.5458 -2.4807 -1.9270
  199MPD1    H1 3083   2.086   4.184  10.547 -0.5237  0.1982  1.7194
  199MPD1    H2 3084   1.917   4.449  10.826 -2.1593 -0.2390 -0.7627
  199MPD1    H3 3085   1.990   4.225  10.762  1.0109  0.3164  1.6976
  199MPD1     N 3086   2.114   4.356  10.346 -0.1054 -0.6579 -0.4531
  199MPD1    H5 3087   2.144   4.260  10.335 -0.5540 -0.8751  0.1991
  199MPD1    N1 3088   1.924   4.669  10.679 -0.3982  0.2254 -0.0753
  199MPD1    H6 3089   1.905   4.723  10.595 -0.6543  1.0601  0.5185
  199MPD1    H7 3090   1.848   4.661  10.747 -1.6022  0.1999 -1.4280
  200MPD1     C 3091   4.077   3.799  15.165 -1.0162 -0.6325 -0.1316
  200MPD1    C1 3092   4.054   3.819  15.036  0.9764 -0.5805  0.1831
  200MPD1    C2 3093   4.158   3.865  14.957  0.0422 -1.1078 -0.8486
  200MPD1    C3 3094   4.287   3.848  14.997 -0.1619  0.5907  0.3048
  200MPD1    C4 3095   4.314   3.816  15.126  0.3491  0.0384  0.0660
  200MPD1    C5 3096   4.208   3.795  15.208 -0.6711  0.0926  0.1715
  200MPD1     H 3097   4.144   3.883  14.851 -3.3222  1.9907  0.1353
  200MPD1    H1 3098   4.416   3.814  15.162  0.3818  1.5352  0.0682
  200MPD1    H2 3099   3.998   3.776  15.236 -0.0594  2.8847  2.0439
  200MPD1    H3 3100   4.228   3.771  15.312  1.2320  0.1814 -0.1789
  200MPD1     N 3101   4.388   3.878  14.902 -0.5416 -0.3156 -0.9482
  200MPD1    H5 3102   4.355   3.908  14.811 -1.4734 -1.5599 -1.0202
  200MPD1    N1 3103   3.925   3.829  14.987 -0.1545  0.0327  0.3061
  200MPD1    H6 3104   3.925   3.807  14.887 -0.0190 -0.9644  0.5258
  200MPD1    H7 3105   3.859   3.776  15.043 -1.3606  0.5224 -0.6532
  201MPD1     C 3106   2.763   1.476  13.652 -1.2351 -0.2927  0.7666
  201MPD1    C1 3107   2.900   1.477  13.644 -0.8045 -0.7192  0.1422
  201MPD1    C2 3108   2.966   1.595  13.616 -0.1884  0.1499 -0.1401
  201MPD1    C3 3109   2.903   1.710  13.603 -0.1831  0.0474  0.3466
  201MPD1    C4 3110   2.766   1.711  13.625 -0.0000 -0.3917 -0.1584
  201MPD1    C5 3111   2.696   1.593  13.631  0.3826 -1.0045 -0.1990
  201MPD1     H 3112   3.074   1.583  13.617 -0.0683  1.1023 -1.5339
  201MPD1    H1 3113   2.710   1.804  13.625  2.1706  0.9029 -1.6561
  201MPD1    H2 3114   2.712   1.381  13.661 -0.3723 -0.7282  1.0338
  201MPD1    H3 3115   2.588   1.598  13.638  0.2651 -0.6592 -2.4374
  201MPD1     N 3116   2.975   1.829  13.571  0.0355  0.6361  0.8988
  201MPD1    H5 3117   3.067   1.831  13.528 -0.8033 -0.3964 -0.9460
  201MPD1    N1 3118   2.961   1.349  13.625  0.6177 -0.0167 -0.3780
  201MPD1    H6 3119   3.056   1.347  13.661  0.2272 -1.2745  0.5481
  201MPD1    H7 3120   2.912   1.276  13.676  0.1830  0.2333 -0.4352
  202MPD1     C 3121   3.387   2.223   9.279 -0.9743  0.2433 -0.7200
  202MPD1    C1 3122   3.376   2.360   9.265 -0.5460  0.0503  0.1560
  202MPD1    C2 3123   3.415   2.426   9.378 -0.4704 -0.2868 -0.0539
  202MPD1    C3 3124   3.496   2.375   9.475 -0.0429 -0.5337  0.4549
  202MPD1    C4 3125   3.514   2.237   9.475 -0.0692 -0.3517 -0.7600
  202MPD1    C5 3126   3.461   2.157   9.380  0.4102 -0.3070 -0.5088
  202MPD1     H 3127   3.414   2.533   9.362  1.7583  0.0513  2.0175
  202MPD1    H1 3128   3.581   2.188   9.545  1.0337  2.1146 -0.1061
  202MPD1    H2 3129   3.342   2.156   9.206  0.3519 -0.0214 -1.3133
  202MPD1    H3 3130   3.459   2.049   9.383  3.9269 -0.3688 -0.5043
  202MPD1     N 3131   3.561   2.451   9.578  0.2969 -0.1710  0.0513
  202MPD1    H5 3132   3.614   2.402   9.649  0.8120  1.3069  0.7066
  202MPD1    N1 3133   3.275   2.410   9.174 -0.2761  0.3359  0.1688
  202MPD1    H6 3134   3.273   2.361   9.085 -0.2961  0.7487 -0.0533
  202MPD1    H7 3135   3.279   2.508   9.147  0.1643  0.0002 -0.9675
  203MPD1     C 3136   1.692   3.489  12.633  0.1915  0.1083  0.0108
  203MPD1    C1 3137   1.690   3.399  12.533 -0.6406 -1.0676  0.3833
  203MPD1    C2 3138   1.740   3.266  12.545  0.5259 -0.2136  0.0159
  203MPD1    C3 3139   1.772   3.217  12.667  0.2684  0.0173 -0.1665
  203MPD1    C4 3140   1.755   3.304  12.772 -0.2163 -0.0934 -0.0699
  203MPD1    C5 3141   1.715   3.435  12.756  0.1454 -0.4438  0.1168
  203MPD1     H 3142   1.756   3.206  12.456  1.0042  1.4831 -1.0369
  203MPD1    H1 3143   1.789   3.274  12.870  3.4444  0.7581 -1.0713
  203MPD1    H2 3144   1.690   3.597  12.631 -0.9757  0.0716 -0.5106
  203MPD1    H3 3145   1.713   3.503  12.840  2.8725  0.4671 -0.5561
  203MPD1     N 3146   1.814   3.082  12.676 -0.3833  0.2145 -0.3737
  203MPD1    H5 3147   1.802   3.027  12.591  0.1981  1.3557 -1.1988
  203MPD1    N1 3148   1.676   3.451  12.402  0.7418  0.3600  0.0140
  203MPD1    H6 3149   1.616   3.532  12.408  0.5038  0.1237  0.7564
  203MPD1    H7 3150   1.640   3.388  12.331 -2.1193  1.9224  0.0900
  204MPD1     C 3151   0.402   0.263  17.705 -0.9711  0.5205 -0.7621
  204MPD1    C1 3152   0.496   0.247  17.609  0.2645 -0.0049 -0.4273
  204MPD1    C2 3153   0.581   0.139  17.629  0.0953 -0.0910  0.8128
  204MPD1    C3 3154   0.561   0.042  17.732 -0.2805  0.3201  0.0647
  204MPD1    C4 3155   0.458   0.064   0.074  0.7330  0.5161  0.1996
  204MPD1    C5 3156   0.386   0.183   0.066  0.0325  0.1214  0.1239
  204MPD1     H 3157   0.659   0.130  17.554 -1.8464  0.5466 -1.2996
  204MPD1    H1 3158   0.425   4.736   0.154 -0.2631  0.4440 -0.2663
  204MPD1    H2 3159   0.333   0.347  17.694 -1.3037  0.1793 -1.2876
  204MPD1    H3 3160   0.302   0.199   0.133 -0.8921  1.3279 -1.3198
  204MPD1     N 3161   0.650   4.671  17.735 -0.0230 -0.1611  0.3484
  204MPD1    H5 3162   0.717   4.665  17.659 -0.0264 -1.9176  0.4888
  204MPD1    N1 3163   0.522   0.352  17.516  0.0294 -0.6138  0.2474
  204MPD1    H6 3164   0.556   0.298  17.437 -0.0774 -1.7373  0.9619
  204MPD1    H7 3165   0.433   0.394  17.491  0.6508  0.7507  0.3354
  205MPD1     C 3166   0.471   3.297  17.166  0.3860  0.0693 -0.0834
  205MPD1    C1 3167   0.389   3.317  17.271 -0.0842 -0.7401 -0.0316
  205MPD1    C2 3168   0.441   3.322  17.397  0.5213  0.5736  0.4869
  205MPD1    C3 3169   0.570   3.287  17.418 -0.3576  0.0799  0.1107
  205MPD1    C4 3170   0.653   3.258  17.313  0.4384  0.4300  0.2323
  205MPD1    C5 3171   0.602   3.262  17.190 -0.2956  0.2575 -0.5058
  205MPD1     H 3172   0.379   3.358  17.479  2.3915 -0.1839  2.2372
  205MPD1    H1 3173   0.752   3.217  17.327  0.0839 -0.2244  0.7936
  205MPD1    H2 3174   0.444   3.295  17.061 -0.2964  1.4269  0.0580
  205MPD1    H3 3175   0.665   3.234  17.107 -0.2630  2.2619 -1.1644
  205MPD1     N 3176   0.632   3.298  17.546 -0.0084  0.0399 -0.2141
  205MPD1    H5 3177   0.732   3.285  17.539  0.0619  0.2562  0.3437
  205MPD1    N1 3178   0.258   3.356  17.255 -0.0329  0.3589  0.0010
  205MPD1    H6 3179   0.195   3.323  17.327  0.4159  2.3433  1.3214
  205MPD1    H7 3180   0.220   3.328  17.165  1.6145 -1.7718 -0.0290
  206MPD1     C 3181   1.717   0.852  16.817 -0.2760  0.7269 -0.1026
  206MPD1    C1 3182   1.790   0.824  16.700 -0.4832 -0.0913 -0.0074
  206MPD1    C2 3183   1.718   0.832  16.582 -0.7912 -0.7993 -0.1808
  206MPD1    C3 3184   1.580   0.835  16.577 -0.5895  0.4132 -0.3243
  206MPD1    C4 3185   1.514   0.835  16.698  0.0427 -0.6880 -0.1141
  206MPD1    C5 3186   1.578   0.865  16.817 -0.0399  0.4026  0.1546
  206MPD1     H 3187   1.784   0.837  16.496 -1.6237 -0.3160 -0.7959
  206MPD1    H1 3188   1.407   0.824  16.706  0.0944  0.6975  2.6497
  206MPD1    H2 3189   1.764   0.868  16.913 -0.7511 -2.3601  0.6291
  206MPD1    H3 3190   1.523   0.885  16.908 -2.1452  0.5331 -1.1502
  206MPD1     N 3191   1.504   0.844  16.458 -0.1090 -0.0636  1.1342
  206MPD1    H5 3192   1.404   0.852  16.474  0.0207  0.3808  1.7413
  206MPD1    N1 3193   1.923   0.807  16.697  0.3757  0.3577  0.6103
  206MPD1    H6 3194   1.966   0.775  16.783  1.1491 -1.0039 -0.2900
  206MPD1    H7 3195   1.941   0.732  16.630 -0.2428 -0.2814  1.1648
  207MPD1     C 3196   0.072   3.291   9.515  0.6101 -0.1020 -0.9970
  207MPD1    C1 3197   0.120   3.200   9.603 -0.7742  0.1553 -0.1024
  207MPD1    C2 3198   0.046   3.179   9.722 -0.1377 -0.4515 -0.8119
  207MPD1    C3 3199   4.662   3.242   9.747  0.2263  0.1085  0.0348
  207MPD1    C4 3200   4.615   3.318   9.644 -0.1424 -0.2479 -0.8714
  207MPD1    C5 3201   4.680   3.344   9.526  0.1828 -0.2225 -0.4869
  207MPD1     H 3202   0.093   3.119   9.800 -2.5876  1.1042  1.8321
  207MPD1    H1 3203   4.526   3.379   9.656 -0.0690 -0.1295 -0.9242
  207MPD1    H2 3204   0.128   3.314   9.425  2.7038  2.2002  0.9370
  207MPD1    H3 3205   4.643   3.413   9.451  0.0326 -1.8026 -1.8732
  207MPD1     N 3206   4.595   3.241   9.869  0.6593 -0.0161 -0.5556
  207MPD1    H5 3207   4.508   3.293   9.867  0.2955 -0.6801 -1.9300
  207MPD1    N1 3208   0.248   3.140   9.594 -0.3190 -0.1935  0.7099
  207MPD1    H6 3209   0.259   3.058   9.653 -0.4225 -1.0251 -0.4327
  207MPD1    H7 3210   0.288   3.121   9.502 -2.0920 -2.5010  0.4281
  208MPD1     C 3211   2.185   2.670   0.788  0.0116  0.1484  0.3267
  208MPD1    C1 3212   2.070   2.707   0.849 -0.2605 -0.4702  0.2877
  208MPD1    C2 3213   1.951   2.700   0.780 -0.0158  0.4119 -0.5088
  208MPD1    C3 3214   1.947   2.669   0.649  0.0103 -0.0270  0.2616
  208MPD1    C4 3215   2.066   2.625   0.587 -0.0657  0.0336 -0.9123
  208MPD1    C5 3216   2.177   2.621   0.666  0.1421  0.7640 -0.5791
  208MPD1     H 3217   1.854   2.723   0.823 -0.3314  1.9677 -2.0631
  208MPD1    H1 3218   2.057   2.568   0.495 -2.0790 -0.7608 -0.2276
  208MPD1    H2 3219   2.283   2.683   0.834 -1.6276  0.3394  3.7702
  208MPD1    H3 3220   2.269   2.584   0.623 -0.3722 -2.0529  0.7670
  208MPD1     N 3221   1.827   2.667   0.585  0.0938 -0.0555 -0.2727
  208MPD1    H5 3222   1.743   2.694   0.636  0.6239  0.0148  0.5541
  208MPD1    N1 3223   2.069   2.794   0.959 -0.3129 -0.0257 -0.5462
  208MPD1    H6 3224   1.982   2.796   1.010  0.2156  0.1551  0.3548
  208MPD1    H7 3225   2.150   2.775   1.018 -1.7373  1.5566  1.9198
  209MPD1     C 3226   4.659   2.037  11.182  0.6211 -0.1088  1.0532
  209MPD1    C1 3227   4.730   2.078  11.073  0.3117  0.5263  0.8490
  209MPD1    C2 3228   0.015   2.209  11.065 -0.1991  0.2997 -0.3038
  209MPD1    C3 3229   4.701   2.308  11.155  0.1107 -0.3771  0.2927
  209MPD1    C4 3230   4.634   2.258  11.263  0.7816  0.6615  0.2758
  209MPD1    C5 3231   4.611   2.127  11.273  0.1497 -0.2025  0.2621
  209MPD1     H 3232   0.083   2.250  10.991 -1.2867 -0.3361 -1.6542
  209MPD1    H1 3233   4.596   2.326  11.339 -0.1432  1.7552 -1.1402
  209MPD1    H2 3234   4.639   1.932  11.197 -0.2869  0.1892  1.9292
  209MPD1    H3 3235   4.551   2.089  11.355  1.3250  1.8132  2.0419
  209MPD1     N 3236   4.737   2.446  11.135  0.5527  0.2743  0.0523
  209MPD1    H5 3237   0.023   2.467  11.039 -2.1401  1.5212 -0.3407
  209MPD1    N1 3238   0.067   1.982  10.997  0.0016 -0.0828  0.5893
  209MPD1    H6 3239   0.091   2.012  10.903 -0.9115 -1.9412 -0.2237
  209MPD1    H7 3240   0.011   1.897  10.989 -1.7073  1.1322 -0.5274
  210MPD1     C 3241   0.270   3.453  11.457  0.5710 -0.6215  0.1484
  210MPD1    C1 3242   0.219   3.354  11.537  0.9893  0.4478 -1.0147
  210MPD1    C2 3243   0.166   3.243  11.477 -0.4128 -0.4995  0.8803
  210MPD1    C3 3244   0.153   3.232  11.338 -0.0742 -0.4430  0.2458
  210MPD1    C4 3245   0.194   3.340  11.262 -0.4450 -0.6132 -0.5317
  210MPD1    C5 3246   0.259   3.443  11.318  0.4335  0.7123 -0.3756
  210MPD1     H 3247   0.139   3.162  11.545 -2.3405 -0.1664  0.5052
  210MPD1    H1 3248   0.193   3.320  11.155 -0.2842  1.6620 -0.9415
  210MPD1    H2 3249   0.310   3.544  11.499  1.7380 -0.5392 -1.1469
  210MPD1    H3 3250   0.297   3.524  11.256 -1.6862  2.1196  0.1549
  210MPD1     N 3251   0.116   3.116  11.270 -0.1906 -0.4148 -0.4870
  210MPD1    H5 3252   0.115   3.121  11.169 -0.3241  2.2119 -0.3697
  210MPD1    N1 3253   0.219   3.380  11.677  0.2854  0.0966  0.4796
  210MPD1    H6 3254   0.301   3.436  11.696  0.1412  0.5510 -0.2651
  210MPD1    H7 3255   0.230   3.297  11.736 -4.9628 -0.4805  0.6968
  211MPD1     C 3256   1.238   1.942  16.725 -0.5805  0.6654  0.1451
  211MPD1    C1 3257   1.268   2.012  16.845 -0.0610  0.2396  0.0168
  211MPD1    C2 3258   1.183   2.118  16.882  0.3391 -0.0969  1.0433
  211MPD1    C3 3259   1.066   2.143  16.813 -0.2643 -0.4687 -0.0219
  211MPD1    C4 3260   1.041   2.078  16.695  0.4640  0.0775  0.1906
  211MPD1    C5 3261   1.123   1.973  16.654  0.2946  0.0390  0.0441
  211MPD1     H 3262   1.211   2.189  16.959  0.2108  2.8310 -1.5971
  211MPD1    H1 3263   0.951   2.099  16.640  0.2962 -1.7231 -0.2389
  211MPD1    H2 3264   1.303   1.859  16.699 -0.4979  0.0702  2.2227
  211MPD1    H3 3265   1.103   1.918  16.563  0.7753 -0.7895  0.4348
  211MPD1     N 3266   0.991   2.258  16.849  0.5578  0.8787  0.1219
  211MPD1    H5 3267   1.024   2.296  16.937 -0.2599 -0.0703  0.8259
  211MPD1    N1 3268   1.391   1.993  16.908  0.4007 -0.2800 -0.0029
  211MPD1    H6 3269   1.381   1.991  17.009 -1.4320 -0.7358 -0.1945
  211MPD1    H7 3270   1.442   1.909  16.883 -0.5816 -0.5518 -1.1275
  212MPD1     C 3271   0.665   1.436  16.593  0.3695  0.6645  0.0312
  212MPD1    C1 3272   0.740   1.323  16.601 -0.0894  0.0871  1.1209
  212MPD1    C2 3273   0.684   1.208  16.660  0.0721 -0.2548 -0.1290
  212MPD1    C3 3274   0.550   1.209  16.707  0.6155  0.3605 -0.2237
  212MPD1    C4 3275   0.482   1.323  16.695  0.8748 -0.2008  0.0115
  212MPD1    C5 3276   0.540   1.432  16.633 -0.3958  0.1161 -0.3942
  212MPD1     H 3277   0.742   1.117  16.656  0.7430  0.1119  1.2854
  212MPD1    H1 3278   0.382   1.338  16.736  1.4099  1.4180  0.7185
  212MPD1    H2 3279   0.708   1.525  16.550 -0.2921  1.7047  1.5200
  212MPD1    H3 3280   0.481   1.522  16.622 -1.5708 -0.6904 -0.6664
  212MPD1     N 3281   0.487   1.090  16.767  0.0628 -0.1558  0.0560
  212MPD1    H5 3282   0.389   1.098  16.792  0.4861 -0.0288  1.7118
  212MPD1    N1 3283   0.874   1.326  16.558  0.1748  0.2101 -0.3962
  212MPD1    H6 3284   0.912   1.415  16.528 -0.7094  0.9156  0.5532
  212MPD1    H7 3285   0.937   1.284  16.626 -1.5831  1.4655  2.0199
  213MPD1     C 3286   3.747   1.964  15.965 -0.5792  0.2057 -0.8920
  213MPD1    C1 3287   3.668   1.853  15.927  0.0742 -0.1282 -0.0645
  213MPD1    C2 3288   3.619   1.862  15.799 -0.2977  0.1499 -0.5029
  213MPD1    C3 3289   3.614   1.979  15.728 -0.3946 -0.3829 -0.2014
  213MPD1    C4 3290   3.659   2.097  15.793  0.1019 -0.0730  0.2699
  213MPD1    C5 3291   3.735   2.084  15.898 -0.7062  0.1909  0.1998
  213MPD1     H 3292   3.584   1.774  15.746 -0.2738 -0.8636  1.1526
  213MPD1    H1 3293   3.657   2.186  15.730  0.5955  0.1661  0.5889
  213MPD1    H2 3294   3.801   1.966  16.059  0.2807 -0.2966 -1.3798
  213MPD1    H3 3295   3.781   2.173  15.939  1.9341 -0.6467 -0.9867
  213MPD1     N 3296   3.554   1.969  15.596 -0.6593  0.6133  0.4823
  213MPD1    H5 3297   3.524   1.876  15.569  0.0649  0.3405  0.6112
  213MPD1    N1 3298   3.715   1.732  15.978 -0.5285  0.0297 -0.8061
  213MPD1    H6 3299   3.663   1.648  15.957  0.3599 -0.6280 -0.3502
  213MPD1    H7 3300   3.732   1.734  16.078  2.6685 -1.1271 -1.3227
  214MPD1     C 3301   3.206   1.247  15.449  0.3326  0.0703  0.5774
  214MPD1    C1 3302   3.100   1.331  15.411 -0.0278  0.5879  0.1477
  214MPD1    C2 3303   3.135   1.462  15.379  0.1255 -0.2143 -0.3985
  214MPD1    C3 3304   3.262   1.510  15.406  0.9181  0.1872 -0.7865
  214MPD1    C4 3305   3.353   1.428  15.463 -0.1839  0.6587 -0.5128
  214MPD1    C5 3306   3.324   1.299  15.480 -0.8252  0.4572  0.5494
  214MPD1     H 3307   3.054   1.522  15.340 -0.1677  1.1827  2.3468
  214MPD1    H1 3308   3.451   1.465  15.490 -0.0481  0.1144 -0.2483
  214MPD1    H2 3309   3.188   1.144  15.477 -0.5953 -0.3854 -1.6744
  214MPD1    H3 3310   3.404   1.235  15.516  0.8621  1.4720 -1.4057
  214MPD1     N 3311   3.298   1.643  15.387  0.4428 -0.1482  0.0163
  214MPD1    H5 3312   3.394   1.658  15.418  0.2672 -2.3362  1.5789
  214MPD1    N1 3313   2.981   1.267  15.370 -0.1017 -1.1162 -0.1616
  214MPD1    H6 3314   2.976   1.189  15.435  0.1303 -1.0387 -0.0474
  214MPD1    H7 3315   2.908   1.334  15.393 -0.7348 -1.2210 -1.8952
  215MPD1     C 3316   3.450   2.405  10.309  0.0498  0.5983  0.0907
  215MPD1    C1 3317   3.572   2.383  10.368  0.1277 -0.4743  0.6848
  215MPD1    C2 3318   3.658   2.494  10.396 -0.4161 -0.4843 -0.4056
  215MPD1    C3 3319   3.606   2.619  10.378 -0.6287  0.0663 -0.4905
  215MPD1    C4 3320   3.486   2.634  10.320  0.0251 -0.1662  0.7170
  215MPD1    C5 3321   3.404   2.531  10.291 -0.8742  0.0496 -0.7787
  215MPD1     H 3322   3.761   2.490  10.431 -1.0861  1.7459  1.7877
  215MPD1    H1 3323   3.444   2.731  10.295  0.5875  0.0102  0.4518
  215MPD1    H2 3324   3.384   2.325  10.278  0.1099  0.5430  0.1070
  215MPD1    H3 3325   3.310   2.545  10.239 -0.8206  0.8947 -0.6594
  215MPD1     N 3326   3.690   2.732  10.424  0.3945  0.7883  0.5637
  215MPD1    H5 3327   3.779   2.710  10.466  0.1072 -0.6643  0.4372
  215MPD1    N1 3328   3.616   2.254  10.380  0.1379  0.6256 -0.0697
  215MPD1    H6 3329   3.696   2.248  10.442 -0.2754  1.4872  0.5381
  215MPD1    H7 3330   3.648   2.214  10.292  2.4019 -0.7314  1.3683
  216MPD1     C 3331   0.037   0.960  17.721  0.4491  0.0837 -0.8897
  216MPD1    C1 3332   0.012   0.858   0.067 -0.3262  0.2463  0.1986
  216MPD1    C2 3333   0.001   0.731   0.014  0.6052  0.3132  0.1267
  216MPD1    C3 3334   4.734   0.704  17.627 -0.4365 -0.0834  0.0705
  216MPD1    C4 3335   0.004   0.816  17.536 -0.8381  0.2272 -0.2904
  216MPD1    C5 3336   0.026   0.937  17.583  0.7451 -0.0064  0.0929
  216MPD1     H 3337   4.722   0.649   0.083 -1.3893  1.4792  1.0304
  216MPD1    H1 3338   0.002   0.806  17.428 -1.9209 -2.1645 -0.0496
  216MPD1    H2 3339   0.062   1.057   0.016  0.3799  0.1078 -0.9055
  216MPD1    H3 3340   0.038   1.025  17.520 -0.4678 -0.2319 -0.4477
  216MPD1     N 3341   4.722   0.569  17.575  0.0127 -0.3117  0.5188
  216MPD1    H5 3342   4.721   0.491  17.640  0.8057  0.3694  1.3586
  216MPD1    N1 3343   0.018   0.878   0.205  0.6479  0.0810  0.1564
  216MPD1    H6 3344   0.004   0.975   0.230  0.2846 -0.1490  0.8428
  216MPD1    H7 3345   4.696   0.811   0.254  2.6872 -0.8347  1.3527
  217MPD1     C 3346   2.260   3.630   9.600  0.4830 -0.2648 -0.7488
  217MPD1    C1 3347   2.360   3.574   9.681 -1.4581 -0.0167  0.4760
  217MPD1    C2 3348   2.348   3.441   9.707  0.2514  0.3551  0.3223
  217MPD1    C3 3349   2.240   3.369   9.668  0.2671  0.5885 -0.0001
  217MPD1    C4 3350   2.133   3.429   9.614  0.6385 -0.1270  0.2525
  217MPD1    C5 3351   2.143   3.560   9.574 -0.5128  0.2415 -0.5016
  217MPD1     H 3352   2.425   3.380   9.754  1.8392  1.3387 -1.0043
  217MPD1    H1 3353   2.043   3.379   9.582  0.1185  1.8662 -1.3573
  217MPD1    H2 3354   2.279   3.733   9.572 -0.3882  0.7402  2.3279
  217MPD1    H3 3355   2.066   3.607   9.514 -2.8399 -0.7917  1.6670
  217MPD1     N 3356   2.228   3.236   9.679  0.2445 -0.0815  0.1655
  217MPD1    H5 3357   2.136   3.192   9.674  0.3372  0.1541 -3.3283
  217MPD1    N1 3358   2.486   3.636   9.698  0.5458 -0.1801 -0.3818
  217MPD1    H6 3359   2.533   3.606   9.784  1.0230  0.2863 -0.4799
  217MPD1    H7 3360   2.483   3.737   9.707 -0.1505 -0.2850  0.5568
  218MPD1     C 3361   3.215   3.594  12.492  0.1816 -0.1851  0.1509
  218MPD1    C1 3362   3.178   3.459  12.484 -0.7439  0.5866  0.0608
  218MPD1    C2 3363   3.270   3.373  12.423  0.5894  0.4354 -0.3397
  218MPD1    C3 3364   3.380   3.420  12.351  0.5763  0.1167 -0.3369
  218MPD1    C4 3365   3.404   3.556  12.351 -0.1701 -0.5548  0.0638
  218MPD1    C5 3366   3.317   3.644  12.415  0.1259  0.2128  0.0458
  218MPD1     H 3367   3.254   3.266  12.419  3.7981 -0.0958  1.0644
  218MPD1    H1 3368   3.488   3.606  12.304 -0.0667 -1.8366 -1.0950
  218MPD1    H2 3369   3.146   3.670  12.528  0.1081 -0.9142  1.5336
  218MPD1    H3 3370   3.346   3.748  12.415 -0.2435  0.3166  1.1744
  218MPD1     N 3371   3.455   3.331  12.278  0.3765  0.1084  0.5113
  218MPD1    H5 3372   3.425   3.234  12.284 -0.7707  0.5075  1.1096
  218MPD1    N1 3373   3.078   3.411  12.565  0.2795 -0.5199 -0.5265
  218MPD1    H6 3374   3.043   3.315  12.558  1.5059 -1.1060  1.2382
  218MPD1    H7 3375   2.993   3.467  12.574 -0.4441 -1.5930 -0.6073
  219MPD1     C 3376   4.398   3.278  11.813  0.4048  0.1727 -0.6840
  219MPD1    C1 3377   4.282   3.303  11.746 -0.3046  0.2034 -0.0477
  219MPD1    C2 3378   4.162   3.280  11.808 -0.2948 -0.4792  0.0829
  219MPD1    C3 3379   4.168   3.209  11.937  0.7787  0.3866  0.0169
  219MPD1    C4 3380   4.287   3.170  11.995  0.2657 -0.5912 -0.2506
  219MPD1    C5 3381   4.407   3.207  11.932  0.5699  0.4520  0.1766
  219MPD1     H 3382   4.071   3.331  11.780 -0.6162 -0.6716  0.7824
  219MPD1    H1 3383   4.299   3.112  12.086  0.2622 -1.3862 -0.7555
  219MPD1    H2 3384   4.494   3.309  11.775  1.7702  0.9963  3.4807
  219MPD1    H3 3385   4.504   3.180  11.971  0.6663  2.5422  1.3971
  219MPD1     N 3386   4.052   3.185  12.012 -0.3855  0.3251 -0.5840
  219MPD1    H5 3387   4.068   3.159  12.109  1.7322 -1.6651 -1.4655
  219MPD1    N1 3388   4.288   3.389  11.636  0.0819 -0.2223 -0.4600
  219MPD1    H6 3389   4.210   3.373  11.573 -0.9297 -0.1919  0.7854
  219MPD1    H7 3390   4.371   3.372  11.580  0.1311 -0.3015 -0.3646
  220MPD1     C 3391   2.806   3.982   9.380 -0.2584  0.1456  0.2605
  220MPD1    C1 3392   2.750   3.940   9.501 -0.1166 -0.5376  0.4210
  220MPD1    C2 3393   2.822   3.917   9.616 -0.8347  0.1672  0.6667
  220MPD1    C3 3394   2.959   3.924   9.613  0.4042  0.1396  0.7222
  220MPD1    C4 3395   3.017   3.964   9.492 -0.3568 -0.3088  0.1092
  220MPD1    C5 3396   2.942   3.993   9.384  1.3474  0.5014 -0.4382
  220MPD1     H 3397   2.777   3.877   9.706 -1.4231  1.1256  0.7898
  220MPD1    H1 3398   3.122   3.987   9.476 -0.1684 -1.2654 -0.0154
  220MPD1    H2 3399   2.751   3.994   9.287 -1.0140  0.2270  0.7210
  220MPD1    H3 3400   2.997   4.035   9.301 -0.0100  1.2165 -0.9794
  220MPD1     N 3401   3.031   3.888   9.723 -0.3159 -0.0226  0.0307
  220MPD1    H5 3402   2.977   3.872   9.807  0.5838  1.7444  0.9513
  220MPD1    N1 3403   2.616   3.896   9.501  0.2679  0.5813  0.7313
  220MPD1    H6 3404   2.553   3.957   9.449  1.5221  1.0191 -0.2584
  220MPD1    H7 3405   2.576   3.899   9.595  2.7313 -0.2585  1.8151
  221MPD1     C 3406   0.929   2.799  16.593  0.4317 -0.1832  0.4689
  221MPD1    C1 3407   0.922   2.730  16.475 -0.2097  0.0967 -0.0130
  221MPD1    C2 3408   1.008   2.626  16.458  0.5884 -0.2637  0.7362
  221MPD1    C3 3409   1.095   2.600  16.562  0.5630  0.1825  0.4162
  221MPD1    C4 3410   1.108   2.675  16.676  0.0520  0.6326  0.3656
  221MPD1    C5 3411   1.022   2.780  16.692  0.0446 -0.4749 -0.2073
  221MPD1     H 3412   1.007   2.578  16.361  0.0339  0.3468  0.4370
  221MPD1    H1 3413   1.184   2.651  16.750 -0.5296 -1.7564  0.1950
  221MPD1    H2 3414   0.869   2.887  16.615  2.8103  1.6101 -0.1214
  221MPD1    H3 3415   1.030   2.850  16.775 -0.7405 -0.9932  0.3144
  221MPD1     N 3416   1.173   2.481  16.562 -0.0444  0.4835  0.0360
  221MPD1    H5 3417   1.231   2.465  16.644  0.8035 -0.6103 -0.7824
  221MPD1    N1 3418   0.852   2.781  16.367 -0.2566  0.6481 -0.4375
  221MPD1    H6 3419   0.771   2.834  16.398 -0.2133  0.4497  0.0114
  221MPD1    H7 3420   0.811   2.708  16.309  1.0690  0.2958 -0.9461
  222MPD1     C 3421   0.309   1.350   0.111 -0.4475  0.4082  0.0886
  222MPD1    C1 3422   0.188   1.308   0.067 -0.4960 -1.1012 -0.6918
  222MPD1    C2 3423   0.092   1.272   0.157  0.0587 -0.9072 -0.4406
  222MPD1    C3 3424   0.106   1.289   0.296  0.2502 -0.7669  0.8189
  222MPD1    C4 3425   0.233   1.343   0.337  0.7434 -0.7600 -0.4725
  222MPD1    C5 3426   0.326   1.374   0.244 -0.1739  0.1549 -0.4289
  222MPD1     H 3427   4.733   1.241   0.120 -0.7262 -0.2429  1.0212
  222MPD1    H1 3428   0.258   1.367   0.439 -0.7843  0.3638 -0.3691
  222MPD1    H2 3429   0.391   1.380   0.045 -0.6049  0.7010  0.0232
  222MPD1    H3 3430   0.416   1.426   0.274  0.2626 -1.4281  1.0260
  222MPD1     N 3431   0.000   1.265   0.386 -0.1808 -0.1302  0.4549
  222MPD1    H5 3432   0.013   1.288   0.484  0.8646  3.2119 -0.4615
  222MPD1    N1 3433   0.174   1.293  17.667 -0.1647 -0.1449 -0.0597
  222MPD1    H6 3434   0.231   1.361  17.617  1.0228 -1.0612  0.0422
  222MPD1    H7 3435   0.080   1.294  17.628 -0.1983 -0.1994  0.0195
  223MPD1     C 3436   4.007   0.584   0.622 -1.3737 -0.5549 -0.1360
  223MPD1    C1 3437   4.049   0.625   0.494  0.8011  0.0789 -1.2528
  223MPD1    C2 3438   4.112   0.750   0.474  0.0199  0.5917 -0.3320
  223MPD1    C3 3439   4.157   0.827   0.582 -0.4474 -0.0240 -0.8430
  223MPD1    C4 3440   4.125   0.778   0.703  0.6744  0.0744  0.2050
  223MPD1    C5 3441   4.058   0.662   0.724  0.2152 -0.2868  0.1291
  223MPD1     H 3442   4.137   0.772   0.371 -0.0181 -0.7283 -0.6145
  223MPD1    H1 3443   4.160   0.832   0.791  2.4489 -1.7105  0.5890
  223MPD1    H2 3444   3.958   0.490   0.646 -0.7882 -1.0506 -0.8795
  223MPD1    H3 3445   4.049   0.631   0.827  0.2120  0.6227  0.4104
  223MPD1     N 3446   4.220   0.954   0.553  0.2227  0.0241  0.2843
  223MPD1    H5 3447   4.247   0.974   0.458 -0.1031 -1.6398 -0.1690
  223MPD1    N1 3448   4.003   0.556   0.384  0.2100  0.0810  0.1094
  223MPD1    H6 3449   4.067   0.553   0.305 -1.6060 -2.6847 -1.2438
  223MPD1    H7 3450   3.987   0.457   0.401 -1.2595  0.3493  0.2927
  224MPD1     C 3451   2.929   3.721   8.940 -0.6803  0.2171  0.4281
  224MPD1    C1 3452   3.046   3.652   8.964  0.0408  0.4010 -0.3779
  224MPD1    C2 3453   3.055   3.599   9.095  0.0981 -0.1674  0.1285
  224MPD1    C3 3454   2.965   3.619   9.192 -0.0808 -0.4642 -0.8190
  224MPD1    C4 3455   2.859   3.707   9.166 -0.0006  0.1866  0.0586
  224MPD1    C5 3456   2.844   3.758   9.043  0.7692 -0.4127  0.1763
  224MPD1     H 3457   3.142   3.540   9.122  1.3142  0.3965 -2.6045
  224MPD1    H1 3458   2.783   3.735   9.239  2.5486  0.2734  2.7013
  224MPD1    H2 3459   2.906   3.769   8.846 -2.2354 -1.1781  0.0918
  224MPD1    H3 3460   2.766   3.834   9.034  0.2256 -0.7398  2.2011
  224MPD1     N 3461   2.979   3.573   9.328  0.2835 -0.0558  0.4261
  224MPD1    H5 3462   2.905   3.607   9.389 -1.5605 -1.1042 -1.2071
  224MPD1    N1 3463   3.131   3.613   8.860 -0.7412 -0.0991 -0.1011
  224MPD1    H6 3464   3.144   3.681   8.785  2.9104  0.5046  1.1042
  224MPD1    H7 3465   3.226   3.596   8.890 -0.5605 -1.1895 -1.2849
  225MPD1     C 3466   3.530   4.347  12.699  0.2820 -0.4011 -0.2130
  225MPD1    C1 3467   3.521   4.215  12.707  0.6658  0.0888  0.0686
  225MPD1    C2 3468   3.403   4.158  12.743  0.1955 -0.2756 -0.7290
  225MPD1    C3 3469   3.304   4.237  12.804 -0.0249  0.6579 -0.1616
  225MPD1    C4 3470   3.320   4.371  12.807 -0.7319 -0.5412  0.4176
  225MPD1    C5 3471   3.428   4.422  12.750  0.0527  0.0475 -0.4190
  225MPD1     H 3472   3.395   4.050  12.747  1.4375 -0.2866  2.0834
  225MPD1    H1 3473   3.253   4.435  12.864 -0.8637  0.5720 -0.9916
  225MPD1    H2 3474   3.612   4.397  12.648  1.1751  0.5249  2.0846
  225MPD1    H3 3475   3.426   4.529  12.733 -0.4654  0.0701 -0.2112
  225MPD1     N 3476   3.192   4.178  12.875  0.2921 -0.5402 -0.9817
  225MPD1    H5 3477   3.141   4.245  12.931  1.0198 -1.3646  0.6603
  225MPD1    N1 3478   3.622   4.145  12.638 -0.6334  0.3557  0.8509
  225MPD1    H6 3479   3.621   4.049  12.671 -2.4383 -0.8436 -2.6584
  225MPD1    H7 3480   3.717   4.182  12.645 -0.3003 -0.6363  1.6273
  226MPD1     C 3481   2.924   0.490   8.780 -1.2080 -1.0775  0.0388
  226MPD1    C1 3482   2.988   0.468   8.900 -0.0319  0.4952  0.0613
  226MPD1    C2 3483   2.955   0.357   8.973  0.0935 -0.2092  0.2490
  226MPD1    C3 3484   2.873   0.260   8.921 -0.5136  0.0861 -0.1940
  226MPD1    C4 3485   2.816   0.284   8.795  0.1274 -0.3488  0.0951
  226MPD1    C5 3486   2.849   0.393   8.722  1.0426 -0.6574  0.8604
  226MPD1     H 3487   2.982   0.358   9.078  0.0621 -1.3252  0.2728
  226MPD1    H1 3488   2.766   0.209   8.736  0.5398  1.1438 -2.1604
  226MPD1    H2 3489   2.931   0.580   8.720 -1.6199 -0.4004  1.0147
  226MPD1    H3 3490   2.806   0.391   8.622  0.5937 -0.3813  1.0472
  226MPD1     N 3491   2.855   0.133   8.973  0.5030 -0.3333 -0.7158
  226MPD1    H5 3492   2.907   0.124   9.060 -0.9891 -2.4260 -0.0406
  226MPD1    N1 3493   3.057   0.579   8.956  0.1010  0.4228 -0.0997
  226MPD1    H6 3494   3.143   0.553   9.005 -0.5512 -1.3372  0.0869
  226MPD1    H7 3495   3.094   0.642   8.884  1.0565 -1.0584 -0.9047
  227MPD1     C 3496   2.139   4.325   9.211  0.7430  0.2812  0.1379
  227MPD1    C1 3497   2.191   4.451   9.233 -0.5161  0.2499 -0.1383
  227MPD1    C2 3498   2.318   4.482   9.197  0.1911  0.1853  0.6987
  227MPD1    C3 3499   2.401   4.382   9.158 -0.7324  0.1916  0.0517
  227MPD1    C4 3500   2.356   4.254   9.135  0.1326  0.2810  0.6188
  227MPD1    C5 3501   2.222   4.228   9.163 -0.1258 -0.5143  0.5807
  227MPD1     H 3502   2.355   4.583   9.210 -0.8723  0.8258 -1.3353
  227MPD1    H1 3503   2.425   4.181   9.094 -0.0440  2.0229 -2.8074
  227MPD1    H2 3504   2.034   4.306   9.231  0.5261  2.8691  1.4606
  227MPD1    H3 3505   2.181   4.131   9.135  1.0764 -1.3118  1.5820
  227MPD1     N 3506   2.528   4.424   9.130  0.0839  0.2591  0.5897
  227MPD1    H5 3507   2.547   4.523   9.132 -2.4393  0.7843 -1.4079
  227MPD1    N1 3508   2.108   4.550   9.268  0.4343 -0.3000 -0.2611
  227MPD1    H6 3509   2.021   4.504   9.293  0.7744 -0.2233  1.0925
  227MPD1    H7 3510   2.088   4.605   9.185  0.6430 -0.0240 -0.1302
  228MPD1     C 3511   0.709   1.850  12.267 -0.5303  0.5623  0.4957
  228MPD1    C1 3512   0.691   1.880  12.401 -0.9936 -0.0278 -1.3311
  228MPD1    C2 3513   0.562   1.852  12.454  0.3105  0.1966 -0.0934
  228MPD1    C3 3514   0.452   1.816  12.378  0.2447  0.0403  0.5983
  228MPD1    C4 3515   0.469   1.818  12.240 -0.1574  0.2100 -0.3351
  228MPD1    C5 3516   0.596   1.832  12.189  0.0304  0.4517 -1.0242
  228MPD1     H 3517   0.547   1.862  12.561  1.5061  1.5201 -0.0531
  228MPD1    H1 3518   0.385   1.798  12.175  0.8246 -3.8616 -0.3316
  228MPD1    H2 3519   0.795   1.886  12.212 -0.6940 -2.1352 -1.5261
  228MPD1    H3 3520   0.616   1.837  12.083 -3.2305  1.6080 -1.5790
  228MPD1     N 3521   0.325   1.783  12.446  0.1891 -0.4702  0.2597
  228MPD1    H5 3522   0.327   1.782  12.548 -0.0879 -1.9376  0.2412
  228MPD1    N1 3523   0.804   1.893  12.481  0.5380  0.4770  0.5851
  228MPD1    H6 3524   0.859   1.962  12.430 -0.6565  0.3325 -0.8970
  228MPD1    H7 3525   0.775   1.940  12.567 -1.1819 -1.7333  1.2275
  229MPD1     C 3526   4.375   4.634  14.353  0.1111 -0.3175  0.2559
  229MPD1    C1 3527   4.483   4.556  14.392  0.1399 -0.1161 -0.7085
  229MPD1    C2 3528   4.507   4.547  14.527  0.6673 -0.0983  0.3503
  229MPD1    C3 3529   4.431   4.612  14.624  0.8137  0.6931  0.5316
  229MPD1    C4 3530   4.318   4.684  14.581  0.0062 -0.8880 -0.5668
  229MPD1    C5 3531   4.291   4.690  14.448 -0.1142 -0.1262 -0.7842
  229MPD1     H 3532   4.590   4.481  14.549 -0.5354 -0.9506  2.3721
  229MPD1    H1 3533   4.240   4.729  14.642  2.2009  0.0790  1.5010
  229MPD1    H2 3534   4.351   4.646  14.248  2.4358 -0.5163 -0.3101
  229MPD1    H3 3535   4.192   4.724  14.421 -0.5200 -0.4419  0.2992
  229MPD1     N 3536   4.450   4.616  14.760  0.3866  0.5459  0.4138
  229MPD1    H5 3537   4.389   4.687  14.801 -0.8371  0.4765 -1.2732
  229MPD1    N1 3538   4.572   4.506  14.296  0.9287  0.0168 -0.1393
  229MPD1    H6 3539   4.533   4.518  14.203  0.4161  2.0166  0.3302
  229MPD1    H7 3540   4.599   4.409  14.313 -0.4924 -0.2940  0.3678
  230MPD1     C 3541   3.858   4.625  15.540  0.1566  0.6273 -0.1968
  230MPD1    C1 3542   3.951   4.536  15.589  0.1584  0.2090  0.5039
  230MPD1    C2 3543   4.059   4.511  15.510 -0.5614 -0.5269  0.4683
  230MPD1    C3 3544   4.080   4.578  15.388 -0.1482 -0.8271 -0.1371
  230MPD1    C4 3545   3.989   4.680  15.346 -0.2411  0.4646  0.4636
  230MPD1    C5 3546   3.876   4.706  15.429  0.6415 -0.5707 -0.2264
  230MPD1     H 3547   4.129   4.436  15.544 -1.5284 -2.3469 -1.5435
  230MPD1    H1 3548   3.999   0.001  15.255 -1.6645 -2.1340 -1.3347
  230MPD1    H2 3549   3.765   4.636  15.594 -1.0502  1.2845 -2.4011
  230MPD1    H3 3550   3.806   0.049  15.411 -1.9671 -2.7602  0.2818
  230MPD1     N 3551   4.201   4.546  15.324 -0.3746  0.1844  0.0138
  230MPD1    H5 3552   4.263   4.483  15.373  0.1093 -2.2448 -3.7212
  230MPD1    N1 3553   3.922   4.446  15.694 -0.0045 -0.6199 -0.4865
  230MPD1    H6 3554   4.006   4.420  15.745  0.5464 -0.5330 -1.3450
  230MPD1    H7 3555   3.856   4.488  15.758  0.5586  0.7891 -0.8437
  231MPD1     C 3556   3.290   1.585  14.658 -0.7816  0.2378  0.4376
  231MPD1    C1 3557   3.345   1.703  14.713 -0.9989  0.2538  0.1540
  231MPD1    C2 3558   3.266   1.794  14.788 -0.2516 -0.4224  0.7476
  231MPD1    C3 3559   3.127   1.770  14.813 -0.3813  0.0167 -0.4736
  231MPD1    C4 3560   3.077   1.648  14.760 -0.7713 -0.7414 -0.4961
  231MPD1    C5 3561   3.154   1.563  14.681 -0.2867 -0.2603 -0.2433
  231MPD1     H 3562   3.304   1.890  14.823 -0.6930  1.0036 -2.7316
  231MPD1    H1 3563   2.973   1.620  14.774 -0.0166 -2.3884  1.8182
  231MPD1    H2 3564   3.340   1.517  14.590 -2.2539  1.1472 -1.5772
  231MPD1    H3 3565   3.107   1.473  14.644  0.2361 -0.1862 -1.0824
  231MPD1     N 3566   3.056   1.871  14.880 -0.0515 -0.1751  1.3914
  231MPD1    H5 3567   3.110   1.950  14.913  0.4991 -0.2057  0.5501
  231MPD1    N1 3568   3.467   1.744  14.657 -0.0545 -0.0914  0.1916
  231MPD1    H6 3569   3.522   1.801  14.721 -1.1339  1.3189 -0.1175
  231MPD1    H7 3570   3.529   1.674  14.618  0.3978  1.2780 -1.5519
  232MPD1     C 3571   0.069   4.081  17.664  0.1360 -0.4584  0.7551
  232MPD1    C1 3572   4.691   4.131  17.621  0.3988  0.3884  0.5617
  232MPD1    C2 3573   4.573   4.079  17.675 -0.5324  0.1967 -0.4647
  232MPD1    C3 3574   4.570   3.979   0.022 -0.5141  0.2008 -0.0998
  232MPD1    C4 3575   4.691   3.925   0.061  0.5503  0.2834  0.1218
  232MPD1    C5 3576   0.071   3.982   0.014  0.3051 -0.0463  0.6557
  232MPD1     H 3577   4.486   4.131  17.637 -0.5255 -0.0657 -0.8445
  232MPD1    H1 3578   4.697   3.838   0.125  2.4262 -0.9052 -1.6720
  232MPD1    H2 3579   0.164   4.108  17.618 -0.9482  2.1298  0.0801
  232MPD1    H3 3580   0.171   3.945   0.035 -0.0362 -1.7355 -0.7067
  232MPD1     N 3581   4.451   3.929   0.073  0.1091 -0.6164 -0.3082
  232MPD1    H5 3582   4.369   3.981   0.044  0.0072 -0.5405  0.1130
  232MPD1    N1 3583   4.698   4.219  17.514 -0.0314  0.3575  0.0901
  232MPD1    H6 3584   0.050   4.267  17.514  1.0531 -1.6547  1.3633
  232MPD1    H7 3585   4.627   4.292  17.504 -1.2228 -0.6145  1.6184
  233MPD1     C 3586   4.323   2.163   1.902  0.2613 -0.2699 -0.0324
  233MPD1    C1 3587   4.321   2.100   1.784 -0.1344 -0.8796  0.3596
  233MPD1    C2 3588   4.425   2.123   1.690 -0.1592  0.0706  0.7305
  233MPD1    C3 3589   4.530   2.204   1.729  0.0731 -0.9622  0.2711
  233MPD1    C4 3590   4.532   2.266   1.852 -0.3582 -0.2518  0.1988
  233MPD1    C5 3591   4.428   2.244   1.934  0.4146 -0.1187 -0.5940
  233MPD1     H 3592   4.422   2.078   1.591  3.6154  0.9181  0.2480
  233MPD1    H1 3593   4.617   2.326   1.883  1.2896 -2.6557  0.3373
  233MPD1    H2 3594   4.240   2.148   1.970 -0.6317  0.2191 -1.0401
  233MPD1    H3 3595   4.417   2.305   2.023  0.3259  0.6499 -1.1270
  233MPD1     N 3596   4.644   2.226   1.652 -0.2685 -0.2427 -0.0394
  233MPD1    H5 3597   4.705   2.299   1.687  2.5822 -1.9760 -1.3534
  233MPD1    N1 3598   4.204   2.034   1.751 -0.1351  0.0423  0.1844
  233MPD1    H6 3599   4.177   1.988   1.838 -0.8032 -2.2758 -1.2540
  233MPD1    H7 3600   4.217   1.958   1.684 -1.4153 -0.8754  0.9780
  234MPD1     C 3601   3.485   1.629   9.597 -0.1520  0.5939  0.0658
  234MPD1    C1 3602   3.388   1.682   9.518  0.6383  0.2719  1.0189
  234MPD1    C2 3603   3.325   1.805   9.543  0.2274  0.3746 -0.6034
  234MPD1    C3 3604   3.373   1.872   9.648  0.6488 -0.3604  0.8233
  234MPD1    C4 3605   3.474   1.826   9.728  0.1305  0.1301 -0.0778
  234MPD1    C5 3606   3.528   1.700   9.705  0.3190 -0.1101 -0.5813
  234MPD1     H 3607   3.256   1.846   9.471 -0.5377 -1.1770 -0.7554
  234MPD1    H1 3608   3.499   1.878   9.820 -1.4659  2.0095 -0.7104
  234MPD1    H2 3609   3.533   1.534   9.576 -2.7412 -1.2506  2.5761
  234MPD1    H3 3610   3.610   1.666   9.767  0.9704 -0.6834 -1.7583
  234MPD1     N 3611   3.303   1.996   9.673  0.8054 -0.2512 -0.2506
  234MPD1    H5 3612   3.227   2.022   9.610  1.8093  3.0431 -0.1042
  234MPD1    N1 3613   3.362   1.615   9.398 -0.3268 -1.0614 -0.0988
  234MPD1    H6 3614   3.409   1.525   9.391  0.1353 -0.8356  0.0704
  234MPD1    H7 3615   3.264   1.612   9.372 -0.5232 -1.9739  0.7699
  235MPD1     C 3616   3.511   4.197  11.241 -0.1666  0.1244  0.3222
  235MPD1    C1 3617   3.624   4.211  11.307 -0.5261 -0.1878  0.6085
  235MPD1    C2 3618   3.741   4.235  11.238 -1.1161 -0.4366  0.2477
  235MPD1    C3 3619   3.734   4.242  11.097 -0.3384  0.1602  0.4865
  235MPD1    C4 3620   3.607   4.232  11.036 -1.1281 -0.1879  0.4306
  235MPD1    C5 3621   3.498   4.213  11.110 -0.7832 -0.2414  0.7303
  235MPD1     H 3622   3.839   4.235  11.286 -1.2410  1.6208  0.4983
  235MPD1    H1 3623   3.597   4.236  10.928  1.1602 -0.4770  0.2050
  235MPD1    H2 3624   3.425   4.162  11.297  1.1330 -0.2490  2.0875
  235MPD1    H3 3625   3.396   4.201  11.075  0.1571 -2.4894 -1.2400
  235MPD1     N 3626   3.860   4.267  11.024 -0.3005 -0.4976 -0.0486
  235MPD1    H5 3627   3.941   4.281  11.083 -1.2638  0.2756  1.0832
  235MPD1    N1 3628   3.624   4.186  11.444  0.7822  0.7665  0.2815
  235MPD1    H6 3629   3.533   4.202  11.488  0.5996 -1.5643  0.7587
  235MPD1    H7 3630   3.684   4.251  11.494  0.4476  0.9010  0.5066
  236MPD1     C 3631   3.782   0.073   9.300 -1.2478 -0.2450 -0.0255
  236MPD1    C1 3632   3.901   0.122   9.357 -0.7709  0.1200  0.0574
  236MPD1    C2 3633   3.901   0.134   9.493  0.2517  0.8063 -0.1500
  236MPD1    C3 3634   3.803   0.080   9.574 -1.1125 -0.0668  0.7894
  236MPD1    C4 3635   3.693   0.019   9.515  0.5886 -0.0580  0.2190
  236MPD1    C5 3636   3.679   0.018   9.378 -0.0981 -0.2960 -0.0325
  236MPD1     H 3637   3.983   0.195   9.531  0.9253 -0.8062  0.9857
  236MPD1    H1 3638   3.607   4.721   9.570  1.0996  0.2002  1.2059
  236MPD1    H2 3639   3.774   0.086   9.193 -1.1636  0.4252  0.0480
  236MPD1    H3 3640   3.594   4.721   9.320 -0.2222 -0.0596  0.0115
  236MPD1     N 3641   3.811   0.079   9.717 -0.0070  0.5890  0.4441
  236MPD1    H5 3642   3.735   0.037   9.769  0.4823 -0.0366  0.6542
  236MPD1    N1 3643   4.000   0.191   9.286  0.4370  0.0069 -0.5694
  236MPD1    H6 3644   4.089   0.196   9.335 -0.1852 -0.5816  0.5988
  236MPD1    H7 3645   4.020   0.151   9.194  2.1951 -1.8032  0.6212
  237MPD1     C 3646   2.085   3.509  14.959 -0.0595  0.3094 -0.6005
  237MPD1    C1 3647   2.053   3.436  15.072  0.5488  0.7260 -0.1414
  237MPD1    C2 3648   2.125   3.458  15.187  0.1880 -0.4868 -0.3668
  237MPD1    C3 3649   2.237   3.543  15.184  1.6837  0.9867  0.6139
  237MPD1    C4 3650   2.273   3.604  15.067 -0.9571  0.2358 -0.1058
  237MPD1    C5 3651   2.190   3.588  14.957  0.5040 -0.4485  0.6225
  237MPD1     H 3652   2.106   3.404  15.279  2.7314 -0.4329  0.1926
  237MPD1    H1 3653   2.358   3.670  15.064  0.6248 -1.9351 -2.8625
  237MPD1    H2 3654   2.038   3.479  14.866 -1.2847 -2.7215  1.0168
  237MPD1    H3 3655   2.219   3.633  14.863 -1.3553 -4.1934 -1.7650
  237MPD1     N 3656   2.322   3.557  15.293  0.7686 -0.6090 -0.8097
  237MPD1    H5 3657   2.391   3.630  15.281 -0.2451  0.9475  2.6870
  237MPD1    N1 3658   1.931   3.369  15.073 -0.7672  0.3714  0.6617
  237MPD1    H6 3659   1.899   3.340  14.981 -0.6376 -2.1646  1.4042
  237MPD1    H7 3660   1.925   3.287  15.133 -1.3470  0.7865  1.1767
  238MPD1     C 3661   0.417   2.345  15.326 -0.1374 -0.5461  0.7058
  238MPD1    C1 3662   0.345   2.230  15.293 -0.0676  0.6316 -0.4297
  238MPD1    C2 3663   0.211   2.246  15.257  0.1106  0.0250  0.6451
  238MPD1    C3 3664   0.152   2.368  15.226 -0.5583  0.4142  0.1783
  238MPD1    C4 3665   0.229   2.476  15.261  0.4191  0.1267 -0.5969
  238MPD1    C5 3666   0.353   2.465  15.320 -0.0589  0.1806 -0.4186
  238MPD1     H 3667   0.161   2.156  15.223  0.2745 -0.2444  1.1158
  238MPD1    H1 3668   0.190   2.577  15.249  0.1085  0.2592  1.4894
  238MPD1    H2 3669   0.521   2.342  15.356  0.7831  2.4983 -2.1456
  238MPD1    H3 3670   0.398   2.548  15.374 -0.4198  0.1143 -0.0186
  238MPD1     N 3671   0.030   2.385  15.158 -0.3373 -0.1506 -0.0359
  238MPD1    H5 3672   0.004   2.481  15.136 -2.2305 -0.9353 -1.1182
  238MPD1    N1 3673   0.400   2.102  15.314 -0.1300 -0.2418  1.0447
  238MPD1    H6 3674   0.340   2.035  15.267  0.4107 -1.0704  1.5517
  238MPD1    H7 3675   0.492   2.083  15.274 -0.4314 -1.5911  1.0081
  239MPD1     C 3676   0.115   2.870  15.365  0.2748 -0.0311  0.6864
  239MPD1    C1 3677   0.010   2.956  15.337 -0.1882 -0.4559 -0.1787
  239MPD1    C2 3678   0.004   3.013  15.216 -0.8116 -0.2835  0.0053
  239MPD1    C3 3679   0.107   2.989  15.126  0.4739  0.0934  0.0553
  239MPD1    C4 3680   0.226   2.918  15.161  0.0271 -0.1726 -0.1455
  239MPD1    C5 3681   0.228   2.858  15.285  0.2754  0.6354  0.4461
  239MPD1     H 3682   4.657   3.078  15.194  1.0062  2.2887  0.8344
  239MPD1    H1 3683   0.312   2.908  15.095 -1.2406 -0.4931 -1.7422
  239MPD1    H2 3684   0.105   2.808  15.453 -2.7267  0.0208  0.3562
  239MPD1    H3 3685   0.316   2.805  15.321  0.6735 -0.1914 -1.7311
  239MPD1     N 3686   0.099   3.030  14.992  0.5485 -0.4950  0.6127
  239MPD1    H5 3687   0.165   2.988  14.928  1.4908  0.2662  1.0837
  239MPD1    N1 3688   4.636   2.975  15.420  0.4528 -0.3842 -0.0153
  239MPD1    H6 3689   4.660   2.936  15.511 -0.2740 -2.3982 -0.6856
  239MPD1    H7 3690   4.605   3.072  15.423 -2.3869 -1.2294 -2.1530
  240MPD1     C 3691   4.138   2.716  13.635 -0.0275  0.2648  0.7540
  240MPD1    C1 3692   4.114   2.601  13.706  0.4916 -0.1698  0.7292
  240MPD1    C2 3693   4.099   2.602  13.843  0.3836  0.3680  0.2667
  240MPD1    C3 3694   4.099   2.725  13.908  0.6174 -0.1906 -0.1651
  240MPD1    C4 3695   4.138   2.838  13.838 -0.5562 -0.2774  0.5100
  240MPD1    C5 3696   4.162   2.835  13.705 -0.0088  0.8043  0.1908
  240MPD1     H 3697   4.084   2.511  13.901  1.2405 -0.8976 -1.4774
  240MPD1    H1 3698   4.146   2.932  13.891 -1.0385 -0.0446  0.1705
  240MPD1    H2 3699   4.141   2.729  13.528  1.0569 -0.6114  0.6786
  240MPD1    H3 3700   4.179   2.933  13.662 -1.4767  0.6872 -0.6438
  240MPD1     N 3701   4.077   2.725  14.047  0.1401 -0.8927 -0.1070
  240MPD1    H5 3702   4.051   2.633  14.081  2.1840 -1.3898  0.0931
  240MPD1    N1 3703   4.091   2.488  13.629  0.1036 -0.3580  0.3863
  240MPD1    H6 3704   4.017   2.433  13.673 -1.3490  3.0074  2.0971
  240MPD1    H7 3705   4.070   2.515  13.533  0.8543  1.3108  0.6867
  241MPD1     C 3706   4.493   2.865  14.937  0.2478  0.4762  0.0221
  241MPD1    C1 3707   4.366   2.899  14.952 -0.0741  0.6550 -0.1411
  241MPD1    C2 3708   4.282   2.898  14.843 -0.0856  0.5918  0.1126
  241MPD1    C3 3709   4.322   2.832  14.731 -0.8607 -0.1470 -0.4905
  241MPD1    C4 3710   4.444   2.781  14.717 -0.0855 -0.6943  0.0816
  241MPD1    C5 3711   4.527   2.802  14.820 -0.0105  0.3413  0.7002
  241MPD1     H 3712   4.179   2.930  14.858 -0.1788  1.3378 -2.1109
  241MPD1    H1 3713   4.489   2.728  14.633 -2.9709 -0.6297 -1.4977
  241MPD1    H2 3714   4.567   2.879  15.015  0.2484 -0.5725  0.2181
  241MPD1    H3 3715   4.631   2.772  14.807  0.1186  1.3566 -0.5439
  241MPD1     N 3716   4.235   2.821  14.618  0.3132  0.0892  0.6090
  241MPD1    H5 3717   4.281   2.779  14.538 -0.7043  0.4014 -0.1230
  241MPD1    N1 3718   4.329   2.961  15.073  0.2960  0.4509  0.4380
  241MPD1    H6 3719   4.388   2.926  15.148  1.2228  0.2844 -0.3723
  241MPD1    H7 3720   4.229   2.955  15.092  0.1957 -3.0762 -1.1289
  242MPD1     C 3721   4.243   1.563  15.571  0.7808  0.5307 -0.0525
  242MPD1    C1 3722   4.133   1.484  15.585  1.0180 -0.6881 -0.2958
  242MPD1    C2 3723   4.125   1.377  15.496  0.3373 -0.7850  0.1198
  242MPD1    C3 3724   4.203   1.371  15.380  0.6445  0.3175  0.7956
  242MPD1    C4 3725   4.303   1.463  15.364 -0.1161 -0.2398 -0.2524
  242MPD1    C5 3726   4.325   1.554  15.458  0.0297 -0.5979  0.9855
  242MPD1     H 3727   4.050   1.301  15.511 -0.7908  0.5464  1.2713
  242MPD1    H1 3728   4.368   1.467  15.277 -3.5062  1.5846 -2.6831
  242MPD1    H2 3729   4.257   1.644  15.642  1.8668 -0.5447  0.9592
  242MPD1    H3 3730   4.400   1.629  15.435  0.4466 -0.3001  3.3229
  242MPD1     N 3731   4.204   1.261  15.290  0.1764 -0.5730  0.0299
  242MPD1    H5 3732   4.275   1.252  15.217 -0.5856  0.9731 -0.8958
  242MPD1    N1 3733   4.066   1.482  15.706 -0.1799 -0.0108 -0.4351
  242MPD1    H6 3734   4.065   1.575  15.745 -1.1253  0.3809 -1.4121
  242MPD1    H7 3735   3.969   1.454  15.700 -0.4462  0.3003  2.7819
  243MPD1     C 3736   0.409   4.165   0.070 -0.2760  0.3894 -0.5943
  243MPD1    C1 3737   0.444   4.047   0.016 -0.7828  0.1438 -0.3392
  243MPD1    C2 3738   0.480   4.032  17.628  0.9435 -0.6458 -0.4074
  243MPD1    C3 3739   0.489   4.139  17.541 -0.3300 -0.1470 -0.0776
  243MPD1    C4 3740   0.454   4.265  17.602 -0.1112  0.4708 -0.3093
  243MPD1    C5 3741   0.411   4.275  17.733 -0.8505  0.2733  0.0384
  243MPD1     H 3742   0.504   3.935  17.585 -0.5746 -1.0823 -0.2599
  243MPD1    H1 3743   0.451   4.351  17.536 -0.9722 -0.4194 -1.4248
  243MPD1    H2 3744   0.374   4.187   0.170  0.6251 -0.2150 -0.1428
  243MPD1    H3 3745   0.384   4.374   0.023  1.2078  0.4249  1.1699
  243MPD1     N 3746   0.527   4.119  17.401 -0.3141  0.1516  0.3048
  243MPD1    H5 3747   0.542   4.024  17.369 -1.6554  0.1165 -0.2494
  243MPD1    N1 3748   0.431   3.928   0.088  0.4655  0.3185  0.6480
  243MPD1    H6 3749   0.452   3.943   0.186 -1.9066  0.1660  1.1823
  243MPD1    H7 3750   0.500   3.858   0.060  0.6102  1.8308 -2.7308
  244MPD1     C 3751   1.068   3.603  16.755  0.0383  0.7597  0.1762
  244MPD1    C1 3752   0.966   3.658  16.679 -0.5792 -0.2099 -0.3917
  244MPD1    C2 3753   0.884   3.744  16.740 -0.3572 -1.0200  0.4269
  244MPD1    C3 3754   0.892   3.780  16.873  0.4914  0.2371  0.4642
  244MPD1    C4 3755   0.996   3.726  16.949 -0.1870  0.7553 -0.0340
  244MPD1    C5 3756   1.070   3.623  16.891 -0.0322  0.0172 -0.4679
  244MPD1     H 3757   0.803   3.789  16.684 -0.9664 -1.9553  0.5480
  244MPD1    H1 3758   1.027   3.754  17.049  0.9067  0.2295 -0.2318
  244MPD1    H2 3759   1.136   3.531  16.710 -3.0635 -1.0174 -1.6463
  244MPD1    H3 3760   1.159   3.582  16.938  0.4031  1.1640 -0.2841
  244MPD1     N 3761   0.806   3.892  16.901 -0.6027 -0.0272 -0.0709
  244MPD1    H5 3762   0.738   3.927  16.835  0.7528  1.1236 -0.8680
  244MPD1    N1 3763   0.961   3.648  16.536  0.5047 -0.5376  0.7659
  244MPD1    H6 3764   0.870   3.661  16.492  0.1413 -1.4938  1.2363
  244MPD1    H7 3765   0.990   3.551  16.525  1.4408 -0.1287 -0.3856
  245MPD1     C 3766   3.447   4.322  13.334  0.6962 -0.5623 -0.1977
  245MPD1    C1 3767   3.423   4.411  13.234  0.5482 -0.9837 -0.0104
  245MPD1    C2 3768   3.362   4.528  13.270  0.0833 -0.5566 -0.2625
  245MPD1    C3 3769   3.320   4.557  13.405 -0.4266 -0.0664 -0.0602
  245MPD1    C4 3770   3.342   4.462  13.497 -0.3225  0.8617  0.1536
  245MPD1    C5 3771   3.407   4.350  13.460  0.5263 -0.2111 -0.4604
  245MPD1     H 3772   3.329   4.591  13.189  1.3128 -0.3455 -0.6111
  245MPD1    H1 3773   3.297   4.476  13.595 -1.5948  1.0932 -0.4686
  245MPD1    H2 3774   3.489   4.225  13.312 -1.9942 -2.1870  1.8118
  245MPD1    H3 3775   3.436   4.285  13.542 -1.4507  0.1470  0.5312
  245MPD1     N 3776   3.246   4.669  13.447 -0.1681 -0.5289  0.3146
  245MPD1    H5 3777   3.242   4.690  13.546 -0.5557  0.5763  0.0702
  245MPD1    N1 3778   3.440   4.378  13.102  0.4819 -0.0048  0.3681
  245MPD1    H6 3779   3.466   4.456  13.042 -0.9712 -0.1701 -0.4744
  245MPD1    H7 3780   3.519   4.314  13.097 -0.0273 -0.4999 -1.2135
  246MPD1     C 3781   0.450   2.468  10.281 -0.1924  0.0169  0.0826
  246MPD1    C1 3782   0.511   2.345  10.278 -0.4173  0.6363 -0.3423
  246MPD1    C2 3783   0.459   2.252  10.187  0.1235 -0.2037  0.3602
  246MPD1    C3 3784   0.344   2.272  10.119  0.1624  0.5966  0.0765
  246MPD1    C4 3785   0.274   2.395  10.141  0.0599 -0.7969  0.7075
  246MPD1    C5 3786   0.336   2.497  10.209 -0.5874  0.0924 -0.4131
  246MPD1     H 3787   0.520   2.163  10.174 -0.6953 -0.5240 -1.3924
  246MPD1    H1 3788   0.183   2.421  10.089 -0.2141 -3.5886 -0.1508
  246MPD1    H2 3789   0.496   2.549  10.336  0.2770 -0.3910  0.2914
  246MPD1    H3 3790   0.290   2.596  10.209  1.3288  0.9960  0.1143
  246MPD1     N 3791   0.306   2.172  10.027 -0.8026  0.7336  0.5668
  246MPD1    H5 3792   0.360   2.087  10.016  0.7712  1.5156  2.2555
  246MPD1    N1 3793   0.634   2.333  10.342  0.7732 -0.0414  0.3199
  246MPD1    H6 3794   0.640   2.236  10.371  0.4190  0.3928  1.8771
  246MPD1    H7 3795   0.636   2.389  10.427 -1.8270 -2.9636  2.2959
  247MPD1     C 3796   3.656   3.830  15.175 -0.0930 -0.1732  0.4502
  247MPD1    C1 3797   3.553   3.787  15.092 -0.3332  0.2293 -0.8748
  247MPD1    C2 3798   3.501   3.876  15.006  0.3535 -0.2748  0.0286
  247MPD1    C3 3799   3.514   4.014  15.023  0.2264  0.0358 -0.5822
  247MPD1    C4 3800   3.600   4.054  15.120  0.5229 -0.1266 -0.5196
  247MPD1    C5 3801   3.680   3.960  15.184  0.6330 -0.3267 -0.7206
  247MPD1     H 3802   3.442   3.842  14.922 -0.0540 -1.3030  0.7303
  247MPD1    H1 3803   3.613   4.160  15.134 -0.5976  0.0689 -1.0457
  247MPD1    H2 3804   3.714   3.761  15.236  0.5937  0.4347  0.4761
  247MPD1    H3 3805   3.757   3.991  15.254  0.8608 -2.8561  0.1356
  247MPD1     N 3806   3.432   4.111  14.966 -0.5886 -0.9553  0.4152
  247MPD1    H5 3807   3.460   4.208  14.981 -0.1397 -1.0588  0.2329
  247MPD1    N1 3808   3.544   3.648  15.068  0.7083  0.1835 -0.1395
  247MPD1    H6 3809   3.458   3.618  15.022  1.5872  0.8215 -2.1838
  247MPD1    H7 3810   3.547   3.597  15.156 -0.4250  1.9354  0.9132
  248MPD1     C 3811   3.013   0.282  17.235  0.4837 -0.4153  0.4740
  248MPD1    C1 3812   2.887   0.301  17.291 -0.2483 -0.7049 -0.2338
  248MPD1    C2 3813   2.825   0.186  17.323 -0.6124 -0.1177  0.1171
  248MPD1    C3 3814   2.865   0.058  17.304  0.0550 -0.4758 -0.3957
  248MPD1    C4 3815   2.991   0.035  17.245 -0.1470 -0.3696  0.0690
  248MPD1    C5 3816   3.059   0.152  17.218 -0.2899  0.9037 -0.2159
  248MPD1     H 3817   2.741   0.191  17.390 -0.3725 -0.2724  0.4295
  248MPD1    H1 3818   3.022   4.670  17.224 -0.3879 -0.3137 -0.5558
  248MPD1    H2 3819   3.091   0.354  17.213 -0.2026  0.1933  0.0479
  248MPD1    H3 3820   3.163   0.145  17.189  0.7512 -0.4441  3.8167
  248MPD1     N 3821   2.785   4.688  17.362 -0.0506 -0.1723  1.3113
  248MPD1    H5 3822   2.697   4.710  17.408 -1.4828  0.5189 -1.8005
  248MPD1    N1 3823   2.848   0.425  17.341 -0.1206  0.6739  0.4385
  248MPD1    H6 3824   2.748   0.445  17.351 -0.4875 -1.1106  0.2356
  248MPD1    H7 3825   2.889   0.498  17.283 -1.2043  3.5704  3.2554
  249MPD1     C 3826   1.611   4.118   9.857 -0.3185 -0.0952 -0.4713
  249MPD1    C1 3827   1.540   4.226   9.920 -0.2861  0.2535  0.3056
  249MPD1    C2 3828   1.401   4.210   9.916  0.7592 -0.6825 -0.2517
  249MPD1    C3 3829   1.340   4.094   9.875 -0.1566  0.3761  0.6405
  249MPD1    C4 3830   1.420   3.987   9.842 -0.4577 -0.4990 -0.5122
  249MPD1    C5 3831   1.551   4.005   9.816  0.1960 -0.0286  0.8401
  249MPD1     H 3832   1.341   4.291   9.954  2.8483 -0.5268  2.7057
  249MPD1    H1 3833   1.373   3.895   9.809 -0.2059 -1.5161  1.9663
  249MPD1    H2 3834   1.716   4.131   9.834 -0.2669  1.3227  0.5324
  249MPD1    H3 3835   1.607   3.923   9.772  1.8078  2.1777 -1.2241
  249MPD1     N 3836   1.203   4.092   9.883  0.0646  0.3719 -0.3417
  249MPD1    H5 3837   1.154   4.170   9.926 -1.0458  0.0809 -1.1002
  249MPD1    N1 3838   1.600   4.351   9.941 -0.1971  0.0834 -0.2784
  249MPD1    H6 3839   1.701   4.346   9.955 -0.2925 -0.3792  0.2702
  249MPD1    H7 3840   1.551   4.394  10.019  0.0976 -0.2172  0.0752
  250MPD2     C 3841   1.594   3.280  13.660 -0.3076 -1.0585  0.4626
  250MPD2    C1 3842   1.491   3.360  13.608  0.0076  0.9670 -0.1602
  250MPD2    C2 3843   1.385   3.303  13.538  0.0278  0.0887 -0.1047
  250MPD2    C3 3844   1.388   3.165  13.500  0.3465 -0.3838 -0.9332
  250MPD2    C4 3845   1.500   3.094  13.539 -0.0332  0.4065  0.5789
  250MPD2    C5 3846   1.600   3.146  13.623 -0.2825 -0.4038 -0.6438
  250MPD2     H 3847   1.296   3.364  13.525 -1.0207 -1.5614 -0.7080
  250MPD2    H1 3848   1.501   2.987  13.521 -0.9466  0.4886  0.0107
  250MPD2    H2 3849   1.673   3.315  13.724  0.7943  2.0379 -2.6011
  250MPD2    H3 3850   1.671   3.079  13.670  1.3092  0.0356 -2.4519
  250MPD2     N 3851   1.293   3.092  13.429  1.1918 -0.1104 -0.3409
  250MPD2    H5 3852   1.313   2.994  13.414 -3.2764 -1.1745  0.6373
  250MPD2    N1 3853   1.506   3.496  13.640 -0.0670  0.2395  0.1321
  250MPD2    H7 3854   1.587   3.517  13.697 -0.3092  0.3526  0.4309
  251TMC3    C1 3855   1.461   3.734  13.640  0.0525  0.1927 -0.1465
  251TMC3    C2 3856   1.363   3.828  13.633 -0.4202 -0.2113 -0.4394
  251TMC3    C3 3857   1.398   3.956  13.584  0.2646 -0.1903 -0.5149
  251TMC3    C4 3858   1.592   3.765  13.602  0.3108 -0.2704 -0.0785
  251TMC3    C5 3859   1.619   3.886  13.547  0.4128  0.5527 -0.4772
  251TMC3    C6 3860   1.525   3.986  13.540  1.0016  0.5276  0.7164
  251TMC3     C 3861   1.421   3.595  13.592 -0.0310 -0.2982  0.4787
  251TMC3     O 3862   1.314   3.593  13.531 -0.1482 -0.4256  0.4440
  251TMC3     H 3863   1.262   3.799  13.657 -0.0654 -1.8957 -0.9708
  251TMC3    H1 3864   1.673   3.694  13.612  0.5578  0.0915  0.5283
  251TMC3    H2 3865   1.550   4.078  13.490 -0.4286  0.7577  0.4150
  251TMC3    C7 3866   1.754   3.898  13.508  0.1399  0.1121 -0.7332
  251TMC3    C8 3867   1.298   4.067  13.577 -0.0060 -0.7433 -0.3295
  251TMC3    O1 3868   1.822   3.797  13.498  0.4490  0.0408  0.8555
  251TMC3    O2 3869   1.341   4.178  13.589 -0.5119 -0.0088  0.0457
  252TMC3    C1 3870   2.567   0.343   9.104  0.2285 -0.2271 -0.4584
  252TMC3    C2 3871   2.594   0.440   9.198 -0.3232  0.2509  0.3728
  252TMC3    C3 3872   2.636   0.401   9.323 -0.1809 -0.2558  0.6364
  252TMC3    C4 3873   2.564   0.210   9.137  0.0821  0.8832  0.2326
  252TMC3    C5 3874   2.617   0.181   9.252  0.9544  0.4086  0.7564
  252TMC3    C6 3875   2.660   0.269   9.352  0.5990 -0.3728 -0.0604
  252TMC3     C 3876   2.498   0.385   8.981  0.5143 -0.4510  0.1475
  252TMC3     O 3877   2.423   0.305   8.926  0.1501  0.0709  0.5949
  252TMC3     H 3878   2.579   0.546   9.180  1.3969  0.5163  0.4593
  252TMC3    H1 3879   2.533   0.130   9.071  3.4360  1.1464 -1.6609
  252TMC3    H2 3880   2.717   0.232   9.436  0.7380 -0.5486 -0.2326
  252TMC3    C7 3881   2.627   0.045   9.295  0.4295 -0.0932 -0.0053
  252TMC3    C8 3882   2.712   0.500   9.392  0.6248  0.7732 -0.1108
  252TMC3    O1 3883   2.609   4.703   9.203  0.5009  0.0345  0.1013
  252TMC3    O2 3884   2.731   0.606   9.335  0.3152  0.1396 -0.1199
  253MPD2     C 3885   2.610   3.866  16.189  0.4379  0.1066 -0.1242
  253MPD2    C1 3886   2.474   3.841  16.217 -0.2925  0.3704  0.3545
  253MPD2    C2 3887   2.429   3.839  16.345  0.0923  0.1467 -0.7092
  253MPD2    C3 3888   2.527   3.865  16.441 -0.2433 -0.0941  0.4879
  253MPD2    C4 3889   2.657   3.892  16.418  0.3219  0.1660  0.4740
  253MPD2    C5 3890   2.695   3.906  16.284  0.2850  0.0242 -0.2754
  253MPD2     H 3891   2.328   3.811  16.370  0.0639 -1.1973 -2.3280
  253MPD2    H1 3892   2.719   3.916  16.503 -1.5638 -0.9869  2.1756
  253MPD2    H2 3893   2.656   3.874  16.090  1.3066 -0.7877  0.1978
  253MPD2    H3 3894   2.794   3.942  16.258 -0.0548  1.5563  0.5702
  253MPD2     N 3895   2.505   3.868  16.579  0.7154 -0.4531 -0.0824
  253MPD2    H5 3896   2.588   3.878  16.636  1.2667 -0.5542 -0.8712
  253MPD2    N1 3897   2.370   3.825  16.120  0.2234 -0.8262  0.1737
  253MPD2    H7 3898   2.283   3.790  16.158 -0.5975 -1.1482 -2.0108
  254TMC3    C1 3899   2.380   3.884  16.777 -0.0173  0.1679 -0.9287
  254TMC3    C2 3900   2.253   3.901  16.804  0.2057  0.6001 -0.0733
  254TMC3    C3 3901   2.190   3.827  16.902  0.0543 -0.2008 -0.3122
  254TMC3    C4 3902   2.453   3.792  16.854  0.6833  0.3722 -1.1585
  254TMC3    C5 3903   2.392   3.719  16.952 -0.3966 -0.1125 -1.0390
  254TMC3    C6 3904   2.259   3.744  16.982  0.3297  0.1544  0.7745
  254TMC3     C 3905   2.385   3.863  16.637  0.3289 -0.7398  0.4027
  254TMC3     O 3906   2.281   3.845  16.578 -0.9709 -0.3714  0.4586
  254TMC3     H 3907   2.201   3.984  16.759  0.4732  1.0275  0.3926
  254TMC3    H1 3908   2.554   3.773  16.822  0.3314  0.0254 -2.0827
  254TMC3    H2 3909   2.215   3.683  17.060  1.6928 -0.3957  1.1069
  254TMC3    C7 3910   2.459   3.615  17.030 -0.3419  0.1770  0.1903
  254TMC3    C8 3911   2.049   3.800  16.871  0.7306  0.6964 -0.0484
  254TMC3    O1 3912   2.406   3.575  17.133  0.0045  0.9527 -0.5798
  254TMC3    O2 3913   1.968   3.755  16.955  0.2824  0.4436 -0.0182
  255MPD2     C 3914   1.629   1.283  10.893  0.3622 -0.0055 -0.2454
  255MPD2    C1 3915   1.536   1.295  10.796  0.8286  0.3299 -0.4913
  255MPD2    C2 3916   1.567   1.240  10.672  0.8117  0.1566  0.5126
  255MPD2    C3 3917   1.678   1.163  10.650  0.0406 -0.4051 -0.6676
  255MPD2    C4 3918   1.766   1.140  10.751 -0.1017  0.4667 -0.5561
  255MPD2    C5 3919   1.747   1.207  10.870 -0.3082  0.1581 -0.5176
  255MPD2     H 3920   1.509   1.262  10.583  1.4940 -2.1949 -0.5000
  255MPD2    H1 3921   1.852   1.076  10.742 -1.1684 -0.9376 -0.6802
  255MPD2    H2 3922   1.611   1.333  10.988  1.0136  1.0374 -0.6635
  255MPD2    H3 3923   1.831   1.196  10.936 -1.7232 -2.1821  0.8790
  255MPD2     N 3924   1.705   1.123  10.510 -0.1218 -0.4723 -0.0612
  255MPD2    H5 3925   1.648   1.159  10.434 -1.2486 -2.8653 -0.3568
  255MPD2    N1 3926   1.416   1.365  10.825 -0.9284 -0.1878 -0.4590
  255MPD2    H7 3927   1.406   1.410  10.915 -1.2449  0.0608 -0.6177
  256TMC3    C1 3928   1.210   1.448  10.728 -0.0896  0.3593  0.4164
  256TMC3    C2 3929   1.253   1.577  10.734  0.0599  0.2465 -0.2442
  256TMC3    C3 3930   1.159   1.669  10.700 -0.1843 -0.3456 -0.1404
  256TMC3    C4 3931   1.091   1.411  10.665 -0.1676 -0.2110  0.4521
  256TMC3    C5 3932   1.011   1.505  10.618 -0.5166  0.7094 -0.0835
  256TMC3    C6 3933   1.037   1.642  10.639  0.2783  0.4168  0.0343
  256TMC3     C 3934   1.300   1.336  10.751  0.1662  0.1604  0.4175
  256TMC3     O 3935   1.277   1.235  10.685  0.1307  0.0158  0.4939
  256TMC3     H 3936   1.334   1.607  10.799 -2.8873  1.8883  2.6889
  256TMC3    H1 3937   1.053   1.310  10.664 -1.9576  0.4594  1.1994
  256TMC3    H2 3938   0.972   1.723  10.609 -1.0953 -0.9191 -0.6506
  256TMC3    C7 3939   0.924   1.460  10.507 -0.0985  0.1985 -0.3121
  256TMC3    C8 3940   1.221   1.795  10.657  0.3133  0.1461 -0.2687
  256TMC3    O1 3941   0.917   1.337  10.497  0.6829 -0.4022 -0.3987
  256TMC3    O2 3942   1.149   1.863  10.589  0.2565  0.1795 -0.2337
  257MPD2     C 3943   0.007   3.486  13.238 -0.2009  0.7408 -0.2670
  257MPD2    C1 3944   0.041   3.410  13.128 -0.2869  0.4570 -0.4532
  257MPD2    C2 3945   0.033   3.269  13.144  0.1991  0.1274  0.5238
  257MPD2    C3 3946   0.029   3.211  13.268  0.0438 -0.0161  0.6215
  257MPD2    C4 3947   0.008   3.297  13.377  0.4009  0.1292  0.1683
  257MPD2    C5 3948   4.731   3.430  13.357  0.3881 -0.1604  0.4999
  257MPD2     H 3949   0.056   3.207  13.058 -3.3592  1.0062 -1.0795
  257MPD2    H1 3950   4.732   3.263  13.479  1.5814  0.5057  0.4390
  257MPD2    H2 3951   0.006   3.594  13.236 -0.0918  0.6960 -2.8184
  257MPD2    H3 3952   4.719   3.493  13.444  1.7143 -0.5502  0.9634
  257MPD2     N 3953   0.042   3.072  13.275  0.2472 -0.1984  0.1812
  257MPD2    H5 3954   0.046   3.028  13.184  0.3161  0.3455 -0.0791
  257MPD2    N1 3955   0.059   3.479  13.011 -0.8778 -0.0343  0.1685
  257MPD2    H7 3956   0.050   3.579  13.004 -0.3549  0.0446  0.6387
  258TMC3    C1 3957   0.074   2.863  13.372  0.1583 -0.5930  0.0855
  258TMC3    C2 3958   0.051   2.804  13.247 -0.1477  0.6316  0.7496
  258TMC3    C3 3959   0.101   2.676  13.228 -0.1541 -0.3086  0.3106
  258TMC3    C4 3960   0.160   2.807  13.460 -0.2507 -0.0856 -0.6877
  258TMC3    C5 3961   0.207   2.680  13.436 -0.7722 -0.1137  0.3027
  258TMC3    C6 3962   0.174   2.611  13.319 -0.3110 -0.7879  0.2706
  258TMC3     C 3963   0.055   3.007  13.391 -0.0509 -0.2739  0.0398
  258TMC3     O 3964   0.059   3.052  13.508  0.3799  0.2873  0.1402
  258TMC3     H 3965   4.713   2.843  13.178  0.7692  0.4923 -0.3307
  258TMC3    H1 3966   0.189   2.856  13.552  1.8316 -0.4632 -1.1476
  258TMC3    H2 3967   0.203   2.508  13.306  2.1375 -0.1918  0.9194
  258TMC3    C7 3968   0.280   2.604  13.539 -0.5170 -0.3230  0.6475
  258TMC3    C8 3969   0.081   2.609  13.102  0.3059  1.0351  0.0474
  258TMC3    O1 3970   0.283   2.483  13.524  0.4284 -0.2481 -0.7189
  258TMC3    O2 3971   0.133   2.500  13.083 -0.0837 -0.3539 -0.0375
  259MPD2     C 3972   3.289   0.282   0.152 -0.1045  1.0525 -0.2893
  259MPD2    C1 3973   3.291   0.153   0.205  0.0917  0.4731  0.1902
  259MPD2    C2 3974   3.392   0.068   0.170 -0.8377  0.3517  0.2680
  259MPD2    C3 3975   3.493   0.094   0.074  0.3442  0.1053  0.0341
  259MPD2    C4 3976   3.469   0.219   0.009 -0.4073  0.1404 -0.5899
  259MPD2    C5 3977   3.373   0.307   0.046 -0.3965  0.0517 -0.6298
  259MPD2     H 3978   3.395   4.707   0.217  0.3814  1.1239  1.7808
  259MPD2    H1 3979   3.533   0.259  17.677 -1.1213  0.0779 -1.1992
  259MPD2    H2 3980   3.216   0.356   0.180 -0.8067  0.4360 -0.5066
  259MPD2    H3 3981   3.366   0.404  17.744  2.4540  0.4328 -0.2318
  259MPD2     N 3982   3.603   0.009   0.057 -0.0552 -0.1551 -0.0122
  259MPD2    H5 3983   3.613   4.662   0.113  1.9317 -0.6573 -1.1352
  259MPD2    N1 3984   3.193   0.123   0.301 -0.4381 -0.0258 -0.7082
  259MPD2    H7 3985   3.142   0.206   0.331  1.0356  0.5868  0.0858
  260TMC3    C1 3986   3.780   4.650  17.706  0.5055  0.3137  0.1726
  260TMC3    C2 3987   3.770   4.556  17.610 -0.3440 -0.1469  0.0818
  260TMC3    C3 3988   3.857   4.449  17.624 -0.0498  0.0563 -0.5781
  260TMC3    C4 3989   3.845   4.624   0.078  0.0626 -0.5546 -0.6278
  260TMC3    C5 3990   3.914   4.510   0.091  0.4449  0.2864 -0.1349
  260TMC3    C6 3991   3.920   4.420  17.738 -0.2587  0.1954  0.7444
  260TMC3     C 3992   3.692   0.016  17.702 -0.4643  0.0449  0.1282
  260TMC3     O 3993   3.682   0.086  17.601 -0.3100  0.3996 -0.5584
  260TMC3     H 3994   3.720   4.573  17.515 -0.9118 -0.0488  0.4047
  260TMC3    H1 3995   3.838   4.697   0.158  0.6761 -2.8822  1.5244
  260TMC3    H2 3996   3.991   4.338   0.002 -0.9145 -0.8545 -3.1756
  260TMC3    C7 3997   4.005   4.487   0.205  0.3815 -0.6073  0.4917
  260TMC3    C8 3998   3.864   4.342  17.517  0.1317 -0.3219  0.0933
  260TMC3    O1 3999   4.104   4.422   0.177  0.1202 -0.3242 -0.5529
  260TMC3    O2 4000   3.865   4.374  17.399 -0.0296  0.2503 -0.4335
  261MPD2     C 4001   1.246   3.154  12.673  0.4533  0.4883 -0.3638
  261MPD2    C1 4002   1.176   3.238  12.753 -0.3816 -0.4621 -0.2314
  261MPD2    C2 4003   1.186   3.370  12.727 -0.5421  0.0009  0.4016
  261MPD2    C3 4004   1.272   3.428  12.641  0.6263 -0.4383 -0.1948
  261MPD2    C4 4005   1.345   3.339  12.558  0.8872 -0.4102  0.3235
  261MPD2    C5 4006   1.334   3.202  12.581  0.1388  0.1395  0.2810
  261MPD2     H 4007   1.138   3.436  12.799  0.9496  0.2656  1.1545
  261MPD2    H1 4008   1.414   3.371  12.480 -1.2634  0.3710 -1.2488
  261MPD2    H2 4009   1.233   3.046  12.682 -1.9241  0.6040 -2.1862
  261MPD2    H3 4010   1.384   3.138  12.509 -1.0550  1.4972 -1.7653
  261MPD2     N 4011   1.264   3.571  12.620  0.3034  0.4422 -0.0239
  261MPD2    H5 4012   1.198   3.617  12.682  0.8191  0.7199  0.3190
  261MPD2    N1 4013   1.107   3.203  12.869  0.3421 -0.9167  0.1659
  261MPD2    H7 4014   1.078   3.273  12.937 -3.2840 -0.1035 -2.2167
  262TMC3    C1 4015   1.298   3.783  12.502 -0.0442 -0.0281 -0.1546
  262TMC3    C2 4016   1.175   3.828  12.549  0.3929  0.7834  0.2671
  262TMC3    C3 4017   1.127   3.940  12.495  0.5770 -0.5468 -0.4319
  262TMC3    C4 4018   1.345   3.843  12.383  0.4683  0.1408  0.2778
  262TMC3    C5 4019   1.290   3.956  12.331 -0.4027  0.0644  0.5025
  262TMC3    C6 4020   1.182   4.008  12.397 -0.1657 -0.0655 -1.3985
  262TMC3     C 4021   1.334   3.642  12.523 -0.4096 -0.2585 -0.2163
  262TMC3     O 4022   1.422   3.601  12.447  0.0448  0.0052  0.2784
  262TMC3     H 4023   1.153   3.784  12.646 -0.7673 -0.4434 -0.5442
  262TMC3    H1 4024   1.433   3.799  12.337  1.0519  2.4622 -0.8067
  262TMC3    H2 4025   1.141   4.104  12.368 -0.5581  0.5524  1.2346
  262TMC3    C7 4026   1.257   3.937  12.195 -0.4537  0.5288 -0.3752
  262TMC3    C8 4027   0.986   3.962  12.502 -0.8917  0.6815 -0.4004
  262TMC3    O1 4028   1.339   3.883  12.121 -0.7236 -0.1723 -0.2302
  262TMC3    O2 4029   0.952   4.052  12.429 -0.4028  0.2026 -0.2355
  263MPD2     C 4030   1.555   2.873  11.493  0.5720 -0.1260  0.0670
  263MPD2    C1 4031   1.687   2.851  11.464  0.4493  0.0748  0.0524
  263MPD2    C2 4032   1.762   2.944  11.392  0.9637 -0.9220 -0.3471
  263MPD2    C3 4033   1.705   3.069  11.350  0.0846 -0.8413 -0.6192
  263MPD2    C4 4034   1.571   3.093  11.394  0.5364  0.4559 -0.7070
  263MPD2    C5 4035   1.493   2.988  11.451 -0.9331 -0.1725  0.0826
  263MPD2     H 4036   1.865   2.918  11.371  0.5824 -1.2091 -1.8433
  263MPD2    H1 4037   1.510   3.182  11.380 -2.3040 -1.3714  0.1051
  263MPD2    H2 4038   1.497   2.805  11.553 -1.1020  0.9798 -0.3099
  263MPD2    H3 4039   1.389   3.009  11.477 -0.6527  0.4816  0.6744
  263MPD2     N 4040   1.771   3.150  11.257 -0.4738  0.0555 -0.0842
  263MPD2    H5 4041   1.854   3.118  11.207  0.2530  1.3572  0.2825
  263MPD2    N1 4042   1.754   2.740  11.523 -0.0136 -0.0201 -0.0651
  263MPD2    H7 4043   1.699   2.691  11.592 -1.1209  0.5029 -0.5741
  264TMC3    C1 4044   1.835   3.353  11.148 -0.6714 -0.9097 -0.1807
  264TMC3    C2 4045   1.879   3.482  11.179  0.1456  0.5368  0.6559
  264TMC3    C3 4046   1.996   3.528  11.124 -0.3015  0.0099  0.7698
  264TMC3    C4 4047   1.904   3.282  11.054 -0.3937  0.0059 -0.2925
  264TMC3    C5 4048   2.024   3.328  11.007 -0.6382 -0.2085 -0.6805
  264TMC3    C6 4049   2.076   3.448  11.041 -0.6553  0.1328 -0.0103
  264TMC3     C 4050   1.744   3.282  11.233  0.0495 -0.2438 -0.0912
  264TMC3     O 4051   1.672   3.353  11.306  0.3284 -0.5010 -0.3618
  264TMC3     H 4052   1.811   3.543  11.237  0.7143  1.9074 -0.1197
  264TMC3    H1 4053   1.872   3.182  11.026 -2.5637  1.1293 -1.7981
  264TMC3    H2 4054   2.161   3.496  10.993 -0.3935  0.6681  0.9897
  264TMC3    C7 4055   2.088   3.263  10.894 -0.1543  0.0670  0.3591
  264TMC3    C8 4056   2.055   3.653  11.169 -0.0310 -0.3220 -0.7379
  264TMC3    O1 4057   2.194   3.313  10.855  0.3806  0.1291 -0.1483
  264TMC3    O2 4058   2.144   3.700  11.102 -0.0130  0.3492 -0.4932
  265MPD2     C 4059   3.436   2.969  15.601  0.1808 -0.3245 -0.4792
  265MPD2    C1 4060   3.344   3.022  15.510 -0.6173  0.7011  0.2184
  265MPD2    C2 4061   3.391   3.030  15.379  0.0991  0.0177 -0.3417
  265MPD2    C3 4062   3.525   2.998  15.343  0.3800  0.0029  0.2679
  265MPD2    C4 4063   3.609   2.957  15.441  0.1547 -0.0688 -0.0588
  265MPD2    C5 4064   3.567   2.943  15.569  0.4268  0.2387  0.0753
  265MPD2     H 4065   3.334   3.068  15.296  0.3904  0.9693 -0.1082
  265MPD2    H1 4066   3.706   2.914  15.418  1.5582  0.9710  3.8311
  265MPD2    H2 4067   3.415   2.950  15.705  0.2418  0.1343 -0.3848
  265MPD2    H3 4068   3.627   2.903  15.650  0.5429  1.6803  0.7136
  265MPD2     N 4069   3.568   3.006  15.203 -0.3148  0.0496  0.1935
  265MPD2    H5 4070   3.495   3.039  15.141 -0.6380 -2.8182 -0.9524
  265MPD2    N1 4071   3.209   3.068  15.543  0.6051 -0.2920 -0.0211
  265MPD2    H7 4072   3.156   3.118  15.472 -0.6595 -0.7865  0.5633
  266TMC3    C1 4073   3.030   3.138  15.693  0.0215 -0.1200  0.4607
  266TMC3    C2 4074   3.012   3.189  15.818  0.0505 -0.2174 -0.9575
  266TMC3    C3 4075   2.902   3.268  15.846 -0.4219  0.8776 -0.1571
  266TMC3    C4 4076   2.943   3.166  15.592  0.0910  0.5993  0.4597
  266TMC3    C5 4077   2.836   3.239  15.623  0.1360 -0.1108  0.6673
  266TMC3    C6 4078   2.807   3.288  15.747 -0.0533  0.0637 -0.2261
  266TMC3     C 4079   3.156   3.069  15.676 -0.2358 -0.4791  0.5099
  266TMC3     O 4080   3.202   3.004  15.769  0.8117  0.2929 -0.7889
  266TMC3     H 4081   3.082   3.152  15.891 -1.0016  2.8903  1.5977
  266TMC3    H1 4082   2.961   3.115  15.498  1.9476  0.2285  1.0145
  266TMC3    H2 4083   2.715   3.342  15.766  1.0258  1.6436  0.5352
  266TMC3    C7 4084   2.731   3.257  15.529  0.0611  0.1788  0.3526
  266TMC3    C8 4085   2.872   3.311  15.984 -0.5755 -0.2234  0.8903
  266TMC3    O1 4086   2.615   3.246  15.570  0.7837  0.0842  0.4451
  266TMC3    O2 4087   2.760   3.306  16.027  0.7216 -0.8007 -0.1286
  267MPD2     C 4088   0.127   4.438   0.227  0.5717 -0.6315 -0.2760
  267MPD2    C1 4089   0.154   4.575   0.250  0.5399 -0.7527 -0.4603
  267MPD2    C2 4090   0.120   4.675   0.154 -0.0850  0.0488  0.5328
  267MPD2    C3 4091   0.075   4.632   0.028  0.1529  0.6016 -0.5309
  267MPD2    C4 4092   0.051   4.499   0.007 -0.3499  0.3772 -0.8985
  267MPD2    C5 4093   0.079   4.406   0.104  0.6851 -0.2715  0.5064
  267MPD2     H 4094   0.143   0.044   0.166  0.9635 -0.3741  2.3208
  267MPD2    H1 4095   0.037   4.465  17.651 -0.9891 -0.3411 -0.5721
  267MPD2    H2 4096   0.170   4.363   0.292  0.0077 -0.3173  0.4613
  267MPD2    H3 4097   0.072   4.300   0.081 -0.1483 -0.0673 -0.1728
  267MPD2     N 4098   0.069   4.723  17.662 -0.5775  0.3155  0.7950
  267MPD2    H5 4099   0.053   4.683  17.570 -1.5816  0.0665  1.0786
  267MPD2    N1 4100   0.222   4.615   0.365 -0.5989  0.2639  0.8380
  267MPD2    H7 4101   0.255   4.540   0.425  0.8699  0.9406  0.8803
  268TMC3    C1 4102   0.355   0.030   0.492 -0.4798 -0.2646 -0.1815
  268TMC3    C2 4103   0.457   0.118   0.454  0.4817  1.1540  0.5040
  268TMC3    C3 4104   0.587   0.102   0.500  0.1233  0.7638  0.5510
  268TMC3    C4 4105   0.386   4.676   0.586  0.3184 -0.0818  0.2939
  268TMC3    C5 4106   0.514   4.674   0.647 -0.2818  0.6865  0.1191
  268TMC3    C6 4107   0.616   0.009   0.593  0.3042  0.0331 -0.4215
  268TMC3     C 4108   0.245   0.010   0.405 -0.0725 -0.1260 -0.2102
  268TMC3     O 4109   0.181   0.106   0.366 -0.2831 -0.8599 -0.1611
  268TMC3     H 4110   0.437   0.174   0.363 -0.6671 -0.5395 -0.2998
  268TMC3    H1 4111   0.299   4.619   0.618  0.5520 -0.3147  0.5153
  268TMC3    H2 4112   0.718   0.012   0.629 -0.8117  1.4187  2.6038
  268TMC3    C7 4113   0.551   4.581   0.752 -0.9400  0.2514 -0.7091
  268TMC3    C8 4114   0.691   0.177   0.448  0.2506 -0.2064  0.1941
  268TMC3    O1 4115   0.669   4.576   0.777 -0.0009 -0.3131 -1.0858
  268TMC3    O2 4116   0.810   0.156   0.476  0.1805  0.3487  0.1046
  269MPD2     C 4117   1.615   3.881  16.144  0.8143 -0.3740  0.3191
  269MPD2    C1 4118   1.486   3.916  16.121  0.0868  0.5207  0.0130
  269MPD2    C2 4119   1.468   4.028  16.034 -0.3642  0.5382  0.5884
  269MPD2    C3 4120   1.575   4.083  15.957  0.3808  0.0255 -0.1934
  269MPD2    C4 4121   1.700   4.022  15.970  0.2058 -0.3659 -0.4599
  269MPD2    C5 4122   1.719   3.928  16.068  0.4865 -0.6104  0.3336
  269MPD2     H 4123   1.372   4.074  16.018 -0.0561  0.6323 -0.9787
  269MPD2    H1 4124   1.790   4.058  15.921  1.1782 -2.2235 -0.0427
  269MPD2    H2 4125   1.638   3.800  16.212 -1.4714 -1.2446  0.0618
  269MPD2    H3 4126   1.818   3.891  16.092  0.2371 -1.4166  0.1199
  269MPD2     N 4127   1.541   4.187  15.876 -0.0055  0.5204 -0.2254
  269MPD2    H5 4128   1.442   4.210  15.879 -0.3902 -1.0256 -0.9204
  269MPD2    N1 4129   1.385   3.835  16.178  0.6311  0.6917 -0.3659
  269MPD2    H7 4130   1.425   3.751  16.218  0.5685  2.2496  3.0020
  270TMC3    C1 4131   1.179   3.724  16.189  0.0560  0.9006  0.6393
  270TMC3    C2 4132   1.075   3.684  16.120 -0.1540  0.6477  0.6225
  270TMC3    C3 4133   1.017   3.567  16.159 -1.0557 -0.0236  0.7644
  270TMC3    C4 4134   1.221   3.650  16.295 -0.5697  0.1549 -0.2275
  270TMC3    C5 4135   1.172   3.527  16.327  0.0785  0.1571  0.1955
  270TMC3    C6 4136   1.057   3.489  16.265  0.2162  0.0726 -0.0976
  270TMC3     C 4137   1.249   3.847  16.163 -0.9229 -0.2285  0.4351
  270TMC3     O 4138   1.190   3.940  16.106  0.2533 -0.7307 -0.1431
  270TMC3     H 4139   1.028   3.746  16.043  1.2500  0.1344 -0.6438
  270TMC3    H1 4140   1.301   3.677  16.363 -2.1792  0.0403  1.7274
  270TMC3    H2 4141   0.996   3.403  16.290 -0.9122  0.6508 -0.8091
  270TMC3    C7 4142   1.263   3.429  16.382 -0.0825  0.2362  0.0333
  270TMC3    C8 4143   0.912   3.524  16.069  0.5618 -0.2589 -1.0747
  270TMC3    O1 4144   1.381   3.455  16.377  0.1213  0.0403  0.1279
  270TMC3    O2 4145   0.820   3.468  16.127  0.1225 -0.0014 -0.1235
  271MPD2     C 4146   0.337   3.561  14.233  0.1184  0.2038  0.0851
  271MPD2    C1 4147   0.273   3.552  14.353 -0.3713  0.2765  0.5859
  271MPD2    C2 4148   0.143   3.506  14.361 -0.1474 -1.0208 -0.2247
  271MPD2    C3 4149   0.081   3.481  14.239  0.3880 -0.4360  0.1294
  271MPD2    C4 4150   0.148   3.490  14.122  0.6919  0.5739 -0.4995
  271MPD2    C5 4151   0.283   3.523  14.118  0.0568  0.3063  0.0640
  271MPD2     H 4152   0.091   3.489  14.455  0.1423  0.4260  0.1853
  271MPD2    H1 4153   0.093   3.465  14.033  1.8282 -0.3266 -0.9499
  271MPD2    H2 4154   0.443   3.583  14.230 -0.1339  1.6966  1.7012
  271MPD2    H3 4155   0.339   3.531  14.026 -2.9568  1.7942 -1.6361
  271MPD2     N 4156   4.690   3.430  14.225  0.3436  0.1101  0.2513
  271MPD2    H5 4157   4.657   3.402  14.133  2.2404  1.2535 -0.7747
  271MPD2    N1 4158   0.355   3.553  14.467  0.6118 -0.3475 -0.0502
  271MPD2    H7 4159   0.326   3.492  14.543 -0.1020  0.3606  0.2482
  272TMC3    C1 4160   0.538   3.589  14.607 -0.5380  0.0657  0.1917
  272TMC3    C2 4161   0.666   3.563  14.578  0.3773 -0.5751  0.2961
  272TMC3    C3 4162   0.743   3.489  14.664 -0.3742  0.1236 -0.1779
  272TMC3    C4 4163   0.476   3.542  14.715  0.6276  0.2212 -0.1535
  272TMC3    C5 4164   0.558   3.494  14.810 -0.0724 -0.2422  0.3805
  272TMC3    C6 4165   0.685   3.448  14.782 -0.2081  0.8029  0.5329
  272TMC3     C 4166   0.471   3.621  14.483  0.1723 -0.5070  0.0349
  272TMC3     O 4167   0.530   3.699  14.409 -0.1263  0.3233  0.6432
  272TMC3     H 4168   0.708   3.600  14.486  0.0784 -1.0147 -0.0152
  272TMC3    H1 4169   0.372   3.568  14.733  1.4952  2.5010  1.5966
  272TMC3    H2 4170   0.748   3.394  14.851 -0.6542 -0.4316 -0.0209
  272TMC3    C7 4171   0.531   3.517  14.945 -0.1101  0.1083 -0.2104
  272TMC3    C8 4172   0.875   3.438  14.615 -0.3031  0.4932  0.8985
  272TMC3    O1 4173   0.422   3.572  14.962 -0.1240  0.1143  0.9304
  272TMC3    O2 4174   0.931   3.500  14.520 -0.0395 -0.8851  0.3333
  273MPD2     C 4175   2.731   1.257  11.791 -0.1619 -0.3783  0.7903
  273MPD2    C1 4176   2.826   1.354  11.798 -0.1456 -0.2025 -0.1922
  273MPD2    C2 4177   2.809   1.463  11.720  0.8410  0.2144 -0.1939
  273MPD2    C3 4178   2.699   1.486  11.638  0.7231 -0.6652  0.0549
  273MPD2    C4 4179   2.608   1.382  11.634 -0.7653 -0.0051  0.0972
  273MPD2    C5 4180   2.620   1.274  11.713 -0.2524 -0.1511  0.2797
  273MPD2     H 4181   2.886   1.539  11.725  1.9138 -1.0256  1.8916
  273MPD2    H1 4182   2.514   1.392  11.580  0.3487 -0.9796 -2.0067
  273MPD2    H2 4183   2.731   1.157  11.834 -0.7271 -1.4660 -1.7644
  273MPD2    H3 4184   2.540   1.201  11.716  0.4001 -0.8468  0.7297
  273MPD2     N 4185   2.674   1.609  11.563  0.6293 -0.9474  0.3628
  273MPD2    H5 4186   2.602   1.604  11.491  0.1115 -0.3063  0.8325
  273MPD2    N1 4187   2.938   1.339  11.885 -0.4992 -0.5197  0.0270
  273MPD2    H7 4188   2.926   1.268  11.956 -0.3336 -1.7976 -1.2183
  274TMC3    C1 4189   2.694   1.836  11.496 -0.0209  0.0650 -0.1461
  274TMC3    C2 4190   2.634   1.823  11.373  0.0597 -0.4241  0.1568
  274TMC3    C3 4191   2.629   1.931  11.293  0.7445 -0.3570 -0.3591
  274TMC3    C4 4192   2.707   1.962  11.546  0.3242 -0.7383 -0.5407
  274TMC3    C5 4193   2.701   2.073  11.460  0.2900 -0.2538  0.1100
  274TMC3    C6 4194   2.676   2.052  11.330 -0.2417  0.1891  0.2340
  274TMC3     C 4195   2.742   1.725  11.577  0.6337 -0.5965  0.0826
  274TMC3     O 4196   2.803   1.751  11.675  0.2501  0.1258  0.3088
  274TMC3     H 4197   2.611   1.726  11.329  1.4237 -0.3491 -0.7339
  274TMC3    H1 4198   2.714   1.969  11.654  1.0984  1.2404 -0.7121
  274TMC3    H2 4199   2.652   2.146  11.282 -0.9585 -0.6024 -0.9705
  274TMC3    C7 4200   2.695   2.210  11.518  0.2651  0.2671  1.5450
  274TMC3    C8 4201   2.581   1.918  11.161 -0.3610 -0.3172 -0.0850
  274TMC3    O1 4202   2.644   2.296  11.443  0.1753 -0.3165  0.3981
  274TMC3    O2 4203   2.487   1.845  11.146 -0.3495 -0.7331  0.1382
  275MPD2     C 4204   2.163   4.452  14.439  0.4640 -0.2839  0.2255
  275MPD2    C1 4205   2.152   4.326  14.500  0.5012  0.2990  0.7987
  275MPD2    C2 4206   2.022   4.275  14.526  0.5361  0.1556  0.4480
  275MPD2    C3 4207   1.908   4.351  14.501 -0.3216  0.1897  0.2559
  275MPD2    C4 4208   1.927   4.467  14.433 -0.0512  0.5795  0.1794
  275MPD2    C5 4209   2.052   4.519  14.405  0.4664  0.4676  0.1890
  275MPD2     H 4210   2.017   4.169  14.551  0.4515  0.0782  0.1023
  275MPD2    H1 4211   1.841   4.526  14.405  0.8985  1.9503  0.1361
  275MPD2    H2 4212   2.261   4.492  14.418  0.0425  0.2514 -0.7009
  275MPD2    H3 4213   2.061   4.610  14.347  0.7467  0.7629  0.6948
  275MPD2     N 4214   1.779   4.306  14.524  0.2543 -0.4799  0.3621
  275MPD2    H5 4215   1.712   4.375  14.492  0.5065 -1.4795 -2.3127
  275MPD2    N1 4216   2.256   4.249  14.560 -0.4018  0.3543 -0.0332
  275MPD2    H7 4217   2.231   4.156  14.592  0.9734 -0.9217 -2.6518
  276TMC3    C1 4218   2.457   4.200  14.657 -0.5812 -0.0164  0.5577
  276TMC3    C2 4219   2.378   4.108  14.724  0.2506  0.1009  0.0417
  276TMC3    C3 4220   2.379   4.108  14.860  0.3350  0.8318  0.5233
  276TMC3    C4 4221   2.547   4.276  14.729 -1.0352  0.1369  0.4076
  276TMC3    C5 4222   2.548   4.279  14.865 -0.6826 -0.1082 -0.6227
  276TMC3    C6 4223   2.461   4.195  14.936 -0.5798 -0.5321  0.2943
  276TMC3     C 4224   2.389   4.289  14.563 -0.2001  0.0367  0.7088
  276TMC3     O 4225   2.444   4.400  14.540  0.2659 -0.0362  0.0796
  276TMC3     H 4226   2.313   4.040  14.671  0.6036 -1.3428  1.4668
  276TMC3    H1 4227   2.614   4.339  14.671  0.3489 -1.7906 -0.1125
  276TMC3    H2 4228   2.437   4.216  15.040  0.9713 -0.8819  0.7257
  276TMC3    C7 4229   2.552   4.419  14.918 -0.1398  0.1541  0.3011
  276TMC3    C8 4230   2.252   4.055  14.917  0.1248  0.3622 -0.8774
  276TMC3    O1 4231   2.597   4.437  15.033  0.1339 -0.0788 -0.1057
  276TMC3    O2 4232   2.154   4.060  14.846 -0.0068  0.5992 -0.1259
  277MPD2     C 4233   3.999   3.187  12.947  0.0010  0.3844 -0.1785
  277MPD2    C1 4234   3.875   3.226  12.992  0.4123 -0.4537  0.9829
  277MPD2    C2 4235   3.822   3.168  13.108 -0.1596  0.5466 -0.4787
  277MPD2    C3 4236   3.904   3.075  13.176  1.2251  0.9241 -0.0371
  277MPD2    C4 4237   4.028   3.039  13.131  0.0574  0.4839  0.5484
  277MPD2    C5 4238   4.071   3.092  13.011  0.0779  0.1958  0.8125
  277MPD2     H 4239   3.729   3.199  13.153 -0.5849 -1.1078 -0.2045
  277MPD2    H1 4240   4.087   2.962  13.180  0.4245 -0.2089 -0.9839
  277MPD2    H2 4241   4.046   3.252  12.874 -1.7551  1.8386 -0.0174
  277MPD2    H3 4242   4.172   3.066  12.980  0.1999  2.1025 -0.3858
  277MPD2     N 4243   3.846   3.021  13.288 -0.0544 -0.5387  0.4222
  277MPD2    H5 4244   3.769   3.078  13.323 -3.5644 -3.4313 -2.6725
  277MPD2    N1 4245   3.814   3.335  12.927  0.2260 -0.0643 -0.4807
  277MPD2    H7 4246   3.873   3.398  12.873 -0.7146  1.6779  0.5032
  278TMC3    C1 4247   3.883   2.959  13.515  0.5753  0.5052 -0.0566
  278TMC3    C2 4248   3.836   2.860  13.601  0.1221  0.3666  0.2850
  278TMC3    C3 4249   3.788   2.904  13.721  0.6569 -0.2661 -0.6241
  278TMC3    C4 4250   3.870   3.093  13.536  0.3914  0.4511  0.4933
  278TMC3    C5 4251   3.810   3.127  13.655  0.5214 -0.4559 -0.1835
  278TMC3    C6 4252   3.761   3.035  13.743  0.1200 -0.1400  0.5336
  278TMC3     C 4253   3.901   2.927  13.373 -0.9068 -0.6666 -0.4762
  278TMC3     O 4254   3.952   2.825  13.336 -0.8779 -0.8885 -0.6915
  278TMC3     H 4255   3.843   2.754  13.576  1.0176  0.1907  1.3071
  278TMC3    H1 4256   3.903   3.176  13.473  1.2199  1.8724  2.7915
  278TMC3    H2 4257   3.710   3.061  13.835  0.5939  0.7535  0.5448
  278TMC3    C7 4258   3.755   3.267  13.665  0.0642  0.3513  0.9671
  278TMC3    C8 4259   3.724   2.807  13.810  0.4835 -0.3908 -0.5606
  278TMC3    O1 4260   3.819   3.352  13.602  0.2487 -0.2268  0.8240
  278TMC3    O2 4261   3.710   2.845  13.927 -0.2213 -0.3637 -0.0368
  279MPD2     C 4262   2.701   3.103   0.500  1.0480 -0.5097  0.7841
  279MPD2    C1 4263   2.578   3.164   0.489 -0.5377  0.0142 -0.3737
  279MPD2    C2 4264   2.551   3.265   0.583 -0.6501 -0.3693 -0.2076
  279MPD2    C3 4265   2.648   3.300   0.682  0.5685 -0.0815 -0.0941
  279MPD2    C4 4266   2.753   3.218   0.696 -0.0790  0.6802  0.2965
  279MPD2    C5 4267   2.779   3.119   0.603 -0.3329 -0.2138 -0.5588
  279MPD2     H 4268   2.460   3.323   0.571  0.9051  2.3626  0.9933
  279MPD2    H1 4269   2.820   3.222   0.782 -0.3527 -0.5002  0.5698
  279MPD2    H2 4270   2.740   3.028   0.433 -0.9371  0.4066 -1.3776
  279MPD2    H3 4271   2.860   3.049   0.620  1.8032  2.2524 -0.7352
  279MPD2     N 4272   2.651   3.409   0.773  0.3685 -0.5706  0.1803
  279MPD2    H5 4273   2.731   3.410   0.835  1.5010  1.8838 -1.3090
  279MPD2    N1 4274   2.494   3.139   0.379 -0.5151  0.0464 -0.1983
  279MPD2    H7 4275   2.533   3.076   0.310  0.1956  1.1307 -0.7894
  280TMC3    C1 4276   2.317   3.178   0.222  0.0993 -0.3294  0.4749
  280TMC3    C2 4277   2.389   3.096   0.132 -0.3203 -0.8644  0.2364
  280TMC3    C3 4278   2.387   3.127   0.001 -0.2390  0.1002  0.2937
  280TMC3    C4 4279   2.240   3.278   0.179 -0.6181  0.6266  0.0729
  280TMC3    C5 4280   2.251   3.311   0.047  0.0984 -0.1412 -0.3918
  280TMC3    C6 4281   2.323   3.236  17.702  0.7773 -0.2039 -0.3023
  280TMC3     C 4282   2.364   3.193   0.355 -0.4757 -0.5920  0.1464
  280TMC3     O 4283   2.294   3.256   0.434  0.2014  0.2916  0.2376
  280TMC3     H 4284   2.433   3.005   0.169 -0.4508 -0.4044  1.5033
  280TMC3    H1 4285   2.196   3.346   0.251 -1.7534 -1.4518  1.3365
  280TMC3    H2 4286   2.302   3.252  17.597 -0.2457  0.3752 -0.0090
  280TMC3    C7 4287   2.230   3.446   0.016  0.5560 -0.2074  0.1934
  280TMC3    C8 4288   2.457   3.035  17.661  0.3017 -0.6189 -0.1328
  280TMC3    O1 4289   2.318   3.505  17.695  0.3652  0.3887 -0.0025
  280TMC3    O2 4290   2.489   2.922  17.699 -0.1877  0.1900  0.0321
  281TMC3    C1 4291   2.033   3.717  13.687  0.7773 -0.4178 -0.5589
  281TMC3    C2 4292   2.127   3.793  13.626  0.2530  0.0985 -0.2205
  281TMC3    C3 4293   2.172   3.742  13.503  0.0261  0.3712  0.0042
  281TMC3    C4 4294   2.002   3.593  13.638 -0.0231 -0.2493  0.4121
  281TMC3    C5 4295   2.070   3.541  13.523  1.1029  0.5930  0.2281
  281TMC3    C6 4296   2.155   3.618  13.461  0.0812  0.3639 -0.0032
  281TMC3     C 4297   1.949   3.767  13.799 -0.7349 -0.1305  0.3339
  281TMC3     O 4298   1.913   3.679  13.883 -0.1420  0.7059  0.1629
  281TMC3     H 4299   2.137   3.897  13.654 -1.2045  0.5080 -1.2247
  281TMC3    H1 4300   1.929   3.538  13.696 -0.3534 -0.7558 -0.4899
  281TMC3    H2 4301   2.213   3.579  13.379  0.4545  1.7810 -0.4125
  281TMC3    C7 4302   2.066   3.401  13.492  0.1070 -0.9883  0.3106
  281TMC3    C8 4303   2.282   3.817  13.435 -0.4818  0.5171 -0.1027
  281TMC3    O1 4304   2.116   3.365  13.386  0.2140 -1.0891  0.4468
  281TMC3    O2 4305   2.374   3.750  13.396 -0.7741 -0.0511  0.0903
  282MPD2     C 4306   4.123   0.655  15.086  0.1673 -0.5681 -0.5169
  282MPD2    C1 4307   3.997   0.648  15.138 -0.4630  0.4032 -0.2167
  282MPD2    C2 4308   3.888   0.612  15.061  0.3574 -0.1006  0.8781
  282MPD2    C3 4309   3.913   0.566  14.933  0.0430 -0.2860  0.2398
  282MPD2    C4 4310   4.038   0.569  14.878 -0.1164  0.3071 -0.2949
  282MPD2    C5 4311   4.139   0.629  14.956  0.4705 -0.1085 -0.0013
  282MPD2     H 4312   3.790   0.613  15.107  1.1084  1.3424  2.4682
  282MPD2    H1 4313   4.078   0.555  14.778  0.9634 -2.2595  0.4983
  282MPD2    H2 4314   4.205   0.693  15.147 -1.3289  1.0542  0.4799
  282MPD2    H3 4315   4.240   0.635  14.918  1.3991 -0.8383  2.3431
  282MPD2     N 4316   3.799   0.525  14.858  0.6151 -0.1110 -0.5379
  282MPD2    H5 4317   3.710   0.529  14.907  0.5230 -0.3471 -0.6860
  282MPD2    N1 4318   3.958   0.701  15.263 -0.3686 -0.6275 -0.6417
  282MPD2    H7 4319   3.860   0.692  15.288 -0.6772  2.2113 -0.7781
  283TMC3    C1 4320   3.976   0.755  15.491 -0.4563  0.6424  0.3719
  283TMC3    C2 4321   3.973   0.879  15.556  0.5391  0.4780 -0.1280
  283TMC3    C3 4322   3.894   0.891  15.666 -0.2008  0.0163 -1.0134
  283TMC3    C4 4323   3.894   0.653  15.534 -0.0559  0.1572 -0.1100
  283TMC3    C5 4324   3.825   0.669  15.654 -0.3894 -0.1200  0.6231
  283TMC3    C6 4325   3.831   0.786  15.719 -0.1326  1.0548 -0.4254
  283TMC3     C 4326   4.037   0.759  15.358 -0.6773 -0.2296  0.3726
  283TMC3     O 4327   4.155   0.785  15.352 -0.4328 -0.7708 -0.3594
  283TMC3     H 4328   4.027   0.958  15.506  0.6971 -0.4281 -1.3852
  283TMC3    H1 4329   3.882   0.563  15.475  2.1250 -0.0227 -0.2840
  283TMC3    H2 4330   3.766   0.805  15.803  0.2570  1.6161 -0.2478
  283TMC3    C7 4331   3.702   0.589  15.684  0.7040 -0.7990 -0.1237
  283TMC3    C8 4332   3.849   1.015  15.719  0.8604 -0.0704 -0.3662
  283TMC3    O1 4333   3.606   0.660  15.708 -0.0242 -0.1246 -0.2133
  283TMC3    O2 4334   3.825   1.028  15.839  0.4777 -0.1875 -0.0140
  284MPD2     C 4335   2.105   4.318  12.201  0.2094  0.0271 -0.8824
  284MPD2    C1 4336   2.067   4.307  12.065  0.5905  0.3840 -0.4625
  284MPD2    C2 4337   2.044   4.177  12.019  0.3271 -0.3146 -0.1459
  284MPD2    C3 4338   2.055   4.067  12.106 -0.7329 -0.5607  1.0244
  284MPD2    C4 4339   2.091   4.087  12.233 -0.0544 -0.2165 -0.0563
  284MPD2    C5 4340   2.117   4.206  12.281 -1.2062  0.4661 -0.1914
  284MPD2     H 4341   2.007   4.186  11.917 -0.9294 -1.4124  0.2118
  284MPD2    H1 4342   2.093   4.004  12.303  0.0613 -1.2502 -1.2771
  284MPD2    H2 4343   2.112   4.410  12.259 -1.0213 -0.9009  0.7385
  284MPD2    H3 4344   2.154   4.211  12.383 -0.7904 -1.3604 -0.2462
  284MPD2     N 4345   2.032   3.933  12.062 -0.5583 -0.5537 -0.0863
  284MPD2    H5 4346   2.054   3.852  12.118 -1.0929 -0.4594  0.2639
  284MPD2    N1 4347   2.040   4.421  11.991  0.7974  0.3931  0.8059
  284MPD2    H7 4348   2.004   4.420  11.896 -1.7435 -0.2622  1.7561
  285TMC3    C1 4349   2.039   4.652  11.944 -0.3635  0.2504 -0.2558
  285TMC3    C2 4350   2.138   4.638  11.852 -0.5160  0.2600 -0.1956
  285TMC3    C3 4351   2.184   0.006  11.782 -0.6082  0.3680  0.2493
  285TMC3    C4 4352   1.974   0.035  11.962  0.8967 -0.3514 -0.4067
  285TMC3    C5 4353   2.020   0.139  11.885  0.8865  0.0556  0.5576
  285TMC3    C6 4354   2.119   0.130  11.787  0.5109  0.6373  0.1830
  285TMC3     C 4355   2.028   4.551  12.046  0.1136 -0.0094 -0.4482
  285TMC3     O 4356   2.022   4.586  12.161  0.7194 -0.2233  0.1611
  285TMC3     H 4357   2.195   4.546  11.859 -1.5756 -0.4218 -0.3895
  285TMC3    H1 4358   1.916   0.057  12.051  1.5625  0.5749 -0.2005
  285TMC3    H2 4359   2.153   0.219  11.735 -3.8815  0.6390 -2.6174
  285TMC3    C7 4360   1.958   0.273  11.901  0.2743 -0.4748  0.1672
  285TMC3    C8 4361   2.289   4.713  11.684 -0.6841 -0.0278  0.3979
  285TMC3    O1 4362   2.028   0.362  11.852 -0.1667 -0.1181  0.2152
  285TMC3    O2 4363   2.297   4.593  11.656 -0.1159 -0.2914 -0.1409
  286MPD2     C 4364   1.768   3.127   1.783 -0.6959 -0.4903  0.0411
  286MPD2    C1 4365   1.728   3.068   1.666 -0.2790  0.7243  0.5270
  286MPD2    C2 4366   1.797   2.963   1.613 -0.7732  0.2688  0.3005
  286MPD2    C3 4367   1.900   2.908   1.687 -0.2768 -0.3758  0.5705
  286MPD2    C4 4368   1.943   2.967   1.808  0.5491  0.2970 -0.2408
  286MPD2    C5 4369   1.881   3.082   1.851  0.5941  0.8848  0.0101
  286MPD2     H 4370   1.768   2.922   1.517 -2.2363  1.6585  0.1517
  286MPD2    H1 4371   2.032   2.936   1.862  0.2182  2.3539  1.4691
  286MPD2    H2 4372   1.710   3.209   1.822  2.7962  1.9095  0.1920
  286MPD2    H3 4373   1.911   3.132   1.943  0.9724 -0.6185  0.7041
  286MPD2     N 4374   1.973   2.796   1.642  0.2488 -0.3204  0.0478
  286MPD2    H5 4375   2.054   2.777   1.699 -0.1075  0.1777  0.7176
  286MPD2    N1 4376   1.609   3.108   1.606 -0.0241 -0.2572  0.8406
  286MPD2    H7 4377   1.588   3.052   1.523 -3.0471  0.5108  1.1133
  287TMC3    C1 4378   2.059   2.620   1.502  0.2832  0.4845  0.2082
  287TMC3    C2 4379   2.058   2.570   1.375 -0.5289  0.1149  0.1643
  287TMC3    C3 4380   2.164   2.493   1.333 -0.2594 -0.1360 -0.0623
  287TMC3    C4 4381   2.155   2.598   1.591  0.5718 -0.1323  0.0097
  287TMC3    C5 4382   2.249   2.509   1.551  0.2642  1.0025  0.3495
  287TMC3    C6 4383   2.254   2.453   1.426 -0.0630 -0.4117  0.6464
  287TMC3     C 4384   1.946   2.717   1.528 -0.1582 -0.3457  0.4557
  287TMC3     O 4385   1.861   2.728   1.442 -0.3284  0.1465 -0.0225
  287TMC3     H 4386   1.989   2.607   1.300  0.5839 -2.1197 -1.9673
  287TMC3    H1 4387   2.159   2.636   1.692  3.0554 -0.7819  0.1678
  287TMC3    H2 4388   2.324   2.377   1.392 -1.3678 -0.2210 -2.4652
  287TMC3    C7 4389   2.364   2.475   1.644 -0.1795  0.1118  0.3151
  287TMC3    C8 4390   2.169   2.445   1.197  0.2633  0.1579  0.1172
  287TMC3    O1 4391   2.376   2.558   1.736  0.0814  0.2718  0.1301
  287TMC3    O2 4392   2.069   2.464   1.132  0.2084  0.5032 -0.3312
  288TMC3    C1 4393   3.490   3.075  14.394 -0.9669 -0.4748 -0.5583
  288TMC3    C2 4394   3.447   3.050  14.523  0.3608  0.0449  0.1068
  288TMC3    C3 4395   3.365   2.944  14.541  0.1835 -0.9689  0.0338
  288TMC3    C4 4396   3.454   3.009  14.285  0.2462 -0.0601  0.4464
  288TMC3    C5 4397   3.377   2.902  14.311 -0.7044  0.2716 -0.5376
  288TMC3    C6 4398   3.321   2.870  14.430  0.2231 -0.2337  0.1418
  288TMC3     C 4399   3.605   3.164  14.372 -0.1955 -0.7647 -0.3098
  288TMC3     O 4400   3.689   3.165  14.458  0.5153 -0.1114 -0.9984
  288TMC3     H 4401   3.493   3.096  14.610 -0.9491  1.2145  0.1691
  288TMC3    H1 4402   3.489   3.020  14.183  0.6637  1.7891  0.7972
  288TMC3    H2 4403   3.244   2.794  14.437  1.0695 -0.9790  1.4803
  288TMC3    C7 4404   3.315   2.824  14.198 -0.2587 -0.6356 -0.6231
  288TMC3    C8 4405   3.319   2.907  14.673 -1.2007  0.5874  0.1449
  288TMC3    O1 4406   3.296   2.704  14.207 -0.4233  0.0057  0.0649
  288TMC3    O2 4407   3.358   2.983  14.764 -0.3727  0.7866  0.3586
  289MPD2     C 4408   3.831   2.157  14.554  0.6262  1.0125 -0.0550
  289MPD2    C1 4409   3.785   2.267  14.490  0.2628  0.0871  0.0909
  289MPD2    C2 4410   3.659   2.267  14.445 -0.9593  0.4377 -0.3542
  289MPD2    C3 4411   3.581   2.146  14.444 -0.4007  0.1694 -0.8360
  289MPD2    C4 4412   3.633   2.035  14.506  0.4542 -0.3420  0.8726
  289MPD2    C5 4413   3.759   2.039  14.560 -0.0120 -0.1984 -0.4391
  289MPD2     H 4414   3.613   2.360  14.413 -1.8201  0.4716  1.0133
  289MPD2    H1 4415   3.567   1.949  14.515  0.4189 -0.4872 -0.7631
  289MPD2    H2 4416   3.932   2.158  14.592  0.4385 -0.3315  0.4881
  289MPD2    H3 4417   3.799   1.960  14.623 -0.4282  0.0813  0.1796
  289MPD2     N 4418   3.452   2.134  14.384  0.1957 -0.5073 -0.1850
  289MPD2    H5 4419   3.413   2.040  14.378  2.7112 -1.6681  1.3088
  289MPD2    N1 4420   3.860   2.387  14.477 -0.5641  0.0459  0.6568
  289MPD2    H7 4421   3.943   2.400  14.534  0.0757 -0.3201 -0.1876
  290TMC3    C1 4422   3.262   2.215  14.264  0.0205 -0.2478 -0.1065
  290TMC3    C2 4423   3.168   2.315  14.243 -0.7024 -0.1856 -0.4552
  290TMC3    C3 4424   3.047   2.283  14.189  0.3582  0.2855  0.3877
  290TMC3    C4 4425   3.233   2.087  14.232  1.0932  0.4259  0.1589
  290TMC3    C5 4426   3.109   2.066  14.177 -0.7727 -0.7053 -0.0544
  290TMC3    C6 4427   3.013   2.158  14.153 -1.3502 -0.5205 -0.0491
  290TMC3     C 4428   3.380   2.244  14.335  0.7503  0.1436 -0.5701
  290TMC3     O 4429   3.390   2.359  14.368 -0.1434  0.8551  0.1962
  290TMC3     H 4430   3.202   2.418  14.247  1.2856 -0.8585  0.2996
  290TMC3    H1 4431   3.310   2.010  14.234  0.9456  0.2477 -0.8794
  290TMC3    H2 4432   2.918   2.132  14.108 -1.3279  0.0239 -0.4069
  290TMC3    C7 4433   3.082   1.947  14.105  0.1523  0.7914  0.2470
  290TMC3    C8 4434   2.954   2.389  14.166  0.1673 -0.6968 -0.0403
  290TMC3    O1 4435   3.009   1.966  14.010  0.2043 -0.3813  0.2417
  290TMC3    O2 4436   2.870   2.371  14.076  0.2501  0.9992  0.2228
  291MPD2     C 4437   2.946   1.607   0.260 -0.0934 -0.7568  0.0116
  291MPD2    C1 4438   2.955   1.502   0.165 -0.4679 -0.0431  0.0730
  291MPD2    C2 4439   3.074   1.451   0.136  0.2618  0.1199 -0.0406
  291MPD2    C3 4440   3.186   1.496   0.206  0.6248 -0.3731 -0.0723
  291MPD2    C4 4441   3.178   1.600   0.296 -0.4881  0.0531 -0.6649
  291MPD2    C5 4442   3.059   1.662   0.316 -0.4870  0.8835  0.0110
  291MPD2     H 4443   3.081   1.377   0.057  0.4355  0.5699 -0.4437
  291MPD2    H1 4444   3.267   1.639   0.342 -1.3269  1.0175  0.1371
  291MPD2    H2 4445   2.854   1.650   0.297 -0.5572 -1.7798  0.0563
  291MPD2    H3 4446   3.056   1.741   0.390 -2.3170  2.0173 -1.2740
  291MPD2     N 4447   3.312   1.423   0.201 -0.4399 -0.1315  0.2218
  291MPD2    H5 4448   3.395   1.466   0.240  1.5025 -2.7379 -1.0888
  291MPD2    N1 4449   2.845   1.463   0.083  0.4338  0.2058 -0.3300
  291MPD2    H7 4450   2.873   1.416  17.744  2.1825 -0.9872  0.9036
  292TMC3    C1 4451   2.618   1.451   0.009  0.4754  1.4012  0.7246
  292TMC3    C2 4452   2.491   1.505   0.022  0.0807  0.3382 -0.7613
  292TMC3    C3 4453   2.402   1.489  17.667 -0.2096 -0.3341 -0.1729
  292TMC3    C4 4454   2.656   1.402  17.633  0.8638 -0.0711 -0.0016
  292TMC3    C5 4455   2.564   1.390  17.527 -0.4500  0.3714  0.1973
  292TMC3    C6 4456   2.431   1.424  17.548  0.7485  0.1528 -0.5892
  292TMC3     C 4457   2.711   1.495   0.111  0.0424  0.4307  0.3753
  292TMC3     O 4458   2.666   1.557   0.205 -0.3950 -0.0372  0.0493
  292TMC3     H 4459   2.455   1.549   0.114 -0.1928 -2.0927  0.3051
  292TMC3    H1 4460   2.750   1.350  17.616  0.4160 -0.3631 -1.5928
  292TMC3    H2 4461   2.352   1.403  17.477  1.8071 -2.1356 -1.0958
  292TMC3    C7 4462   2.600   1.318  17.403  1.0564 -0.5151 -0.7800
  292TMC3    C8 4463   2.267   1.504  17.707 -0.1612 -0.1771  0.5567
  292TMC3    O1 4464   2.707   1.261  17.414  0.4387 -0.2848  0.1799
  292TMC3    O2 4465   2.245   1.585   0.047 -0.4608 -0.3805 -0.3911
  293MPD2     C 4466   0.294   2.915  12.990 -0.0810 -0.8835 -0.0663
  293MPD2    C1 4467   0.305   3.050  12.988 -0.3754  0.2426 -0.6658
  293MPD2    C2 4468   0.353   3.108  13.098  0.6029  0.4395  0.1826
  293MPD2    C3 4469   0.387   3.038  13.212 -0.2022  0.4146  0.2203
  293MPD2    C4 4470   0.393   2.902  13.202 -1.3883 -0.0461  0.1114
  293MPD2    C5 4471   0.345   2.839  13.091  0.3319 -0.0238 -0.1534
  293MPD2     H 4472   0.361   3.215  13.086  1.3095  0.5048  1.1719
  293MPD2    H1 4473   0.415   2.834  13.283  3.8338  0.6165 -0.7650
  293MPD2    H2 4474   0.251   2.867  12.903  0.8471 -0.3810 -0.8048
  293MPD2    H3 4475   0.349   2.731  13.089 -0.0251 -0.0564  0.7119
  293MPD2     N 4476   0.418   3.102  13.333  0.2837 -0.4018 -0.4191
  293MPD2    H5 4477   0.419   3.203  13.336 -2.1102 -0.3382 -1.9363
  293MPD2    N1 4478   0.282   3.112  12.864 -0.2310 -0.6298  0.0027
  293MPD2    H7 4479   0.306   3.209  12.849 -1.4189 -0.5844 -1.6482
  294TMC3    C1 4480   0.218   3.143  12.640  0.7072  0.0973  0.4061
  294TMC3    C2 4481   0.107   3.141  12.557 -0.0064  0.2696  0.3863
  294TMC3    C3 4482   0.108   3.225  12.443  0.1204 -0.2448 -0.0399
  294TMC3    C4 4483   0.339   3.201  12.605 -0.3880  0.9108 -0.4978
  294TMC3    C5 4484   0.337   3.277  12.488  0.4465 -0.0772 -0.0653
  294TMC3    C6 4485   0.225   3.292  12.415  0.6639 -0.1697  0.6045
  294TMC3     C 4486   0.197   3.069  12.765 -0.1219  0.2766  0.0652
  294TMC3     O 4487   0.107   2.990  12.782 -0.7919 -0.2481  0.4803
  294TMC3     H 4488   0.016   3.087  12.581  0.3356 -0.3736  0.2375
  294TMC3    H1 4489   0.430   3.191  12.663 -0.5256 -0.1896 -0.4582
  294TMC3    H2 4490   0.230   3.370  12.340 -1.2392 -1.3948 -0.8052
  294TMC3    C7 4491   0.453   3.354  12.450  0.5042  0.5368 -0.6518
  294TMC3    C8 4492   0.052   3.153  12.328 -0.1961  0.2299 -0.6507
  294TMC3    O1 4493   0.522   3.394  12.545 -0.3964  0.0039 -0.1274
  294TMC3    O2 4494   0.018   3.039  12.354 -0.5472  0.2370 -0.3900
  295MPD2     C 4495   4.668   2.581   1.289  1.1444 -0.7426 -0.2365
  295MPD2    C1 4496   4.597   2.466   1.266 -0.6190 -0.1165 -0.4636
  295MPD2    C2 4497   4.494   2.431   1.357 -0.0799  0.3078 -0.0581
  295MPD2    C3 4498   4.459   2.513   1.456  0.0008  0.3016  0.2225
  295MPD2    C4 4499   4.530   2.623   1.481  0.3048  0.0815  0.5576
  295MPD2    C5 4500   4.629   2.658   1.398 -0.5101  0.4290  0.1497
  295MPD2     H 4501   4.430   2.346   1.340  1.2382 -0.5804 -0.6179
  295MPD2    H1 4502   4.504   2.687   1.565 -1.1363 -0.6850  0.7030
  295MPD2    H2 4503   0.010   2.621   1.226 -0.7296  1.2411 -1.3171
  295MPD2    H3 4504   4.676   2.754   1.419 -0.8086  0.2073  1.8019
  295MPD2     N 4505   4.349   2.491   1.547 -0.5305 -0.3498 -0.0018
  295MPD2    H5 4506   4.314   2.574   1.592 -0.2210 -2.0928  3.4726
  295MPD2    N1 4507   4.627   2.385   1.156 -0.2947 -0.4452 -0.3788
  295MPD2    H7 4508   4.590   2.290   1.146 -0.3909 -0.6277  1.7410
  296TMC3    C1 4509   4.160   2.402   1.637 -0.2895  0.2839 -0.2589
  296TMC3    C2 4510   4.162   2.496   1.741 -0.0118 -0.6296  0.5773
  296TMC3    C3 4511   4.061   2.490   1.832 -0.0382  0.0780  0.2902
  296TMC3    C4 4512   4.060   2.311   1.630  0.9445 -0.4149  0.0015
  296TMC3    C5 4513   3.967   2.309   1.729 -0.1389  0.1544 -0.6200
  296TMC3    C6 4514   3.961   2.404   1.824 -0.0253 -0.2528 -0.0294
  296TMC3     C 4515   4.261   2.387   1.538 -0.3483  0.6739  0.0577
  296TMC3     O 4516   4.262   2.281   1.479 -0.0742 -0.0933 -0.3210
  296TMC3     H 4517   4.256   2.547   1.753  1.3368 -2.6102 -1.6394
  296TMC3    H1 4518   4.064   2.249   1.541  1.6873 -1.3682  0.7204
  296TMC3    H2 4519   3.894   2.382   1.908 -2.0748 -1.8350 -2.0663
  296TMC3    C7 4520   3.859   2.205   1.730  0.0272  0.3519  0.1158
  296TMC3    C8 4521   4.048   2.594   1.934 -0.4904  0.4287 -0.0173
  296TMC3    O1 4522   3.754   2.232   1.784  0.1833 -0.3737 -0.0961
  296TMC3    O2 4523   3.969   2.577   2.025  0.6767 -0.5911  0.0063
  297MPD2     C 4524   2.518   4.453  16.630 -0.2371  0.4381  0.4388
  297MPD2    C1 4525   2.535   4.347  16.539 -0.4391 -0.4941  0.3195
  297MPD2    C2 4526   2.655   4.319  16.474  0.0331  0.5151  1.0107
  297MPD2    C3 4527   2.760   4.416  16.485  0.6933  0.1944  0.2005
  297MPD2    C4 4528   2.735   4.520  16.566  0.5612 -0.0983 -0.3827
  297MPD2    C5 4529   2.624   4.541  16.641 -0.4738 -0.7806 -0.3838
  297MPD2     H 4530   2.653   4.240  16.400  1.9100 -1.8648  3.4687
  297MPD2    H1 4531   2.809   4.598  16.582  0.4470  0.1759 -1.1990
  297MPD2    H2 4532   2.430   4.469  16.691 -0.8617 -1.3819 -0.0148
  297MPD2    H3 4533   2.620   4.641  16.682  0.2245 -1.4065  1.2037
  297MPD2     N 4534   2.880   4.418  16.406 -0.4339 -0.0861  0.0375
  297MPD2    H5 4535   2.932   4.505  16.404 -1.6338  0.6164 -0.9591
  297MPD2    N1 4536   2.420   4.267  16.507  0.1979 -0.1367  0.3091
  297MPD2    H7 4537   2.430   4.199  16.432 -0.3319  0.3506 -0.2112
  298TMC3    C1 4538   2.201   4.183  16.505  0.2295  0.5596  0.1324
  298TMC3    C2 4539   2.204   4.164  16.362 -0.3432  0.4018  0.0599
  298TMC3    C3 4540   2.093   4.122  16.296 -0.0518 -0.3990 -0.1256
  298TMC3    C4 4541   2.082   4.176  16.572  0.1832  0.4148 -0.2040
  298TMC3    C5 4542   1.974   4.135  16.496 -0.4679  0.7094 -0.3569
  298TMC3    C6 4543   1.979   4.102  16.362 -0.6189 -0.1737  1.0562
  298TMC3     C 4544   2.293   4.285  16.551  0.0700 -0.9574 -0.3161
  298TMC3     O 4545   2.243   4.367  16.627 -0.2814 -0.2558  0.2046
  298TMC3     H 4546   2.290   4.189  16.301 -0.6019 -0.0219 -0.4728
  298TMC3    H1 4547   2.090   4.202  16.677 -0.6226  0.1471 -0.0777
  298TMC3    H2 4548   1.893   4.076  16.301 -0.4712  1.0110  0.3432
  298TMC3    C7 4549   1.845   4.156  16.557 -0.3352  0.4906 -0.1979
  298TMC3    C8 4550   2.082   4.161  16.157 -0.3193 -0.8409  1.1355
  298TMC3    O1 4551   1.848   4.212  16.665 -0.1476  0.1902  0.2259
  298TMC3    O2 4552   1.983   4.232  16.126 -0.4812 -0.4865  0.3834
  299MPD2     C 4553   3.111   4.401   9.596 -0.5779 -0.1604 -1.1245
  299MPD2    C1 4554   3.147   4.344   9.719  0.2171  0.6158 -0.1522
  299MPD2    C2 4555   3.054   4.352   9.819 -0.5691 -0.0070 -0.3995
  299MPD2    C3 4556   2.944   4.437   9.801 -0.3043  0.2061  0.3422
  299MPD2    C4 4557   2.913   4.493   9.680 -0.1240  0.1778 -1.3979
  299MPD2    C5 4558   3.008   4.486   9.581  0.8610  0.2858  0.0065
  299MPD2     H 4559   3.068   4.318   9.921 -0.6781 -0.3766 -0.5082
  299MPD2    H1 4560   2.815   4.535   9.661  0.1214  1.6233  0.4708
  299MPD2    H2 4561   3.177   4.390   9.511  2.3476  1.0381  0.9961
  299MPD2    H3 4562   2.987   4.530   9.485 -0.0551 -2.6938 -1.1786
  299MPD2     N 4563   2.861   4.449   9.916  0.3528 -0.1452 -0.7420
  299MPD2    H5 4564   2.864   4.370   9.979 -0.3173  1.3696  1.1863
  299MPD2    N1 4565   3.263   4.270   9.723  0.7231  0.0986  0.5157
  299MPD2    H7 4566   3.329   4.276   9.647  0.4923  0.6871  0.3686
  300TMC3    C1 4567   2.704   4.535  10.056  0.0773 -0.5647 -0.7560
  300TMC3    C2 4568   2.694   4.644  10.136  0.0046  0.0993  0.6232
  300TMC3    C3 4569   2.648   4.629  10.261 -0.4874 -0.3608 -0.4385
  300TMC3    C4 4570   2.662   4.412  10.091 -0.0170 -0.5070  0.5968
  300TMC3    C5 4571   2.621   4.393  10.225 -0.0607  0.6979 -0.6951
  300TMC3    C6 4572   2.615   4.503  10.307  0.0923 -0.0873  0.3788
  300TMC3     C 4573   2.775   4.556   9.935 -0.5142 -0.4657 -0.0823
  300TMC3     O 4574   2.754   4.653   9.865  0.2239 -0.2103  0.5096
  300TMC3     H 4575   2.734   4.734  10.091  0.7411 -0.8681 -0.6904
  300TMC3    H1 4576   2.661   4.331  10.020  1.6789  0.6774 -0.8084
  300TMC3    H2 4577   2.597   4.493  10.413  1.1624 -1.8316  0.3994
  300TMC3    C7 4578   2.678   4.272  10.277 -0.2079  0.6259  0.0948
  300TMC3    C8 4579   2.712   4.712  10.356 -0.1196 -0.1449  0.6234
  300TMC3    O1 4580   2.734   4.193  10.199  0.1328  0.2301 -0.1224
  300TMC3    O2 4581   2.826   0.017  10.324 -0.2948  0.0266 -0.5847
  301MPD2     C 4582   4.569   0.097   1.458 -0.0226 -0.1642 -0.1494
  301MPD2    C1 4583   4.500   0.026   1.366 -0.0713 -0.4275 -0.2486
  301MPD2    C2 4584   4.537   4.632   1.337  0.0858 -0.4801 -0.1624
  301MPD2    C3 4585   4.636   4.572   1.414  0.2734  0.1130  0.2867
  301MPD2    C4 4586   4.694   4.636   1.514  0.1209 -0.3746 -0.9496
  301MPD2    C5 4587   4.668   0.031   1.535 -1.2670 -0.2373  0.4295
  301MPD2     H 4588   4.494   4.586   1.249 -0.2389  2.1823 -1.4225
  301MPD2    H1 4589   0.030   4.585   1.576 -0.3653 -0.7263 -0.6667
  301MPD2    H2 4590   4.553   0.204   1.467  0.9578 -0.1478  1.3323
  301MPD2    H3 4591   4.729   0.087   1.605  1.2224 -0.1991 -1.7925
  301MPD2     N 4592   4.666   4.437   1.405 -0.4599  0.7610 -0.0501
  301MPD2    H5 4593   0.005   4.406   1.465 -1.4548 -0.9575  0.3416
  301MPD2    N1 4594   4.394   0.080   1.288 -0.3414 -0.6653  0.9020
  301MPD2    H7 4595   4.345   0.016   1.225  0.7679 -0.7066  0.0697
  302TMC3    C1 4596   4.672   4.225   1.307  0.0794 -0.4338  0.0005
  302TMC3    C2 4597   0.014   4.162   1.400 -0.3384  0.5669 -0.3243
  302TMC3    C3 4598   0.078   4.044   1.354 -0.0240  0.3079 -0.3327
  302TMC3    C4 4599   4.666   4.181   1.181  1.0224  1.1577 -0.3655
  302TMC3    C5 4600   0.008   4.083   1.132 -0.0830  0.8051 -0.0707
  302TMC3    C6 4601   0.088   4.010   1.222 -0.2244 -0.9671 -0.1179
  302TMC3     C 4602   4.590   4.344   1.331 -0.2944 -0.0794  0.4849
  302TMC3     O 4603   4.491   4.353   1.259  0.5087  0.0812  0.0885
  302TMC3     H 4604   0.008   4.195   1.503  0.0003 -1.9087  0.4800
  302TMC3    H1 4605   4.592   4.220   1.111 -1.6715 -2.8150  0.2578
  302TMC3    H2 4606   0.133   3.913   1.209 -2.3775 -1.8673 -0.7792
  302TMC3    C7 4607   4.718   4.021   0.998 -0.3033  0.0643  0.4389
  302TMC3    C8 4608   0.105   3.944   1.453 -0.1329  0.8988 -0.3438
  302TMC3    O1 4609   0.030   3.909   0.979  0.6693 -0.4720 -0.3370
  302TMC3    O2 4610   0.176   3.852   1.426  0.2662  0.5682  0.0890
  303MPD2     C 4611   1.439   3.799  10.817  1.5080  0.0908 -0.9948
  303MPD2    C1 4612   1.353   3.702  10.774 -0.2465 -0.3632 -0.4626
  303MPD2    C2 4613   1.341   3.673  10.638  1.1996 -0.3395  0.2430
  303MPD2    C3 4614   1.422   3.745  10.546 -0.7028 -0.3000  0.3062
  303MPD2    C4 4615   1.513   3.840  10.602 -0.2245 -0.5520  0.0702
  303MPD2    C5 4616   1.523   3.861  10.733 -0.4395 -0.3042 -0.5285
  303MPD2     H 4617   1.269   3.597  10.611  0.6566  0.1629  0.2750
  303MPD2    H1 4618   1.593   3.882  10.542  0.6360 -0.9639  0.9227
  303MPD2    H2 4619   1.444   3.828  10.922  0.8981  0.6017 -1.1053
  303MPD2    H3 4620   1.595   3.933  10.768  1.4048 -1.8602 -1.1244
  303MPD2     N 4621   1.424   3.723  10.405  0.6004 -0.2531  0.0459
  303MPD2    H5 4622   1.501   3.752  10.345 -0.0428  1.2655 -0.0263
  303MPD2    N1 4623   1.265   3.648  10.868  0.2846 -0.3155  0.6553
  303MPD2    H7 4624   1.262   3.694  10.958  0.8439  0.0303  0.4986
  304TMC3    C1 4625   1.090   3.516  10.950  0.5526 -0.2741  0.2268
  304TMC3    C2 4626   1.001   3.615  10.954 -0.2904  0.3893 -0.1890
  304TMC3    C3 4627   0.870   3.601  10.999  0.3631  0.1012 -0.7668
  304TMC3    C4 4628   1.045   3.392  10.973  0.5060 -0.0405 -0.3609
  304TMC3    C5 4629   0.919   3.375  11.022 -0.4679  0.5942  0.3298
  304TMC3    C6 4630   0.836   3.481  11.047  0.2426 -0.3333  0.6910
  304TMC3     C 4631   1.195   3.530  10.851 -0.5721 -0.8156  0.5801
  304TMC3     O 4632   1.227   3.439  10.780 -0.4864 -0.5208  0.1183
  304TMC3     H 4633   1.029   3.713  10.917  0.4050  0.4634  0.5305
  304TMC3    H1 4634   1.102   3.304  10.946  1.3504  0.8009 -1.3398
  304TMC3    H2 4635   0.735   3.449  11.072  1.7406 -4.0034  2.0103
  304TMC3    C7 4636   0.846   3.275  10.945  0.1709 -0.1162 -0.1018
  304TMC3    C8 4637   0.777   3.677  10.912 -0.7279  0.0877 -0.0808
  304TMC3    O1 4638   0.741   3.311  10.901 -0.2386 -0.5870 -0.2100
  304TMC3    O2 4639   0.799   3.790  10.884 -0.4465 -0.4966  0.1479
  305MPD2     C 4640   3.419   0.728  13.735 -0.0371 -0.6780  0.9735
  305MPD2    C1 4641   3.434   0.600  13.783  0.6520  0.3014 -0.7851
  305MPD2    C2 4642   3.417   0.498  13.690 -0.5035 -0.0888  0.1115
  305MPD2    C3 4643   3.385   0.520  13.555  0.3719 -0.9102 -0.1832
  305MPD2    C4 4644   3.367   0.649  13.511  0.3748  0.1356 -0.7151
  305MPD2    C5 4645   3.387   0.747  13.601 -0.3753  0.1225  0.9625
  305MPD2     H 4646   3.441   0.401  13.731  0.0499  0.7121  1.6517
  305MPD2    H1 4647   3.337   0.667  13.409 -0.7298 -0.5268 -0.5146
  305MPD2    H2 4648   3.440   0.816  13.794  0.2525 -1.6570  2.3230
  305MPD2    H3 4649   3.387   0.848  13.562 -1.9989 -0.0958  0.4075
  305MPD2     N 4650   3.392   0.419  13.454 -0.5224  0.2796  0.1039
  305MPD2    H5 4651   3.392   0.444  13.355 -1.7879  4.8863  1.2716
  305MPD2    N1 4652   3.482   0.596  13.911  1.3287  0.2778 -0.3647
  305MPD2    H7 4653   3.489   0.683  13.964  0.0566  0.8568 -1.1491
  306TMC3    C1 4654   3.602   0.501  14.091  0.2398 -0.1723 -0.3849
  306TMC3    C2 4655   3.694   0.404  14.127 -0.9293 -0.4049 -0.1900
  306TMC3    C3 4656   3.778   0.431  14.233 -0.6080  0.4372 -0.2919
  306TMC3    C4 4657   3.578   0.611  14.170 -0.2416 -0.2020  1.1181
  306TMC3    C5 4658   3.648   0.622  14.289 -1.0479  0.3659 -0.6491
  306TMC3    C6 4659   3.752   0.538  14.313  0.3502 -0.3432 -0.1141
  306TMC3     C 4660   3.545   0.488  13.964 -0.2466  0.1979 -0.3851
  306TMC3     O 4661   3.569   0.376  13.912 -0.5965 -0.2063 -0.2186
  306TMC3     H 4662   3.716   0.321  14.061  2.5987  0.3834 -0.0206
  306TMC3    H1 4663   3.504   0.690  14.156  0.9352  0.8150  0.6033
  306TMC3    H2 4664   3.804   0.544  14.408 -1.1027 -0.1539  0.6854
  306TMC3    C7 4665   3.597   0.714  14.389 -0.0292 -0.3794  0.5047
  306TMC3    C8 4666   3.918   0.390  14.215 -0.0922  0.0451 -0.3679
  306TMC3    O1 4667   3.484   0.759  14.385 -0.0914 -0.1465  0.3844
  306TMC3    O2 4668   3.948   0.335  14.110  0.3736 -0.0147 -0.3312
  307MPD2     C 4669   1.626   3.526   0.499 -0.6864 -0.8903  1.3881
  307MPD2    C1 4670   1.524   3.603   0.546  0.1523 -0.2458 -0.2856
  307MPD2    C2 4671   1.420   3.533   0.608 -0.3917 -0.4400 -0.6633
  307MPD2    C3 4672   1.437   3.394   0.633  0.3640 -0.2431  0.0730
  307MPD2    C4 4673   1.546   3.325   0.598 -0.5818  0.5064  0.1488
  307MPD2    C5 4674   1.640   3.391   0.532  0.6378  0.1433 -0.1642
  307MPD2     H 4675   1.328   3.584   0.635  0.2317  0.0834  0.4417
  307MPD2    H1 4676   1.560   3.220   0.621  2.3209  0.8586 -0.0596
  307MPD2    H2 4677   1.699   3.569   0.432 -2.8537 -0.8817 -0.9677
  307MPD2    H3 4678   1.728   3.338   0.496 -0.6266 -2.0140 -0.0998
  307MPD2     N 4679   1.328   3.332   0.699 -0.0872  0.3186 -0.0532
  307MPD2    H5 4680   1.256   3.393   0.737 -2.4663 -2.9465  0.6949
  307MPD2    N1 4681   1.501   3.736   0.505  0.8723  0.8886 -0.3172
  307MPD2    H7 4682   1.408   3.767   0.532  0.2820  0.8347 -2.2548
  308TMC3    C1 4683   1.012   3.028   0.812  0.4169 -0.6154 -0.4765
  308TMC3    C2 4684   0.980   3.083   0.933 -0.4326 -0.4943 -0.8905
  308TMC3    C3 4685   1.061   3.188   0.973 -0.0929 -0.2649  0.2538
  308TMC3    C4 4686   1.123   3.062   0.746  0.4814  0.2940 -0.6478
  308TMC3    C5 4687   1.200   3.162   0.801 -0.3323  0.2587 -0.1934
  308TMC3    C6 4688   1.166   3.236   0.910 -0.0000 -0.6869  0.0487
  308TMC3     C 4689   0.899   2.989   0.727 -0.3511  0.3263 -1.1127
  308TMC3     O 4690   0.932   2.939   0.623  0.2316 -0.3321 -0.1146
  308TMC3     H 4691   0.892   3.062   0.992  1.0060 -2.3841  0.5878
  308TMC3    H1 4692   1.162   2.998   0.668  1.0330 -0.6086  0.3628
  308TMC3    H2 4693   1.243   3.301   0.952  1.7183 -0.6938 -3.0839
  308TMC3    C7 4694   1.318   3.196   0.714  0.0565  1.4911 -0.6382
  308TMC3    C8 4695   1.005   3.254   1.082  0.2295  0.8657  1.0183
  308TMC3    O1 4696   1.367   3.099   0.656 -0.0010  0.7697  0.1255
  308TMC3    O2 4697   0.952   3.181   1.162  0.2172 -0.1325  0.3782
  309MPD2     C 4698   0.486   3.657  17.516  0.6843 -0.0428  0.9237
  309MPD2    C1 4699   0.412   3.676  17.400  0.3342  0.1666  0.1074
  309MPD2    C2 4700   0.278   3.701  17.401 -0.5770 -0.1969  0.7375
  309MPD2    C3 4701   0.207   3.690  17.522  0.2758 -0.1588 -0.5044
  309MPD2    C4 4702   0.278   3.669  17.635 -0.3533 -0.4596 -0.0668
  309MPD2    C5 4703   0.416   3.646  17.635  0.1183  0.2428 -0.1839
  309MPD2     H 4704   0.216   3.701  17.313  1.7757  1.0141 -0.9176
  309MPD2    H1 4705   0.231   3.671  17.732 -0.5410  1.3234 -0.1946
  309MPD2    H2 4706   0.590   3.626  17.519  0.6215 -0.0581  3.3578
  309MPD2    H3 4707   0.464   3.628  17.730 -0.4414  0.7273  0.1876
  309MPD2     N 4708   0.069   3.711  17.541  0.4302 -0.2402  0.9984
  309MPD2    H5 4709   0.019   3.672  17.620 -0.1645  2.5246  1.9850
  309MPD2    N1 4710   0.478   3.681  17.273  0.7122  0.0572 -0.2065
  309MPD2    H7 4711   0.422   3.694  17.190 -0.3766  0.1343  0.5351
  310TMC3    C1 4712   0.641   3.632  17.111 -0.1290 -0.5598 -0.4762
  310TMC3    C2 4713   0.553   3.665  17.016 -0.5125  0.4186  0.3973
  310TMC3    C3 4714   0.578   3.620  16.888  0.6058  0.0158  0.6054
  310TMC3    C4 4715   0.748   3.538  17.096  0.1930  0.2899 -0.0130
  310TMC3    C5 4716   0.754   3.480  16.972  0.3512  0.8633  0.7198
  310TMC3    C6 4717   0.677   3.519  16.871  0.8849 -0.6671 -0.2797
  310TMC3     C 4718   0.612   3.655  17.252  0.3005  0.5357 -0.4769
  310TMC3     O 4719   0.708   3.660  17.332 -0.3907 -0.0936  0.0826
  310TMC3     H 4720   0.483   3.747  17.028 -0.5658  0.5306 -0.6431
  310TMC3    H1 4721   0.797   3.496  17.184  1.0682  2.2316  0.4347
  310TMC3    H2 4722   0.678   3.467  16.775  1.4823  1.1742 -1.2784
  310TMC3    C7 4723   0.837   3.362  16.945 -0.2587  0.4376  0.5204
  310TMC3    C8 4724   0.498   3.648  16.763  0.0392 -0.1710  0.2883
  310TMC3    O1 4725   0.798   3.295  16.850  0.5630  0.2368 -0.7177
  310TMC3    O2 4726   0.549   3.611  16.658 -0.3634  0.6243  0.0325
  311MPD2     C 4727   2.965   0.233  12.375  0.0514 -0.4640 -0.0720
  311MPD2    C1 4728   3.020   0.234  12.501  0.5986 -0.1422  1.2397
  311MPD2    C2 4729   2.938   0.208  12.607 -0.1175  0.1000  0.4448
  311MPD2    C3 4730   2.804   0.175  12.590 -0.5566 -0.2146  0.2225
  311MPD2    C4 4731   2.752   0.184  12.466 -0.7245  0.4007  0.0978
  311MPD2    C5 4732   2.831   0.210  12.357 -0.4223  0.2238  0.7691
  311MPD2     H 4733   2.982   0.202  12.706  2.2522 -1.4213 -0.7124
  311MPD2    H1 4734   2.648   0.165  12.442 -0.5870  1.4322 -1.3213
  311MPD2    H2 4735   3.025   0.253  12.287 -0.5148  0.3823 -0.2675
  311MPD2    H3 4736   2.785   0.205  12.259  0.9010  0.0457  0.1589
  311MPD2     N 4737   2.736   0.127  12.704 -0.1358  0.7535 -0.2679
  311MPD2    H5 4738   2.791   0.115  12.788  0.4783  0.8080 -0.6678
  311MPD2    N1 4739   3.156   0.272  12.523 -0.2043  0.3377 -0.1023
  311MPD2    H7 4740   3.180   0.304  12.616  1.4336 -1.2503  0.0204
  312TMC3    C1 4741   2.549   0.063  12.842  0.3537  0.0430  0.0694
  312TMC3    C2 4742   2.418   0.013  12.850  0.2739 -0.0907 -0.4407
  312TMC3    C3 4743   2.376   4.699  12.972 -0.0661  0.8537  0.5641
  312TMC3    C4 4744   2.628   0.063  12.954 -0.3895  0.0729 -0.3202
  312TMC3    C5 4745   2.585   0.025  13.076  0.3419  0.6881  0.7207
  312TMC3    C6 4746   2.463   4.699  13.088  0.7634 -0.1894  0.0564
  312TMC3     C 4747   2.602   0.105  12.711  0.5087  0.7316 -0.2824
  312TMC3     O 4748   2.526   0.118  12.615 -0.1745 -0.2652  0.2379
  312TMC3     H 4749   2.361   0.009  12.758 -1.7954 -0.9181  0.8878
  312TMC3    H1 4750   2.708   0.136  12.955 -0.7438  0.4582  0.0896
  312TMC3    H2 4751   2.439   4.646  13.180  1.3734  0.3064  0.4971
  312TMC3    C7 4752   2.700   4.714  13.152 -0.7238  0.0030  0.1720
  312TMC3    C8 4753   2.238   4.671  12.996  0.0997 -0.0355  0.2156
  312TMC3    O1 4754   2.801   4.697  13.090  0.2191 -0.9100 -0.2977
  312TMC3    O2 4755   2.205   4.675  13.116 -0.1176 -0.2461  0.3770
  313MPD2     C 4756   2.007   0.261  11.495 -0.0477 -0.1717 -0.9119
  313MPD2    C1 4757   2.078   0.237  11.383 -0.0229  0.3309  1.2461
  313MPD2    C2 4758   2.097   0.107  11.334 -0.3438 -0.5841  0.2749
  313MPD2    C3 4759   2.032   0.003  11.391  0.8794  0.7359  0.0382
  313MPD2    C4 4760   1.947   0.033  11.502 -0.3739 -0.1936  0.3889
  313MPD2    C5 4761   1.924   0.156  11.540  0.2140 -0.1019 -0.3790
  313MPD2     H 4762   2.141   0.100  11.235  0.8484 -0.1475  0.7845
  313MPD2    H1 4763   1.878   4.694  11.537 -0.8062 -0.6653 -1.5134
  313MPD2    H2 4764   1.994   0.358  11.540  0.2871 -0.7686  0.4794
  313MPD2    H3 4765   1.849   0.176  11.617  0.2610 -1.8542  0.1168
  313MPD2     N 4766   2.045   4.619  11.325  0.4576  0.6145  0.4689
  313MPD2    H5 4767   2.083   4.618  11.232  1.5899 -0.6897  0.9402
  313MPD2    N1 4768   2.150   0.339  11.323  0.2753  0.3421 -0.0968
  313MPD2    H7 4769   2.191   0.316  11.233  1.8142 -0.6464  0.8382
  314TMC3    C1 4770   2.214   0.555  11.279 -0.2883  0.6438 -0.2767
  314TMC3    C2 4771   2.324   0.635  11.293 -0.0200 -0.1076  0.1453
  314TMC3    C3 4772   2.361   0.706  11.184 -0.4999 -0.0006 -0.0827
  314TMC3    C4 4773   2.141   0.552  11.165  0.4496 -0.0409  0.3988
  314TMC3    C5 4774   2.196   0.608  11.056 -0.1836  0.7353  0.6247
  314TMC3    C6 4775   2.305   0.684  11.060 -0.6135  0.2996  0.9543
  314TMC3     C 4776   2.193   0.453  11.380 -0.3975 -0.7384 -0.3522
  314TMC3     O 4777   2.223   0.482  11.495  0.3322  0.2003 -0.5995
  314TMC3     H 4778   2.367   0.643  11.392 -0.5003 -2.0743  0.5145
  314TMC3    H1 4779   2.047   0.499  11.154  0.0934 -0.0594  3.5689
  314TMC3    H2 4780   2.343   0.741  10.976 -2.6213  1.2563  0.7018
  314TMC3    C7 4781   2.167   0.524  10.942  0.1557  0.1478 -0.0398
  314TMC3    C8 4782   2.492   0.766  11.179  0.0663  0.0411 -0.4762
  314TMC3    O1 4783   2.067   0.455  10.936 -0.1583 -0.1426  0.2657
  314TMC3    O2 4784   2.519   0.824  11.078 -0.2573  0.4972 -0.8429
  315MPD2     C 4785   1.456   3.271  17.190  0.3811  0.4697  0.8794
  315MPD2    C1 4786   1.485   3.246  17.326  0.5592 -0.1559 -0.4634
  315MPD2    C2 4787   1.461   3.349  17.415 -0.2686  0.1261 -0.2395
  315MPD2    C3 4788   1.400   3.470  17.373  0.0051  0.0431 -0.5176
  315MPD2    C4 4789   1.360   3.483  17.244 -0.7729 -0.0994  0.7235
  315MPD2    C5 4790   1.389   3.385  17.156  0.8506  0.0341  0.6684
  315MPD2     H 4791   1.501   3.333  17.514  1.6329  1.3328 -0.8067
  315MPD2    H1 4792   1.329   3.581  17.211 -0.9080  0.1931  1.7226
  315MPD2    H2 4793   1.479   3.202  17.109  0.1315  0.5163  0.7666
  315MPD2    H3 4794   1.358   3.407  17.055  3.5691 -1.1665 -0.4328
  315MPD2     N 4795   1.395   3.572  17.469 -1.2696 -0.0192 -0.3401
  315MPD2    H5 4796   1.444   3.552  17.555 -2.8113  0.5641  0.6733
  315MPD2    N1 4797   1.539   3.125  17.384  0.5388  0.5131  0.1118
  315MPD2    H7 4798   1.562   3.133  17.483  1.0207 -1.5613  0.1694
  316TMC3    C1 4799   1.371   3.784  17.558 -0.1083  0.6899 -0.2168
  316TMC3    C2 4800   1.500   3.776  17.626 -0.1520 -0.0537 -0.6125
  316TMC3    C3 4801   1.505   3.826   0.004  0.0961  0.3201  0.4824
  316TMC3    C4 4802   1.268   3.860  17.609 -0.0003  0.5947  0.6121
  316TMC3    C5 4803   1.288   3.921  17.725  0.6143  0.3087  0.8537
  316TMC3    C6 4804   1.402   3.903   0.048  0.2383 -0.1648 -0.8188
  316TMC3     C 4805   1.343   3.698  17.446 -0.1641  0.3912 -0.1789
  316TMC3     O 4806   1.273   3.740  17.359  0.1321  0.3689 -0.2679
  316TMC3     H 4807   1.586   3.735  17.575  0.0167  0.9290 -1.1230
  316TMC3    H1 4808   1.172   3.856  17.558  1.1329 -0.7494 -1.4277
  316TMC3    H2 4809   1.417   3.955   0.142  3.6449 -0.9170 -0.9544
  316TMC3    C7 4810   1.234   4.050  17.743  0.3178  0.2640  0.0898
  316TMC3    C8 4811   1.636   3.849   0.060  0.3214  0.0369  0.6274
  316TMC3    O1 4812   1.206   4.093   0.107 -0.2616 -0.6897  0.3827
  316TMC3    O2 4813   1.660   3.962   0.103  0.2676  0.0722  0.1082
  317MPD2     C 4814   3.831   2.404  12.826 -0.1499  0.4314 -0.2266
  317MPD2    C1 4815   3.872   2.284  12.769  0.3210  0.6503 -0.0868
  317MPD2    C2 4816   3.974   2.212  12.825 -0.0939  0.6474  0.1594
  317MPD2    C3 4817   4.033   2.252  12.943 -0.2810  0.8110 -0.2805
  317MPD2    C4 4818   4.003   2.379  12.991 -0.3602  0.9750 -0.8267
  317MPD2    C5 4819   3.901   2.453  12.940 -0.2131 -0.5492 -0.2569
  317MPD2     H 4820   4.003   2.119  12.778 -3.0772 -0.5872  0.7871
  317MPD2    H1 4821   4.053   2.430  13.072 -0.2275  0.0586 -0.3223
  317MPD2    H2 4822   3.740   2.456  12.801  0.6373  1.2884 -1.3375
  317MPD2    H3 4823   3.876   2.549  12.982  0.2898 -0.3313 -0.4615
  317MPD2     N 4824   4.135   2.181  12.999  0.1683 -0.0582  0.3716
  317MPD2    H5 4825   4.160   2.094  12.953 -1.9111 -1.2742  1.4926
  317MPD2    N1 4826   3.815   2.236  12.646  0.4301 -0.0637 -0.2962
  317MPD2    H7 4827   3.841   2.142  12.618  3.4848  0.3848  0.9347
  318TMC3    C1 4828   4.319   2.108  13.118  0.4703  0.1854  0.0051
  318TMC3    C2 4829   4.305   1.985  13.062  0.6525  0.2783  0.2614
  318TMC3    C3 4830   4.378   1.882  13.110 -0.0602  0.2071 -0.5776
  318TMC3    C4 4831   4.415   2.140  13.211  0.0785  0.1982 -0.2361
  318TMC3    C5 4832   4.503   2.040  13.246 -0.4303  0.2262  0.6281
  318TMC3    C6 4833   4.484   1.911  13.189 -0.3273 -0.6799 -0.8165
  318TMC3     C 4834   4.216   2.210  13.104  0.9098 -0.7997 -0.8682
  318TMC3     O 4835   4.198   2.294  13.197  0.1623  0.1485 -0.3153
  318TMC3     H 4836   4.246   1.971  12.972  3.6955 -3.5131 -1.1305
  318TMC3    H1 4837   4.411   2.229  13.273 -2.0105  1.7933 -2.6627
  318TMC3    H2 4838   4.550   1.829  13.215 -0.3962 -1.1088 -1.9957
  318TMC3    C7 4839   4.582   2.060  13.364  0.3248 -0.2350 -0.3043
  318TMC3    C8 4840   4.378   1.760  13.029  0.2655  0.9587  0.5831
  318TMC3    O1 4841   4.587   2.171  13.413 -0.1413 -0.0515 -0.2534
  318TMC3    O2 4842   4.481   1.712  12.988  0.6090 -0.5582  0.1429
  319MPD2     C 4843   4.025   3.268  16.790 -0.3578 -0.0691 -0.5546
  319MPD2    C1 4844   4.029   3.142  16.848  0.7098  0.8363 -0.0266
  319MPD2    C2 4845   3.994   3.038  16.764 -0.5745  0.2140 -1.0353
  319MPD2    C3 4846   3.943   3.063  16.638 -0.5250 -0.4565 -0.0388
  319MPD2    C4 4847   3.937   3.188  16.585 -0.1939 -0.6614 -0.7068
  319MPD2    C5 4848   3.987   3.289  16.659  1.0064 -0.4649 -0.4808
  319MPD2     H 4849   3.995   2.936  16.801  1.9569  0.7120  0.2561
  319MPD2    H1 4850   3.906   3.200  16.482 -1.7016 -1.7911 -0.3819
  319MPD2    H2 4851   4.043   3.355  16.852 -0.1273  1.0850 -2.2458
  319MPD2    H3 4852   3.991   3.390  16.619  1.6575 -0.3324 -0.0817
  319MPD2     N 4853   3.906   2.954  16.562 -0.2594  0.3767  0.1678
  319MPD2    H5 4854   3.872   2.977  16.470 -1.4623  1.9271  0.9972
  319MPD2    N1 4855   4.070   3.110  16.977 -0.0514 -0.6296  0.2871
  319MPD2    H7 4856   4.075   3.011  16.998  0.7143 -0.7082 -0.2728
  320TMC3    C1 4857   3.876   2.744  16.477 -0.3152 -0.3460 -0.4959
  320TMC3    C2 4858   3.766   2.667  16.467 -0.5628 -0.2472 -1.1337
  320TMC3    C3 4859   3.725   2.635  16.342  0.1192 -0.2615  0.6458
  320TMC3    C4 4860   3.954   2.778  16.372  0.1110 -0.0689 -0.1848
  320TMC3    C5 4861   3.916   2.734  16.246  0.1311 -0.1435  0.1572
  320TMC3    C6 4862   3.801   2.665  16.233  0.2970  0.1645 -0.7130
  320TMC3     C 4863   3.891   2.823  16.596 -0.9368  0.7315  0.0449
  320TMC3     O 4864   3.928   2.761  16.696  0.9670 -0.5051 -0.1984
  320TMC3     H 4865   3.692   2.674  16.546  0.8704 -1.6937  0.3476
  320TMC3    H1 4866   4.044   2.836  16.394 -1.8500  3.8293 -2.4333
  320TMC3    H2 4867   3.762   2.640  16.135  0.3612 -1.0191 -0.4321
  320TMC3    C7 4868   4.004   2.756  16.133 -1.0406 -0.5484 -0.5660
  320TMC3    C8 4869   3.585   2.665  16.316  0.0844  0.2755  0.2672
  320TMC3    O1 4870   3.966   2.702  16.027  0.9296 -0.2705 -0.3496
  320TMC3    O2 4871   3.503   2.623  16.392 -0.4557 -0.2269 -0.0380
  321TMC3    C1 4872   4.152   3.122  17.193 -0.3511 -1.0886 -0.3024
  321TMC3    C2 4873   4.087   3.002  17.227 -0.1443  0.3569 -0.3241
  321TMC3    C3 4874   4.111   2.946  17.352 -0.3814  0.3389  0.7767
  321TMC3    C4 4875   4.235   3.188  17.283 -0.0675 -0.8776  0.6275
  321TMC3    C5 4876   4.247   3.128  17.407  0.0284 -0.6098  0.0779
  321TMC3    C6 4877   4.185   3.014  17.444 -0.4619  0.0807  0.0504
  321TMC3     C 4878   4.108   3.193  17.072  0.5679 -0.2658  0.4878
  321TMC3     O 4879   4.136   3.311  17.069  0.1807 -0.2729  0.0216
  321TMC3     H 4880   4.028   2.952  17.150 -2.9850  0.8268  1.5627
  321TMC3    H1 4881   4.294   3.276  17.258 -2.9772  0.5545 -1.2881
  321TMC3    H2 4882   4.190   2.980  17.547  0.0005 -1.2276 -0.4022
  321TMC3    C7 4883   4.389   3.116  17.451  0.0816 -0.0755  0.4626
  321TMC3    C8 4884   4.136   2.808  17.361  1.0481  0.3341  0.3824
  321TMC3    O1 4885   4.406   3.003  17.502 -0.1804  0.2291  0.4228
  321TMC3    O2 4886   4.066   2.737  17.289  0.1073 -0.3413  0.2939
  322MPD2     C 4887   3.795   4.322  13.024 -0.2665 -0.4594 -0.3005
  322MPD2    C1 4888   3.784   4.293  13.158 -0.8253 -0.0499 -0.7947
  322MPD2    C2 4889   3.767   4.162  13.196 -0.6837  0.8363 -0.6139
  322MPD2    C3 4890   3.776   4.059  13.106 -0.4353 -0.0764 -0.1354
  322MPD2    C4 4891   3.791   4.094  12.974  0.4841 -0.0444 -0.2668
  322MPD2    C5 4892   3.801   4.223  12.931  0.1501 -0.4303 -0.4464
  322MPD2     H 4893   3.763   4.143  13.303  0.3333 -2.9494 -1.2543
  322MPD2    H1 4894   3.798   4.012  12.904 -2.6634 -0.6637  0.1383
  322MPD2    H2 4895   3.797   4.421  12.981  0.2557 -0.4143 -0.1655
  322MPD2    H3 4896   3.804   4.246  12.825  2.8012  2.3827  0.2633
  322MPD2     N 4897   3.757   3.925  13.152 -0.4112  0.2152 -0.3156
  322MPD2    H5 4898   3.744   3.902  13.250 -2.2898  1.6857 -0.2444
  322MPD2    N1 4899   3.789   4.404  13.248  0.8426  0.3951  0.5781
  322MPD2    H7 4900   3.817   4.492  13.207  0.6219 -0.7102 -1.9735
  323TMC3    C1 4901   3.813   4.504  13.465  0.0869 -0.1668  0.2321
  323TMC3    C2 4902   3.927   4.576  13.446 -1.5955 -0.3450  0.1465
  323TMC3    C3 4903   3.962   4.681  13.526 -0.3285  0.3199  0.0138
  323TMC3    C4 4904   3.745   4.521  13.579 -0.3472 -0.0264  0.1392
  323TMC3    C5 4905   3.795   4.612  13.671 -0.3698 -0.1226  0.6455
  323TMC3    C6 4906   3.898   4.698  13.646 -0.8304  0.9146 -0.8476
  323TMC3     C 4907   3.775   4.390  13.386 -0.6742 -0.4751  0.0018
  323TMC3     O 4908   3.719   4.303  13.454 -0.0911  0.1500 -0.3676
  323TMC3     H 4909   3.973   4.571  13.348 -1.6591 -1.2168  0.1581
  323TMC3    H1 4910   3.652   4.471  13.603 -0.1793  0.0061  0.8605
  323TMC3    H2 4911   3.936   0.035  13.716  1.5378  0.9142 -2.1311
  323TMC3    C7 4912   3.759   4.578  13.804  0.2317  0.3980  0.7664
  323TMC3    C8 4913   4.092   0.003  13.509  0.3936  0.5571  0.1301
  323TMC3    O1 4914   3.693   4.472  13.823  0.4259  0.1441 -0.2986
  323TMC3    O2 4915   4.096   0.118  13.550  0.2580  0.1334 -0.2022
  324MPD2     C 4916   0.926   1.134  14.488 -0.3788 -0.4201  0.3792
  324MPD2    C1 4917   0.952   1.243  14.564 -0.0826  0.2643 -0.1764
  324MPD2    C2 4918   0.845   1.337  14.584  0.5983 -0.5093  0.8194
  324MPD2    C3 4919   0.723   1.307  14.532 -0.5612 -0.4308 -0.3563
  324MPD2    C4 4920   0.700   1.199  14.456  0.7705 -0.5390 -0.3416
  324MPD2    C5 4921   0.805   1.121  14.426  0.2673 -0.0688 -0.3217
  324MPD2     H 4922   0.851   1.417  14.656  1.7073 -0.2661  0.4498
  324MPD2    H1 4923   0.603   1.170  14.418  1.4121  0.1870 -2.5394
  324MPD2    H2 4924   0.995   1.055  14.462  1.2347  1.7802 -2.0550
  324MPD2    H3 4925   0.787   1.037  14.360 -2.1392  1.7009 -1.8973
  324MPD2     N 4926   0.609   1.380  14.563  0.1172  0.3500  0.1704
  324MPD2    H5 4927   0.518   1.350  14.532  1.3016 -2.6316 -0.3999
  324MPD2    N1 4928   1.087   1.262  14.608 -0.5663 -0.1347  0.0016
  324MPD2    H7 4929   1.155   1.187  14.595 -1.1328 -0.9772  1.9668
  325TMC3    C1 4930   0.467   1.529  14.658  0.4055  0.1280  0.0976
  325TMC3    C2 4931   0.385   1.424  14.671 -0.1646 -0.1404 -0.3731
  325TMC3    C3 4932   0.248   1.445  14.666 -0.5308 -0.1189 -0.7210
  325TMC3    C4 4933   0.411   1.652  14.639 -0.3301 -0.0721 -0.3193
  325TMC3    C5 4934   0.275   1.673  14.631  0.0287 -0.7543 -0.7269
  325TMC3    C6 4935   0.188   1.570  14.653  0.7347 -1.0277 -0.5345
  325TMC3     C 4936   0.603   1.502  14.619  0.0058 -0.3720 -0.0279
  325TMC3     O 4937   0.693   1.581  14.635 -0.0026 -0.2925 -0.3264
  325TMC3     H 4938   0.426   1.327  14.696  0.1180  0.4045  1.2678
  325TMC3    H1 4939   0.481   1.734  14.627  0.0644 -0.4587 -0.6520
  325TMC3    H2 4940   0.081   1.583  14.653  0.5164 -2.7095  1.6564
  325TMC3    C7 4941   0.229   1.798  14.571 -0.3393  1.0903  0.0421
  325TMC3    C8 4942   0.164   1.328  14.658 -0.6006 -0.3318 -1.0355
  325TMC3    O1 4943   0.311   1.889  14.555  0.0496 -0.3739  0.0484
  325TMC3    O2 4944   0.225   1.226  14.624 -0.5298  0.5562 -0.0105
  326MPD2     C 4945   2.115   2.052  11.235 -0.2292 -0.0092 -0.2763
  326MPD2    C1 4946   2.167   2.112  11.120 -0.0356 -0.1476  0.0647
  326MPD2    C2 4947   2.275   2.197  11.130  0.1059  0.2980  0.6100
  326MPD2    C3 4948   2.330   2.237  11.247 -0.2357  0.1074 -0.7137
  326MPD2    C4 4949   2.277   2.180  11.360  0.3254  0.1044 -0.2264
  326MPD2    C5 4950   2.174   2.088  11.351 -0.2466  0.1793 -0.2393
  326MPD2     H 4951   2.307   2.244  11.037 -4.5720  0.7955 -0.7292
  326MPD2    H1 4952   2.313   2.216  11.456  2.0027 -2.6829  0.1947
  326MPD2    H2 4953   2.037   1.977  11.239 -0.2369  0.2330  3.5066
  326MPD2    H3 4954   2.131   2.043  11.439 -1.6032 -0.1108 -1.0530
  326MPD2     N 4955   2.424   2.338  11.265  0.2444  0.0357 -0.0442
  326MPD2    H5 4956   2.459   2.359  11.358  0.2657 -0.6793  0.1120
  326MPD2    N1 4957   2.114   2.096  10.994 -0.0814  0.4345  0.2369
  326MPD2    H7 4958   2.167   2.134  10.916 -0.1844 -3.5650 -1.7816
  327TMC3    C1 4959   1.965   2.035  10.828  0.3520  0.0475 -0.3815
  327TMC3    C2 4960   1.887   2.140  10.795 -0.0040  0.9191  0.0956
  327TMC3    C3 4961   1.929   2.207  10.681 -0.7927  0.8694 -0.3521
  327TMC3    C4 4962   2.077   2.002  10.763  0.7146 -0.6978 -0.1878
  327TMC3    C5 4963   2.113   2.061  10.646  0.9077 -0.5573  0.3083
  327TMC3    C6 4964   2.036   2.164  10.601  0.3979  0.1263 -0.4125
  327TMC3     C 4965   1.988   2.041  10.967  0.3908  0.2955 -0.2880
  327TMC3     O 4966   1.896   2.008  11.042  0.3083  0.6423 -0.0142
  327TMC3     H 4967   1.811   2.171  10.866 -0.4093  1.0892 -0.4066
  327TMC3    H1 4968   2.127   1.916  10.805  2.5099  0.5690  0.2704
  327TMC3    H2 4969   2.070   2.233  10.525 -1.1275  1.1151 -0.2051
  327TMC3    C7 4970   2.256   2.078  10.626  0.5129  0.8023  0.2103
  327TMC3    C8 4971   1.893   2.348  10.661 -0.0333  0.1671 -0.4687
  327TMC3    O1 4972   2.286   2.172  10.554  0.0761  0.1178 -0.3521
  327TMC3    O2 4973   1.966   2.417  10.583  0.1638 -0.0655 -0.3686
  328MPD2     C 4974   3.819   1.707  17.045  0.4793  0.2396  0.4527
  328MPD2    C1 4975   3.794   1.677  16.914 -0.5266  1.1559  0.7200
  328MPD2    C2 4976   3.744   1.779  16.839  0.0946  0.0546 -0.6844
  328MPD2    C3 4977   3.725   1.907  16.891  0.2563 -0.0230 -0.0560
  328MPD2    C4 4978   3.758   1.929  17.022  0.0911  0.0534  0.0113
  328MPD2    C5 4979   3.797   1.828  17.098  0.1513 -0.7820  0.4249
  328MPD2     H 4980   3.717   1.766  16.735 -2.5295  0.9665 -0.1063
  328MPD2    H1 4981   3.731   2.017  17.078 -0.7684  0.5038 -1.1107
  328MPD2    H2 4982   3.861   1.627  17.105  0.0173 -0.8907 -0.7143
  328MPD2    H3 4983   3.826   1.848  17.201  1.1179 -0.6032  0.1159
  328MPD2     N 4984   3.669   2.016  16.816 -0.4965 -0.6038 -0.0950
  328MPD2    H5 4985   3.659   2.103  16.868  0.5941 -0.1302 -0.6794
  328MPD2    N1 4986   3.813   1.544  16.873  0.2210 -0.1442  0.2783
  328MPD2    H7 4987   3.823   1.474  16.945 -2.4918  0.4809  1.2885
  329TMC3    C1 4988   3.814   1.360  16.726  0.0472 -0.2120 -0.3181
  329TMC3    C2 4989   3.796   1.273  16.832  0.2033 -0.2730  0.5796
  329TMC3    C3 4990   3.833   1.135  16.813 -0.6445 -0.6734 -0.4642
  329TMC3    C4 4991   3.867   1.317  16.605 -0.5886  0.5611 -0.0174
  329TMC3    C5 4992   3.904   1.184  16.589 -0.3514  0.3370 -0.1792
  329TMC3    C6 4993   3.893   1.101  16.691 -0.1408 -0.2979 -0.2432
  329TMC3     C 4994   3.806   1.506  16.746  0.1530  0.1304  0.6286
  329TMC3     O 4995   3.786   1.565  16.637 -0.2621  0.1176 -0.4506
  329TMC3     H 4996   3.746   1.300  16.924 -1.1631 -0.2780 -0.1509
  329TMC3    H1 4997   3.876   1.375  16.513  1.7478  1.2022  0.6068
  329TMC3    H2 4998   3.917   0.996  16.675  0.6451 -0.4975  2.2066
  329TMC3    C7 4999   3.990   1.138  16.479  0.3582 -0.1060  0.0612
  329TMC3    C8 5000   3.831   1.035  16.918 -0.1684 -0.9436 -0.3409
  329TMC3    O1 5001   3.981   1.022  16.453 -0.1005 -0.9461  0.4146
  329TMC3    O2 5002   3.862   0.917  16.883  0.7494 -0.3305  0.0277
  330TMC3    C1 5003   2.538   2.006   9.499  0.2502 -0.0168 -0.1653
  330TMC3    C2 5004   2.435   1.915   9.449 -0.2922  0.1399 -0.4626
  330TMC3    C3 5005   2.460   1.782   9.477  0.7769  0.1486 -0.6246
  330TMC3    C4 5006   2.655   1.961   9.536 -0.0340 -0.2502  0.4448
  330TMC3    C5 5007   2.679   1.830   9.548  0.1256  0.0371  0.2794
  330TMC3    C6 5008   2.583   1.740   9.526  0.0827 -0.2752  0.5339
  330TMC3     C 5009   2.539   2.149   9.456  0.0583  0.8944  0.0503
  330TMC3     O 5010   2.648   2.211   9.449 -0.3952  0.0573  0.1205
  330TMC3     H 5011   2.342   1.958   9.414 -1.9643 -2.1267  1.2495
  330TMC3    H1 5012   2.730   2.029   9.577 -0.0702  0.7808 -1.2029
  330TMC3    H2 5013   2.613   1.636   9.532  0.6052 -0.1784 -0.3639
  330TMC3    C7 5014   2.810   1.777   9.591  0.7046 -0.0759 -0.2232
  330TMC3    C8 5015   2.365   1.693   9.420 -0.3718  0.3747  0.5920
  330TMC3    O1 5016   2.907   1.841   9.541 -0.3914 -0.0605 -0.1809
  330TMC3    O2 5017   2.284   1.733   9.340 -0.6516  0.1226  0.0116
  331MPD2     C 5018   0.657   0.724  12.752 -0.5568 -1.0689 -0.3537
  331MPD2    C1 5019   0.530   0.682  12.724 -0.1857  0.1854  0.3226
  331MPD2    C2 5020   0.484   0.570  12.788 -0.5779 -0.2140 -0.5135
  331MPD2    C3 5021   0.567   0.497  12.879  0.0403  0.8196 -0.7034
  331MPD2    C4 5022   0.689   0.548  12.917 -0.1816 -0.2140 -0.1712
  331MPD2    C5 5023   0.736   0.656  12.845 -0.1045  0.2096 -0.1481
  331MPD2     H 5024   0.385   0.527  12.776 -0.7998 -0.9878  4.1814
  331MPD2    H1 5025   0.748   0.500  12.995 -1.5241  0.1854  1.1002
  331MPD2    H2 5026   0.696   0.813  12.705  0.0587 -1.3475 -0.3760
  331MPD2    H3 5027   0.833   0.696  12.871  0.0353 -0.4943  0.4365
  331MPD2     N 5028   0.509   0.381  12.928 -0.3029 -0.1878  0.5386
  331MPD2    H5 5029   0.415   0.360  12.895  0.2189 -0.1323 -0.9729
  331MPD2    N1 5030   0.463   0.759  12.632 -0.2331  0.9765  0.7202
  331MPD2    H7 5031   0.511   0.835  12.584 -1.2277 -0.0230 -1.8460
  332TMC3    C1 5032   0.474   0.185  13.042 -0.6695 -0.3109 -0.3195
  332TMC3    C2 5033   0.347   0.181  12.985 -0.3010 -0.0929 -0.0313
  332TMC3    C3 5034   0.300   0.055  12.948 -0.7091  0.5078  0.4055
  332TMC3    C4 5035   0.530   0.069  13.091  0.8702  0.0533 -0.7068
  332TMC3    C5 5036   0.478   4.685  13.060 -0.1858  0.2748  0.2228
  332TMC3    C6 5037   0.356   4.680  12.988 -0.7783 -0.0928 -0.6920
  332TMC3     C 5038   0.560   0.297  13.026  0.7408 -0.5181  0.0405
  332TMC3     O 5039   0.671   0.295  13.081  0.3522 -0.3421 -0.1020
  332TMC3     H 5040   0.288   0.264  12.949  2.5675  1.6608 -0.6448
  332TMC3    H1 5041   0.626   0.071  13.143  1.2992 -2.0519 -1.4214
  332TMC3    H2 5042   0.317   4.582  12.960  0.8238 -0.5980 -1.1835
  332TMC3    C7 5043   0.545   4.558  13.084  0.7748  0.1183  0.2055
  332TMC3    C8 5044   0.241   0.057  12.813 -0.1343  0.1232 -0.2287
  332TMC3    O1 5045   0.474   4.472  13.138  0.0121 -0.2296  0.1628
  332TMC3    O2 5046   0.293   0.145  12.743 -0.0099 -0.3465 -0.5445
  333MPD2     C 5047   0.955   0.295  11.592  0.4498  0.1286  0.0737
  333MPD2    C1 5048   0.942   0.252  11.464  0.2736 -0.1100 -0.1730
  333MPD2    C2 5049   0.851   0.146  11.452 -0.4161 -0.4260  0.2770
  333MPD2    C3 5050   0.782   0.092  11.561  0.7959  0.1221  0.5161
  333MPD2    C4 5051   0.807   0.137  11.691 -0.2660  0.2850 -0.6257
  333MPD2    C5 5052   0.894   0.237  11.697  0.0177  1.1601 -0.1947
  333MPD2     H 5053   0.833   0.107  11.353  0.1848 -0.2310  0.0913
  333MPD2    H1 5054   0.754   0.119  11.783  0.1782 -1.2589 -0.6711
  333MPD2    H2 5055   1.032   0.369  11.611  2.4057 -1.0550 -3.2106
  333MPD2    H3 5056   0.909   0.275  11.798  0.0992  1.6965 -0.4083
  333MPD2     N 5057   0.697   4.714  11.531 -0.4769 -0.8494  0.7662
  333MPD2    H5 5058   0.701   4.666  11.442  0.8281 -1.8610  1.3732
  333MPD2    N1 5059   1.010   0.310  11.352  0.8261 -0.0585 -0.8270
  333MPD2    H7 5060   1.055   0.401  11.357 -0.4111  0.5801 -1.1278
  334TMC3    C1 5061   1.104   0.339  11.132 -0.3003  0.1260  0.4390
  334TMC3    C2 5062   1.174   0.271  11.031 -0.7502  0.4068  0.2635
  334TMC3    C3 5063   1.234   0.350  10.934  0.3023 -0.4308  0.0525
  334TMC3    C4 5064   1.092   0.478  11.134  0.2674  0.2726  0.2405
  334TMC3    C5 5065   1.150   0.547  11.032 -0.4008 -0.6705 -0.4954
  334TMC3    C6 5066   1.221   0.490  10.930  0.3199 -0.1375  0.3962
  334TMC3     C 5067   1.032   0.253  11.229  0.0762  0.8250  0.0048
  334TMC3     O 5068   0.999   0.140  11.193  0.2283  0.8370 -0.1908
  334TMC3     H 5069   1.189   0.164  11.025  0.9749  0.5838  1.4688
  334TMC3    H1 5070   1.042   0.535  11.212 -0.4309 -1.3067  0.9459
  334TMC3    H2 5071   1.250   0.559  10.852 -0.0001  2.7071  2.7867
  334TMC3    C7 5072   1.109   0.690  11.017 -0.1953  1.1049 -0.4831
  334TMC3    C8 5073   1.327   0.274  10.847  0.0590 -0.9970 -0.1211
  334TMC3    O1 5074   1.091   0.751  11.120  0.1415 -0.2938 -0.5005
  334TMC3    O2 5075   1.326   0.152  10.844  0.1407  0.2972 -0.1979
  335TMC3    C1 5076   0.051   1.809  17.410  0.0053  0.0151  0.4349
  335TMC3    C2 5077   4.704   1.813  17.303  0.3846 -0.5945  0.0442
  335TMC3    C3 5078   0.021   1.834  17.175 -0.3940 -1.0762  0.7246
  335TMC3    C4 5079   0.186   1.824  17.397 -0.3400  0.1576  0.2122
  335TMC3    C5 5080   0.233   1.856  17.270  0.1924 -0.0888 -0.7533
  335TMC3    C6 5081   0.157   1.857  17.158  0.6743 -0.3464 -0.8098
  335TMC3     C 5082   4.719   1.823  17.538  0.0541  0.9004 -0.2452
  335TMC3     O 5083   4.607   1.863  17.540  0.3858  0.2094 -0.1999
  335TMC3     H 5084   4.596   1.798  17.308  0.6662 -1.7829  2.2912
  335TMC3    H1 5085   0.251   1.830  17.484  0.3285  0.1394 -0.2925
  335TMC3    H2 5086   0.193   1.896  17.063  2.8226 -0.6862 -0.1186
  335TMC3    C7 5087   0.376   1.836  17.247  0.7143 -0.5300 -0.0007
  335TMC3    C8 5088   4.684   1.807  17.050  0.0638 -0.3395  0.1324
  335TMC3    O1 5089   0.398   1.774  17.143  0.0288 -0.3139  0.1496
  335TMC3    O2 5090   0.007   1.819  16.944  0.1446  0.2355 -0.2102
  336MPD2     C 5091   4.163   4.583  16.017 -0.2784  0.4770  0.6238
  336MPD2    C1 5092   4.202   4.524  15.904  0.1360 -0.2158  0.3490
  336MPD2    C2 5093   4.248   4.390  15.899  0.6179 -0.0238 -0.0569
  336MPD2    C3 5094   4.245   4.310  16.008  0.0314 -0.7234  0.8623
  336MPD2    C4 5095   4.205   4.376  16.123  1.1177  0.0095 -0.5855
  336MPD2    C5 5096   4.162   4.503  16.133  0.5817 -0.0378  0.0674
  336MPD2     H 5097   4.285   4.350  15.805 -0.7150 -0.5231 -0.3681
  336MPD2    H1 5098   4.202   4.313  16.211 -1.7844 -1.9283 -2.0850
  336MPD2    H2 5099   4.144   4.689  16.029  0.5032  0.7344 -0.4065
  336MPD2    H3 5100   4.148   4.548  16.230 -3.1365 -0.1296 -0.4219
  336MPD2     N 5101   4.282   4.175  16.019 -0.1949 -0.4143  0.6182
  336MPD2    H5 5102   4.279   4.134  16.111  0.9808 -0.4622  0.6311
  336MPD2    N1 5103   4.211   4.601  15.783 -0.1488  0.0970  0.6125
  336MPD2    H7 5104   4.263   4.558  15.707  1.8230  3.1381  0.2660
  337TMC3    C1 5105   4.194   0.060  15.645 -0.1687  0.2982 -0.2306
  337TMC3    C2 5106   4.113   0.160  15.616 -0.9015 -0.0865 -0.4367
  337TMC3    C3 5107   4.150   0.255  15.521  0.4268  0.3942  0.0469
  337TMC3    C4 5108   4.318   0.044  15.594  0.0124 -0.1344  0.1925
  337TMC3    C5 5109   4.345   0.131  15.491 -0.1115  0.2935 -0.5060
  337TMC3    C6 5110   4.266   0.239  15.450 -0.3528 -0.1340 -0.3065
  337TMC3     C 5111   4.148   4.721  15.766 -0.0475  0.0059  0.2285
  337TMC3     O 5112   4.055   0.032  15.838  0.1218 -0.3187  0.1771
  337TMC3     H 5113   4.011   0.162  15.653 -0.5242 -0.7061  0.6261
  337TMC3    H1 5114   4.378   4.695  15.623  0.4265  0.0977  0.0197
  337TMC3    H2 5115   4.304   0.305  15.373  1.1076  2.1721  2.3532
  337TMC3    C7 5116   4.480   0.117  15.427  0.0323 -0.4484  0.3135
  337TMC3    C8 5117   4.037   0.319  15.453  0.0828  0.3965  0.5382
  337TMC3    O1 5118   4.552   0.041  15.489  0.3901 -0.2393 -0.2934
  337TMC3    O2 5119   3.949   0.348  15.534  0.0171 -0.3415  0.2842
  338MPD2     C 5120   4.683   3.601   1.195  0.2573 -0.2284 -0.3226
  338MPD2    C1 5121   4.608   3.621   1.085  0.0169  0.9444  0.1502
  338MPD2    C2 5122   4.522   3.730   1.077 -0.5282  0.0250 -0.1797
  338MPD2    C3 5123   4.498   3.809   1.187 -0.3194  0.2432 -0.0492
  338MPD2    C4 5124   4.583   3.793   1.297  0.7085  0.6878 -0.8394
  338MPD2    C5 5125   4.667   3.684   1.298  0.0311  1.0063  0.0413
  338MPD2     H 5126   4.466   3.752   0.987 -0.3087 -1.2008 -0.6164
  338MPD2    H1 5127   4.580   3.847   1.391  2.5442 -1.9144  0.6985
  338MPD2    H2 5128   0.015   3.517   1.206  0.7043  0.0925 -0.6725
  338MPD2    H3 5129   4.709   3.664   1.396  1.4611 -0.8493 -0.9365
  338MPD2     N 5130   4.405   3.914   1.174  0.8051 -0.2274  0.2650
  338MPD2    H5 5131   4.343   3.907   1.094  0.5606 -2.6892  0.6841
  338MPD2    N1 5132   4.619   3.535   0.969 -0.2142  0.2019 -0.1346
  338MPD2    H7 5133   4.547   3.542   0.899  0.7552 -0.0495 -1.1536
  339TMC3    C1 5134   4.279   4.103   1.232 -0.5172 -0.6353 -0.3383
  339TMC3    C2 5135   4.179   4.068   1.323 -0.1554  0.5895  0.1710
  339TMC3    C3 5136   4.060   4.032   1.275 -0.3512  0.2231  0.2644
  339TMC3    C4 5137   4.257   4.125   1.098  0.2699 -0.0393 -0.2815
  339TMC3    C5 5138   4.131   4.079   1.060 -0.4599  0.6156 -1.1196
  339TMC3    C6 5139   4.029   4.038   1.142  0.2782 -0.5763 -0.7519
  339TMC3     C 5140   4.387   4.017   1.260  0.3761  0.4249  0.5404
  339TMC3     O 5141   4.436   4.017   1.372 -0.0193  0.2564 -0.0698
  339TMC3     H 5142   4.203   4.041   1.426 -0.2510 -2.1705 -0.5298
  339TMC3    H1 5143   4.335   4.142   1.025 -0.1742 -2.0950 -1.2120
  339TMC3    H2 5144   3.933   4.002   1.105 -0.4889  1.0835 -0.3494
  339TMC3    C7 5145   4.127   4.005   0.937  0.0409 -0.3060  0.4207
  339TMC3    C8 5146   3.989   3.923   1.343  0.1045 -0.3738 -0.2639
  339TMC3    O1 5147   4.178   4.055   0.841 -0.0846 -0.3970  0.0355
  339TMC3    O2 5148   3.958   3.828   1.273 -0.3318  0.1908 -0.1078
  340MPD2     C 5149   0.727   1.561  10.042 -0.5794  0.1533  0.2050
  340MPD2    C1 5150   0.734   1.442  10.112 -0.8409 -0.5482 -0.5329
  340MPD2    C2 5151   0.773   1.440  10.246 -0.1006  0.5938  0.6054
  340MPD2    C3 5152   0.807   1.559  10.303  0.6023  0.3873 -0.4428
  340MPD2    C4 5153   0.797   1.676  10.228  0.4619  0.2044  0.0608
  340MPD2    C5 5154   0.769   1.674  10.097  0.5327 -0.8053  0.5727
  340MPD2     H 5155   0.781   1.351  10.308 -2.9742 -0.4170 -0.4797
  340MPD2    H1 5156   0.841   1.770  10.261 -0.6123  0.2114  1.4697
  340MPD2    H2 5157   0.690   1.558   9.940 -2.2717  0.4249  0.8016
  340MPD2    H3 5158   0.768   1.765  10.038 -2.1688 -1.5254 -0.4672
  340MPD2     N 5159   0.883   1.563  10.425 -0.0555  0.5704  1.1332
  340MPD2    H5 5160   0.921   1.653  10.452  0.2602  0.8277 -0.1878
  340MPD2    N1 5161   0.715   1.322  10.034  0.0855  0.1610 -0.3053
  340MPD2    H7 5162   0.680   1.336   9.940  1.7543  0.7969 -0.8254
  341TMC3    C1 5163   0.674   1.095   9.999 -0.5344  0.1201  0.2678
  341TMC3    C2 5164   0.580   0.997  10.032  0.7596 -0.4359  0.1834
  341TMC3    C3 5165   0.552   0.905   9.937 -0.7001 -0.2827 -0.1751
  341TMC3    C4 5166   0.735   1.105   9.879  0.0893 -0.5354 -0.0613
  341TMC3    C5 5167   0.700   1.008   9.785 -0.4572  0.8335 -0.5039
  341TMC3    C6 5168   0.616   0.905   9.820 -0.5112 -0.4613  0.9169
  341TMC3     C 5169   0.699   1.200  10.096 -0.5865 -0.3405  0.0711
  341TMC3     O 5170   0.679   1.167  10.212 -0.1398 -0.0956  0.2625
  341TMC3     H 5171   0.525   0.990  10.125  0.8764 -1.8104  0.1531
  341TMC3    H1 5172   0.809   1.181   9.857  0.6387 -0.7463  1.0860
  341TMC3    H2 5173   0.597   0.836   9.739 -0.0926  0.7335 -0.1971
  341TMC3    C7 5174   0.784   0.997   9.666 -0.1470 -0.2502  0.3407
  341TMC3    C8 5175   0.452   0.799   9.968  0.3938  0.5092  0.1319
  341TMC3    O1 5176   0.886   1.064   9.676  0.5195  0.4995 -0.1206
  341TMC3    O2 5177   0.445   0.788  10.091 -0.8510  0.1825 -0.2486
  342MPD2     C 5178   2.505   0.229  17.038  0.7732 -0.5305  0.0017
  342MPD2    C1 5179   2.629   0.208  16.987 -0.1349 -0.3611  0.3916
  342MPD2    C2 5180   2.708   0.319  16.951 -0.2119 -0.4677  0.0528
  342MPD2    C3 5181   2.667   0.445  16.981 -0.7710  0.2891 -0.5326
  342MPD2    C4 5182   2.543   0.465  17.034  1.3076 -0.4322  0.1672
  342MPD2    C5 5183   2.464   0.356  17.060 -0.4934 -0.2877  0.3655
  342MPD2     H 5184   2.809   0.304  16.913  0.3248  1.3386  0.7680
  342MPD2    H1 5185   2.501   0.562  17.060 -1.6323 -0.9693 -2.6451
  342MPD2    H2 5186   2.428   0.153  17.048  0.9694 -0.9041 -1.3799
  342MPD2    H3 5187   2.363   0.370  17.097 -1.0270 -2.6781 -0.1684
  342MPD2     N 5188   2.742   0.560  16.958 -0.2691 -0.0129  0.6978
  342MPD2    H5 5189   2.691   0.648  16.965 -0.5740  0.0674 -2.7176
  342MPD2    N1 5190   2.687   0.079  16.959  1.1243  0.4319 -0.5815
  342MPD2    H7 5191   2.778   0.082  16.913 -0.8694 -1.8748 -4.6920
  343TMC3    C1 5192   2.743   4.585  16.991 -0.8998  0.1465 -0.7462
  343TMC3    C2 5193   2.873   4.604  16.943  0.0788  0.6310  0.3011
  343TMC3    C3 5194   2.959   4.505  16.966  0.0059  0.4284 -0.6459
  343TMC3    C4 5195   2.694   4.462  17.033  0.0898  0.7016  0.0554
  343TMC3    C5 5196   2.791   4.373  17.064  0.2532 -0.8753  0.0914
  343TMC3    C6 5197   2.919   4.394  17.032  0.0690 -0.5968 -0.3570
  343TMC3     C 5198   2.643   4.695  16.999  0.1030  0.4939  0.0557
  343TMC3     O 5199   2.529   4.658  17.033 -0.4435  0.3050 -0.2538
  343TMC3     H 5200   2.914   4.698  16.907 -0.1369  0.8197  0.5494
  343TMC3    H1 5201   2.596   4.454  17.079  0.6929  0.3307  1.2752
  343TMC3    H2 5202   2.994   4.321  17.059  0.6086  0.0698 -0.0773
  343TMC3    C7 5203   2.740   4.243  17.111 -0.4447  0.2414 -0.5878
  343TMC3    C8 5204   3.102   4.532  16.945  1.4182  0.3282 -0.3245
  343TMC3    O1 5205   2.618   4.238  17.108  0.7622  0.4784  0.2259
  343TMC3    O2 5206   3.140   4.649  16.966  0.3209 -0.3332 -0.9531
  344MPD2     C 5207   3.928   4.453   9.546  0.3082  0.4394  0.2218
  344MPD2    C1 5208   3.943   4.415   9.676 -0.5210  0.5341  0.1412
  344MPD2    C2 5209   4.046   4.463   9.757 -0.1658 -0.0403 -0.2655
  344MPD2    C3 5210   4.136   4.555   9.703 -0.4890  0.1050  0.1182
  344MPD2    C4 5211   4.114   4.595   9.572  0.1389 -0.6133 -0.1812
  344MPD2    C5 5212   4.017   4.544   9.494  0.7631 -0.0895 -0.4714
  344MPD2     H 5213   4.068   4.430   9.858 -1.3061  1.7568  0.5684
  344MPD2    H1 5214   4.173   4.676   9.531 -0.9253  1.9689  3.4021
  344MPD2    H2 5215   3.845   4.409   9.491  0.4632  0.3461  0.0607
  344MPD2    H3 5216   4.003   4.574   9.390  3.8404 -2.2098 -1.5060
  344MPD2     N 5217   4.230   4.627   9.778  0.3274  0.3476  0.5333
  344MPD2    H5 5218   4.292   4.690   9.728 -0.6875  1.6868  0.9490
  344MPD2    N1 5219   3.858   4.320   9.740 -0.6022  0.3708  0.0076
  344MPD2    H7 5220   3.893   4.278   9.826  0.2098  1.4466  0.2092
  345TMC3    C1 5221   4.322   4.736   9.959 -0.1294  0.0682 -0.1042
  345TMC3    C2 5222   4.358   4.723  10.087 -0.3966 -0.2357 -0.8738
  345TMC3    C3 5223   4.383   0.102  10.159  0.1660 -0.0348 -0.6722
  345TMC3    C4 5224   4.318   0.122   9.894  0.0186 -0.0484 -0.4826
  345TMC3    C5 5225   4.354   0.226   9.968 -0.3596  0.2584 -0.3119
  345TMC3    C6 5226   4.392   0.224  10.100  0.1384  0.0680  0.0428
  345TMC3     C 5227   4.252   4.622   9.908  0.4173  0.2925 -0.0489
  345TMC3     O 5228   4.210   4.543   9.990  0.2179 -0.4779  0.0745
  345TMC3     H 5229   4.370   4.625  10.132  1.0271  0.7745  0.9530
  345TMC3    H1 5230   4.291   0.129   9.790 -0.0761 -0.2924 -0.4742
  345TMC3    H2 5231   4.400   0.312  10.162 -0.4488 -0.4605  0.8624
  345TMC3    C7 5232   4.350   0.361   9.909 -0.0579  0.6372 -0.5744
  345TMC3    C8 5233   4.405   0.109  10.303  0.7137 -0.0452  0.4149
  345TMC3    O1 5234   4.434   0.437   9.957 -0.2664  0.7230 -0.7208
  345TMC3    O2 5235   4.465   0.210  10.343  0.1511 -0.6122  0.0839
  346MPD2     C 5236   4.474   1.326  14.121 -0.3164 -0.9457 -0.3125
  346MPD2    C1 5237   4.444   1.450  14.069  0.3457 -0.6957  0.3208
  346MPD2    C2 5238   4.369   1.539  14.141  0.4516  0.0214 -0.4601
  346MPD2    C3 5239   4.328   1.509  14.269  0.1058  0.2124 -0.5362
  346MPD2    C4 5240   4.368   1.388  14.322  0.5245  0.1187 -0.2701
  346MPD2    C5 5241   4.440   1.298  14.250  0.1195 -0.0322 -0.0910
  346MPD2     H 5242   4.325   1.629  14.099 -0.4311  0.4243  1.3117
  346MPD2    H1 5243   4.327   1.363  14.420 -3.2883  1.0106 -1.6194
  346MPD2    H2 5244   4.527   1.251  14.064  0.2720  0.4499 -1.5983
  346MPD2    H3 5245   4.473   1.198  14.277  0.3875  0.1881  0.4034
  346MPD2     N 5246   4.244   1.609  14.333  0.6301 -0.7729 -0.3024
  346MPD2    H5 5247   4.202   1.685  14.280 -0.0274 -1.5549 -0.8991
  346MPD2    N1 5248   4.481   1.491  13.942  1.0005  0.0911 -0.0985
  346MPD2    H7 5249   4.429   1.572  13.911  2.3980  1.0185 -0.0246
  347TMC3    C1 5250   4.113   1.710  14.490  0.2356 -0.0320  0.6455
  347TMC3    C2 5251   4.162   1.831  14.444  0.0284  0.4520  0.2944
  347TMC3    C3 5252   4.172   1.935  14.531  0.1052  0.0471 -0.3420
  347TMC3    C4 5253   4.063   1.699  14.616 -0.0021  0.0069  0.1853
  347TMC3    C5 5254   4.064   1.810  14.691 -0.0512 -0.0258  0.0054
  347TMC3    C6 5255   4.124   1.925  14.659 -0.2295  0.1100 -0.4177
  347TMC3     C 5256   4.189   1.590  14.457 -0.5508 -0.1295 -0.3350
  347TMC3     O 5257   4.209   1.514  14.547  0.1945  0.0702 -0.5635
  347TMC3     H 5258   4.197   1.843  14.342 -0.9167 -0.6296 -0.1605
  347TMC3    H1 5259   4.031   1.601  14.651 -0.5054 -0.3529 -1.2561
  347TMC3    H2 5260   4.136   2.012  14.723  1.0074 -1.2565  1.2039
  347TMC3    C7 5261   4.062   1.797  14.836  0.6245 -0.7549  0.1787
  347TMC3    C8 5262   4.285   2.017  14.509 -0.1056  0.2244 -0.6707
  347TMC3    O1 5263   4.137   1.873  14.893  0.2157  0.2004  0.4981
  347TMC3    O2 5264   4.267   2.138  14.526 -0.2802  1.1202  0.3522
  348MPD2     C 5265   3.220   0.869  11.886  0.2567 -0.1046  0.0421
  348MPD2    C1 5266   3.102   0.899  11.819  0.4173 -0.0125 -0.3737
  348MPD2    C2 5267   3.086   1.019  11.743  0.1579  0.8192  0.0368
  348MPD2    C3 5268   3.196   1.100  11.726 -0.0054  0.4373  1.0447
  348MPD2    C4 5269   3.317   1.068  11.791 -0.4160 -0.5010 -0.2203
  348MPD2    C5 5270   3.326   0.958  11.877 -0.1149 -0.5704 -0.1125
  348MPD2     H 5271   2.995   1.043  11.690 -1.1025 -2.6473  0.6727
  348MPD2    H1 5272   3.407   1.127  11.804 -0.1754 -0.9089 -0.0532
  348MPD2    H2 5273   3.218   0.781  11.949 -2.4629 -0.1957 -0.1767
  348MPD2    H3 5274   3.419   0.940  11.929  0.6618  0.1732 -1.2297
  348MPD2     N 5275   3.196   1.205  11.632  0.4077 -0.1734 -0.9234
  348MPD2    H5 5276   3.112   1.209  11.574 -0.6378 -0.4902  0.5821
  348MPD2    N1 5277   2.989   0.813  11.831 -0.1056 -0.3002  0.3340
  348MPD2    H7 5278   2.907   0.845  11.783 -0.2885  2.1430  2.2838
  349TMC3    C1 5279   2.842   0.633  11.917  0.6516 -0.4338  0.7388
  349TMC3    C2 5280   2.839   0.498  11.954 -0.0980 -0.1355 -0.4468
  349TMC3    C3 5281   2.704   0.449  11.944  0.7708  0.2277  1.0543
  349TMC3    C4 5282   2.736   0.719  11.892  1.1116  0.5211 -0.0828
  349TMC3    C5 5283   2.604   0.659  11.910 -0.2571 -0.8523 -0.3956
  349TMC3    C6 5284   2.590   0.528  11.920  0.6062 -0.5209  0.2319
  349TMC3     C 5285   2.976   0.700  11.915  0.2624  0.4365 -0.5667
  349TMC3     O 5286   3.052   0.641  11.990 -0.3660 -0.0845 -0.0447
  349TMC3     H 5287   2.931   0.441  11.960 -1.0044 -1.3471  1.6626
  349TMC3    H1 5288   2.754   0.826  11.881 -1.1570  0.8526 -0.5175
  349TMC3    H2 5289   2.488   0.493  11.930  0.2193  0.4158 -0.4441
  349TMC3    C7 5290   2.493   0.742  11.889  0.8393 -0.2919  0.7291
  349TMC3    C8 5291   2.687   0.313  11.981  0.0324 -0.2230 -0.0572
  349TMC3    O1 5292   2.397   0.695  11.822 -0.0101 -0.6706 -0.7246
  349TMC3    O2 5293   2.786   0.245  12.018  0.3088 -0.0913  0.2470
  350MPD2     C 5294   2.373   4.257  10.545 -0.1778  0.0817  0.3915
  350MPD2    C1 5295   2.337   4.134  10.591 -0.0639  0.0080  0.0377
  350MPD2    C2 5296   2.318   4.122  10.723 -0.0951 -0.2212 -0.2774
  350MPD2    C3 5297   2.316   4.230  10.811 -0.2300  0.5564  0.3585
  350MPD2    C4 5298   2.350   4.357  10.766  0.1462  0.3486 -0.0329
  350MPD2    C5 5299   2.378   4.363  10.630 -0.1907  0.6727  0.3819
  350MPD2     H 5300   2.281   4.026  10.755  1.8800 -0.5263  1.0678
  350MPD2    H1 5301   2.345   4.448  10.824 -1.6692 -0.4447  1.0343
  350MPD2    H2 5302   2.389   4.292  10.443 -0.2937  0.8007  0.6231
  350MPD2    H3 5303   2.389   4.462  10.586  1.3845  0.4750  0.3255
  350MPD2     N 5304   2.266   4.216  10.947 -0.1447  0.1424 -0.3941
  350MPD2    H5 5305   2.227   4.126  10.974  1.7542 -0.4694  0.3510
  350MPD2    N1 5306   2.299   4.026  10.503  0.2302 -0.1410  0.2984
  350MPD2    H7 5307   2.268   3.940  10.546 -0.2716 -0.3240 -0.4314
  351TMC3    C1 5308   2.268   3.907  10.305 -1.2310  0.0453 -0.1480
  351TMC3    C2 5309   2.361   3.847  10.213  0.6240  0.2180  0.6952
  351TMC3    C3 5310   2.330   3.721  10.167 -0.2351  0.6158 -0.0427
  351TMC3    C4 5311   2.159   3.851  10.345 -0.8610  0.4450 -0.3428
  351TMC3    C5 5312   2.119   3.741  10.279  0.3717 -0.3883 -0.4370
  351TMC3    C6 5313   2.207   3.666  10.204 -0.2398 -0.3607 -0.2205
  351TMC3     C 5314   2.313   4.029  10.366 -0.4342 -0.1469 -0.5652
  351TMC3     O 5315   2.372   4.103  10.294  0.5082 -0.1596  0.0158
  351TMC3     H 5316   2.463   3.877  10.196  1.7069 -1.5691  3.8750
  351TMC3    H1 5317   2.094   3.910  10.409  0.2286  1.5714 -0.2663
  351TMC3    H2 5318   2.176   3.571  10.161  1.0182 -2.0270  2.5566
  351TMC3    C7 5319   1.983   3.698  10.306  0.0053  0.2893  0.4844
  351TMC3    C8 5320   2.423   3.645  10.091  0.2353  1.1057  0.7418
  351TMC3    O1 5321   1.918   3.752  10.399  0.6378 -0.3867  0.0285
  351TMC3    O2 5322   2.500   3.704  10.019  0.3234 -0.0593 -0.5447
  352MPD2     C 5323   4.028   1.006   1.128 -0.2178  0.2530 -0.1824
  352MPD2    C1 5324   3.960   0.928   1.046 -0.1911 -0.0711  0.0571
  352MPD2    C2 5325   3.971   0.783   1.053 -1.2883  0.0099  0.2037
  352MPD2    C3 5326   4.071   0.728   1.132  0.6041 -0.4299 -0.2970
  352MPD2    C4 5327   4.156   0.815   1.207  0.4481 -0.2095  0.5879
  352MPD2    C5 5328   4.126   0.950   1.203  1.0970 -0.5571 -0.4228
  352MPD2     H 5329   3.919   0.720   0.981 -0.5075 -0.1548 -0.2182
  352MPD2    H1 5330   4.230   0.779   1.277  1.4075  3.8940  1.6767
  352MPD2    H2 5331   4.004   1.112   1.133  1.0000  0.4297  2.2498
  352MPD2    H3 5332   4.180   1.026   1.259 -2.3201  1.8915 -0.4636
  352MPD2     N 5333   4.096   0.592   1.148  0.0178  0.0404  0.4566
  352MPD2    H5 5334   4.185   0.577   1.193  0.5382 -3.3100 -1.6598
  352MPD2    N1 5335   3.882   0.990   0.949  0.1210 -0.0141 -0.3899
  352MPD2    H7 5336   3.877   1.091   0.960  1.5926  0.1579 -1.3157
  353TMC3    C1 5337   4.075   0.358   1.111  0.3761 -0.4731  0.1460
  353TMC3    C2 5338   4.178   0.342   1.197 -1.4165 -0.1365 -0.0555
  353TMC3    C3 5339   4.236   0.223   1.197 -0.0217 -0.3133 -0.1147
  353TMC3    C4 5340   4.041   0.274   1.017 -0.8125  0.7520  0.0718
  353TMC3    C5 5341   4.114   0.152   1.012 -0.4570  0.1260 -0.6661
  353TMC3    C6 5342   4.200   0.122   1.112  0.4201  0.2699  0.8797
  353TMC3     C 5343   4.020   0.489   1.096  0.0004 -0.6187  0.3375
  353TMC3     O 5344   3.921   0.499   1.028 -0.0136  0.4922 -0.5042
  353TMC3     H 5345   4.188   0.395   1.291 -1.2208 -2.0602  0.9959
  353TMC3    H1 5346   3.991   0.312   0.928  0.7062 -0.5056 -1.3075
  353TMC3    H2 5347   4.262   0.036   1.088  3.1458  2.8963 -1.5529
  353TMC3    C7 5348   4.149   0.086   0.885 -0.2077 -0.3517 -0.0249
  353TMC3    C8 5349   4.349   0.209   1.290 -0.0186 -0.1433 -0.4939
  353TMC3    O1 5350   4.231   4.732   0.878 -0.7519  0.2402 -0.3591
  353TMC3    O2 5351   4.395   0.303   1.357  0.1892 -0.4223 -0.6406
  354TMC3    C1 5352   2.015   1.777  13.369  0.4351 -0.1683 -0.0518
  354TMC3    C2 5353   1.990   1.910  13.350  0.1106  0.0116 -0.1031
  354TMC3    C3 5354   2.042   1.967  13.241  0.4564 -0.3042 -0.2129
  354TMC3    C4 5355   2.059   1.694  13.275 -0.2685  0.6094 -0.3850
  354TMC3    C5 5356   2.122   1.763  13.180 -0.1644 -0.2288  0.3856
  354TMC3    C6 5357   2.121   1.899  13.157 -0.1523  0.3935 -0.3096
  354TMC3     C 5358   1.945   1.717  13.481 -0.0426 -0.5156 -0.2774
  354TMC3     O 5359   1.921   1.598  13.460 -0.0956  0.3008 -0.5764
  354TMC3     H 5360   1.942   1.967  13.428 -0.3616  0.6722 -0.8741
  354TMC3    H1 5361   2.074   1.589  13.295 -0.1888  0.6617 -0.1731
  354TMC3    H2 5362   2.178   1.949  13.080 -0.8448  0.3302 -0.8558
  354TMC3    C7 5363   2.241   1.703  13.132 -0.0598 -0.4142 -0.3933
  354TMC3    C8 5364   2.020   2.103  13.201  0.6884  0.9241 -0.1869
  354TMC3    O1 5365   2.260   1.598  13.188 -0.5265  0.0427 -0.2891
  354TMC3    O2 5366   2.052   2.133  13.092  0.0821  0.4259 -0.0135
  355MPD2     C 5367   2.493   2.583  12.315 -0.5377 -0.6698 -0.6753
  355MPD2    C1 5368   2.501   2.698  12.389  0.3164 -0.0106 -0.5623
  355MPD2    C2 5369   2.595   2.699  12.493 -0.5463 -0.2414  0.1497
  355MPD2    C3 5370   2.685   2.599  12.518  0.5557 -0.0919  0.0867
  355MPD2    C4 5371   2.679   2.483  12.441  0.3003  0.0656 -0.0507
  355MPD2    C5 5372   2.583   2.479  12.343 -0.8194  1.4454  0.5861
  355MPD2     H 5373   2.576   2.778  12.565 -0.0476 -0.4661  0.5242
  355MPD2    H1 5374   2.742   2.398  12.466 -2.2730 -1.7250  0.3348
  355MPD2    H2 5375   2.421   2.570  12.235  2.4294  0.6799 -3.5718
  355MPD2    H3 5376   2.576   2.391  12.280  0.9361  1.9394 -0.2825
  355MPD2     N 5377   2.771   2.593  12.632  0.3323  0.9677 -0.1115
  355MPD2    H5 5378   2.808   2.500  12.652  0.0135  0.4812 -1.7733
  355MPD2    N1 5379   2.423   2.811  12.342  0.0943 -0.2713 -0.2706
  355MPD2    H7 5380   2.370   2.820  12.256 -0.0538  0.8207 -0.0724
  356TMC3    C1 5381   2.791   2.829  12.677 -0.0358  0.6093 -0.5711
  356TMC3    C2 5382   2.816   2.864  12.545 -0.6153 -0.1252  0.6298
  356TMC3    C3 5383   2.780   2.994  12.509  0.7621 -0.0205  0.2834
  356TMC3    C4 5384   2.751   2.916  12.768 -0.3413  0.3359  0.0725
  356TMC3    C5 5385   2.713   3.047  12.732  0.1089 -0.8475  0.0223
  356TMC3    C6 5386   2.727   3.080  12.598 -0.0303 -0.1965  0.7631
  356TMC3     C 5387   2.808   2.691  12.719 -0.5253  0.6122 -0.2337
  356TMC3     O 5388   2.838   2.686  12.837 -0.1120  0.5769  0.0407
  356TMC3     H 5389   2.847   2.785  12.477  2.3153  0.2043  1.5499
  356TMC3    H1 5390   2.722   2.895  12.871  0.8559 -0.8759  0.1543
  356TMC3    H2 5391   2.676   3.171  12.569 -1.7313 -1.4114 -0.0145
  356TMC3    C7 5392   2.619   3.122  12.811  0.3548  0.7732 -0.0158
  356TMC3    C8 5393   2.805   3.033  12.367  0.2162  0.0966  0.6488
  356TMC3    O1 5394   2.557   3.056  12.892 -0.9509 -0.3419 -0.1359
  356TMC3    O2 5395   2.800   2.942  12.285  0.4073  0.0551  0.3510
  357MPD2     C 5396   0.645   2.659   1.778 -0.2538 -0.2893  0.7412
  357MPD2    C1 5397   0.666   2.624   1.646  0.1342 -0.3700 -0.7775
  357MPD2    C2 5398   0.555   2.573   1.576 -0.5400 -0.1997  0.3785
  357MPD2    C3 5399   0.439   2.540   1.651 -0.3841  0.3079 -0.1339
  357MPD2    C4 5400   0.428   2.562   1.788  0.2067 -0.0147 -0.6635
  357MPD2    C5 5401   0.530   2.631   1.843  0.1633 -0.2214 -0.1055
  357MPD2     H 5402   0.562   2.547   1.471 -0.1849  0.1783  0.3096
  357MPD2    H1 5403   0.344   2.546   1.855  0.6883 -0.3991 -0.1557
  357MPD2    H2 5404   0.719   2.705   1.842 -0.4812  2.2480 -0.8288
  357MPD2    H3 5405   0.517   2.648   1.949 -1.1286  1.2124 -0.4885
  357MPD2     N 5406   0.323   2.489   1.589 -0.2524  0.7592 -0.4095
  357MPD2    H5 5407   0.258   2.439   1.649 -0.0550 -1.0777 -1.7192
  357MPD2    N1 5408   0.789   2.660   1.586 -0.1653 -0.1790  0.2627
  357MPD2    H7 5409   0.850   2.727   1.632  1.6101 -0.2433 -1.9901
  358TMC3    C1 5410   0.946   2.682   1.409  0.1399  0.3897  0.5528
  358TMC3    C2 5411   0.963   2.699   1.279  0.5336 -0.3927 -0.1440
  358TMC3    C3 5412   1.084   2.743   1.231  0.0895 -0.4709 -0.0539
  358TMC3    C4 5413   1.048   2.706   1.501 -0.0393  0.2945  0.2242
  358TMC3    C5 5414   1.162   2.765   1.449 -0.1051 -0.1301 -0.2726
  358TMC3    C6 5415   1.186   2.777   1.316 -0.6076  0.8591  0.3781
  358TMC3     C 5416   0.818   2.637   1.451  0.2386  0.1844  0.0272
  358TMC3     O 5417   0.755   2.577   1.366 -0.8970  0.6120  0.3733
  358TMC3     H 5418   0.878   2.707   1.212 -0.8386  1.7104  1.8608
  358TMC3    H1 5419   1.037   2.684   1.607 -3.5189  0.3002 -0.1494
  358TMC3    H2 5420   1.274   2.826   1.275 -0.3997 -1.7780 -2.3091
  358TMC3    C7 5421   1.267   2.793   1.550  0.2095 -0.5709  0.4786
  358TMC3    C8 5422   1.105   2.746   1.083 -0.1279 -0.4626 -0.2225
  358TMC3    O1 5423   1.378   2.821   1.505 -0.8700 -0.2494 -0.0333
  358TMC3    O2 5424   1.211   2.793   1.045 -0.5104 -0.4949  0.0610
  359MPD2     C 5425   2.797   1.633  12.454 -0.2904 -0.3689  0.4000
  359MPD2    C1 5426   2.794   1.522  12.379 -0.8540 -0.5149  0.0505
  359MPD2    C2 5427   2.675   1.458  12.348  0.4522  0.1395 -0.1048
  359MPD2    C3 5428   2.560   1.516  12.404 -0.1948 -0.0701 -0.5399
  359MPD2    C4 5429   2.565   1.625  12.486  0.0044 -0.1311  1.2326
  359MPD2    C5 5430   2.683   1.687  12.501 -0.2852 -0.5425  0.2932
  359MPD2     H 5431   2.668   1.376  12.278 -0.0251  1.3747 -1.4816
  359MPD2    H1 5432   2.477   1.657  12.541 -0.1576  0.8561  0.4097
  359MPD2    H2 5433   2.878   1.704  12.468 -0.9174  0.3745  0.2226
  359MPD2    H3 5434   2.682   1.769  12.571 -0.6776 -1.4036  1.2862
  359MPD2     N 5435   2.434   1.455  12.385 -0.7690  0.7092  0.2340
  359MPD2    H5 5436   2.349   1.505  12.411 -0.1483  0.5103  2.6284
  359MPD2    N1 5437   2.912   1.480  12.311  0.1766  0.1400  0.0040
  359MPD2    H7 5438   2.912   1.389  12.266 -0.4902  0.1149  0.0531
  360TMC3    C1 5439   3.123   1.480  12.212  0.0478  0.3798  0.7892
  360TMC3    C2 5440   3.246   1.532  12.202 -0.2397 -0.4436 -0.0360
  360TMC3    C3 5441   3.310   1.522  12.079 -0.4337 -0.5055  0.0231
  360TMC3    C4 5442   3.061   1.420  12.108  0.0492  0.1108  0.2485
  360TMC3    C5 5443   3.132   1.401  11.989  0.1152 -0.0709 -0.7916
  360TMC3    C6 5444   3.262   1.446  11.976 -0.1398 -0.0208 -0.0634
  360TMC3     C 5445   3.032   1.544  12.310 -0.1074 -0.3651  0.0709
  360TMC3     O 5446   3.073   1.629  12.390 -0.0728 -0.0203  0.1226
  360TMC3     H 5447   3.267   1.614  12.270 -1.0929 -0.1595 -0.1203
  360TMC3    H1 5448   2.954   1.419  12.094  0.0295 -0.8478  0.4448
  360TMC3    H2 5449   3.322   1.442  11.885  2.3844 -1.4671  1.6625
  360TMC3    C7 5450   3.055   1.417  11.869  0.1427 -0.4057  0.2440
  360TMC3    C8 5451   3.368   1.650  12.033  0.5925 -0.5115  0.0842
  360TMC3    O1 5452   3.100   1.483  11.780 -0.0746  0.0244  0.5700
  360TMC3    O2 5453   3.312   1.751  12.074 -0.0112 -0.0445  0.0023
  361MPD2     C 5454   3.899   0.372  16.355  0.3609 -0.6242  0.0765
  361MPD2    C1 5455   3.923   0.437  16.478 -0.1419 -0.2732 -0.5206
  361MPD2    C2 5456   3.998   0.366  16.573 -0.3611 -0.1311  0.6024
  361MPD2    C3 5457   4.059   0.241  16.550  0.0411  0.0111  0.2496
  361MPD2    C4 5458   4.037   0.193  16.422 -1.3793 -0.4035  0.0189
  361MPD2    C5 5459   3.963   0.252  16.325  0.0634  0.4437  0.0316
  361MPD2     H 5460   4.006   0.406  16.674  0.8728  2.0664 -0.3644
  361MPD2    H1 5461   4.086   0.102  16.388  0.9988  1.0920 -0.6028
  361MPD2    H2 5462   3.833   0.412  16.279 -0.3390 -1.1778  0.3892
  361MPD2    H3 5463   3.934   0.199  16.235  2.7710  0.2856 -0.7524
  361MPD2     N 5464   4.133   0.158  16.638 -0.0571  0.7517  0.2759
  361MPD2    H5 5465   4.184   0.076  16.606 -0.6174  1.0163 -1.2660
  361MPD2    N1 5466   3.866   0.566  16.501 -0.5714  0.0731 -0.1483
  361MPD2    H7 5467   3.883   0.603  16.594 -0.0009 -1.6130  0.4098
  362TMC3    C1 5468   3.744   0.770  16.465 -0.2324 -0.3261 -0.2929
  362TMC3    C2 5469   3.689   0.768  16.589 -0.8168  0.0672  0.0667
  362TMC3    C3 5470   3.613   0.878  16.619 -0.6011 -0.6441 -0.6784
  362TMC3    C4 5471   3.732   0.868  16.370  0.6502  0.1836 -0.0213
  362TMC3    C5 5472   3.660   0.972  16.411 -1.1034 -0.2033  0.0617
  362TMC3    C6 5473   3.595   0.982  16.535 -0.7380  0.4246 -0.4228
  362TMC3     C 5474   3.807   0.651  16.413 -0.6084 -0.8685  0.3771
  362TMC3     O 5475   3.815   0.646  16.292  0.0553 -0.2751 -0.0168
  362TMC3     H 5476   3.692   0.680  16.652  1.4622 -1.1437 -1.7721
  362TMC3    H1 5477   3.782   0.874  16.275  1.0814  3.0234  0.3930
  362TMC3    H2 5478   3.560   1.076  16.577 -0.9033  0.2930 -0.2641
  362TMC3    C7 5479   3.588   1.048  16.307  0.8412 -0.4655  0.4948
  362TMC3    C8 5480   3.542   0.870  16.742 -0.3994 -0.3975  0.4175
  362TMC3    O1 5481   3.540   1.155  16.333  0.3549 -0.2557 -0.1794
  362TMC3    O2 5482   3.575   0.783  16.822 -0.3323  0.2602 -0.6201
  363TMC3    C1 5483   3.444   3.572   9.165  0.9261  0.1398 -0.3633
  363TMC3    C2 5484   3.489   3.522   9.291 -0.8501 -0.0136  0.7914
  363TMC3    C3 5485   3.464   3.601   9.402 -0.6533 -0.1422  0.4107
  363TMC3    C4 5486   3.380   3.695   9.152  0.0865 -0.6231  0.2312
  363TMC3    C5 5487   3.371   3.768   9.269  0.5664 -1.2473 -0.1839
  363TMC3    C6 5488   3.409   3.725   9.395 -0.5219  0.4526  0.8188
  363TMC3     C 5489   3.451   3.496   9.043  0.2593  0.1659 -0.0124
  363TMC3     O 5490   3.399   3.539   8.939 -0.1253  0.2848 -0.3242
  363TMC3     H 5491   3.532   3.423   9.299  0.4403  0.4821 -0.1973
  363TMC3    H1 5492   3.347   3.725   9.053 -2.4005 -1.3991  0.8313
  363TMC3    H2 5493   3.382   3.777   9.487 -0.1263  0.1041  1.1328
  363TMC3    C7 5494   3.327   3.899   9.254 -0.3674  0.0477 -0.5758
  363TMC3    C8 5495   3.511   3.570   9.532  0.1748  0.1231 -0.0935
  363TMC3    O1 5496   3.282   3.931   9.147 -0.0691  0.3129  0.3341
  363TMC3    O2 5497   3.549   3.663   9.603  0.3800 -0.2822 -1.0630
  364MPD2     C 5498   1.582   2.752  10.734  0.1595 -0.3646  0.2848
  364MPD2    C1 5499   1.696   2.743  10.658  0.4816  0.0095  0.3669
  364MPD2    C2 5500   1.765   2.625  10.655 -0.5100  0.2796  0.2434
  364MPD2    C3 5501   1.718   2.512  10.724 -0.0880 -0.2116 -0.4414
  364MPD2    C4 5502   1.604   2.521  10.786 -0.5973 -0.3085 -0.1703
  364MPD2    C5 5503   1.533   2.640  10.795 -0.1278 -0.1240 -0.5885
  364MPD2     H 5504   1.859   2.608  10.602 -0.0877 -0.5511  1.2558
  364MPD2    H1 5505   1.569   2.431  10.836 -1.9409 -0.0204 -0.5761
  364MPD2    H2 5506   1.517   2.838  10.739  0.1686 -0.3213 -0.3449
  364MPD2    H3 5507   1.440   2.639  10.849  1.6422  0.8291  2.4821
  364MPD2     N 5508   1.784   2.384  10.730 -0.5049  0.7652  0.7265
  364MPD2    H5 5509   1.725   2.308  10.762 -1.9445  2.2658  1.5924
  364MPD2    N1 5510   1.729   2.851  10.578  0.1518 -0.2096  0.6141
  364MPD2    H7 5511   1.669   2.932  10.588 -2.0926 -1.5845 -1.6740
  365TMC3    C1 5512   1.858   2.974  10.417 -0.3421 -0.0166  0.3252
  365TMC3    C2 5513   1.933   2.955  10.304 -0.5604  0.5585 -0.6198
  365TMC3    C3 5514   2.034   3.050  10.272  0.1888 -0.0156  0.0348
  365TMC3    C4 5515   1.864   3.088  10.497  0.9870 -0.3952  0.0855
  365TMC3    C5 5516   1.950   3.182  10.457 -0.8845  0.2207 -0.6785
  365TMC3    C6 5517   2.047   3.157  10.353  0.1531 -0.4741 -0.4259
  365TMC3     C 5518   1.824   2.846  10.478  1.2184  0.1021  0.4351
  365TMC3     O 5519   1.879   2.749  10.427 -0.9797 -0.4041 -0.0739
  365TMC3     H 5520   1.901   2.875  10.238 -0.0526 -0.0317 -0.1645
  365TMC3    H1 5521   1.813   3.087  10.593 -2.1541  0.1118 -1.5574
  365TMC3    H2 5522   2.125   3.231  10.337  1.3580 -1.1116  2.5625
  365TMC3    C7 5523   1.960   3.310  10.524  0.1619  0.0788 -0.3316
  365TMC3    C8 5524   2.157   3.001  10.215  0.4588 -0.6604 -0.3274
  365TMC3    O1 5525   2.053   3.388  10.508 -0.0301 -0.4932 -0.1028
  365TMC3    O2 5526   2.253   3.077  10.209  0.4240 -0.5170 -0.2369
  366MPD2     C 5527   3.823   3.927  15.558  0.2585 -0.1005 -0.2435
  366MPD2    C1 5528   3.944   3.865  15.537 -0.2036 -0.3433 -0.0584
  366MPD2    C2 5529   3.942   3.730  15.505  0.3774 -0.2142 -0.5437
  366MPD2    C3 5530   3.815   3.667  15.490 -0.5159 -0.2901  0.5832
  366MPD2    C4 5531   3.694   3.730  15.509  0.4162 -0.0751  0.2777
  366MPD2    C5 5532   3.701   3.864  15.550  0.6197  0.4195  0.0247
  366MPD2     H 5533   4.038   3.684  15.487  1.4687  1.0966  1.7830
  366MPD2    H1 5534   3.598   3.685  15.487  1.0113 -1.8638  1.3383
  366MPD2    H2 5535   3.829   4.033  15.583  0.4953  0.2700 -1.8601
  366MPD2    H3 5536   3.609   3.915  15.577  1.5396  1.4903  1.1430
  366MPD2     N 5537   3.824   3.538  15.433 -0.1831  0.2735  0.3575
  366MPD2    H5 5538   3.913   3.492  15.421  0.2559  1.3437 -0.4948
  366MPD2    N1 5539   4.070   3.935  15.533 -0.4805  0.4459  0.0211
  366MPD2    H7 5540   4.149   3.881  15.500  0.3113  0.6980  1.5563
  367TMC3    C1 5541   4.220   4.106  15.474 -0.2622 -0.2408  0.0936
  367TMC3    C2 5542   4.323   4.020  15.487 -0.3015  0.4835 -0.4083
  367TMC3    C3 5543   4.428   4.038  15.403 -0.4000  0.5421 -0.3846
  367TMC3    C4 5544   4.223   4.197  15.371 -0.0033  0.0738 -0.6729
  367TMC3    C5 5545   4.323   4.201  15.279  0.2975  0.2956 -0.6046
  367TMC3    C6 5546   4.433   4.126  15.299 -0.0381 -0.8687 -0.0434
  367TMC3     C 5547   4.090   4.072  15.526 -0.2796  0.6122 -0.0700
  367TMC3     O 5548   4.011   4.160  15.557  0.1186 -0.3776 -0.1937
  367TMC3     H 5549   4.330   3.953  15.571  1.5297 -1.1251 -1.8506
  367TMC3    H1 5550   4.132   4.251  15.347 -1.3567 -1.4246  1.0165
  367TMC3    H2 5551   4.527   4.159  15.256  0.2182 -0.2969  0.9416
  367TMC3    C7 5552   4.277   4.237  15.145 -0.5330 -0.0151  0.5093
  367TMC3    C8 5553   4.555   3.989  15.460  0.8843 -0.5507  0.4309
  367TMC3    O1 5554   4.163   4.288  15.128 -0.0445 -0.0428 -0.0303
  367TMC3    O2 5555   4.542   3.937  15.569  0.2851  0.0973  0.2093
  368MPD2     C 5556   1.069   0.630  13.330  0.8373 -0.0288  0.2986
  368MPD2    C1 5557   0.994   0.694  13.230 -0.0423  0.4921 -0.2974
  368MPD2    C2 5558   1.055   0.722  13.108  0.0964  0.3559 -0.6218
  368MPD2    C3 5559   1.178   0.670  13.073  0.4185  0.2734  0.5525
  368MPD2    C4 5560   1.238   0.591  13.166 -0.1307  0.1767  0.4272
  368MPD2    C5 5561   1.186   0.567  13.290  0.0161  0.2251 -0.1526
  368MPD2     H 5562   0.989   0.784  13.048 -1.3825 -1.8901 -1.3445
  368MPD2    H1 5563   1.338   0.551  13.151 -1.1945 -2.2817 -0.0806
  368MPD2    H2 5564   1.038   0.624  13.434  0.2386  0.0048  0.1219
  368MPD2    H3 5565   1.231   0.497  13.360 -0.0352  0.1254 -0.2176
  368MPD2     N 5566   1.240   0.700  12.949  0.1631 -0.1733 -0.4444
  368MPD2    H5 5567   1.334   0.664  12.941  0.6892  1.0057  0.3661
  368MPD2    N1 5568   0.870   0.766  13.257  0.6809  0.4573  0.1835
  368MPD2    H7 5569   0.831   0.825  13.184 -1.2272 -1.0882 -0.0442
  369TMC3    C1 5570   0.706   0.866  13.392 -0.5456  0.2902  0.3266
  369TMC3    C2 5571   0.737   0.989  13.337  0.1165 -0.0460  0.7060
  369TMC3    C3 5572   0.629   1.073  13.321  0.4243 -0.1276  0.3496
  369TMC3    C4 5573   0.588   0.836  13.456 -1.0754  0.3854 -0.0778
  369TMC3    C5 5574   0.483   0.929  13.441 -0.2257  0.1570  0.1814
  369TMC3    C6 5575   0.501   1.047  13.368 -0.4247 -0.2197  0.6029
  369TMC3     C 5576   0.802   0.749  13.375  0.0459 -0.0347 -0.4914
  369TMC3     O 5577   0.803   0.670  13.471 -0.1233 -0.3991 -0.5909
  369TMC3     H 5578   0.834   0.996  13.289  0.3063  0.4115  1.1647
  369TMC3    H1 5579   0.572   0.743  13.511 -1.1391 -1.2200 -2.7966
  369TMC3    H2 5580   0.419   1.115  13.348 -1.3508 -1.7508 -0.8981
  369TMC3    C7 5581   0.366   0.909  13.529 -0.1267 -0.0717  0.1437
  369TMC3    C8 5582   0.649   1.159  13.207 -0.0235 -0.4345  0.4508
  369TMC3    O1 5583   0.389   0.832  13.620 -0.1286 -0.1467 -0.0611
  369TMC3    O2 5584   0.564   1.156  13.120  0.4918 -0.3090  0.4483
  370TMC3    C1 5585   0.062   1.351  16.204  0.0329 -0.4543  0.9328
  370TMC3    C2 5586   0.025   1.242  16.275 -0.3921 -0.2728 -0.1358
  370TMC3    C3 5587   4.724   1.133  16.210 -0.5978  0.1781 -0.4296
  370TMC3    C4 5588   0.064   1.354  16.065  0.1820  1.2274  0.1754
  370TMC3    C5 5589   0.037   1.236  16.007  0.0399 -0.2359 -0.5741
  370TMC3    C6 5590   4.736   1.127  16.071  0.4307 -0.2236  0.5523
  370TMC3     C 5591   0.152   1.447  16.264 -0.5176  0.0444  0.6430
  370TMC3     O 5592   0.185   1.424  16.382 -0.0249  0.5273  0.8712
  370TMC3     H 5593   0.031   1.247  16.384 -0.5054 -0.9845 -0.1015
  370TMC3    H1 5594   0.106   1.439  16.011  2.8443  1.3991  2.5043
  370TMC3    H2 5595   4.703   1.041  16.015 -1.7340 -0.5878  2.4129
  370TMC3    C7 5596   0.107   1.207  15.884  0.1724 -0.4535  0.1400
  370TMC3    C8 5597   4.706   1.008  16.281 -0.3749  0.8120 -0.2121
  370TMC3    O1 5598   0.090   1.284  15.787 -0.6215  0.0974 -0.7262
  370TMC3    O2 5599   4.682   0.910  16.212  0.0268  0.1793 -0.2209
  371TMC3    C1 5600   1.543   4.341  15.714  0.4317 -0.0143  0.2527
  371TMC3    C2 5601   1.414   4.331  15.683  0.1268 -0.3314  0.7821
  371TMC3    C3 5602   1.349   4.434  15.627  0.8037 -0.2696 -0.0257
  371TMC3    C4 5603   1.621   4.441  15.662 -0.3508 -0.1046 -0.5400
  371TMC3    C5 5604   1.547   4.543  15.602  0.0247  0.1445  0.3213
  371TMC3    C6 5605   1.410   4.551  15.589  0.4087  0.3415  0.4630
  371TMC3     C 5606   1.619   4.236  15.780 -0.6604  0.3176 -1.0300
  371TMC3     O 5607   1.730   4.217  15.739  0.7291 -0.0294 -0.0565
  371TMC3     H 5608   1.347   4.248  15.704 -0.4223 -0.4151 -1.3431
  371TMC3    H1 5609   1.726   4.450  15.688 -0.3864  1.7590 -0.9848
  371TMC3    H2 5610   1.363   4.633  15.535 -1.3227 -3.3368 -3.6471
  371TMC3    C7 5611   1.619   4.628  15.506  0.0419 -0.7501  0.2700
  371TMC3    C8 5612   1.202   4.432  15.626  0.5311  0.6551 -0.0603
  371TMC3    O1 5613   1.566   4.737  15.477 -0.1499 -0.1990 -0.1762
  371TMC3    O2 5614   1.145   4.328  15.598  0.2639  0.5496  0.3011
  372MPD2     C 5615   1.343   0.938  13.344 -0.2744 -0.0702 -0.6518
  372MPD2    C1 5616   1.413   0.868  13.438  0.1353  0.4784 -0.2430
  372MPD2    C2 5617   1.350   0.827  13.552 -0.4020  0.4521 -0.1255
  372MPD2    C3 5618   1.215   0.848  13.560 -0.3685 -0.6240 -0.4882
  372MPD2    C4 5619   1.152   0.922  13.473 -0.5406 -0.1469  0.2247
  372MPD2    C5 5620   1.212   0.965  13.354 -0.0347 -0.3860 -0.1971
  372MPD2     H 5621   1.408   0.767  13.621 -1.4871 -0.5216 -0.0502
  372MPD2    H1 5622   1.046   0.940  13.488  0.0182  2.5835  0.8389
  372MPD2    H2 5623   1.382   0.971  13.249  1.4758 -0.0226  0.0848
  372MPD2    H3 5624   1.160   1.014  13.274  3.2600  2.4793 -0.5882
  372MPD2     N 5625   1.152   0.796  13.678 -0.1650 -0.5132  0.1185
  372MPD2    H5 5626   1.214   0.744  13.739  0.2318 -3.4387 -2.7498
  372MPD2    N1 5627   1.552   0.832  13.424  0.5682  0.2371 -0.0042
  372MPD2    H7 5628   1.594   0.773  13.494 -4.1177 -1.4511  1.4245
  373TMC3    C1 5629   0.973   0.732  13.828 -0.6670  0.3148  0.2920
  373TMC3    C2 5630   0.963   0.795  13.948  0.8312 -0.0954 -0.5017
  373TMC3    C3 5631   0.983   0.721  14.060  0.4907  0.4999  0.2424
  373TMC3    C4 5632   1.002   0.600  13.812 -0.0966  0.7581 -0.5123
  373TMC3    C5 5633   1.015   0.525  13.925  0.0543 -0.2895 -0.2623
  373TMC3    C6 5634   1.000   0.587  14.049 -1.0777 -0.2040 -0.0311
  373TMC3     C 5635   1.016   0.814  13.716 -0.8781 -0.5057  0.3824
  373TMC3     O 5636   0.949   0.911  13.683 -0.1538  0.2671 -0.2373
  373TMC3     H 5637   0.946   0.901  13.939 -0.4640 -0.2697 -0.1973
  373TMC3    H1 5638   1.031   0.561  13.716 -1.1221 -0.3848 -0.3598
  373TMC3    H2 5639   1.000   0.539  14.146  1.1129 -1.7869 -0.8227
  373TMC3    C7 5640   1.101   0.411  13.911  0.0036  0.0509 -0.4737
  373TMC3    C8 5641   1.067   0.783  14.174  0.4303  0.8861 -0.4169
  373TMC3    O1 5642   1.106   0.353  13.803 -0.9556  0.3468 -0.8524
  373TMC3    O2 5643   1.162   0.706  14.190  0.3198 -0.2864 -0.0938
  374TMC3    C1 5644   2.024   1.391   9.714 -0.0817 -0.2163  0.8174
  374TMC3    C2 5645   2.126   1.473   9.738 -0.0128  0.7155  0.6014
  374TMC3    C3 5646   2.123   1.604   9.712  0.1351  0.1237 -0.2675
  374TMC3    C4 5647   1.914   1.438   9.649  0.0526 -0.8282 -0.4113
  374TMC3    C5 5648   1.913   1.568   9.612  0.1745 -0.6406 -0.6042
  374TMC3    C6 5649   2.012   1.659   9.647 -0.0608  0.4223 -0.7631
  374TMC3     C 5650   2.030   1.248   9.737  1.0221  0.1014 -0.0639
  374TMC3     O 5651   1.970   1.169   9.663 -0.1450  0.2633  0.0949
  374TMC3     H 5652   2.216   1.428   9.778 -0.0518 -0.6214 -0.8597
  374TMC3    H1 5653   1.836   1.373   9.613 -1.2922  0.9426 -0.6841
  374TMC3    H2 5654   2.016   1.763   9.619  1.1862  0.8917  1.2199
  374TMC3    C7 5655   1.787   1.630   9.593 -0.1965 -0.2107 -1.4910
  374TMC3    C8 5656   2.225   1.698   9.751 -0.2715 -0.1434 -0.4929
  374TMC3    O1 5657   1.685   1.567   9.607  0.7156 -0.0729 -0.6499
  374TMC3    O2 5658   2.235   1.796   9.679  0.9588  0.1537 -0.2022
  375MPD2     C 5659   1.526   1.274  16.893 -0.2977  0.4782  0.5412
  375MPD2    C1 5660   1.444   1.309  16.789  0.1998 -0.0789 -0.7805
  375MPD2    C2 5661   1.497   1.284  16.663  0.3695 -0.1510  0.2701
  375MPD2    C3 5662   1.610   1.216  16.637 -0.7571 -0.6329  0.8303
  375MPD2    C4 5663   1.692   1.185  16.744  0.0798  0.1629  0.0169
  375MPD2    C5 5664   1.650   1.207  16.874 -0.1471 -0.0435  0.3878
  375MPD2     H 5665   1.435   1.310  16.577  2.4193 -0.6264 -1.3557
  375MPD2    H1 5666   1.785   1.130  16.731  0.4596  1.0559 -1.0561
  375MPD2    H2 5667   1.496   1.263  16.996  1.8232  4.4331  1.5762
  375MPD2    H3 5668   1.719   1.179  16.953  0.1664  1.9681  0.8230
  375MPD2     N 5669   1.659   1.188  16.508 -0.1875 -0.4741  0.1487
  375MPD2    H5 5670   1.752   1.148  16.510 -0.5566 -1.3157  0.1871
  375MPD2    N1 5671   1.315   1.356  16.806 -0.4467 -0.1999  0.7178
  375MPD2    H7 5672   1.259   1.375  16.724  1.4122  2.0101 -0.0460
  376TMC3    C1 5673   1.671   1.163  16.267  1.0528 -0.0304 -0.0018
  376TMC3    C2 5674   1.808   1.137  16.281 -0.6672  0.1807 -0.0171
  376TMC3    C3 5675   1.877   1.087  16.179 -0.5484  0.2105  0.0698
  376TMC3    C4 5676   1.604   1.134  16.150  0.4912 -0.2199 -0.0321
  376TMC3    C5 5677   1.683   1.089  16.045 -0.3851  0.4605 -0.2849
  376TMC3    C6 5678   1.815   1.062  16.056 -0.1933  0.2356  0.4542
  376TMC3     C 5679   1.587   1.193  16.387 -0.3312 -0.6110 -0.4806
  376TMC3     O 5680   1.480   1.248  16.365  0.1828  0.1634 -0.2100
  376TMC3     H 5681   1.852   1.159  16.378  1.7791 -0.5140 -0.9872
  376TMC3    H1 5682   1.501   1.166  16.152  0.5522 -0.0548  0.3731
  376TMC3    H2 5683   1.873   1.057  15.965  1.0376 -1.4902  1.3334
  376TMC3    C7 5684   1.648   1.150  15.918 -0.5490 -0.0727 -0.0589
  376TMC3    C8 5685   2.008   1.151  16.159 -0.4468 -0.0238  0.2494
  376TMC3    O1 5686   1.697   1.103  15.817  0.1455 -0.2608  0.3432
  376TMC3    O2 5687   2.034   1.184  16.043 -0.2394  0.2156  0.6481
  377MPD2     C 5688   4.480   1.370  13.116 -0.5796  0.1419 -0.3180
  377MPD2    C1 5689   4.552   1.263  13.083 -0.4030 -0.3386 -0.1952
  377MPD2    C2 5690   4.546   1.152  13.162  0.2698  0.2961  0.4477
  377MPD2    C3 5691   4.459   1.146  13.275  0.3295 -0.3086 -0.2227
  377MPD2    C4 5692   4.390   1.259  13.308  0.0633 -0.3984 -0.1280
  377MPD2    C5 5693   4.405   1.372  13.230  0.0775 -0.2554  1.3104
  377MPD2     H 5694   4.596   1.058  13.139  0.2675  0.6684 -1.0363
  377MPD2    H1 5695   4.326   1.252  13.395  2.4009  0.3585  1.6752
  377MPD2    H2 5696   4.478   1.458  13.052  1.3282  0.8815  0.6202
  377MPD2    H3 5697   4.361   1.466  13.259 -0.5875  0.4337 -1.8885
  377MPD2     N 5698   4.452   1.025  13.346  0.5542 -0.8045 -0.1865
  377MPD2    H5 5699   4.419   1.021  13.442  2.2151 -0.5710  0.3888
  377MPD2    N1 5700   4.617   1.260  12.959  0.0358 -0.4044  0.1281
  377MPD2    H7 5701   4.603   1.338  12.895 -1.3233  0.5400  1.5656
  378TMC3    C1 5702   0.010   1.232  12.572 -0.4631 -0.1393 -0.6188
  378TMC3    C2 5703   4.702   1.235  12.704  0.7253  0.3693  0.2908
  378TMC3    C3 5704   0.046   1.203  12.807  0.8157  0.0766  0.0264
  378TMC3    C4 5705   0.142   1.200  12.548  0.0525 -0.4354  0.1345
  378TMC3    C5 5706   0.220   1.157  12.654  0.1954 -0.5932 -0.4115
  378TMC3    C6 5707   0.172   1.153  12.784  0.2013  0.1603 -0.4307
  378TMC3     C 5708   4.664   1.304  12.479  0.5484  0.3693  0.4975
  378TMC3     O 5709   4.542   1.300  12.506 -0.3728 -0.5159 -0.0414
  378TMC3     H 5710   4.609   1.288  12.715 -0.3029 -1.4545  0.4088
  378TMC3    H1 5711   0.178   1.229  12.450  0.0664 -0.7500  0.0457
  378TMC3    H2 5712   0.237   1.121  12.864  0.5237  2.2233  0.1282
  378TMC3    C7 5713   0.355   1.109  12.640 -0.4813 -0.4375 -0.1540
  378TMC3    C8 5714   4.720   1.175  12.930 -0.3036 -0.0872  0.1429
  378TMC3    O1 5715   0.396   1.046  12.732  0.1276  0.3624 -0.4590
  378TMC3    O2 5716   0.044   1.084  12.988  0.1732 -0.0052  0.5564
  379MPD2     C 5717   0.067   3.695  16.480 -0.8797 -0.0130 -0.5801
  379MPD2    C1 5718   0.199   3.711  16.441 -0.0632 -0.8259 -0.5420
  379MPD2    C2 5719   0.296   3.713  16.539 -0.1575  0.4641  0.5894
  379MPD2    C3 5720   0.261   3.703  16.674 -0.1610 -0.0841 -0.5694
  379MPD2    C4 5721   0.125   3.703  16.707 -0.6462  0.4806  0.3823
  379MPD2    C5 5722   0.030   3.690  16.607 -0.9698 -0.2496  0.4369
  379MPD2     H 5723   0.402   3.716  16.517  0.0402  2.6368  1.7821
  379MPD2    H1 5724   0.095   3.705  16.812 -2.1400  2.6889 -0.0881
  379MPD2    H2 5725   4.731   3.714  16.402  0.9576  0.3682 -2.2445
  379MPD2    H3 5726   4.663   3.687  16.638 -0.7173  0.6076  1.3663
  379MPD2     N 5727   0.358   3.679  16.776 -0.4470 -0.2385 -0.2437
  379MPD2    H5 5728   0.310   3.670  16.865 -0.3290 -0.3100 -0.1870
  379MPD2    N1 5729   0.228   3.728  16.302 -0.0486 -0.6753  0.3657
  379MPD2    H7 5730   0.147   3.718  16.241  1.0432 -1.5272 -0.9335
  380TMC3    C1 5731   0.356   3.733  16.106  0.1576  0.3693 -0.1879
  380TMC3    C2 5732   0.487   3.732  16.058 -0.8134  0.1607  0.0887
  380TMC3    C3 5733   0.509   3.717  15.929  0.2512  0.5558  0.8583
  380TMC3    C4 5734   0.252   3.721  16.021  0.0217 -0.5591 -0.0092
  380TMC3    C5 5735   0.280   3.701  15.891  0.3238 -0.2003 -0.0897
  380TMC3    C6 5736   0.414   3.680  15.847 -0.1821 -0.1835 -0.0090
  380TMC3     C 5737   0.351   3.751  16.250 -0.3122  0.8897  0.2645
  380TMC3     O 5738   0.458   3.771  16.302  0.1835 -0.4163  0.3547
  380TMC3     H 5739   0.569   3.762  16.122 -0.0939  0.0693 -0.7951
  380TMC3    H1 5740   0.154   3.754  16.055 -0.5878 -1.4176 -0.9076
  380TMC3    H2 5741   0.441   3.652  15.746 -1.5491  1.6684 -0.8991
  380TMC3    C7 5742   0.199   3.760  15.789 -0.6924 -0.1252 -0.7290
  380TMC3    C8 5743   0.588   3.816  15.865  0.9105 -0.1031  0.0288
  380TMC3    O1 5744   0.081   3.764  15.818 -0.0548 -0.4954 -0.7812
  380TMC3    O2 5745   0.531   3.854  15.761 -0.0861  0.1503 -0.2277
  381TMC3    C1 5746   0.038   0.491  15.792 -0.0535 -0.1519 -0.4014
  381TMC3    C2 5747   0.152   0.512  15.863 -0.1384  0.3148  0.5263
  381TMC3    C3 5748   0.136   0.576  15.989 -0.1287  0.1229  0.6979
  381TMC3    C4 5749   4.653   0.538  15.830  0.6092  0.5127  0.1222
  381TMC3    C5 5750   4.639   0.603  15.950 -0.6325 -0.5757  0.0288
  381TMC3    C6 5751   0.012   0.621  16.026 -0.8428 -0.5122  0.3520
  381TMC3     C 5752   0.043   0.376  15.708  0.2266 -0.2439 -0.5766
  381TMC3     O 5753   4.669   0.325  15.707 -0.3324 -0.1075  0.1871
  381TMC3     H 5754   0.249   0.482  15.823 -0.5474  2.1410 -1.8400
  381TMC3    H1 5755   4.573   0.520  15.759  1.9376  0.1862 -1.2963
  381TMC3    H2 5756   0.001   0.692  16.107  0.1034  1.4324 -1.2404
  381TMC3    C7 5757   4.504   0.647  15.986  0.1280 -0.0748  0.3179
  381TMC3    C8 5758   0.250   0.615  16.067  0.1684 -0.2603  0.1739
  381TMC3    O1 5759   4.413   0.610  15.916 -0.1050  0.0051  0.3959
  381TMC3    O2 5760   0.357   0.610  16.007  0.0594  0.0415  0.2643
  382MPD2     C 5761   3.681   3.123  16.917 -0.5775 -0.4637 -0.1954
  382MPD2    C1 5762   3.728   3.162  17.040 -0.1647  0.7366  0.2687
  382MPD2    C2 5763   3.754   3.068  17.140  0.3932  0.5568 -0.5114
  382MPD2    C3 5764   3.728   2.929  17.107  0.0506 -0.2337  0.3245
  382MPD2    C4 5765   3.693   2.894  16.978 -0.0613  0.1744  0.2193
  382MPD2    C5 5766   3.665   2.990  16.884 -0.6211  0.1987  0.6991
  382MPD2     H 5767   3.806   3.107  17.227 -1.0855  0.1608  0.5657
  382MPD2    H1 5768   3.681   2.790  16.951 -0.1135 -0.0874  1.2254
  382MPD2    H2 5769   3.666   3.195  16.837 -3.3454 -1.0253 -0.1686
  382MPD2    H3 5770   3.620   2.967  16.789 -0.7394 -0.7583  0.9837
  382MPD2     N 5771   3.735   2.824  17.200  0.0795  0.9032 -0.3222
  382MPD2    H5 5772   3.706   2.735  17.161  1.0781  0.7762 -0.7758
  382MPD2    N1 5773   3.741   3.293  17.084 -0.2121  0.4885 -0.0065
  382MPD2    H7 5774   3.760   3.302  17.183 -3.2783 -2.0965  0.8247
  383TMC3    C1 5775   3.720   2.725  17.410  1.1078 -0.3617  0.5020
  383TMC3    C2 5776   3.679   2.615  17.340 -0.2400 -0.0966  0.3936
  383TMC3    C3 5777   3.620   2.513  17.416 -0.7702 -0.2702  1.2355
  383TMC3    C4 5778   3.719   2.734  17.548 -0.4261  0.9310  0.9178
  383TMC3    C5 5779   3.656   2.631  17.617  0.1321 -0.0326  0.1000
  383TMC3    C6 5780   3.611   2.514  17.552  0.5576 -0.1000 -0.0385
  383TMC3     C 5781   3.765   2.840  17.333 -0.0360  0.2033  0.3013
  383TMC3     O 5782   3.803   2.927  17.405  0.0063 -0.8071  0.2355
  383TMC3     H 5783   3.695   2.594  17.235  2.1574 -2.8000  1.3006
  383TMC3    H1 5784   3.777   2.809  17.599  2.9146 -0.3383 -0.9866
  383TMC3    H2 5785   3.563   2.433  17.605 -2.5381  0.1546 -2.4812
  383TMC3    C7 5786   3.706   2.616   0.009 -0.3067  0.4397 -0.3555
  383TMC3    C8 5787   3.578   2.386  17.358 -0.6750 -0.0690 -0.2321
  383TMC3    O1 5788   3.708   2.500   0.046 -0.0252  0.0606 -0.0282
  383TMC3    O2 5789   3.555   2.292  17.434  0.6417  0.1954  0.2822
  384MPD2     C 5790   0.993   4.409  12.311 -0.0918 -0.3779  0.0071
  384MPD2    C1 5791   1.080   4.364  12.408 -0.6302 -0.8539 -0.2311
  384MPD2    C2 5792   1.219   4.350  12.373 -0.2909 -0.7856 -0.2467
  384MPD2    C3 5793   1.251   4.344  12.238 -0.1627 -0.3508  0.3374
  384MPD2    C4 5794   1.158   4.385  12.146 -0.5841 -0.3105  0.9653
  384MPD2    C5 5795   1.035   4.420  12.183 -0.9239 -0.3737 -0.8222
  384MPD2     H 5796   1.295   4.320  12.444  0.7031  1.4279 -0.3786
  384MPD2    H1 5797   1.183   4.393  12.041 -0.3032 -0.6575  1.0028
  384MPD2    H2 5798   0.888   4.424  12.333 -0.6318 -0.4916 -2.6076
  384MPD2    H3 5799   0.968   4.446  12.102 -1.3910 -2.0916 -0.9798
  384MPD2     N 5800   1.379   4.301  12.211 -0.0153 -0.0447  0.1454
  384MPD2    H5 5801   1.436   4.272  12.290  1.7410 -0.1484 -1.1422
  384MPD2    N1 5802   1.028   4.335  12.539  0.0812 -0.1977  0.0255
  384MPD2    H7 5803   0.928   4.318  12.541 -0.0445  0.6770  1.1617
  385TMC3    C1 5804   1.565   4.222  12.104  0.5030  0.4996 -0.5258
  385TMC3    C2 5805   1.582   4.107  12.044  0.0358 -0.1777 -0.1141
  385TMC3    C3 5806   1.662   4.018  12.118 -0.7664 -0.1538  0.2614
  385TMC3    C4 5807   1.628   4.252  12.222 -0.0337  0.4691  0.2028
  385TMC3    C5 5808   1.692   4.159  12.298 -0.0456  0.6607 -0.1692
  385TMC3    C6 5809   1.726   4.045  12.234  0.1721 -0.4878  0.0792
  385TMC3     C 5810   1.435   4.285  12.093  0.5333 -0.3973  0.0293
  385TMC3     O 5811   1.385   4.304  11.981 -0.2445  0.4048  0.7240
  385TMC3     H 5812   1.513   4.070  11.968  1.2527 -2.6558 -0.0293
  385TMC3    H1 5813   1.606   4.351  12.259 -1.8210  0.4798 -0.8519
  385TMC3    H2 5814   1.776   3.966  12.289  0.2895 -0.7896 -0.4591
  385TMC3    C7 5815   1.619   4.131  12.417  0.0907 -0.0684  0.4895
  385TMC3    C8 5816   1.661   3.877  12.085 -1.0219  0.5279 -0.0473
  385TMC3    O1 5817   1.530   4.210  12.449 -0.3294  0.1068  0.2450
  385TMC3    O2 5818   1.699   3.800  12.175 -0.4559 -0.7167 -0.0084
  386TMC3    C1 5819   1.663   1.461  11.957  0.6123 -0.8232 -0.6660
  386TMC3    C2 5820   1.713   1.564  11.885 -0.0616 -0.1945  0.0384
  386TMC3    C3 5821   1.631   1.672  11.868 -0.9365  0.6322 -0.4265
  386TMC3    C4 5822   1.535   1.462  12.014 -0.1222  0.5154  0.7514
  386TMC3    C5 5823   1.464   1.574  11.992  0.6259 -0.5498 -0.4680
  386TMC3    C6 5824   1.508   1.684  11.927 -0.0750  0.3267 -0.1372
  386TMC3     C 5825   1.766   1.386  12.021 -0.7689  0.7568 -0.6117
  386TMC3     O 5826   1.884   1.414  12.001  0.2122 -0.6451  0.0731
  386TMC3     H 5827   1.818   1.573  11.856  0.0296  1.1313  0.7955
  386TMC3    H1 5828   1.498   1.380  12.074 -1.1096 -0.7211 -1.5467
  386TMC3    H2 5829   1.449   1.776  11.926  0.7965  0.8961  0.9093
  386TMC3    C7 5830   1.321   1.561  12.026 -0.0662  0.7423 -1.0483
  386TMC3    C8 5831   1.615   1.714  11.730 -0.0798 -0.2707  0.1986
  386TMC3    O1 5832   1.302   1.485  12.120  0.2064 -0.6031 -0.2577
  386TMC3    O2 5833   1.512   1.773  11.697 -1.3053  0.7287  0.4367
  387MPD2     C 5834   4.341   1.955   9.981 -0.1832 -1.0316  0.5015
  387MPD2    C1 5835   4.450   1.871   9.990  0.3519  0.3709 -0.0261
  387MPD2    C2 5836   4.442   1.741   9.955  0.5962 -0.0811 -0.0888
  387MPD2    C3 5837   4.314   1.686   9.942  0.7439 -0.3981 -0.0066
  387MPD2    C4 5838   4.203   1.763   9.927  0.2228  0.4222  0.1893
  387MPD2    C5 5839   4.221   1.901   9.951 -0.1024 -0.0577 -1.5027
  387MPD2     H 5840   4.528   1.677   9.969  1.0850  1.1951  2.6400
  387MPD2    H1 5841   4.100   1.729   9.921  0.7283 -1.1503  0.5934
  387MPD2    H2 5842   4.341   2.062  10.003 -0.8929 -1.0298  0.5156
  387MPD2    H3 5843   4.132   1.963   9.944  0.8148  1.0184 -3.2855
  387MPD2     N 5844   4.314   1.547   9.933 -0.5464 -0.3610 -0.4164
  387MPD2    H5 5845   4.408   1.509   9.933 -0.4363 -0.0832 -0.3912
  387MPD2    N1 5846   4.576   1.905  10.047 -0.2478 -0.1660  0.1163
  387MPD2    H7 5847   4.645   1.831  10.049 -0.7945 -0.6880 -0.2955
  388TMC3    C1 5848   4.722   1.992  10.200 -0.0403  0.4737  0.1425
  388TMC3    C2 5849   0.056   2.100  10.245  0.0803 -0.2237 -0.1936
  388TMC3    C3 5850   0.153   2.080  10.337  0.2206  0.3719 -0.1393
  388TMC3    C4 5851   0.012   1.864  10.251  0.4486 -0.3351 -0.0587
  388TMC3    C5 5852   0.104   1.844  10.345  0.3277  0.2919  0.5344
  388TMC3    C6 5853   0.175   1.952  10.389 -0.1147  0.1569 -0.1024
  388TMC3     C 5854   4.607   2.020  10.117  0.2798  0.3650  0.6500
  388TMC3     O 5855   4.549   2.124  10.133 -0.2967 -0.4027 -0.1174
  388TMC3     H 5856   0.037   2.198  10.203  3.3467  0.0094 -1.0851
  388TMC3    H1 5857   4.676   1.793  10.214  0.2817  0.3119 -0.9914
  388TMC3    H2 5858   0.242   1.925  10.470 -1.4371 -1.9057  0.2879
  388TMC3    C7 5859   0.098   1.712  10.412 -0.3595 -0.0499  0.2552
  388TMC3    C8 5860   0.197   2.194  10.425  0.5067 -1.4755 -0.3743
  388TMC3    O1 5861   0.124   1.699  10.534 -0.4921 -0.2858  0.0899
  388TMC3    O2 5862   0.133   2.298  10.432  0.1145  0.3090  0.0006
  389MPD2     C 5863   3.354   4.519  11.477  0.3071 -0.7695 -0.3573
  389MPD2    C1 5864   3.290   4.471  11.365  0.0827  0.1851 -0.5891
  389MPD2    C2 5865   3.241   4.344  11.367  0.0314 -0.4625 -0.1694
  389MPD2    C3 5866   3.259   4.258  11.480  0.4815 -0.0266  0.8252
  389MPD2    C4 5867   3.341   4.302  11.585  0.6358  0.1646 -0.4232
  389MPD2    C5 5868   3.387   4.433  11.578  0.5247  1.0516 -0.5487
  389MPD2     H 5869   3.180   4.307  11.286  0.8866 -0.3167 -0.8791
  389MPD2    H1 5870   3.356   4.243  11.674  1.3790 -0.0115 -0.6663
  389MPD2    H2 5871   3.415   4.609  11.475  1.4346 -1.5319 -0.7082
  389MPD2    H3 5872   3.446   4.465  11.663  0.2944  3.1487 -1.1848
  389MPD2     N 5873   3.186   4.137  11.502 -0.4934  0.2641  0.1123
  389MPD2    H5 5874   3.235   4.072  11.562 -1.7698 -2.4820 -1.8174
  389MPD2    N1 5875   3.285   4.564  11.254  0.3160  0.3142  0.1126
  389MPD2    H7 5876   3.325   4.656  11.271  0.8595 -0.2995  2.0502
  390TMC3    C1 5877   3.007   3.974  11.474 -0.0872  0.3558 -1.4800
  390TMC3    C2 5878   3.021   3.940  11.606  0.2798 -0.1667 -0.4255
  390TMC3    C3 5879   2.943   3.831  11.654  0.2072 -0.3721 -0.6653
  390TMC3    C4 5880   2.919   3.903  11.390 -0.6428  0.1984 -0.0910
  390TMC3    C5 5881   2.845   3.799  11.442  0.0516 -0.3230  1.2202
  390TMC3    C6 5882   2.860   3.755  11.572  0.3015  0.2272  0.2623
  390TMC3     C 5883   3.074   4.098  11.428  0.2631 -0.2762  0.1256
  390TMC3     O 5884   3.009   4.156  11.338 -0.0271  0.0228 -0.2630
  390TMC3     H 5885   3.077   4.004  11.674 -0.5606 -0.4339  0.5185
  390TMC3    H1 5886   2.904   3.931  11.287 -1.0204 -0.8389 -0.3155
  390TMC3    H2 5887   2.779   3.693  11.610 -0.1742  1.6476  1.5531
  390TMC3    C7 5888   2.743   3.746  11.360 -0.4127  0.4326  0.2202
  390TMC3    C8 5889   2.927   3.820  11.801 -0.8144 -0.4303 -0.9275
  390TMC3    O1 5890   2.763   3.711  11.243 -0.3981  0.2401 -0.4238
  390TMC3    O2 5891   2.993   3.902  11.869 -0.2899 -0.1228  0.4903
  391MPD2     C 5892   2.819   1.198  11.113  0.6008 -0.2649 -0.5405
  391MPD2    C1 5893   2.947   1.235  11.075  0.0345 -0.1798 -0.5732
  391MPD2    C2 5894   2.957   1.262  10.936 -0.8763  0.0559  0.0168
  391MPD2    C3 5895   2.844   1.236  10.862 -0.2651  0.2222 -0.0196
  391MPD2    C4 5896   2.737   1.156  10.901 -0.1097 -0.2100 -0.6627
  391MPD2    C5 5897   2.716   1.144  11.034 -0.1888  0.2083  0.0879
  391MPD2     H 5898   3.042   1.301  10.882 -1.0458  1.2220  0.5974
  391MPD2    H1 5899   2.657   1.120  10.836 -0.8372 -1.4919  0.9474
  391MPD2    H2 5900   2.799   1.180  11.218 -0.4866  2.6372 -0.2472
  391MPD2    H3 5901   2.633   1.087  11.075  0.6590 -1.8522 -1.0739
  391MPD2     N 5902   2.850   1.292  10.737 -0.7980 -0.0620 -0.1212
  391MPD2    H5 5903   2.933   1.350  10.731  0.4290 -1.7292  0.7173
  391MPD2    N1 5904   3.044   1.276  11.170 -0.1364  0.1665 -0.1771
  391MPD2    H7 5905   3.025   1.249  11.266  0.8632  0.2848  0.0534
  392TMC3    C1 5906   2.784   1.394  10.533  0.3064  0.5854  0.1057
  392TMC3    C2 5907   2.703   1.414  10.421 -0.1336 -0.1880 -0.3903
  392TMC3    C3 5908   2.728   1.523  10.339  0.3244  0.4747 -0.3583
  392TMC3    C4 5909   2.898   1.475  10.551  0.1714 -0.7979  0.3816
  392TMC3    C5 5910   2.919   1.582  10.465 -1.3825 -0.1162  0.2204
  392TMC3    C6 5911   2.831   1.612  10.364 -0.7131 -0.1635  0.5638
  392TMC3     C 5912   2.755   1.297  10.637 -0.0564  0.3644 -0.5279
  392TMC3     O 5913   2.643   1.255  10.641  0.3693  0.2320  0.0291
  392TMC3     H 5914   2.610   1.360  10.408 -1.1550  1.5526 -0.4032
  392TMC3    H1 5915   2.978   1.466  10.624 -1.1509  1.5470  2.1230
  392TMC3    H2 5916   2.842   1.703  10.306 -0.4363 -0.7963 -0.3948
  392TMC3    C7 5917   3.032   1.670  10.494 -0.6435 -0.0462 -0.3323
  392TMC3    C8 5918   2.631   1.547  10.235 -0.2660 -0.5924 -0.0235
  392TMC3    O1 5919   3.086   1.666  10.603 -0.3661 -0.0037  0.8599
  392TMC3    O2 5920   2.540   1.460  10.219  0.4123 -0.1829 -0.0471
  393TMC3    C1 5921   1.524   4.210  10.381 -0.5861 -0.3222  0.3786
  393TMC3    C2 5922   1.461   4.114  10.313 -0.4775 -0.3679  0.2493
  393TMC3    C3 5923   1.343   4.066  10.355  0.3887  0.1352 -0.8893
  393TMC3    C4 5924   1.470   4.262  10.496 -0.0073  0.6687  0.5064
  393TMC3    C5 5925   1.361   4.193  10.550  0.2600 -0.1625  0.9137
  393TMC3    C6 5926   1.293   4.099  10.481  0.8302  0.1566 -0.5649
  393TMC3     C 5927   1.632   4.273  10.313 -0.0746 -0.1174  0.1951
  393TMC3     O 5928   1.699   4.211  10.234  0.0340  0.0467 -0.9803
  393TMC3     H 5929   1.505   4.091  10.217  1.6598  1.4523  0.7871
  393TMC3    H1 5930   1.516   4.338  10.558 -1.7423  1.0741  1.2854
  393TMC3    H2 5931   1.204   4.052  10.522  0.5438 -0.4680 -1.8788
  393TMC3    C7 5932   1.327   4.203  10.691 -0.2527  0.3388  0.6648
  393TMC3    C8 5933   1.275   3.978  10.264  0.1830  0.0637 -0.6443
  393TMC3    O1 5934   1.207   4.194  10.723  0.1927 -0.1867 -0.3422
  393TMC3    O2 5935   1.331   3.929  10.169 -0.1211 -0.2171 -0.3258
  394TMC3    C1 5936   3.301   4.634  11.046 -0.3365 -0.1852  0.1020
  394TMC3    C2 5937   3.206   4.730  11.047 -0.3580  0.3428  0.4618
  394TMC3    C3 5938   3.180   0.064  10.929 -0.5836 -0.0148 -0.1347
  394TMC3    C4 5939   3.380   4.615  10.929 -0.6431 -0.3949 -0.3585
  394TMC3    C5 5940   3.349   4.682  10.820 -0.5748  0.3737  0.9257
  394TMC3    C6 5941   3.256   0.037  10.811 -1.0509 -0.0309  0.3193
  394TMC3     C 5942   3.278   4.520  11.124  0.3159 -1.0504  0.2025
  394TMC3     O 5943   3.253   4.407  11.074 -0.3911  0.5498  0.1025
  394TMC3     H 5944   3.146   0.016  11.134  0.0333  2.8954  0.0748
  394TMC3    H1 5945   3.458   4.540  10.928  0.7635  1.0731 -0.0556
  394TMC3    H2 5946   3.246   0.088  10.716 -0.2306  1.5405  1.0857
  394TMC3    C7 5947   3.446   4.675  10.709 -0.0088 -0.4502 -0.0649
  394TMC3    C8 5948   3.042   0.107  10.913  0.0413 -0.1183  0.9777
  394TMC3    O1 5949   3.478   0.036  10.648  0.3638 -0.1293  0.2728
  394TMC3    O2 5950   2.991   0.149  11.012 -0.1430  0.2204 -0.3405
  395TMC3    C1 5951   2.104   1.410  14.324 -0.2731  0.1620 -0.0852
  395TMC3    C2 5952   2.009   1.406  14.420 -0.2013  0.1259  0.0266
  395TMC3    C3 5953   1.983   1.518  14.499 -0.1490 -0.4129 -0.0648
  395TMC3    C4 5954   2.183   1.521  14.302  0.2898 -0.0204  0.5732
  395TMC3    C5 5955   2.147   1.634  14.381 -0.2040 -0.5805 -0.8082
  395TMC3    C6 5956   2.047   1.638  14.473  0.4683  0.2622  0.0983
  395TMC3     C 5957   2.196   1.306  14.353 -0.2805  0.1036 -0.8023
  395TMC3     O 5958   2.192   1.260  14.466 -0.0191  0.2627  0.1466
  395TMC3     H 5959   1.954   1.313  14.428 -0.7392  0.4948  0.6269
  395TMC3    H1 5960   2.278   1.519  14.249 -0.0237  0.2610  0.0074
  395TMC3    H2 5961   2.042   1.723  14.541  0.8456  1.1875 -1.0178
  395TMC3    C7 5962   2.240   1.743  14.389  0.3806  0.3829 -0.3185
  395TMC3    C8 5963   1.973   1.487  14.639 -0.5730  0.2442 -0.7062
  395TMC3    O1 5964   2.356   1.717  14.358 -0.1711 -0.1896  0.2125
  395TMC3    O2 5965   1.929   1.575  14.713 -0.4103  0.2246  0.1148
  396MPD2     C 5966   2.969   2.626   0.040  0.4680  0.1478  0.2873
  396MPD2    C1 5967   2.904   2.652  17.668 -0.3921  0.4805  0.1128
  396MPD2    C2 5968   2.867   2.785  17.638 -0.4380 -0.6662 -0.3325
  396MPD2    C3 5969   2.890   2.881  17.740 -0.5164  0.3244  0.3575
  396MPD2    C4 5970   2.957   2.852   0.112 -0.4355 -0.7096  0.2625
  396MPD2    C5 5971   2.994   2.725   0.130 -0.6575  0.0691 -0.3916
  396MPD2     H 5972   2.825   2.811  17.541  1.1370  0.3974 -0.7457
  396MPD2    H1 5973   2.986   2.920   0.191 -0.8944 -1.0066  0.6856
  396MPD2    H2 5974   3.001   2.527   0.072 -1.7912 -0.5493  0.3874
  396MPD2    H3 5975   3.061   2.711   0.214 -0.8807  0.9881 -0.0615
  396MPD2     N 5976   2.852   3.020  17.717 -1.0570 -0.2402  0.5912
  396MPD2    H5 5977   2.828   3.042  17.621 -1.5532 -3.2460  0.0379
  396MPD2    N1 5978   2.868   2.554  17.570  0.5237 -0.3574  0.0554
  396MPD2    H7 5979   2.815   2.585  17.489  1.0124 -4.9522 -1.9835
  397TMC3    C1 5980   2.844   2.344  17.466  0.1257  0.0972  0.0459
  397TMC3    C2 5981   2.834   2.420  17.350 -0.4094  0.5444  0.0435
  397TMC3    C3 5982   2.762   2.360  17.247  0.2863  0.5813 -0.3538
  397TMC3    C4 5983   2.769   2.238  17.489 -0.2680  0.7198 -0.1177
  397TMC3    C5 5984   2.679   2.196  17.396 -0.9044 -0.0573  0.0023
  397TMC3    C6 5985   2.680   2.258  17.278 -0.7014 -0.4982  1.3592
  397TMC3     C 5986   2.880   2.416  17.584  0.5069  0.0787  0.4598
  397TMC3     O 5987   2.908   2.348  17.683 -0.1783 -0.2101 -0.0391
  397TMC3     H 5988   2.923   2.482  17.340 -1.0181  1.4522  0.2439
  397TMC3    H1 5989   2.766   2.194  17.588  1.3981  3.0483  0.9595
  397TMC3    H2 5990   2.615   2.215  17.202  3.2371  0.6972 -2.6941
  397TMC3    C7 5991   2.577   2.096  17.417 -0.2397 -0.1010 -0.4695
  397TMC3    C8 5992   2.736   2.420  17.118 -0.4327 -0.2739  0.1711
  397TMC3    O1 5993   2.535   2.028  17.326  0.9248  0.2545  0.6729
  397TMC3    O2 5994   2.617   2.415  17.076  0.1363 -0.1754  0.4967
  398MPD2     C 5995   0.083   3.605   0.423 -0.5000 -0.2087 -0.5718
  398MPD2    C1 5996   0.198   3.545   0.474  0.2860  0.5818  0.3501
  398MPD2    C2 5997   0.249   3.611   0.582 -0.1922  0.5997 -0.1446
  398MPD2    C3 5998   0.209   3.739   0.619  0.0474 -0.7162  0.6810
  398MPD2    C4 5999   0.105   3.803   0.561  0.0684 -0.1576 -0.0623
  398MPD2    C5 6000   0.038   3.730   0.459 -0.0437 -0.6951 -0.6614
  398MPD2     H 6001   0.342   3.577   0.627 -0.0291  1.3369  0.0827
  398MPD2    H1 6002   0.074   3.903   0.587 -0.3470 -0.3298  0.0978
  398MPD2    H2 6003   0.033   3.560   0.338  0.3658 -0.6510 -0.8460
  398MPD2    H3 6004   4.687   3.765   0.405 -1.6976 -0.7632  2.0259
  398MPD2     N 6005   0.282   3.813   0.719  0.4107 -0.0866  0.1173
  398MPD2    H5 6006   0.354   3.756   0.763  0.9685  1.4415  1.1942
  398MPD2    N1 6007   0.271   3.427   0.426  0.3749  0.3814 -0.2218
  398MPD2    H7 6008   0.356   3.396   0.473 -0.6377 -0.5254  1.0166
  399TMC3    C1 6009   0.274   3.225   0.300 -0.4842  0.2635 -0.7567
  399TMC3    C2 6010   0.409   3.200   0.287  0.2233 -0.3068 -0.1408
  399TMC3    C3 6011   0.442   3.074   0.260 -0.4528 -0.4493 -0.1234
  399TMC3    C4 6012   0.180   3.138   0.250  0.0460  0.4429 -0.1249
  399TMC3    C5 6013   0.221   3.012   0.213 -0.4553 -0.2401 -0.0730
  399TMC3    C6 6014   0.352   2.982   0.212 -0.4097  0.5036  0.9837
  399TMC3     C 6015   0.224   3.358   0.315  0.8244 -0.4201  0.3700
  399TMC3     O 6016   0.139   3.389   0.232 -0.3966 -0.1852  0.3158
  399TMC3     H 6017   0.488   3.274   0.293 -0.3325  0.2030  0.9870
  399TMC3    H1 6018   0.075   3.163   0.251 -0.5385 -2.0307  0.1548
  399TMC3    H2 6019   0.389   2.881   0.200 -1.1499  0.4266 -0.6200
  399TMC3    C7 6020   0.128   2.901   0.206 -0.2647 -0.5661  0.0899
  399TMC3    C8 6021   0.577   3.057   0.205  0.5867  0.8188 -0.2719
  399TMC3    O1 6022   0.187   2.798   0.240  0.0971  0.0888 -0.0860
  399TMC3    O2 6023   0.674   3.091   0.268  0.1787  0.3702 -0.2488
  400TMC3    C1 6024   3.553   2.138  16.648  0.1148 -0.5631 -0.1548
  400TMC3    C2 6025   3.441   2.115  16.565  0.1217 -0.5971 -0.4565
  400TMC3    C3 6026   3.364   2.224  16.530  0.3392 -1.3788  0.0478
  400TMC3    C4 6027   3.586   2.264  16.684  0.3877 -0.5793 -0.2014
  400TMC3    C5 6028   3.502   2.368  16.648  0.3268 -0.0021  0.9848
  400TMC3    C6 6029   3.392   2.349  16.574  0.6453  0.0230  0.3442
  400TMC3     C 6030   3.620   2.015  16.688 -0.2078  0.1605  0.0538
  400TMC3     O 6031   3.614   1.923  16.606 -0.7163  0.4224  0.1455
  400TMC3     H 6032   3.418   2.019  16.520  2.0092 -0.3050 -2.0757
  400TMC3    H1 6033   3.671   2.293  16.745  0.2455  2.3371 -1.3729
  400TMC3    H2 6034   3.325   2.433  16.569  1.0496  0.2722 -0.7918
  400TMC3    C7 6035   3.502   2.490  16.726 -0.4894 -0.2719  0.1780
  400TMC3    C8 6036   3.233   2.213  16.463  0.0186  0.4799 -0.3612
  400TMC3    O1 6037   3.566   2.497  16.831 -1.2539  0.1678  0.9657
  400TMC3    O2 6038   3.164   2.313  16.465  0.2868 -0.3182 -0.6631
  401MPD2     C 6039   1.421   0.562  17.137  0.8677 -0.2569  0.1325
  401MPD2    C1 6040   1.478   0.526  17.262  0.5331  0.0707 -0.3428
  401MPD2    C2 6041   1.493   0.390  17.287  0.4295  0.3236 -0.2466
  401MPD2    C3 6042   1.476   0.289  17.193 -0.2006  0.2204  0.3710
  401MPD2    C4 6043   1.431   0.332  17.068  0.1698 -0.3437 -0.2277
  401MPD2    C5 6044   1.405   0.464  17.044  0.1856 -0.4261  0.2292
  401MPD2     H 6045   1.530   0.357  17.383  2.5543  1.0580 -0.8073
  401MPD2    H1 6046   1.407   0.264  16.987  0.3442 -1.0364  0.2998
  401MPD2    H2 6047   1.400   0.666  17.114  1.2236 -0.1198  0.4268
  401MPD2    H3 6048   1.360   0.489  16.949  0.1072 -0.8077  0.1670
  401MPD2     N 6049   1.517   0.162  17.233 -0.2357 -0.1974  0.1443
  401MPD2    H5 6050   1.545   0.150  17.329  1.4093  1.3726 -0.1476
  401MPD2    N1 6051   1.501   0.607  17.371 -0.1837  0.5745  0.2173
  401MPD2    H7 6052   1.507   0.547  17.452 -3.0876 -0.6379 -0.4807
  402TMC3    C1 6053   1.567   4.672  17.224 -0.0798 -0.3521  0.2538
  402TMC3    C2 6054   1.519   4.639  17.350 -0.0075 -0.3488 -0.1241
  402TMC3    C3 6055   1.588   4.541  17.422  1.1742 -0.3313  0.6601
  402TMC3    C4 6056   1.686   4.624  17.184 -0.1361 -0.0165 -0.3103
  402TMC3    C5 6057   1.748   4.524  17.261  0.9103 -0.0512 -0.2432
  402TMC3    C6 6058   1.705   4.483  17.384 -0.1272 -0.2420  0.4394
  402TMC3     C 6059   1.521   0.053  17.151  0.2388  0.6440  0.2565
  402TMC3     O 6060   1.508   0.051  17.029  0.0467 -0.2452 -0.3447
  402TMC3     H 6061   1.417   4.673  17.366  0.6039  0.6369  1.6826
  402TMC3    H1 6062   1.716   4.653  17.084  0.4278 -0.2626 -0.2067
  402TMC3    H2 6063   1.759   4.403  17.433 -0.8044 -1.2759 -0.5191
  402TMC3    C7 6064   1.876   4.468  17.212 -0.2430  0.5613 -0.2722
  402TMC3    C8 6065   1.563   4.532  17.567  0.0309 -0.3155  0.2127
  402TMC3    O1 6066   1.966   4.545  17.183 -0.2179 -0.1199  0.2052
  402TMC3    O2 6067   1.619   4.449  17.639 -0.2339 -0.2233 -0.0229
  403MPD2     C 6068   0.292   3.700  13.800 -0.2628 -0.5337 -0.7594
  403MPD2    C1 6069   0.397   3.662  13.725  0.5319  0.3095  0.3145
  403MPD2    C2 6070   0.505   3.744  13.716 -0.3912  0.1785 -0.6430
  403MPD2    C3 6071   0.512   3.854  13.800  0.2741  0.0754  0.0798
  403MPD2    C4 6072   0.404   3.896  13.868  0.3662  0.3151 -0.4187
  403MPD2    C5 6073   0.291   3.818  13.862  0.1260  0.4427  0.5155
  403MPD2     H 6074   0.603   3.712  13.684 -1.2897 -1.7287 -1.4662
  403MPD2    H1 6075   0.404   3.975  13.943 -1.6638  0.8152 -0.9351
  403MPD2    H2 6076   0.198   3.646  13.802  0.6506 -2.1453 -1.2272
  403MPD2    H3 6077   0.205   3.853  13.919  1.1648  1.8345  1.2237
  403MPD2     N 6078   0.642   3.914  13.804  0.3405  0.2880 -0.0449
  403MPD2    H5 6079   0.714   3.866  13.751 -0.3170 -0.7967  0.0408
  403MPD2    N1 6080   0.404   3.534  13.668 -0.4908 -0.5279  0.1019
  403MPD2    H7 6081   0.337   3.467  13.702 -0.0155  0.6892  3.4390
  404TMC3    C1 6082   0.531   3.353  13.611  0.2934  0.2688  0.1742
  404TMC3    C2 6083   0.522   3.319  13.744  0.3531  0.0303  0.0842
  404TMC3    C3 6084   0.483   3.194  13.776  0.3707  0.5605 -0.0382
  404TMC3    C4 6085   0.517   3.260  13.518 -0.0656  0.3178 -0.1882
  404TMC3    C5 6086   0.481   3.134  13.550  0.4920  0.0373 -0.8385
  404TMC3    C6 6087   0.467   3.100  13.682  0.1828 -0.7637 -0.1217
  404TMC3     C 6088   0.505   3.489  13.584 -0.6700  0.4663  0.4018
  404TMC3     O 6089   0.582   3.549  13.506 -0.3193  0.1841 -0.1145
  404TMC3     H 6090   0.546   3.392  13.821 -1.0250  1.0833 -0.5031
  404TMC3    H1 6091   0.542   3.289  13.416  2.5771 -0.4240  0.2377
  404TMC3    H2 6092   0.437   3.003  13.720  1.7980 -0.8432  0.9426
  404TMC3    C7 6093   0.450   3.035  13.450 -0.0351 -0.1419  0.4142
  404TMC3    C8 6094   0.463   3.168  13.919 -0.0158  0.4570 -0.6013
  404TMC3    O1 6095   0.421   2.924  13.499  0.1933  0.0654  0.3713
  404TMC3    O2 6096   0.372   3.093  13.946  0.1808  0.2692  0.2403
  405MPD2     C 6097   0.482   3.874  14.885  0.2765  0.1053 -0.2786
  405MPD2    C1 6098   0.394   3.877  14.777 -0.5754  0.1966  0.8673
  405MPD2    C2 6099   0.421   3.953  14.665 -0.4120  0.5619  0.2749
  405MPD2    C3 6100   0.546   4.024  14.650  0.9228 -0.0300 -0.2107
  405MPD2    C4 6101   0.643   4.002  14.751 -0.7582  0.1245 -0.2206
  405MPD2    C5 6102   0.606   3.939  14.873 -0.6433 -0.8703  0.6826
  405MPD2     H 6103   0.355   3.955  14.579  0.0882  0.7309 -0.1058
  405MPD2    H1 6104   0.739   4.052  14.751 -1.3774  1.3370  2.4188
  405MPD2    H2 6105   0.456   3.821  14.976  2.2593  1.3016  0.9782
  405MPD2    H3 6106   0.666   3.940  14.963  0.1964 -0.2514  0.1202
  405MPD2     N 6107   0.558   4.111  14.544 -0.5197 -0.3140  0.0669
  405MPD2    H5 6108   0.471   4.129  14.496 -0.4957  1.1389  0.5705
  405MPD2    N1 6109   0.263   3.822  14.788  0.6723  0.4084  0.7022
  405MPD2    H7 6110   0.236   3.784  14.878  1.6350 -0.5252  0.5916
  406TMC3    C1 6111   0.620   4.418  14.234 -0.7581  0.3566 -0.0641
  406TMC3    C2 6112   0.537   4.359  14.142  0.1116  0.5013 -0.1809
  406TMC3    C3 6113   0.497   4.234  14.173  0.4226 -0.6169 -0.2121
  406TMC3    C4 6114   0.673   4.357  14.347 -0.5736  0.4644  0.2269
  406TMC3    C5 6115   0.639   4.227  14.365 -0.0445 -0.1372 -0.0189
  406TMC3    C6 6116   0.545   4.165  14.284  0.3459  0.0283 -0.6919
  406TMC3     C 6117   0.615   4.565  14.241 -0.0274 -0.2726  0.0513
  406TMC3     O 6118   0.693   4.623  14.316  0.1003  0.0670  0.3886
  406TMC3     H 6119   0.519   4.404  14.045 -0.3903  0.4105 -0.1282
  406TMC3    H1 6120   0.730   4.415  14.419  2.5009 -0.8148 -1.1657
  406TMC3    H2 6121   0.505   4.067  14.305 -2.3097  1.1480 -0.4988
  406TMC3    C7 6122   0.669   4.174  14.499 -0.1921  0.4812  0.4938
  406TMC3    C8 6123   0.361   4.213  14.117  0.0247  0.7187 -0.2641
  406TMC3    O1 6124   0.780   4.152  14.538 -0.0138  0.3191  0.3383
  406TMC3    O2 6125   0.306   4.297  14.045  0.0999 -0.3760  0.8895
  407MPD2     C 6126   3.590   1.442   9.931 -0.4344 -0.0593 -0.3588
  407MPD2    C1 6127   3.724   1.466   9.943  0.0609  0.5586 -0.6866
  407MPD2    C2 6128   3.770   1.515  10.065 -0.0469  0.0665  0.8970
  407MPD2    C3 6129   3.680   1.556  10.164  1.2035  0.3043 -0.3188
  407MPD2    C4 6130   3.547   1.510  10.150 -0.2324  0.1961  0.1489
  407MPD2    C5 6131   3.505   1.446  10.037  0.1756 -0.1231  0.1511
  407MPD2     H 6132   3.875   1.542  10.070  0.3559 -1.5707  1.4011
  407MPD2    H1 6133   3.470   1.528  10.224  0.7641  0.2680  1.1623
  407MPD2    H2 6134   3.554   1.394   9.841  1.2527 -0.7879 -0.6416
  407MPD2    H3 6135   3.406   1.403  10.034  0.1274 -0.0909  1.3570
  407MPD2     N 6136   3.717   1.636  10.272 -0.1832 -1.0220  0.7975
  407MPD2    H5 6137   3.641   1.679  10.324  0.6967  0.1223  1.1641
  407MPD2    N1 6138   3.821   1.442   9.845  0.5409  0.5984  0.1551
  407MPD2    H7 6139   3.918   1.447   9.873  0.1086 -0.9246  1.8845
  408TMC3    C1 6140   3.916   1.392   9.631 -0.3576  0.2115  0.4391
  408TMC3    C2 6141   3.946   1.274   9.567 -0.2398  0.3516 -0.5429
  408TMC3    C3 6142   4.070   1.267   9.506  0.1186 -0.6678 -0.9145
  408TMC3    C4 6143   4.009   1.495   9.640  0.5243  0.1685 -0.1408
  408TMC3    C5 6144   4.128   1.485   9.577  0.0514 -0.3061  0.1933
  408TMC3    C6 6145   4.156   1.368   9.506 -0.2582  0.3792 -0.6542
  408TMC3     C 6146   3.800   1.385   9.717  0.0857  0.0930  0.5240
  408TMC3     O 6147   3.706   1.337   9.663  0.3293 -0.5360 -1.0273
  408TMC3     H 6148   3.878   1.190   9.572 -0.1426  0.2578 -0.8193
  408TMC3    H1 6149   3.980   1.578   9.703 -1.8775  0.8618 -2.1860
  408TMC3    H2 6150   4.246   1.356   9.448 -0.2465  2.6303 -1.1247
  408TMC3    C7 6151   4.221   1.593   9.577 -0.4037  0.0337  0.5430
  408TMC3    C8 6152   4.118   1.137   9.469 -0.5492 -0.1199 -0.3134
  408TMC3    O1 6153   4.339   1.560   9.564 -0.1362  0.4132  0.0895
  408TMC3    O2 6154   4.031   1.050   9.449 -0.0098  0.0451  0.0270
  409MPD2     C 6155   2.558   1.723  16.613 -0.1704 -0.8814 -0.7116
  409MPD2    C1 6156   2.640   1.755  16.719 -0.3608 -0.0968 -0.2108
  409MPD2    C2 6157   2.688   1.879  16.728 -0.7829 -0.3222  0.1786
  409MPD2    C3 6158   2.668   1.972  16.623 -0.1768 -0.5532  0.1836
  409MPD2    C4 6159   2.611   1.933  16.506  0.6240 -0.3997 -0.0286
  409MPD2    C5 6160   2.549   1.809  16.509 -0.5540  0.1603 -0.2781
  409MPD2     H 6161   2.751   1.905  16.812  1.0068 -0.2173 -1.1868
  409MPD2    H1 6162   2.591   1.994  16.419 -0.5627  0.3950  0.8127
  409MPD2    H2 6163   2.499   1.632  16.613 -2.0750  0.3712 -0.4417
  409MPD2    H3 6164   2.506   1.776  16.416 -2.9941  2.1213  0.1546
  409MPD2     N 6165   2.710   2.102  16.636  0.1428  0.1487 -0.0789
  409MPD2    H5 6166   2.703   2.161  16.553  0.5467  0.6950  0.2746
  409MPD2    N1 6167   2.672   1.661  16.825 -0.0465 -0.2897 -0.4933
  409MPD2    H7 6168   2.740   1.684  16.896  0.7643 -3.1715 -0.3128
  410TMC3    C1 6169   2.861   2.270  16.723 -0.1546 -0.2687  0.1549
  410TMC3    C2 6170   2.951   2.294  16.818 -0.6450 -0.2769 -0.4997
  410TMC3    C3 6171   3.036   2.401  16.798  0.7490 -0.3363  0.3466
  410TMC3    C4 6172   2.842   2.352  16.619  0.4398 -0.6039  0.3307
  410TMC3    C5 6173   2.921   2.466  16.606  0.4297 -0.0655 -0.1425
  410TMC3    C6 6174   3.020   2.488  16.696  0.7042  0.5979 -0.5079
  410TMC3     C 6175   2.765   2.161  16.753  0.2726  0.1747 -0.6452
  410TMC3     O 6176   2.762   2.121  16.866 -0.5646 -0.0770  0.3224
  410TMC3     H 6177   2.965   2.227  16.902  0.4301  1.9982  1.1389
  410TMC3    H1 6178   2.760   2.331  16.551 -0.3870  1.1516  0.7546
  410TMC3    H2 6179   3.094   2.563  16.673  2.8346 -1.5016 -0.4806
  410TMC3    C7 6180   2.896   2.550  16.493 -0.0103 -0.1563 -0.2321
  410TMC3    C8 6181   3.162   2.415  16.871 -0.1129  0.2097 -0.0004
  410TMC3    O1 6182   2.838   2.507  16.395 -0.0803  0.2241 -0.2790
  410TMC3    O2 6183   3.219   2.523  16.872  0.2818 -0.4884 -0.1239
  411MPD2     C 6184   2.991   2.139  14.560  0.0514  0.4368 -0.5800
  411MPD2    C1 6185   2.884   2.171  14.474 -0.4459  0.4428  0.0195
  411MPD2    C2 6186   2.830   2.068  14.407  0.6808 -0.3267 -0.4195
  411MPD2    C3 6187   2.878   1.937  14.414  1.1450 -1.0732 -0.1465
  411MPD2    C4 6188   2.978   1.912  14.497 -0.7060 -0.6367  1.3684
  411MPD2    C5 6189   3.039   2.015  14.574 -0.5450 -0.6494 -0.0437
  411MPD2     H 6190   2.742   2.095  14.350  0.2023  1.0715  1.0127
  411MPD2    H1 6191   3.025   1.814  14.500 -0.5992 -0.6533 -1.2977
  411MPD2    H2 6192   3.035   2.226  14.607  1.2851 -0.6958  0.3449
  411MPD2    H3 6193   3.121   1.996  14.642 -1.0223 -1.7695  0.2216
  411MPD2     N 6194   2.816   1.827  14.340 -0.0355 -0.4255 -0.1750
  411MPD2    H5 6195   2.859   1.737  14.358 -1.9057 -1.1175  0.8285
  411MPD2    N1 6196   2.828   2.303  14.470  0.5771  0.4438 -0.1613
  411MPD2    H7 6197   2.756   2.310  14.399  3.0591 -0.5483 -2.7763
  412TMC3    C1 6198   2.684   1.719  14.179 -0.0249  0.3798 -0.0890
  412TMC3    C2 6199   2.573   1.733  14.103 -0.2601  0.7086  0.2305
  412TMC3    C3 6200   2.493   1.627  14.090 -0.4800  0.4193  0.3440
  412TMC3    C4 6201   2.719   1.601  14.238  1.2051 -0.0856  0.0491
  412TMC3    C5 6202   2.641   1.494  14.209 -0.6374  0.3485 -0.0104
  412TMC3    C6 6203   2.525   1.507  14.141 -0.4322 -0.1209  0.6687
  412TMC3     C 6204   2.726   1.842  14.241 -0.0277 -0.4492 -0.7922
  412TMC3     O 6205   2.688   1.952  14.195 -0.1120 -0.3753  0.1699
  412TMC3     H 6206   2.559   1.827  14.050 -0.1011  1.5995  1.7763
  412TMC3    H1 6207   2.812   1.588  14.292  0.4373  1.7058  1.7745
  412TMC3    H2 6208   2.455   1.424  14.141 -1.5473  0.8166  1.1225
  412TMC3    C7 6209   2.715   1.369  14.183 -0.0263  0.0968 -0.1547
  412TMC3    C8 6210   2.407   1.618  13.977  0.2310 -0.1237 -0.1030
  412TMC3    O1 6211   2.807   1.341  14.256 -0.1298  0.1816  0.3542
  412TMC3    O2 6212   2.408   1.506  13.927 -0.4888 -0.5583  0.1045
  413MPD2     C 6213   4.698   0.930  15.340 -0.3984 -0.7429 -0.2706
  413MPD2    C1 6214   4.645   0.874  15.230  0.1651 -0.2285  0.6210
  413MPD2    C2 6215   4.722   0.780  15.158 -0.4079  0.0938 -0.1813
  413MPD2    C3 6216   0.107   0.740  15.206  0.0488 -0.3557 -0.9614
  413MPD2    C4 6217   0.158   0.796  15.322 -0.2124 -0.1458 -0.1681
  413MPD2    C5 6218   0.085   0.890  15.387  0.0527  1.2310 -0.7891
  413MPD2     H 6219   4.686   0.727  15.071  0.7332 -1.3906  0.2651
  413MPD2    H1 6220   0.256   0.773  15.362 -1.6071 -1.1602  2.6290
  413MPD2    H2 6221   4.633   0.988  15.404  0.7395  0.0393  0.1667
  413MPD2    H3 6222   0.121   0.922  15.485 -1.0334  4.7044 -1.5235
  413MPD2     N 6223   0.170   0.639  15.132  0.0052  0.1211 -0.2190
  413MPD2    H5 6224   0.123   0.601  15.050  0.4362  1.8487 -1.2797
  413MPD2    N1 6225   4.519   0.917  15.185 -0.4216  0.2947 -0.7872
  413MPD2    H7 6226   4.467   0.978  15.247 -0.5232 -1.2024  0.5866
  414TMC3    C1 6227   0.328   0.468  15.088  0.8574  0.2238 -0.5889
  414TMC3    C2 6228   0.392   0.362  15.153 -0.1645 -0.0128  0.1732
  414TMC3    C3 6229   0.409   0.244  15.077 -0.5692  0.3766 -0.5149
  414TMC3    C4 6230   0.305   0.472  14.953  0.9218  0.1721 -0.1128
  414TMC3    C5 6231   0.337   0.358  14.882 -0.0037  0.2016 -0.5009
  414TMC3    C6 6232   0.373   0.245  14.943 -0.1290 -0.4983  0.4401
  414TMC3     C 6233   0.291   0.584  15.166 -0.1430  0.4441 -0.8198
  414TMC3     O 6234   0.358   0.598  15.268 -0.1623  0.5033  0.5137
  414TMC3     H 6235   0.405   0.359  15.260 -0.3379 -0.0827  0.1928
  414TMC3    H1 6236   0.273   0.549  14.884 -2.2670 -0.1334  1.0175
  414TMC3    H2 6237   0.395   0.155  14.886  2.4790  1.1819 -1.2273
  414TMC3    C7 6238   0.306   0.364  14.741  0.4885  0.4592 -0.1437
  414TMC3    C8 6239   0.501   0.138  15.123 -0.8088 -0.3519 -0.4194
  414TMC3    O1 6240   0.188   0.396  14.719  0.3976 -0.6708  0.2726
  414TMC3    O2 6241   0.514   0.041  15.048  0.2438  0.1594 -0.6943
  415TMC3    C1 6242   1.363   3.609  10.206 -0.1144 -0.0801 -0.6484
  415TMC3    C2 6243   1.465   3.667  10.133 -0.0852  0.3640  0.0797
  415TMC3    C3 6244   1.484   3.628  10.008 -0.8583  1.0586  0.8163
  415TMC3    C4 6245   1.289   3.504  10.152 -0.2381  0.5989 -0.1682
  415TMC3    C5 6246   1.311   3.465  10.030  0.7854  0.2928 -0.4202
  415TMC3    C6 6247   1.412   3.519   9.956  0.2121 -0.2261  0.1693
  415TMC3     C 6248   1.327   3.649  10.339 -0.2640  0.1181 -0.3119
  415TMC3     O 6249   1.214   3.616  10.384  0.1889  0.2023 -0.2001
  415TMC3     H 6250   1.523   3.745  10.180  0.0328  0.3916 -0.1131
  415TMC3    H1 6251   1.213   3.462  10.218  1.0859  0.4849  1.2816
  415TMC3    H2 6252   1.431   3.477   9.858 -1.0259  1.2099 -0.6792
  415TMC3    C7 6253   1.240   3.344   9.973 -0.1203 -0.3870  0.0906
  415TMC3    C8 6254   1.609   3.646   9.942  0.0618  0.5280  0.7645
  415TMC3    O1 6255   1.272   3.305   9.862 -0.0515 -0.7347 -0.6171
  415TMC3    O2 6256   1.631   3.594   9.835 -0.1664 -0.7296  0.0856
  416MPD2     C 6257   2.546   2.497  11.925 -0.0586 -0.2784  0.3176
  416MPD2    C1 6258   2.493   2.472  11.802  0.5272 -0.0425 -0.3538
  416MPD2    C2 6259   2.553   2.384  11.710  0.0969  0.5017  0.8353
  416MPD2    C3 6260   2.672   2.308  11.739 -0.1065  0.1837  0.7861
  416MPD2    C4 6261   2.729   2.341  11.863  0.9735  0.0820  0.0418
  416MPD2    C5 6262   2.676   2.439  11.943 -0.2317  0.3399 -0.5932
  416MPD2     H 6263   2.497   2.352  11.622 -0.5139 -0.0970  1.4415
  416MPD2    H1 6264   2.826   2.302  11.890  0.3349 -0.7398  1.1209
  416MPD2    H2 6265   2.495   2.551  12.004  0.8704  2.2249 -0.7726
  416MPD2    H3 6266   2.731   2.459  12.034  0.8519 -1.0275 -0.9540
  416MPD2     N 6267   2.734   2.217  11.646  0.8209 -0.0086  0.3043
  416MPD2    H5 6268   2.801   2.150  11.682 -0.4951 -1.3794  0.1724
  416MPD2    N1 6269   2.361   2.525  11.777 -0.4370 -0.5907 -0.1382
  416MPD2    H7 6270   2.332   2.577  11.859 -1.0523 -1.4324  0.1717
  417TMC3    C1 6271   2.142   2.533  11.678 -0.2671  0.3109 -0.2150
  417TMC3    C2 6272   2.098   2.538  11.804 -0.8287 -0.2292  0.0464
  417TMC3    C3 6273   1.965   2.572  11.822  0.3548  0.5682  0.4692
  417TMC3    C4 6274   2.060   2.559  11.569  0.4135 -0.2583 -0.6900
  417TMC3    C5 6275   1.934   2.611  11.598  0.2767  0.5678  0.4441
  417TMC3    C6 6276   1.874   2.612  11.721 -0.4606 -0.4530  0.2783
  417TMC3     C 6277   2.281   2.494  11.665 -1.2707  0.5286 -0.0827
  417TMC3     O 6278   2.321   2.465  11.554  0.2120  0.3301 -0.1372
  417TMC3     H 6279   2.156   2.513  11.891 -0.1001  0.5422 -0.2170
  417TMC3    H1 6280   2.110   2.555  11.473  2.3082 -1.5543  0.3313
  417TMC3    H2 6281   1.772   2.632  11.755 -0.8278 -0.0593 -1.0685
  417TMC3    C7 6282   1.879   2.694  11.494 -0.6640  0.1949 -0.7382
  417TMC3    C8 6283   1.912   2.564  11.954 -0.2239  0.2314 -0.1004
  417TMC3    O1 6284   1.950   2.715  11.396 -1.0264  0.2271 -0.3190
  417TMC3    O2 6285   1.832   2.648  11.998 -0.5050  0.0283  0.6086
  418TMC3    C1 6286   0.590   4.120   0.724  0.5974  0.0623  0.2149
  418TMC3    C2 6287   0.452   4.107   0.733 -0.0166  0.2229  0.8155
  418TMC3    C3 6288   0.407   4.000   0.806 -0.4297  0.4149  0.1134
  418TMC3    C4 6289   0.681   4.036   0.795  0.4250 -0.0695 -0.3602
  418TMC3    C5 6290   0.625   3.926   0.856  0.1205 -0.3468  0.3895
  418TMC3    C6 6291   0.487   3.905   0.866 -0.0259  0.0762  0.1490
  418TMC3     C 6292   0.637   4.228   0.645 -0.1676 -0.5086 -0.5018
  418TMC3     O 6293   0.552   4.312   0.624  0.0481 -0.5963 -0.5907
  418TMC3     H 6294   0.379   4.174   0.690 -0.0548 -0.4128 -0.0950
  418TMC3    H1 6295   0.785   4.069   0.793 -0.2787  2.0629 -1.7206
  418TMC3    H2 6296   0.449   3.813   0.910  0.6014  0.4497  1.4504
  418TMC3    C7 6297   0.716   3.821   0.899 -0.0519 -0.0545 -0.4097
  418TMC3    C8 6298   0.276   3.953   0.746 -0.7284  0.5768  0.2472
  418TMC3    O1 6299   0.797   3.767   0.819  0.0940 -0.4724 -0.0623
  418TMC3    O2 6300   0.199   4.039   0.698 -0.6129 -1.1355  0.1663
  419MPD2     C 6301   4.726   2.122  12.324 -0.3431 -0.1903 -0.0624
  419MPD2    C1 6302   4.645   2.226  12.274  0.1451  0.0621 -0.0764
  419MPD2    C2 6303   4.537   2.262  12.345 -0.6515  0.6246 -0.6982
  419MPD2    C3 6304   4.511   2.217  12.473 -0.2874  0.3086  0.0865
  419MPD2    C4 6305   4.585   2.112  12.520  0.8017  1.4873 -0.1064
  419MPD2    C5 6306   4.693   2.066  12.448  0.4418 -0.2009 -0.3158
  419MPD2     H 6307   4.467   2.334  12.303 -0.0430  1.9281  0.5220
  419MPD2    H1 6308   4.584   2.062  12.616 -1.1880 -0.7971 -1.3232
  419MPD2    H2 6309   0.077   2.087  12.271  0.2109 -1.2970  1.5933
  419MPD2    H3 6310   0.018   1.990  12.494  1.6547  0.0520 -1.5464
  419MPD2     N 6311   4.412   2.287  12.554  0.0024  0.0140 -0.0048
  419MPD2    H5 6312   4.376   2.374  12.517 -0.0400 -0.4420 -1.0535
  419MPD2    N1 6313   4.682   2.303  12.162 -0.0802  0.3005 -0.0801
  419MPD2    H7 6314   4.621   2.379  12.133  0.6949  0.8779 -0.1712
  420TMC3    C1 6315   4.337   2.388  12.747 -0.1327  0.2459 -0.2048
  420TMC3    C2 6316   4.263   2.479  12.682 -0.0166 -0.2133 -0.1191
  420TMC3    C3 6317   4.227   2.592  12.743 -0.5411 -0.1661 -0.3926
  420TMC3    C4 6318   4.389   2.412  12.874  0.3564  0.4054 -0.5826
  420TMC3    C5 6319   4.359   2.532  12.933 -0.3689 -0.9930  0.4038
  420TMC3    C6 6320   4.272   2.621  12.871  1.0289 -0.1124 -0.2429
  420TMC3     C 6321   4.390   2.266  12.693  0.3100  0.1884 -1.1419
  420TMC3     O 6322   4.443   2.188  12.770  0.2962 -0.0003  0.0285
  420TMC3     H 6323   4.220   2.450  12.586 -2.5310  0.7223  0.7215
  420TMC3    H1 6324   4.467   2.353  12.921  0.5190  0.4015 -0.8551
  420TMC3    H2 6325   4.241   2.712  12.923  1.4721 -0.3603  0.4661
  420TMC3    C7 6326   4.417   2.556  13.065  0.2603  0.0989 -0.7713
  420TMC3    C8 6327   4.117   2.662  12.677  0.2756  0.6474 -0.4358
  420TMC3    O1 6328   4.464   2.461  13.124 -0.5515 -0.3958 -0.0505
  420TMC3    O2 6329   4.106   2.653  12.554  0.3408 -0.0478 -0.1451
  421TMC3    C1 6330   0.808   4.073  13.882  0.2668 -0.2943  0.3286
  421TMC3    C2 6331   0.829   4.204  13.885  0.4030 -0.3384  0.2671
  421TMC3    C3 6332   0.953   4.247  13.892 -0.7673  0.9833  0.1213
  421TMC3    C4 6333   0.911   3.985  13.885  0.5355  0.0936 -0.1061
  421TMC3    C5 6334   1.036   4.031  13.886 -0.1986  0.3998  0.0499
  421TMC3    C6 6335   1.055   4.165  13.896  0.7868 -0.1898  0.3514
  421TMC3     C 6336   0.667   4.040  13.858  0.4921 -0.0076 -0.0320
  421TMC3     O 6337   0.580   4.122  13.899  0.2575 -0.1905 -0.5124
  421TMC3     H 6338   0.747   4.275  13.877  1.8035  1.1901 -0.4436
  421TMC3    H1 6339   0.889   3.879  13.883  0.6728  0.0748 -0.8325
  421TMC3    H2 6340   1.158   4.199  13.904  0.3080  0.9312  1.8420
  421TMC3    C7 6341   1.151   3.943  13.911 -0.2979  0.3170  0.0996
  421TMC3    C8 6342   0.978   4.376  13.946 -0.1619 -0.9154 -0.0372
  421TMC3    O1 6343   1.249   3.995  13.961  0.2199 -0.1778  0.2512
  421TMC3    O2 6344   1.054   4.369  14.040  0.1625 -0.1985 -0.0356
  422TMC3    C1 6345   3.627   0.302  12.465 -0.1911  0.0103  0.5282
  422TMC3    C2 6346   3.638   0.380  12.573 -0.5679 -0.0187 -0.4877
  422TMC3    C3 6347   3.527   0.431  12.635 -0.0842  0.0530  0.5480
  422TMC3    C4 6348   3.508   0.274  12.415  0.2705  0.4873  0.6168
  422TMC3    C5 6349   3.391   0.321  12.483  0.3551  0.2718  0.2119
  422TMC3    C6 6350   3.402   0.391  12.599  0.2109  0.4060 -0.3433
  422TMC3     C 6351   3.750   0.257  12.396 -0.3515 -0.0728 -0.1842
  422TMC3     O 6352   3.845   0.322  12.443 -0.2571 -0.2663 -1.1347
  422TMC3     H 6353   3.734   0.414  12.609 -2.0049  1.1618  2.2103
  422TMC3    H1 6354   3.487   0.209  12.331 -1.5846 -1.7669  2.8560
  422TMC3    H2 6355   3.318   0.431  12.655  0.4036 -0.7238  0.7350
  422TMC3    C7 6356   3.261   0.277  12.429  0.2760 -0.5288  0.1446
  422TMC3    C8 6357   3.550   0.509  12.751  0.0819  0.4518  0.0954
  422TMC3    O1 6358   3.262   0.204  12.329 -0.1493 -0.2886 -0.5496
  422TMC3    O2 6359   3.656   0.567  12.778  0.4510  0.4171  0.0968
  423MPD2     C 6360   4.131   1.418   0.388  1.1955 -0.1051 -0.2338
  423MPD2    C1 6361   4.081   1.292   0.387 -0.1678 -0.2870  0.0190
  423MPD2    C2 6362   4.136   1.198   0.300 -0.1230  0.7126 -0.6927
  423MPD2    C3 6363   4.243   1.242   0.226  0.5922  0.0237  0.3933
  423MPD2    C4 6364   4.292   1.372   0.226 -0.4147  0.3145  0.2375
  423MPD2    C5 6365   4.230   1.457   0.308  0.1897 -0.1935  1.0759
  423MPD2     H 6366   4.094   1.099   0.285  0.3166  0.1190  1.9969
  423MPD2    H1 6367   4.364   1.416   0.157  0.6401 -0.8922  0.5740
  423MPD2    H2 6368   4.097   1.496   0.456  1.6181  0.3480 -0.5396
  423MPD2    H3 6369   4.259   1.561   0.311  0.6732 -0.3104  0.3442
  423MPD2     N 6370   4.299   1.147   0.139 -0.5722  0.6978 -0.4166
  423MPD2    H5 6371   4.373   1.173   0.075  0.3165  0.2409  0.4126
  423MPD2    N1 6372   3.985   1.239   0.479  1.0347 -0.1946 -0.2194
  423MPD2    H7 6373   3.958   1.144   0.457  4.2441 -1.1820  0.2576
  424TMC3    C1 6374   3.813   1.238   0.633 -0.5856 -0.3794  0.2159
  424TMC3    C2 6375   3.849   1.144   0.732 -0.3035 -0.9512 -0.3785
  424TMC3    C3 6376   3.780   1.025   0.743  0.5078 -0.0799 -0.5824
  424TMC3    C4 6377   3.714   1.206   0.548  0.3234 -0.8381 -0.3587
  424TMC3    C5 6378   3.642   1.090   0.562 -0.5834  0.2044  0.3488
  424TMC3    C6 6379   3.672   1.001   0.658  0.1977 -0.0606  0.7238
  424TMC3     C 6380   3.924   1.307   0.583  0.1399 -0.3438  1.1789
  424TMC3     O 6381   3.930   1.425   0.614  0.0527 -0.0304 -0.3345
  424TMC3     H 6382   3.944   1.159   0.782 -1.5260 -1.0837  1.9380
  424TMC3    H1 6383   3.695   1.275   0.466 -1.2523  0.5577  1.1724
  424TMC3    H2 6384   3.596   0.924   0.667  0.7493 -0.4067  2.3888
  424TMC3    C7 6385   3.512   1.079   0.500 -0.1679  0.7235 -0.4808
  424TMC3    C8 6386   3.815   0.932   0.844 -0.0318  0.4529  0.0651
  424TMC3    O1 6387   3.469   0.969   0.479  0.7825 -0.4622 -1.0760
  424TMC3    O2 6388   3.791   0.814   0.826  0.2159 -0.5951  0.8875
  425MPD2     C 6389   3.469   0.549  16.309 -0.1299 -0.8188  0.0181
  425MPD2    C1 6390   3.466   0.496  16.435 -1.0640  0.0955  0.4388
  425MPD2    C2 6391   3.371   0.540  16.526 -0.3797 -0.0536 -0.6473
  425MPD2    C3 6392   3.294   0.649  16.492  0.0270  0.4966  0.0286
  425MPD2    C4 6393   3.298   0.707  16.363 -0.1334  0.1296 -0.4414
  425MPD2    C5 6394   3.390   0.661  16.274 -0.9728 -0.3023 -0.2214
  425MPD2     H 6395   3.353   0.494  16.622 -1.8674  2.1322  0.1347
  425MPD2    H1 6396   3.236   0.792  16.336 -1.6086 -0.1536  1.9732
  425MPD2    H2 6397   3.530   0.517  16.226  1.3344 -0.2505  0.8698
  425MPD2    H3 6398   3.398   0.704  16.174 -0.1832 -1.2725 -0.5693
  425MPD2     N 6399   3.219   0.700  16.605  0.4593 -0.0952  0.7020
  425MPD2    H5 6400   3.230   0.652  16.694  0.8219 -0.4694  0.4591
  425MPD2    N1 6401   3.526   0.374  16.462  0.5693  0.1341 -0.3935
  425MPD2    H7 6402   3.555   0.325  16.378  2.1635 -0.6736  0.6344
  426TMC3    C1 6403   3.635   0.212  16.581  1.0811  0.3556  0.3963
  426TMC3    C2 6404   3.618   0.124  16.481  0.6866 -0.2524  0.9431
  426TMC3    C3 6405   3.691   0.013  16.483  0.7393  0.1700  1.6235
  426TMC3    C4 6406   3.728   0.192  16.682  0.2816 -0.6318 -0.9169
  426TMC3    C5 6407   3.807   0.075  16.671  0.0112  1.2653 -0.2965
  426TMC3    C6 6408   3.790   4.726  16.571  0.0788 -0.1687 -0.7737
  426TMC3     C 6409   3.568   0.335  16.588 -0.2694  0.2301 -0.1969
  426TMC3     O 6410   3.552   0.393  16.697 -0.4772 -0.0757  0.0615
  426TMC3     H 6411   3.528   0.135  16.421  1.5167  0.2099 -0.2136
  426TMC3    H1 6412   3.741   0.276  16.749 -2.1639 -1.2392  0.3227
  426TMC3    H2 6413   3.834   4.626  16.569 -3.1385 -1.5730 -0.7117
  426TMC3    C7 6414   3.860   0.008  16.791 -0.1494 -0.3302 -0.4452
  426TMC3    C8 6415   3.616   4.625  16.464 -0.0014  0.6508 -0.6138
  426TMC3    O1 6416   3.921   4.643  16.778  0.0884  0.1782 -0.2141
  426TMC3    O2 6417   3.691   4.533  16.432 -0.6083  0.2704 -0.1288
  427MPD2     C 6418   1.660   2.137  14.645  0.2911 -0.7011 -1.0282
  427MPD2    C1 6419   1.728   2.204  14.743 -0.1212 -0.1637 -0.3378
  427MPD2    C2 6420   1.685   2.324  14.795 -0.0339  0.0668 -0.5871
  427MPD2    C3 6421   1.558   2.374  14.775 -0.3032  0.1567  0.0473
  427MPD2    C4 6422   1.481   2.307  14.682 -0.0454 -0.1992  0.1223
  427MPD2    C5 6423   1.533   2.189  14.626 -0.0586  0.2904  0.1172
  427MPD2     H 6424   1.755   2.389  14.847 -1.2502  0.7371  0.2143
  427MPD2    H1 6425   1.381   2.341  14.657  0.0204 -0.4303 -0.4490
  427MPD2    H2 6426   1.691   2.042  14.603 -0.7158 -1.3449 -0.3201
  427MPD2    H3 6427   1.460   2.136  14.567  1.7262 -2.5596  0.4670
  427MPD2     N 6428   1.514   2.490  14.846  0.3428  0.6558  0.0459
  427MPD2    H5 6429   1.581   2.521  14.916  0.7370  1.5063 -0.7068
  427MPD2    N1 6430   1.857   2.169  14.784  0.7245  0.5810 -0.0124
  427MPD2    H7 6431   1.891   2.219  14.866  0.5680  2.0323 -0.8381
  428TMC3    C1 6432   2.067   2.081  14.806 -0.2076  0.0099 -0.1853
  428TMC3    C2 6433   2.151   1.975  14.811 -0.1271  0.2851  0.1106
  428TMC3    C3 6434   2.265   1.994  14.885 -0.3353  0.6110 -0.3271
  428TMC3    C4 6435   2.096   2.204  14.864  0.3643  0.1049 -0.7405
  428TMC3    C5 6436   2.210   2.213  14.938  0.2730 -1.0510  0.6614
  428TMC3    C6 6437   2.297   2.113  14.948 -0.2728 -1.0270 -0.3085
  428TMC3     C 6438   1.936   2.062  14.740  0.6528  0.5235  0.2379
  428TMC3     O 6439   1.920   1.977  14.656  0.3578 -0.3157  0.4595
  428TMC3     H 6440   2.135   1.882  14.758  0.4968 -0.4018  1.1245
  428TMC3    H1 6441   2.038   2.292  14.840 -3.1846 -2.1097 -0.3379
  428TMC3    H2 6442   2.382   2.137  15.010 -0.8686 -0.1624  0.1728
  428TMC3    C7 6443   2.200   2.314  15.040 -0.3858  0.4002 -0.8248
  428TMC3    C8 6444   2.354   1.876  14.898  0.8605  0.1908  0.8658
  428TMC3    O1 6445   2.304   2.350  15.092 -0.4097 -0.0974 -0.1879
  428TMC3    O2 6446   2.339   1.782  14.817  0.2787 -0.7893  0.2314
  429MPD2     C 6447   3.400   2.493   0.224 -0.0275 -0.1607  0.3284
  429MPD2    C1 6448   3.343   2.428   0.116 -1.2841 -0.6579  0.3635
  429MPD2    C2 6449   3.304   2.497   0.006  0.9751 -0.2174  0.3572
  429MPD2    C3 6450   3.329   2.638   0.003  0.8570 -0.2933 -0.0919
  429MPD2    C4 6451   3.380   2.697   0.119 -0.1304 -0.2798  0.4580
  429MPD2    C5 6452   3.411   2.631   0.233 -0.1166  0.0588  0.6577
  429MPD2     H 6453   3.262   2.451  17.663 -1.5577  1.1190  0.8554
  429MPD2    H1 6454   3.396   2.804   0.126  0.8409 -0.2889 -1.7303
  429MPD2    H2 6455   3.439   2.443   0.312 -0.0084  0.0081  0.4153
  429MPD2    H3 6456   3.453   2.679   0.320  0.6503  0.6451 -0.0337
  429MPD2     N 6457   3.287   2.713  17.637 -0.2465  0.5303  0.1504
  429MPD2    H5 6458   3.247   2.661  17.559 -0.4342 -1.2607  1.4312
  429MPD2    N1 6459   3.318   2.286   0.109 -0.4407  0.2897 -0.1928
  429MPD2    H7 6460   3.262   2.258   0.029 -1.0332  2.0787 -0.3996
  430TMC3    C1 6461   3.268   2.885  17.476 -0.5419 -0.0123 -0.1486
  430TMC3    C2 6462   3.260   3.015  17.454 -0.1045 -0.8531 -0.5640
  430TMC3    C3 6463   3.337   3.067  17.349  0.3162 -0.8107  0.1641
  430TMC3    C4 6464   3.345   2.807  17.395  0.2898 -0.1250  0.1626
  430TMC3    C5 6465   3.401   2.853  17.281  0.0687  0.4846 -0.0286
  430TMC3    C6 6466   3.398   2.988  17.263 -0.0196  0.5027  0.0174
  430TMC3     C 6467   3.287   2.848  17.617 -0.4093  0.1863  0.3953
  430TMC3     O 6468   3.314   2.940  17.698 -0.1936  0.3491  0.2034
  430TMC3     H 6469   3.201   3.071  17.526 -2.1967 -0.3867 -2.6635
  430TMC3    H1 6470   3.358   2.700  17.410  0.9891  0.2072  1.9774
  430TMC3    H2 6471   3.448   3.029  17.176 -0.6298 -0.7204 -0.9154
  430TMC3    C7 6472   3.392   2.784  17.160 -0.3537 -0.0148  0.4292
  430TMC3    C8 6473   3.269   3.171  17.271 -0.2531  0.4850  0.5310
  430TMC3    O1 6474   3.444   2.672  17.155  0.9607  0.1456 -0.2072
  430TMC3    O2 6475   3.227   3.132  17.161  0.2046 -0.2118 -0.2734
  431MPD2     C 6476   0.024   3.246  11.975 -0.1987  0.3007  0.0979
  431MPD2    C1 6477   0.045   3.156  12.079  0.3135  0.1336 -0.1915
  431MPD2    C2 6478   0.028   3.027  12.051  0.2085 -0.6407 -0.6814
  431MPD2    C3 6479   0.017   2.980  11.926 -0.7107  0.1067  0.0258
  431MPD2    C4 6480   4.733   3.064  11.823  0.0424  0.2498 -0.1528
  431MPD2    C5 6481   4.733   3.199  11.847  0.2190  0.2658  0.1457
  431MPD2     H 6482   0.051   2.956  12.130  0.2033 -0.7812 -0.8038
  431MPD2    H1 6483   4.733   3.029  11.721 -0.2854  1.9434 -0.7276
  431MPD2    H2 6484   0.030   3.349  12.010  0.4179  0.4294 -0.3753
  431MPD2    H3 6485   4.719   3.272  11.767 -0.3960 -0.8297 -0.7497
  431MPD2     N 6486   0.024   2.837  11.904  0.8181 -0.8237 -0.5625
  431MPD2    H5 6487   0.016   2.809  11.807  2.7944 -1.0294 -0.6806
  431MPD2    N1 6488   0.061   3.216  12.206  0.1053  0.3820  0.3348
  431MPD2    H7 6489   0.092   3.313  12.207  1.0327  0.0804  1.5765
  432TMC3    C1 6490   0.067   2.611  11.912  0.3786 -0.4787  0.7213
  432TMC3    C2 6491   0.180   2.594  11.843 -0.1509  0.0630 -0.6975
  432TMC3    C3 6492   0.230   2.466  11.831  0.3324  0.0896  1.0483
  432TMC3    C4 6493   0.012   2.507  11.985  0.1707 -0.3090  0.1875
  432TMC3    C5 6494   0.063   2.377  11.974  0.4560 -0.2891  0.0298
  432TMC3    C6 6495   0.166   2.355  11.888 -0.4779  0.7442 -0.1858
  432TMC3     C 6496   0.064   2.735  11.987 -0.6239 -0.4810  0.2823
  432TMC3     O 6497   0.083   2.728  12.107  0.1382 -0.4195  0.0860
  432TMC3     H 6498   0.217   2.682  11.792 -0.5780  1.2905  1.1077
  432TMC3    H1 6499   4.656   2.525  12.038 -1.0049 -1.1862 -1.5496
  432TMC3    H2 6500   0.198   2.252  11.871  1.5372  1.1028  1.3078
  432TMC3    C7 6501   0.052   2.281  12.082  0.3479  0.6272 -0.6183
  432TMC3    C8 6502   0.357   2.445  11.776 -0.3175 -0.4526  0.2234
  432TMC3    O1 6503   0.125   2.184  12.084 -0.7243  0.3128 -0.3850
  432TMC3    O2 6504   0.384   2.328  11.747 -0.3635  0.0015 -0.0979
  433MPD2     C 6505   3.805   1.385  10.634  0.0302  0.0486  0.1425
  433MPD2    C1 6506   3.880   1.304  10.714 -0.4192 -0.2154 -0.2056
  433MPD2    C2 6507   3.924   1.351  10.839  0.5081 -0.5940 -0.2607
  433MPD2    C3 6508   3.893   1.479  10.881 -0.4672  0.1908 -0.2822
  433MPD2    C4 6509   3.811   1.559  10.805  0.7445 -0.1999  0.5248
  433MPD2    C5 6510   3.769   1.509  10.684  0.7233  0.2202 -0.2989
  433MPD2     H 6511   3.989   1.288  10.900  1.4705 -0.1262 -0.8079
  433MPD2    H1 6512   3.771   1.657  10.829 -1.6121 -0.5364 -2.1005
  433MPD2    H2 6513   3.772   1.350  10.536 -1.3045 -0.1795  0.6736
  433MPD2    H3 6514   3.700   1.567  10.623 -0.8318 -0.4754  0.8059
  433MPD2     N 6515   3.951   1.525  11.004  0.2024  0.4472  0.1899
  433MPD2    H5 6516   4.004   1.458  11.059 -0.4576 -0.7209 -0.5811
  433MPD2    N1 6517   3.935   1.187  10.675  0.0502 -0.0665 -0.0183
  433MPD2    H7 6518   3.967   1.121  10.745 -0.9695  0.1194  0.6288
  434TMC3    C1 6519   3.989   1.001  10.539 -0.0812  0.3211  0.6807
  434TMC3    C2 6520   4.061   0.952  10.651  0.3335 -0.1514  0.2479
  434TMC3    C3 6521   4.078   0.815  10.660  0.5232  0.5189 -0.1246
  434TMC3    C4 6522   3.945   0.922  10.437 -0.7466  0.1100  0.7494
  434TMC3    C5 6523   3.956   0.784  10.460  0.1371 -0.0224  0.2832
  434TMC3    C6 6524   4.016   0.730  10.573 -0.2819  0.0410  0.2899
  434TMC3     C 6525   3.940   1.137  10.545  0.4683  0.2407  0.1033
  434TMC3     O 6526   3.913   1.191  10.441 -0.3662 -0.0870 -0.1649
  434TMC3     H 6527   4.107   1.021  10.721  0.1060  0.1271  0.1244
  434TMC3    H1 6528   3.875   0.954  10.360 -0.7967  0.4608  0.9403
  434TMC3    H2 6529   4.022   0.624  10.595  0.5622  0.5323  2.4373
  434TMC3    C7 6530   3.875   0.703  10.364 -0.2477 -0.1201  0.7489
  434TMC3    C8 6531   4.134   0.763  10.787 -0.0770 -0.8414  0.5683
  434TMC3    O1 6532   3.770   0.748  10.323 -0.1452 -0.1091  0.4615
  434TMC3    O2 6533   4.188   0.853  10.850  0.0364  0.1153  0.3108
  435MPD2     C 6534   0.437   1.463  15.445 -0.3403  0.1016  0.1202
  435MPD2    C1 6535   0.380   1.429  15.568  0.4514 -0.1200 -0.1459
  435MPD2    C2 6536   0.441   1.357  15.666 -0.1707 -0.3828  0.5277
  435MPD2    C3 6537   0.567   1.299  15.638  0.2986 -0.8899 -0.6125
  435MPD2    C4 6538   0.620   1.311  15.507  0.3397 -0.2902 -0.1661
  435MPD2    C5 6539   0.557   1.398  15.417 -0.1592 -0.1759  0.2830
  435MPD2     H 6540   0.401   1.349  15.766  0.0638  0.6243  0.7003
  435MPD2    H1 6541   0.713   1.266  15.473  0.4577  0.4909 -0.8541
  435MPD2    H2 6542   0.390   1.519  15.365  1.5442  2.3309  0.5769
  435MPD2    H3 6543   0.604   1.403  15.319  1.1912 -1.3408  0.8631
  435MPD2     N 6544   0.627   1.223  15.740 -0.1525 -0.1102  0.2727
  435MPD2    H5 6545   0.583   1.208  15.830 -0.4561  0.5011  0.2268
  435MPD2    N1 6546   0.247   1.478  15.602 -0.4904 -0.3502  0.2234
  435MPD2    H7 6547   0.203   1.444  15.687 -0.8033 -0.0480  0.1835
  436TMC3    C1 6548   4.666   1.639  15.805  0.2124  0.7813  0.0523
  436TMC3    C2 6549   0.034   1.580  15.744 -0.1405 -0.0330 -0.5498
  436TMC3    C3 6550   0.038   1.596  15.608 -0.0928 -0.2271 -1.1421
  436TMC3    C4 6551   4.575   1.723  15.743  0.0813  0.3413  0.7257
  436TMC3    C5 6552   4.597   1.751  15.618 -0.4987 -0.3095 -0.4055
  436TMC3    C6 6553   4.688   1.682  15.542  0.7334  0.0587 -1.0036
  436TMC3     C 6554   4.688   1.672  15.943 -0.1369 -0.6350  0.3266
  436TMC3     O 6555   0.067   1.670  15.982  0.1817 -0.3860  0.5226
  436TMC3     H 6556   0.102   1.521  15.805  0.9234  1.4482 -0.2938
  436TMC3    H1 6557   4.510   1.783  15.806  0.9939  1.0778  0.9650
  436TMC3    H2 6558   4.701   1.704  15.437 -2.0975 -1.6952 -1.7304
  436TMC3    C7 6559   4.522   1.858  15.544  0.8956 -0.4987 -0.2468
  436TMC3    C8 6560   0.157   1.554  15.529  0.0746  0.1826  0.0095
  436TMC3    O1 6561   4.567   1.884  15.433  0.1500 -0.4077  0.3008
  436TMC3    O2 6562   0.169   1.591  15.413 -0.3054  0.2745 -0.2647
  437TMC3    C1 6563   3.921   3.830  12.223 -0.0854 -0.4202 -0.5898
  437TMC3    C2 6564   3.840   3.930  12.184  0.1214 -0.1892 -0.5802
  437TMC3    C3 6565   3.886   4.022  12.098 -0.5537 -0.5439 -0.6734
  437TMC3    C4 6566   4.043   3.818  12.174 -0.9740 -0.2909  0.8583
  437TMC3    C5 6567   4.090   3.908  12.080 -0.0985  0.2025 -0.0937
  437TMC3    C6 6568   4.008   4.006  12.043  0.3851  0.5303  0.3000
  437TMC3     C 6569   3.853   3.730  12.298 -0.0863 -0.1810 -0.8944
  437TMC3     O 6570   3.739   3.752  12.336 -0.1412  0.5207 -0.1564
  437TMC3     H 6571   3.746   3.953  12.234  0.4486 -1.3692  0.6031
  437TMC3    H1 6572   4.102   3.732  12.205 -0.9834 -0.5913  0.0330
  437TMC3    H2 6573   4.049   4.080  11.975  0.7105  1.6350  1.7227
  437TMC3    C7 6574   4.232   3.934  12.062 -1.0776  0.2058  0.7795
  437TMC3    C8 6575   3.802   4.139  12.082  0.5131 -0.4905 -0.7400
  437TMC3    O1 6576   4.269   4.026  11.990 -0.5452 -0.0073 -0.2526
  437TMC3    O2 6577   3.731   4.164  12.178 -0.1077  0.1025  0.6453
  438MPD2     C 6578   0.972   4.350  16.995 -0.0860  0.6852  0.9604
  438MPD2    C1 6579   0.989   4.246  17.083 -0.3002  0.0419  0.7100
  438MPD2    C2 6580   0.938   4.257  17.210 -0.2883  0.5659  0.2450
  438MPD2    C3 6581   0.883   4.370  17.260 -0.3031 -0.0242  0.6675
  438MPD2    C4 6582   0.847   4.466  17.172 -0.6523  0.4985 -0.0802
  438MPD2    C5 6583   0.886   4.452  17.041 -0.3036  0.4864 -0.2202
  438MPD2     H 6584   0.963   4.173  17.274 -2.5818  0.3821  0.9029
  438MPD2    H1 6585   0.795   4.557  17.200  0.3851  0.4934  1.9125
  438MPD2    H2 6586   1.018   4.346  16.897 -2.0880  1.4712 -0.0071
  438MPD2    H3 6587   0.864   4.534  16.973  1.2275  0.4457 -0.7610
  438MPD2     N 6588   0.855   4.384  17.400  0.5723  0.5108 -0.5991
  438MPD2    H5 6589   0.817   4.473  17.434  2.2539  0.4170  1.5658
  438MPD2    N1 6590   1.070   4.138  17.055  0.2350 -0.2753 -0.0462
  438MPD2    H7 6591   1.096   4.074  17.129  1.5141  1.6168  1.1298
  439TMC3    C1 6592   1.209   4.001  16.920  0.1773  0.0976 -0.0241
  439TMC3    C2 6593   1.243   3.949  16.800 -0.1669 -0.9314 -0.2378
  439TMC3    C3 6594   1.323   3.838  16.808 -0.1888  0.6931 -0.0485
  439TMC3    C4 6595   1.277   3.975  17.039  0.2387 -0.2154  0.4282
  439TMC3    C5 6596   1.359   3.869  17.042 -0.1792 -0.1924  0.4293
  439TMC3    C6 6597   1.383   3.800  16.926 -0.0338  0.2796  0.0621
  439TMC3     C 6598   1.107   4.108  16.927  0.0765 -0.5920  0.3425
  439TMC3     O 6599   1.039   4.123  16.829 -0.4958 -0.5586 -0.0122
  439TMC3     H 6600   1.189   3.976  16.710  0.4385 -1.6066 -0.8058
  439TMC3    H1 6601   1.255   4.032  17.128 -0.1391 -1.3370  1.0578
  439TMC3    H2 6602   1.439   3.707  16.924  0.6082  0.6699 -0.2614
  439TMC3    C7 6603   1.463   3.859  17.135 -0.5717 -0.0877  0.1076
  439TMC3    C8 6604   1.420   3.821  16.693  0.0667 -0.0235  0.4304
  439TMC3    O1 6605   1.543   3.764  17.125  0.6600 -0.4956 -0.1983
  439TMC3    O2 6606   1.378   3.823  16.577  0.2855 -0.0838 -0.6670
  440MPD2     C 6607   0.158   4.301  15.439 -0.1760  0.5312  0.5603
  440MPD2    C1 6608   0.174   4.319  15.303 -0.3275 -0.1430 -0.1808
  440MPD2    C2 6609   0.304   4.291  15.242  0.4927  0.1854 -0.3606
  440MPD2    C3 6610   0.409   4.243  15.319 -0.1537  0.5373 -0.6656
  440MPD2    C4 6611   0.388   4.228  15.453  0.2754  0.0024  0.5372
  440MPD2    C5 6612   0.266   4.259  15.507 -0.2506 -0.5205 -0.0919
  440MPD2     H 6613   0.315   4.305  15.135 -1.7007 -0.9067 -0.7372
  440MPD2    H1 6614   0.465   4.189  15.519  0.1759 -0.2754  0.4899
  440MPD2    H2 6615   0.070   4.323  15.497 -0.9117  1.1339 -0.7809
  440MPD2    H3 6616   0.260   4.257  15.616  1.1239  0.8771  0.0151
  440MPD2     N 6617   0.536   4.202  15.271  0.2670  0.0072  0.2814
  440MPD2    H5 6618   0.599   4.147  15.328  0.6216  1.0837  0.9133
  440MPD2    N1 6619   0.068   4.381  15.221  0.2208  0.3509 -0.2833
  440MPD2    H7 6620   0.094   4.398  15.124  1.8019 -1.6914 -0.2174
  441TMC3    C1 6621   0.712   4.173  15.125  0.9852  0.1298 -0.2166
  441TMC3    C2 6622   0.795   4.281  15.114 -0.7224 -0.6674 -0.8511
  441TMC3    C3 6623   0.906   4.289  15.187 -0.8224  0.1319 -0.1639
  441TMC3    C4 6624   0.739   4.077  15.209 -0.6100  0.8215  0.7828
  441TMC3    C5 6625   0.842   4.100  15.305 -0.1161 -0.6265  0.0022
  441TMC3    C6 6626   0.929   4.200  15.291 -0.0995  0.0562  0.6303
  441TMC3     C 6627   0.578   4.236  15.149 -0.1125 -0.1005 -0.5662
  441TMC3     O 6628   0.538   4.322  15.072  0.2133 -0.3921 -0.5697
  441TMC3     H 6629   0.782   4.348  15.030  2.1465  0.5686 -0.2813
  441TMC3    H1 6630   0.670   3.995  15.226 -1.4963  1.4887  0.4155
  441TMC3    H2 6631   1.019   4.210  15.351  0.8567  0.9033 -0.9453
  441TMC3    C7 6632   0.812   4.049  15.440 -1.1829 -0.7487 -0.3910
  441TMC3    C8 6633   0.936   4.423  15.226  0.1530  0.0169 -0.5884
  441TMC3    O1 6634   0.737   3.954  15.455  0.4981 -0.1992 -0.0606
  441TMC3    O2 6635   1.047   4.451  15.262  0.3089  0.2088 -0.0055
  442MPD2     C 6636   3.267   0.392  16.078  0.0144  0.1096  0.0001
  442MPD2    C1 6637   3.205   0.336  16.189  0.3846  0.1863  0.3474
  442MPD2    C2 6638   3.197   0.197  16.193 -0.8429  0.2333  0.1027
  442MPD2    C3 6639   3.245   0.114  16.096 -0.7575  0.1665  0.3124
  442MPD2    C4 6640   3.297   0.174  15.984 -0.0676 -0.4788  0.3705
  442MPD2    C5 6641   3.312   0.310  15.983 -0.5726 -0.6142 -0.3530
  442MPD2     H 6642   3.142   0.152  16.275  1.3762  0.5590  1.7796
  442MPD2    H1 6643   3.329   0.112  15.900 -1.5269 -0.2310 -0.3714
  442MPD2    H2 6644   3.288   0.498  16.071 -1.0305  0.1006 -3.2272
  442MPD2    H3 6645   3.362   0.363  15.903 -1.4951 -0.6143 -0.9367
  442MPD2     N 6646   3.237   4.708  16.093 -0.0016 -0.3172  0.2848
  442MPD2    H5 6647   3.282   4.663  16.013  2.8962  0.6281  1.3883
  442MPD2    N1 6648   3.143   0.423  16.284  0.7468 -0.0530 -0.0766
  442MPD2    H7 6649   3.151   0.520  16.256  0.5997  0.1320  0.5162
  443TMC3    C1 6650   3.006   0.486  16.468 -0.4453  0.0419 -0.1505
  443TMC3    C2 6651   2.954   0.587  16.382  0.1037  0.2164  0.0845
  443TMC3    C3 6652   2.836   0.647  16.414  0.2191  0.3872  0.2251
  443TMC3    C4 6653   2.931   0.444  16.578 -0.2593  0.5638 -0.0434
  443TMC3    C5 6654   2.799   0.493  16.592  0.3816  0.6449  0.1741
  443TMC3    C6 6655   2.761   0.597  16.514  0.0002 -0.0679 -0.1016
  443TMC3     C 6656   3.089   0.383  16.402  0.4823 -0.2503 -0.1031
  443TMC3     O 6657   3.106   0.279  16.466 -0.2551 -0.3134 -0.3692
  443TMC3     H 6658   2.990   0.608  16.282 -2.7365  2.6671 -0.4038
  443TMC3    H1 6659   2.958   0.357  16.637  0.0460  0.3555 -0.4873
  443TMC3    H2 6660   2.655   0.619  16.515 -0.0711 -0.4329  0.5712
  443TMC3    C7 6661   2.698   0.391  16.588  0.3188  0.6493  0.8214
  443TMC3    C8 6662   2.757   0.664  16.295  0.4370  0.2805  0.3938
  443TMC3    O1 6663   2.735   0.284  16.547 -0.3765  0.1962  0.3803
  443TMC3    O2 6664   2.728   0.562  16.236  0.0126  0.6787 -0.5522
  444MPD2     C 6665   3.401   4.497  16.902  0.3089 -0.1282  1.0243
  444MPD2    C1 6666   3.309   4.398  16.888  0.0584 -0.5395  0.5176
  444MPD2    C2 6667   3.357   4.268  16.871 -0.3355 -0.1930 -0.8873
  444MPD2    C3 6668   3.491   4.235  16.858  0.0586 -0.5423  0.3535
  444MPD2    C4 6669   3.581   4.346  16.843 -0.4279  0.3091  0.3249
  444MPD2    C5 6670   3.534   4.471  16.873  0.4201 -0.0811  0.8493
  444MPD2     H 6671   3.292   4.181  16.876  0.5402 -0.7240  1.4540
  444MPD2    H1 6672   3.683   4.343  16.807 -0.3878 -2.1505  0.6423
  444MPD2    H2 6673   3.361   4.593  16.932  0.0132 -0.7669  2.6763
  444MPD2    H3 6674   3.593   4.561  16.860  0.7238 -0.6118 -1.4260
  444MPD2     N 6675   3.534   4.101  16.837  0.2099  0.0432  0.5759
  444MPD2    H5 6676   3.466   4.026  16.841  0.6869 -0.3790  0.8026
  444MPD2    N1 6677   3.171   4.411  16.918  0.3888 -0.3531  0.0343
  444MPD2    H7 6678   3.125   4.320  16.921  2.3887 -1.3680  0.1318
  445TMC3    C1 6679   3.678   3.919  16.801 -0.0254  0.5787 -0.5375
  445TMC3    C2 6680   3.572   3.846  16.770 -0.6556  0.0166  0.1096
  445TMC3    C3 6681   3.599   3.717  16.728  0.6198  0.3184 -0.6521
  445TMC3    C4 6682   3.805   3.867  16.808 -0.6287 -0.9002 -0.2330
  445TMC3    C5 6683   3.829   3.743  16.766  0.0244  0.6017  0.1916
  445TMC3    C6 6684   3.728   3.668  16.719  0.2392 -0.4571  0.3821
  445TMC3     C 6685   3.667   4.057  16.821 -0.9078  0.3400  0.3292
  445TMC3     O 6686   3.762   4.132  16.808 -0.8904 -0.4614 -0.1149
  445TMC3     H 6687   3.472   3.886  16.758 -0.7401  0.4464  2.2850
  445TMC3    H1 6688   3.881   3.934  16.846 -1.5644 -1.3435  2.4323
  445TMC3    H2 6689   3.759   3.583  16.659 -1.9962  0.1396 -1.6190
  445TMC3    C7 6690   3.939   3.751  16.670 -0.0391 -0.3171 -0.0978
  445TMC3    C8 6691   3.501   3.622  16.690  0.4177  0.1739 -0.1481
  445TMC3    O1 6692   3.927   3.832  16.580  0.2916 -0.3845 -1.1097
  445TMC3    O2 6693   3.392   3.665  16.650 -0.1859  0.2998 -0.1325
  446MPD2     C 6694   3.598   0.653  11.004 -1.1097  0.3157 -0.0207
  446MPD2    C1 6695   3.591   0.784  10.971 -0.0908  0.2337 -0.0097
  446MPD2    C2 6696   3.691   0.868  11.011 -0.1338 -0.1876  0.5327
  446MPD2    C3 6697   3.804   0.808  11.070  0.1863  0.2088  0.5111
  446MPD2    C4 6698   3.809   0.672  11.107 -0.1868 -0.2131 -0.0509
  446MPD2    C5 6699   3.700   0.592  11.075 -0.3011 -0.1879 -0.8111
  446MPD2     H 6700   3.694   0.976  11.006  1.7959 -0.2699 -0.2524
  446MPD2    H1 6701   3.887   0.619  11.162 -0.1651  0.6437  0.7346
  446MPD2    H2 6702   3.514   0.587  10.983  0.1745 -1.3377  0.0839
  446MPD2    H3 6703   3.709   0.487  11.098 -1.2345 -0.7312 -2.9063
  446MPD2     N 6704   3.909   0.895  11.098  0.2707  0.2840 -0.1036
  446MPD2    H5 6705   3.904   0.993  11.073  2.7827  0.4021 -0.1196
  446MPD2    N1 6706   3.482   0.835  10.896 -0.1059  0.4722  0.0540
  446MPD2    H7 6707   3.461   0.934  10.909 -1.6395 -0.0765  1.7302
  447TMC3    C1 6708   4.127   0.951  11.173 -0.2648 -0.3619  0.9701
  447TMC3    C2 6709   4.120   1.075  11.111  0.0800  0.2236 -0.4928
  447TMC3    C3 6710   4.241   1.128  11.063  0.2785 -0.1351 -0.0611
  447TMC3    C4 6711   4.252   0.890  11.195 -0.4506  0.2066  0.0946
  447TMC3    C5 6712   4.365   0.959  11.154  0.7774 -0.6700  0.3083
  447TMC3    C6 6713   4.368   1.077  11.089 -0.6310  0.2030 -0.1480
  447TMC3     C 6714   4.021   0.852  11.166  0.0087  0.0831  0.1190
  447TMC3     O 6715   4.035   0.761  11.243 -0.2539 -0.2663 -0.1528
  447TMC3     H 6716   4.033   1.115  11.061 -1.1192 -1.9732 -0.1187
  447TMC3    H1 6717   4.260   0.785  11.222 -1.5199 -0.0609 -0.6018
  447TMC3    H2 6718   4.456   1.141  11.089 -1.5844  1.5205 -0.6315
  447TMC3    C7 6719   4.489   0.886  11.162  0.9066 -0.9616 -0.4523
  447TMC3    C8 6720   4.241   1.259  10.998 -0.2241 -0.2490 -0.1220
  447TMC3    O1 6721   4.487   0.782  11.223 -0.2231  0.2332 -0.5086
  447TMC3    O2 6722   4.157   1.334  11.045 -0.4628 -0.4226 -0.2219
  448TMC3    C1 6723   0.650   0.767  17.302  0.4275  0.3141 -0.1012
  448TMC3    C2 6724   0.683   0.659  17.221 -0.5203 -0.3434 -0.7387
  448TMC3    C3 6725   0.738   0.551  17.284  0.1751 -0.1738  0.7300
  448TMC3    C4 6726   0.652   0.758  17.437 -0.2843  0.6130  0.0178
  448TMC3    C5 6727   0.694   0.640  17.499  0.1067 -0.1322 -0.1010
  448TMC3    C6 6728   0.735   0.537  17.422 -0.3293 -0.6899  0.5242
  448TMC3     C 6729   0.607   0.875  17.225  0.0843 -0.2226  0.3379
  448TMC3     O 6730   0.671   0.922  17.132  0.7304  0.7797 -0.3585
  448TMC3     H 6731   0.684   0.666  17.113  2.0903  0.4990 -0.6429
  448TMC3    H1 6732   0.615   0.838  17.500 -1.3253  1.2340 -1.3866
  448TMC3    H2 6733   0.764   0.449  17.479 -1.6700 -0.9622  0.7757
  448TMC3    C7 6734   0.753   0.638  17.626  0.1636 -0.0535  0.3370
  448TMC3    C8 6735   0.788   0.434  17.204 -0.8211 -0.0401 -0.1168
  448TMC3    O1 6736   0.797   0.749  17.663 -0.6700  0.1359  0.3340
  448TMC3    O2 6737   0.866   0.359  17.261 -0.1352  0.3401 -0.3750
  449MPD2     C 6738   2.990   3.668  14.131 -0.6691  0.3533 -0.6372
  449MPD2    C1 6739   2.888   3.735  14.071 -0.1918 -0.4008  0.1576
  449MPD2    C2 6740   2.763   3.720  14.124  0.5426  0.1159 -0.5477
  449MPD2    C3 6741   2.739   3.657  14.243 -0.1109 -0.3654  0.4744
  449MPD2    C4 6742   2.847   3.585  14.299  0.4508 -0.5117  0.3336
  449MPD2    C5 6743   2.973   3.601  14.247 -0.0497  0.4205 -0.2644
  449MPD2     H 6744   2.679   3.766  14.072 -0.2412 -0.7327 -0.0437
  449MPD2    H1 6745   2.826   3.532  14.390 -0.0625 -2.1646 -0.7508
  449MPD2    H2 6746   3.092   3.680  14.097  0.4368 -0.9299  2.2556
  449MPD2    H3 6747   3.055   3.545  14.289 -0.5460  0.2842  0.5165
  449MPD2     N 6748   2.607   3.641  14.279 -0.1553 -0.7560  0.1761
  449MPD2    H5 6749   2.533   3.688  14.229  1.4144  1.8336  0.2672
  449MPD2    N1 6750   2.901   3.822  13.963  0.0790  0.9932 -0.1878
  449MPD2    H7 6751   2.818   3.865  13.922  0.5039  1.5867 -0.4170
  450TMC3    C1 6752   2.976   3.916  13.771  0.4427  1.2361  0.1535
  450TMC3    C2 6753   2.986   3.847  13.656  0.2212 -0.4944  0.4896
  450TMC3    C3 6754   2.881   3.856  13.564  0.5710 -0.6740  0.4333
  450TMC3    C4 6755   2.872   3.999  13.794 -0.3223 -0.2775  0.5025
  450TMC3    C5 6756   2.763   4.004  13.705  0.0178 -0.4803 -0.6353
  450TMC3    C6 6757   2.765   3.931  13.591 -0.1727 -1.0218 -0.7085
  450TMC3     C 6758   3.012   3.832  13.883 -0.1400  0.0142  0.7339
  450TMC3     O 6759   3.110   3.760  13.873 -0.3649 -0.3403  0.2263
  450TMC3     H 6760   3.059   3.767  13.656 -0.0985 -0.7815  1.4254
  450TMC3    H1 6761   2.876   4.060  13.884  1.1341  1.0100 -0.4166
  450TMC3    H2 6762   2.674   3.938  13.533 -1.2748 -0.6444  1.0577
  450TMC3    C7 6763   2.650   3.992  13.788 -0.3411  0.6640  0.2644
  450TMC3    C8 6764   2.879   3.771  13.446  0.3344 -0.1299  0.3107
  450TMC3    O1 6765   2.669   3.974  13.905  0.3304  0.1581 -0.1000
  450TMC3    O2 6766   2.770   3.722  13.425  0.3209  0.1499 -0.0056
  451MPD2     C 6767   3.389   2.342   1.397  0.3399  0.1229  0.0295
  451MPD2    C1 6768   3.517   2.402   1.386  0.1097 -0.0641 -0.5396
  451MPD2    C2 6769   3.624   2.317   1.365  0.3737 -0.3037  0.2074
  451MPD2    C3 6770   3.611   2.177   1.361  0.4529  0.6421 -0.0317
  451MPD2    C4 6771   3.481   2.122   1.375 -0.2469  0.1761  0.9185
  451MPD2    C5 6772   3.377   2.209   1.391 -0.1391 -0.0003  0.5834
  451MPD2     H 6773   3.725   2.357   1.368 -0.0844  0.9506 -1.0278
  451MPD2    H1 6774   3.466   2.015   1.371  1.5627 -0.0433 -0.1268
  451MPD2    H2 6775   3.290   2.385   1.412 -0.0004 -0.1660 -1.3470
  451MPD2    H3 6776   3.274   2.180   1.404  0.2475 -1.4498  0.4110
  451MPD2     N 6777   3.721   2.096   1.327 -0.0795 -0.5960  0.0000
  451MPD2    H5 6778   3.702   1.999   1.303 -0.1490 -0.5847  0.0082
  451MPD2    N1 6779   3.525   2.544   1.383  0.0978  0.1539  0.0825
  451MPD2    H7 6780   3.438   2.593   1.400 -1.6307 -2.1698 -1.9819
  452TMC3    C1 6781   3.939   2.032   1.271 -0.1852 -0.2057  0.5412
  452TMC3    C2 6782   3.900   1.903   1.263 -0.1884  0.3512 -0.1683
  452TMC3    C3 6783   3.974   1.814   1.188  0.3311  0.0881  0.5603
  452TMC3    C4 6784   4.050   2.072   1.199 -0.1607 -0.4833  0.0938
  452TMC3    C5 6785   4.114   1.989   1.109  0.7676 -0.0136 -0.0416
  452TMC3    C6 6786   4.072   1.860   1.103  0.2754  0.1667 -0.2406
  452TMC3     C 6787   3.857   2.136   1.334  0.9781  0.1779  0.3802
  452TMC3     O 6788   3.906   2.246   1.356 -0.3858 -0.6474  0.5266
  452TMC3     H 6789   3.823   1.858   1.324  0.3342  2.7970  2.3201
  452TMC3    H1 6790   4.069   2.179   1.192 -1.8503 -0.2696 -1.1017
  452TMC3    H2 6791   4.126   1.788   1.042  1.3151  0.3012  0.5260
  452TMC3    C7 6792   4.193   2.030   0.994 -0.0823  0.0964 -0.3755
  452TMC3    C8 6793   3.931   1.678   1.164  0.2720  0.5654 -1.3378
  452TMC3    O1 6794   4.194   1.961   0.894 -0.5879 -0.7809 -0.2293
  452TMC3    O2 6795   3.964   1.601   1.250 -0.0050 -0.1442  0.0243
  453TMC3    C1 6796   0.368   4.350  12.260  0.6915  0.2032 -0.4232
  453TMC3    C2 6797   0.364   4.243  12.352 -0.2041 -0.1532 -1.1498
  453TMC3    C3 6798   0.310   4.128  12.305 -0.1599  0.5230 -0.2977
  453TMC3    C4 6799   0.337   4.333  12.125 -0.7664 -0.2089  0.6004
  453TMC3    C5 6800   0.295   4.209  12.087 -0.3360 -0.4465 -0.2337
  453TMC3    C6 6801   0.272   4.111  12.174 -0.4353 -0.7155  0.0447
  453TMC3     C 6802   0.452   4.462  12.300 -0.9055  0.2174 -0.3621
  453TMC3     O 6803   0.487   4.531  12.204 -0.6040 -0.2550  0.5087
  453TMC3     H 6804   0.396   4.249  12.455 -1.7913 -2.6349 -0.5103
  453TMC3    H1 6805   0.359   4.412  12.054 -1.9826 -0.7770 -0.4031
  453TMC3    H2 6806   0.242   4.013  12.138 -0.2472 -0.5383 -0.5788
  453TMC3    C7 6807   0.338   4.167  11.955  0.1050  0.4032  0.6331
  453TMC3    C8 6808   0.360   4.011  12.380 -0.4751  0.0180 -0.3856
  453TMC3    O1 6809   0.267   4.083  11.902  0.1772  0.4676  0.0726
  453TMC3    O2 6810   0.294   3.907  12.372 -0.0835 -0.7416 -0.4515
  454MPD2     C 6811   3.964   3.615  15.864 -0.2806 -0.3182  0.4664
  454MPD2    C1 6812   3.867   3.549  15.938  0.3547  0.2344  0.0575
  454MPD2    C2 6813   3.860   3.593  16.064  0.7450  0.3701 -0.6549
  454MPD2    C3 6814   3.920   3.706  16.121 -0.5109  0.2313  0.2189
  454MPD2    C4 6815   4.002   3.780  16.039  0.1741  0.7795  0.3413
  454MPD2    C5 6816   4.027   3.733  15.912  0.2740  0.3479 -0.3486
  454MPD2     H 6817   3.789   3.546  16.130  2.7138  0.3325  1.4273
  454MPD2    H1 6818   4.056   3.869  16.067 -0.2723  0.9763  0.5722
  454MPD2    H2 6819   3.996   3.571  15.770 -0.8706  1.2162 -0.4436
  454MPD2    H3 6820   4.081   3.781  15.831 -1.0654 -0.6878 -1.8855
  454MPD2     N 6821   3.877   3.761  16.245  0.1013  0.4571 -0.7925
  454MPD2    H5 6822   3.885   3.861  16.260  0.8573  0.5677 -1.9226
  454MPD2    N1 6823   3.770   3.450  15.903 -0.5889  0.4685 -0.5843
  454MPD2    H7 6824   3.687   3.443  15.960 -1.0824  1.1525 -1.2213
  455TMC3    C1 6825   3.688   3.747  16.367  0.0656  0.8347  0.4390
  455TMC3    C2 6826   3.676   3.883  16.390 -0.1996  0.7505 -0.1539
  455TMC3    C3 6827   3.553   3.941  16.373  0.4732  0.5645 -0.3770
  455TMC3    C4 6828   3.583   3.675  16.324  0.1348 -0.3106  0.0309
  455TMC3    C5 6829   3.457   3.730  16.308 -0.5186 -0.0327 -0.4716
  455TMC3    C6 6830   3.444   3.864  16.332 -0.4856  0.0665  0.5674
  455TMC3     C 6831   3.813   3.685  16.345  0.9078 -0.5063  0.5579
  455TMC3     O 6832   3.816   3.563  16.355 -0.1527  0.3081 -0.0812
  455TMC3     H 6833   3.760   3.942  16.426  0.6329  0.2616 -1.2784
  455TMC3    H1 6834   3.603   3.571  16.300  2.0137 -0.0472  0.4429
  455TMC3    H2 6835   3.357   3.922  16.307 -0.5599 -0.1494  0.3230
  455TMC3    C7 6836   3.361   3.652  16.243 -0.6261 -0.0287  0.7430
  455TMC3    C8 6837   3.553   4.080  16.410  0.1057  0.7322  0.5007
  455TMC3    O1 6838   3.401   3.555  16.178  0.1146  0.5471 -0.3364
  455TMC3    O2 6839   3.660   4.138  16.411  0.1025 -0.4038  0.4694
  456MPD2     C 6840   1.509   4.094  16.439  0.3904  0.2365  0.0790
  456MPD2    C1 6841   1.605   4.162  16.504  0.3721 -0.2053  0.6850
  456MPD2    C2 6842   1.562   4.261  16.596  0.2434 -0.0214 -0.6191
  456MPD2    C3 6843   1.426   4.273  16.624  0.2519 -0.4695 -0.2958
  456MPD2    C4 6844   1.332   4.204  16.555 -0.1339  0.9018  0.2600
  456MPD2    C5 6845   1.375   4.127  16.452 -0.0639  0.1831  0.1142
  456MPD2     H 6846   1.634   4.320  16.651  0.2014  1.6483 -2.3930
  456MPD2    H1 6847   1.225   4.212  16.572 -0.2948 -0.8024  0.0563
  456MPD2    H2 6848   1.523   4.022  16.359  0.9852  0.4295  0.0076
  456MPD2    H3 6849   1.303   4.082  16.384 -0.2148 -1.0981  1.1332
  456MPD2     N 6850   1.395   4.369  16.717  0.2743  0.5033  0.6012
  456MPD2    H5 6851   1.477   4.408  16.763 -0.5482  0.2877  2.2433
  456MPD2    N1 6852   1.738   4.120  16.478 -0.9882 -0.1498  0.4104
  456MPD2    H7 6853   1.748   4.062  16.395  1.4183  1.6253 -0.5574
  457TMC3    C1 6854   1.284   4.503  16.862  0.0103  0.1992 -0.3750
  457TMC3    C2 6855   1.205   4.620  16.858 -0.1339 -0.8275 -0.4651
  457TMC3    C3 6856   1.190   4.684  16.966 -0.6483 -0.6187  0.3405
  457TMC3    C4 6857   1.318   4.439  16.972 -0.2230 -0.3876 -0.0906
  457TMC3    C5 6858   1.278   4.502  17.086 -0.6219  0.6028  0.7555
  457TMC3    C6 6859   1.225   4.633  17.086 -0.3570  0.5384  0.4559
  457TMC3     C 6860   1.276   4.422  16.744 -0.4126 -0.4818 -0.1158
  457TMC3     O 6861   1.164   4.384  16.711 -0.1127 -0.0351  0.1481
  457TMC3     H 6862   1.182   4.653  16.757 -0.4531  1.2940  0.2885
  457TMC3    H1 6863   1.352   4.337  16.979 -1.4677 -0.6327  2.6522
  457TMC3    H2 6864   1.216   4.696  17.174 -1.0552  1.7780 -0.4886
  457TMC3    C7 6865   1.282   4.425  17.204 -0.1182 -0.0035 -0.0285
  457TMC3    C8 6866   1.105   0.067  16.970 -0.6955 -0.1293 -0.1070
  457TMC3    O1 6867   1.330   4.308  17.201  0.6557  0.5477  0.5954
  457TMC3    O2 6868   1.119   0.141  17.065  0.1953  0.3698 -0.2797
  458MPD2     C 6869   4.726   3.885  12.208 -0.1452  0.5085 -0.2996
  458MPD2    C1 6870   4.646   3.814  12.295  0.3763  0.3702 -0.8191
  458MPD2    C2 6871   4.509   3.803  12.272  0.2908 -0.3693 -0.1182
  458MPD2    C3 6872   4.446   3.875  12.176  0.2622  0.0785  0.2963
  458MPD2    C4 6873   4.529   3.956  12.096  0.2543 -1.0767 -0.5781
  458MPD2    C5 6874   4.662   3.957  12.108 -0.1088 -0.4030  1.0441
  458MPD2     H 6875   4.445   3.750  12.343  0.9773 -1.3410 -0.2357
  458MPD2    H1 6876   4.486   4.010  12.013 -0.2877  1.5003  1.3729
  458MPD2    H2 6877   0.097   3.889  12.218 -0.5009  2.7280  2.6341
  458MPD2    H3 6878   4.721   4.012  12.035 -0.7629 -0.6409  0.3458
  458MPD2     N 6879   4.312   3.866  12.154  0.9467  0.0366  0.1367
  458MPD2    H5 6880   4.266   3.797  12.212 -2.4144  0.2354 -2.3029
  458MPD2    N1 6881   4.714   3.759  12.405  0.0238  0.2080  0.1637
  458MPD2    H7 6882   0.075   3.784  12.410 -0.1814  1.1074 -0.4202
  459TMC3    C1 6883   0.012   3.649  12.610 -0.1683  0.3781 -0.0904
  459TMC3    C2 6884   0.106   3.747  12.643 -0.5480  0.2575 -0.5112
  459TMC3    C3 6885   0.188   3.721  12.755  0.8092 -0.6735 -1.1152
  459TMC3    C4 6886   0.003   3.528  12.674  0.1275 -0.5605 -0.3466
  459TMC3    C5 6887   0.091   3.511  12.778 -0.8806 -0.7331  0.1604
  459TMC3    C6 6888   0.178   3.608  12.821  0.1360 -0.4291  0.2546
  459TMC3     C 6889   4.658   3.673  12.498  1.0505  0.0695 -0.6330
  459TMC3     O 6890   4.548   3.619  12.501 -0.1514  0.3124  0.2125
  459TMC3     H 6891   0.120   3.835  12.581  0.8029  0.8836  0.6736
  459TMC3    H1 6892   4.664   3.452  12.657 -0.5745  0.0287  0.1789
  459TMC3    H2 6893   0.249   3.591  12.901  0.2964 -1.8902 -0.1864
  459TMC3    C7 6894   0.058   3.417  12.883 -0.5184 -1.0489  0.3882
  459TMC3    C8 6895   0.281   3.821  12.804 -0.0903 -0.1056 -0.3588
  459TMC3    O1 6896   0.010   3.310  12.845  0.3315 -0.0378 -0.5463
  459TMC3    O2 6897   0.372   3.785  12.878 -0.8534 -0.1675 -1.2104
  460MPD2     C 6898   4.464   1.393  10.736 -0.3010  0.4985 -0.4962
  460MPD2    C1 6899   4.352   1.388  10.810 -0.0311  0.0938 -0.5604
  460MPD2    C2 6900   4.254   1.483  10.787 -0.1497  0.0634 -0.3105
  460MPD2    C3 6901   4.263   1.577  10.692 -0.0982  0.3093 -0.2904
  460MPD2    C4 6902   4.376   1.571  10.608  0.3922  0.1781 -0.3097
  460MPD2    C5 6903   4.471   1.482  10.631 -0.1543 -0.2961  0.1103
  460MPD2     H 6904   4.165   1.485  10.850 -0.0753  3.0548 -0.3036
  460MPD2    H1 6905   4.395   1.637  10.524  0.2965 -0.5877 -0.9247
  460MPD2    H2 6906   4.549   1.326  10.740 -1.5913 -1.1840 -1.1143
  460MPD2    H3 6907   4.555   1.481  10.562 -0.2371 -0.2326  0.0098
  460MPD2     N 6908   4.151   1.656  10.664  0.3974  0.7020 -0.2500
  460MPD2    H5 6909   4.060   1.632  10.703 -0.3019  2.5611 -0.7597
  460MPD2    N1 6910   4.340   1.281  10.906 -0.4196  0.2806 -0.5760
  460MPD2    H7 6911   4.415   1.213  10.904  1.1933  2.0279  1.4636
  461TMC3    C1 6912   4.025   1.817  10.554 -0.4980 -0.3177 -0.5437
  461TMC3    C2 6913   3.944   1.720  10.512  0.6057 -0.2822 -0.1288
  461TMC3    C3 6914   3.850   1.750  10.431  0.1418  0.2340 -0.3539
  461TMC3    C4 6915   4.003   1.949  10.519  0.3752  0.0596 -0.0913
  461TMC3    C5 6916   3.914   1.972  10.417  0.5171  0.1847 -0.0402
  461TMC3    C6 6917   3.835   1.876  10.382 -0.1574 -0.5444 -0.2213
  461TMC3     C 6918   4.160   1.769  10.583 -0.6440  0.2184  0.2934
  461TMC3     O 6919   4.263   1.814  10.530 -0.6231 -0.6503 -0.8581
  461TMC3     H 6920   3.969   1.615  10.524  0.1157 -0.4955 -0.9552
  461TMC3    H1 6921   4.073   2.023  10.559  0.7534  0.4720 -1.5135
  461TMC3    H2 6922   3.751   1.889  10.315  0.9498 -0.3882 -1.5812
  461TMC3    C7 6923   3.911   2.091  10.337 -0.0364  0.7955  0.2180
  461TMC3    C8 6924   3.844   1.655  10.319  0.0789 -0.0440  0.4763
  461TMC3    O1 6925   3.839   2.089  10.235  0.1734  0.3417  0.1572
  461TMC3    O2 6926   3.950   1.615  10.271 -0.3820  0.0768 -0.4719
  462TMC3    C1 6927   3.695   1.362   0.079 -0.5629 -0.0831  0.3631
  462TMC3    C2 6928   3.722   1.253  17.746  0.5050  0.1889 -0.0717
  462TMC3    C3 6929   3.621   1.154  17.736  0.4048  0.2914 -0.0116
  462TMC3    C4 6930   3.579   1.368   0.157  0.5631  0.4172 -0.3580
  462TMC3    C5 6931   3.483   1.267   0.138 -0.1364  0.0442  0.1025
  462TMC3    C6 6932   3.509   1.155   0.067 -0.6545 -0.1512  0.3139
  462TMC3     C 6933   3.804   1.459   0.106 -0.5969  0.1264  0.3654
  462TMC3     O 6934   3.899   1.465   0.037  0.1010  0.0792  0.0388
  462TMC3     H 6935   3.811   1.246  17.685  1.7117  1.7687  1.5191
  462TMC3    H1 6936   3.559   1.465   0.200 -1.3818  0.0509 -0.4435
  462TMC3    H2 6937   3.427   1.089   0.043 -1.3313  0.8749 -0.2303
  462TMC3    C7 6938   3.339   1.305   0.132  0.4614 -0.0257 -1.2273
  462TMC3    C8 6939   3.634   1.047  17.639  0.1466  0.5780  0.2691
  462TMC3    O1 6940   3.274   1.243   0.046 -0.0401 -0.4809  0.0647
  462TMC3    O2 6941   3.589   0.941  17.677  0.1017  0.2691 -0.1824
  463MPD2     C 6942   4.166   0.543   1.534  0.1464 -0.4938  0.3922
  463MPD2    C1 6943   4.047   0.604   1.508  0.5991 -0.0077  0.4363
  463MPD2    C2 6944   4.033   0.742   1.513 -0.2368 -0.7176  0.6950
  463MPD2    C3 6945   4.142   0.824   1.549  0.1673  0.1934 -0.4360
  463MPD2    C4 6946   4.260   0.761   1.582  0.1259 -0.6365  0.3127
  463MPD2    C5 6947   4.274   0.623   1.576  0.0800 -0.2707  0.0551
  463MPD2     H 6948   3.941   0.788   1.478  1.2240  0.6322 -1.3871
  463MPD2    H1 6949   4.346   0.818   1.615  0.5558 -0.4829 -1.0586
  463MPD2    H2 6950   4.173   0.436   1.521  3.2069 -0.4294  1.5411
  463MPD2    H3 6951   4.373   0.581   1.590  0.1753 -0.3747 -0.9357
  463MPD2     N 6952   4.137   0.965   1.567 -0.1676 -0.9394 -0.3732
  463MPD2    H5 6953   4.230   1.004   1.578 -0.4595 -0.2336 -0.4399
  463MPD2    N1 6954   3.932   0.534   1.460  0.0828  0.5596  0.2583
  463MPD2    H7 6955   3.851   0.589   1.436  1.3824  1.3673 -2.2294
  464TMC3    C1 6956   3.819   0.364   1.362 -0.4766 -0.1955 -0.1227
  464TMC3    C2 6957   3.760   0.466   1.281 -0.5087  0.0392  0.0846
  464TMC3    C3 6958   3.663   0.426   1.189  0.6200  0.0186 -0.3398
  464TMC3    C4 6959   3.778   0.234   1.350  0.1786 -0.0453  0.1089
  464TMC3    C5 6960   3.678   0.204   1.260  0.4184  0.3720  0.1297
  464TMC3    C6 6961   3.628   0.294   1.173  0.4786 -0.2239  0.4179
  464TMC3     C 6962   3.916   0.398   1.462  0.8895  0.0461  0.0982
  464TMC3     O 6963   3.989   0.310   1.506  0.3766  0.8614  0.5201
  464TMC3     H 6964   3.813   0.559   1.266  0.3469 -0.3036  1.0146
  464TMC3    H1 6965   3.827   0.157   1.409  0.8209  0.3169  0.0515
  464TMC3    H2 6966   3.558   0.276   1.093 -1.2621  0.0080  1.8911
  464TMC3    C7 6967   3.647   0.062   1.252  0.1207  0.4013 -0.1496
  464TMC3    C8 6968   3.596   0.523   1.110  0.3037 -0.1824  0.0272
  464TMC3    O1 6969   3.727   4.711   1.283  0.3328  0.2376  0.9946
  464TMC3    O2 6970   3.516   0.486   1.025 -0.6461 -0.0696  0.7528
  465MPD2     C 6971   0.627   4.539  16.631 -0.3671 -0.0573  0.4644
  465MPD2    C1 6972   0.621   4.397  16.626 -0.6125  0.0031 -0.0242
  465MPD2    C2 6973   0.634   4.336  16.504 -0.3592 -0.1273 -0.4517
  465MPD2    C3 6974   0.673   4.398  16.389 -0.6270  0.2266 -0.7252
  465MPD2    C4 6975   0.681   4.536  16.392  0.7063  0.2591 -0.2139
  465MPD2    C5 6976   0.653   4.603  16.514  0.2019 -0.5094  0.1772
  465MPD2     H 6977   0.615   4.230  16.494 -3.5210  0.2579  1.5108
  465MPD2    H1 6978   0.714   4.593  16.306  0.3657 -1.4105 -1.4688
  465MPD2    H2 6979   0.624   4.594  16.725  0.5967  1.4531 -0.3992
  465MPD2    H3 6980   0.674   4.709  16.512 -1.7964 -0.1399 -1.1265
  465MPD2     N 6981   0.692   4.322  16.268  0.2426  0.4070  0.3149
  465MPD2    H5 6982   0.636   4.238  16.256  0.8292 -0.1241  1.1976
  465MPD2    N1 6983   0.615   4.313  16.735 -0.4513  0.8834  0.1013
  465MPD2    H7 6984   0.606   4.214  16.717  0.1870  0.6768  0.9243
  466TMC3    C1 6985   0.534   4.148  16.006  0.1930 -0.2553 -0.8533
  466TMC3    C2 6986   0.480   4.242  15.919 -0.4815 -0.8242  0.7638
  466TMC3    C3 6987   0.552   4.351  15.892 -0.4256  0.1512 -0.0503
  466TMC3    C4 6988   0.660   4.178  16.060 -0.0305  0.0216  0.1435
  466TMC3    C5 6989   0.723   4.296  16.042 -0.0537  0.0755  0.3198
  466TMC3    C6 6990   0.668   4.379  15.955  0.1070  0.0385  0.2147
  466TMC3     C 6991   0.440   4.098  16.108  0.6904 -0.3493 -0.3942
  466TMC3     O 6992   0.484   4.118  16.219 -0.3863 -0.4480 -0.1661
  466TMC3     H 6993   0.383   4.217  15.876  0.5840  0.9798 -2.6683
  466TMC3    H1 6994   0.694   4.104  16.132 -0.8124  0.6277  1.1243
  466TMC3    H2 6995   0.707   4.480  15.946  1.3809 -0.6335 -1.8913
  466TMC3    C7 6996   0.767   4.370  16.163  0.3779  0.2385  1.4077
  466TMC3    C8 6997   0.472   4.471  15.858 -0.1040 -0.5558  0.2341
  466TMC3    O1 6998   0.827   4.476  16.148  0.0673  0.5961 -0.2171
  466TMC3    O2 6999   0.449   4.504  15.741 -0.3461 -0.5612  0.6345
  467TMC3    C1 7000   2.106   2.835  14.177 -0.3105  0.0569  0.8662
  467TMC3    C2 7001   2.069   2.779  14.055  0.5176 -0.2764 -0.1354
  467TMC3    C3 7002   1.940   2.765  14.021 -0.4656 -0.0030 -0.4967
  467TMC3    C4 7003   2.008   2.868  14.273  0.4180  0.4516  0.0733
  467TMC3    C5 7004   1.880   2.857  14.229  0.0727 -0.1826  0.3790
  467TMC3    C6 7005   1.841   2.806  14.105 -0.1105  0.2161  0.9547
  467TMC3     C 7006   2.229   2.901  14.179 -0.4401  0.1039 -0.7032
  467TMC3     O 7007   2.286   2.907  14.072 -0.3257 -0.1705  0.8641
  467TMC3     H 7008   2.146   2.763  13.980  1.6847 -2.1035  1.4627
  467TMC3    H1 7009   2.024   2.939  14.354  1.1786  0.2695  0.0855
  467TMC3    H2 7010   1.739   2.808  14.068 -0.5072  0.4677  2.0803
  467TMC3    C7 7011   1.791   2.954  14.295 -0.1010 -0.4198 -0.7041
  467TMC3    C8 7012   1.915   2.802  13.880 -0.7145 -0.5005 -0.3408
  467TMC3    O1 7013   1.836   3.018  14.389  0.2093 -0.3204 -0.5332
  467TMC3    O2 7014   1.822   2.753  13.817  0.3799  0.2313 -0.3235
  468MPD2     C 7015   0.919   1.095  10.775 -0.4941  0.3944  0.0125
  468MPD2    C1 7016   0.996   1.096  10.883 -0.0765  0.6970 -0.1173
  468MPD2    C2 7017   1.064   0.977  10.916 -0.3157  0.4672  0.7344
  468MPD2    C3 7018   1.036   0.858  10.849 -0.4509  0.2754  0.0859
  468MPD2    C4 7019   0.967   0.862  10.734 -0.2340  0.4189 -0.2571
  468MPD2    C5 7020   0.911   0.986  10.700  0.3485 -0.0242  0.1796
  468MPD2     H 7021   1.130   0.966  11.001  2.1162 -2.8051 -1.5689
  468MPD2    H1 7022   0.966   0.778  10.665 -1.8036  0.7173 -0.6137
  468MPD2    H2 7023   0.863   1.182  10.743 -0.1038  0.3269 -0.8488
  468MPD2    H3 7024   0.851   0.994  10.610 -0.2900  0.6960  0.6641
  468MPD2     N 7025   1.072   0.727  10.887  0.2367 -0.4139  0.3034
  468MPD2    H5 7026   1.050   0.658  10.816 -0.7199 -1.2306  1.3947
  468MPD2    N1 7027   1.024   1.212  10.965 -0.2971 -0.2948 -0.2489
  468MPD2    H7 7028   1.096   1.207  11.036 -1.1880 -0.3837  0.6541
  469TMC3    C1 7029   0.997   1.429  11.050 -1.0864 -0.4181 -0.3450
  469TMC3    C2 7030   1.132   1.432  11.080 -0.0134 -0.1685  0.0749
  469TMC3    C3 7031   1.183   1.537  11.150 -0.7510  0.0478  0.6894
  469TMC3    C4 7032   0.920   1.533  11.091  0.3323  0.3309 -0.1393
  469TMC3    C5 7033   0.969   1.631  11.176  0.3346 -0.5240  0.1208
  469TMC3    C6 7034   1.103   1.632  11.199  0.5448 -0.0623 -0.0783
  469TMC3     C 7035   0.951   1.324  10.957  0.2252  0.7099  0.1825
  469TMC3     O 7036   0.845   1.348  10.904 -0.2670 -1.1108 -0.2777
  469TMC3     H 7037   1.196   1.354  11.041 -3.3793 -1.7886 -2.2667
  469TMC3    H1 7038   0.813   1.528  11.077  0.5216 -0.3454 -1.3988
  469TMC3    H2 7039   1.156   1.713  11.248 -0.8125  1.4590 -1.1231
  469TMC3    C7 7040   0.874   1.734  11.214  0.0799  0.0972 -0.0590
  469TMC3    C8 7041   1.330   1.548  11.161 -0.5347  0.0587 -0.7898
  469TMC3    O1 7042   0.767   1.733  11.153  0.5240  0.1094 -0.1208
  469TMC3    O2 7043   1.399   1.490  11.079 -0.5826  0.3001  0.3192
  470TMC3    C1 7044   2.390   2.019   0.852  0.2835  0.3639  0.2783
  470TMC3    C2 7045   2.478   2.032   0.955 -1.2829 -0.3271 -0.3482
  470TMC3    C3 7046   2.427   2.034   1.081  0.0419  0.4447 -0.3204
  470TMC3    C4 7047   2.256   2.001   0.873 -0.1210 -0.2606  0.3342
  470TMC3    C5 7048   2.211   2.011   1.002 -0.5462  0.0428 -0.3251
  470TMC3    C6 7049   2.294   2.032   1.113  0.0229 -0.1759  0.2463
  470TMC3     C 7050   2.444   2.004   0.715  0.1994 -0.2176  0.1994
  470TMC3     O 7051   2.566   2.028   0.700 -0.3897 -0.2662  0.2711
  470TMC3     H 7052   2.584   2.028   0.932 -1.0601  0.4790  0.5282
  470TMC3    H1 7053   2.184   1.983   0.793  2.3187  0.6920 -2.0958
  470TMC3    H2 7054   2.257   2.019   1.213 -1.3054 -1.5268 -0.4286
  470TMC3    C7 7055   2.068   2.061   1.005  0.2701 -0.5713 -0.2727
  470TMC3    C8 7056   2.500   2.100   1.179  0.4147  0.4196  0.0242
  470TMC3    O1 7057   2.013   2.077   0.897 -0.2721  0.7630 -0.1456
  470TMC3    O2 7058   2.447   2.141   1.283 -0.5459 -0.5925 -0.1721
  471MPD2     C 7059   3.242   3.652  17.079  0.6801 -0.4605 -0.4127
  471MPD2    C1 7060   3.220   3.528  17.024  0.4826 -0.1779 -0.0457
  471MPD2    C2 7061   3.243   3.408  17.090 -0.1742  0.9931  0.6221
  471MPD2    C3 7062   3.283   3.412  17.230  0.8040  0.1232 -0.3093
  471MPD2    C4 7063   3.308   3.537  17.286 -0.5849  0.5271  0.9973
  471MPD2    C5 7064   3.284   3.656  17.218  0.3533 -0.0204  0.5916
  471MPD2     H 7065   3.213   3.315  17.043  0.8899  0.2436  1.4325
  471MPD2    H1 7066   3.337   3.538  17.390 -0.1784  3.0802  0.8552
  471MPD2    H2 7067   3.225   3.747  17.029 -1.2777 -0.9234 -0.6533
  471MPD2    H3 7068   3.287   3.748  17.274  0.2814 -0.4051  1.2322
  471MPD2     N 7069   3.292   3.298  17.317 -0.8480  0.2498  0.1265
  471MPD2    H5 7070   3.346   3.308  17.403  1.9427 -1.2492 -1.4505
  471MPD2    N1 7071   3.171   3.506  16.894  0.7932 -0.0851 -0.0601
  471MPD2    H7 7072   3.166   3.408  16.869 -1.2355 -0.3585  1.4262
  472TMC3    C1 7073   3.019   3.528  16.712  0.5512 -0.0313  0.3652
  472TMC3    C2 7074   2.898   3.576  16.677  0.5815 -0.3439 -0.0686
  472TMC3    C3 7075   2.813   3.500  16.602 -0.6777  0.1960 -0.0327
  472TMC3    C4 7076   3.066   3.408  16.668  0.0085  0.4388  0.5700
  472TMC3    C5 7077   2.983   3.340  16.586 -0.1124 -0.0494 -0.3154
  472TMC3    C6 7078   2.858   3.379  16.552  0.5430 -0.4000  0.1672
  472TMC3     C 7079   3.088   3.591  16.823  0.1333 -0.2120  0.3282
  472TMC3     O 7080   3.055   3.706  16.850 -0.0918 -0.0222  0.0116
  472TMC3     H 7081   2.861   3.665  16.726  2.1068  0.1415  0.1902
  472TMC3    H1 7082   3.167   3.370  16.677  0.1016  0.4656 -0.4443
  472TMC3    H2 7083   2.791   3.320  16.490  0.4186 -0.9007  0.7820
  472TMC3    C7 7084   2.999   3.204  16.561  0.0617  0.6513  0.1202
  472TMC3    C8 7085   2.671   3.519  16.633 -0.2080  1.5243  0.4312
  472TMC3    O1 7086   3.058   3.150  16.651 -0.2398  0.5094  0.1024
  472TMC3    O2 7087   2.629   3.614  16.702  0.2839  0.4494  0.1921
  473MPD2     C 7088   3.075   0.297  14.056 -0.1532 -0.5070 -0.1918
  473MPD2    C1 7089   3.120   0.393  13.969 -0.1453 -0.5925  0.4074
  473MPD2    C2 7090   3.162   0.516  14.019 -0.2697 -0.2760 -0.4077
  473MPD2    C3 7091   3.169   0.535  14.158 -0.3168  0.4032 -0.2247
  473MPD2    C4 7092   3.122   0.435  14.239  0.4599  0.0613 -0.0294
  473MPD2    C5 7093   3.083   0.314  14.191 -0.8297 -0.0035 -0.0582
  473MPD2     H 7094   3.187   0.601  13.957 -0.5883  0.9819  1.1833
  473MPD2    H1 7095   3.129   0.440  14.347  2.5191 -0.0179 -0.1563
  473MPD2    H2 7096   3.037   0.200  14.025  0.8058 -0.7875 -0.5009
  473MPD2    H3 7097   3.034   0.244  14.258  1.9531  0.1301  2.0786
  473MPD2     N 7098   3.197   0.662  14.215  0.9678  0.1982  0.0005
  473MPD2    H5 7099   3.177   0.659  14.314  0.1378 -1.0043 -0.1955
  473MPD2    N1 7100   3.122   0.367  13.824 -1.0042 -0.3869  0.4134
  473MPD2    H7 7101   3.157   0.444  13.768 -1.5504 -0.7216 -0.4009
  474TMC3    C1 7102   3.236   0.890  14.222 -0.3717  0.0555 -0.0836
  474TMC3    C2 7103   3.267   1.008  14.164  0.4049  0.2364 -0.2638
  474TMC3    C3 7104   3.250   1.123  14.230  0.1563 -0.1365 -0.7982
  474TMC3    C4 7105   3.205   0.886  14.359 -0.6080 -0.2774 -0.0735
  474TMC3    C5 7106   3.196   1.003  14.428 -0.5619  0.6209 -0.5566
  474TMC3    C6 7107   3.219   1.127  14.365 -0.2944  0.1880 -0.8227
  474TMC3     C 7108   3.245   0.771  14.152  0.3272  0.3837  0.9636
  474TMC3     O 7109   3.285   0.784  14.040 -0.0263 -0.0677 -0.6013
  474TMC3     H 7110   3.272   1.006  14.056  2.0279  0.4414 -0.1971
  474TMC3    H1 7111   3.192   0.795  14.416  0.2078 -0.1928  0.2419
  474TMC3    H2 7112   3.207   1.218  14.423 -1.9732 -0.9096  0.5784
  474TMC3    C7 7113   3.170   0.998  14.567  0.1099 -0.2912 -0.6014
  474TMC3    C8 7114   3.210   1.238  14.146  0.6569 -0.6505  0.2255
  474TMC3    O1 7115   3.117   0.905  14.625  0.4472 -0.4684  0.4067
  474TMC3    O2 7116   3.214   1.227  14.021 -0.1327  0.7319  0.1753
  475MPD2     C 7117   1.481   4.216  11.179 -0.0804  0.1831  0.3904
  475MPD2    C1 7118   1.592   4.195  11.099  0.3149 -0.4354  0.3040
  475MPD2    C2 7119   1.574   4.190  10.957 -0.0280 -0.1088  0.5010
  475MPD2    C3 7120   1.450   4.190  10.902  0.3283  0.1270 -0.9846
  475MPD2    C4 7121   1.341   4.191  10.988  0.0150 -0.2692 -0.5601
  475MPD2    C5 7122   1.358   4.217  11.121 -0.7692 -0.4920  0.0381
  475MPD2     H 7123   1.662   4.179  10.894  0.7489  1.2563  1.3383
  475MPD2    H1 7124   1.242   4.209  10.947  1.2161  1.0379 -2.9368
  475MPD2    H2 7125   1.480   4.232  11.287  0.5303 -0.5842  0.5168
  475MPD2    H3 7126   1.271   4.249  11.178 -0.1666 -2.0093  1.7851
  475MPD2     N 7127   1.445   4.199  10.761  0.4601  0.7347  0.7309
  475MPD2    H5 7128   1.531   4.196  10.707 -0.2036 -4.9206  0.0602
  475MPD2    N1 7129   1.713   4.205  11.163 -0.3708 -0.4249  1.0877
  475MPD2    H7 7130   1.715   4.265  11.245 -1.1689  1.3412 -0.1823
  476TMC3    C1 7131   1.950   4.207  11.185 -0.0403 -0.7737  0.3033
  476TMC3    C2 7132   2.069   4.204  11.113  0.8322  0.0621 -0.0674
  476TMC3    C3 7133   2.170   4.289  11.139  0.5761 -0.1826 -0.5349
  476TMC3    C4 7134   1.943   4.285  11.294 -0.4073 -0.0195  0.2478
  476TMC3    C5 7135   2.039   4.391  11.301 -0.4902  0.0232 -0.6215
  476TMC3    C6 7136   2.154   4.389  11.231  0.5440 -0.3399 -0.0044
  476TMC3     C 7137   1.834   4.159  11.113 -0.2326  0.1912 -0.4510
  476TMC3     O 7138   1.851   4.076  11.026 -0.3082  0.3658 -0.4634
  476TMC3     H 7139   2.061   4.124  11.041 -0.2594 -1.8934  2.2027
  476TMC3    H1 7140   1.852   4.307  11.349  0.7022  2.7051  1.0103
  476TMC3    H2 7141   2.217   4.476  11.241  0.7721 -0.6083  0.9227
  476TMC3    C7 7142   2.004   4.499  11.375 -0.1808  0.0380 -0.4542
  476TMC3    C8 7143   2.272   4.304  11.048 -1.0641 -0.0999 -0.1759
  476TMC3    O1 7144   1.932   4.485  11.474  0.1191 -0.1666  0.1724
  476TMC3    O2 7145   2.325   4.413  11.046  0.0571  0.3160 -0.8947
  477MPD2     C 7146   0.023   0.540  12.084 -0.4187  0.4315  0.2106
  477MPD2    C1 7147   4.687   0.460  11.994 -0.2835 -0.6058  0.6298
  477MPD2    C2 7148   4.648   0.333  12.041  0.0664 -0.4698 -0.7142
  477MPD2    C3 7149   4.672   0.286  12.170 -0.5148  0.3962 -0.8693
  477MPD2    C4 7150   0.000   0.375  12.255 -0.1627 -0.0210 -0.2154
  477MPD2    C5 7151   0.044   0.501  12.215  0.0307 -0.8075  0.3392
  477MPD2     H 7152   4.576   0.278  11.981  0.9079 -0.2180 -1.9647
  477MPD2    H1 7153   0.032   0.340  12.353 -2.2601 -0.4599  0.3029
  477MPD2    H2 7154   0.048   0.641  12.053  1.5576 -1.0156 -2.9158
  477MPD2    H3 7155   0.099   0.568  12.281 -2.3269  1.6397 -0.1530
  477MPD2     N 7156   4.631   0.162  12.210  0.0375 -0.0179 -0.0942
  477MPD2    H5 7157   4.587   0.107  12.137 -2.1279 -0.9477  1.9131
  477MPD2    N1 7158   4.640   0.517  11.869 -0.1899  0.7276  0.2594
  477MPD2    H7 7159   4.646   0.618  11.867  0.9482  0.6588 -0.0292
  478TMC3    C1 7160   4.570   0.537  11.645 -0.4938 -0.0495  0.4059
  478TMC3    C2 7161   4.541   0.672  11.676 -0.2078 -0.5449 -0.5707
  478TMC3    C3 7162   4.452   0.745  11.600  0.0049 -0.5571 -0.3115
  478TMC3    C4 7163   4.517   0.482  11.529  1.1805 -0.2202 -0.0888
  478TMC3    C5 7164   4.437   0.561  11.448 -0.5232  0.0188 -0.1615
  478TMC3    C6 7165   4.397   0.689  11.486 -0.1406  0.0479 -0.0751
  478TMC3     C 7166   4.589   0.449  11.755  0.3018 -0.0654  0.5040
  478TMC3     O 7167   4.589   0.330  11.737 -0.1859  0.4370 -0.0034
  478TMC3     H 7168   4.584   0.723  11.760  0.3739 -1.5595 -0.2559
  478TMC3    H1 7169   4.533   0.376  11.515  0.2251 -0.5031  0.9480
  478TMC3    H2 7170   4.334   0.750  11.422  0.4057  0.2955 -0.3762
  478TMC3    C7 7171   4.363   0.484  11.359  0.1741  0.4085 -0.3694
  478TMC3    C8 7172   4.516   0.871  11.579 -0.4424  0.4145 -0.5830
  478TMC3    O1 7173   4.312   0.381  11.405  0.4291  0.0972 -0.4478
  478TMC3    O2 7174   4.627   0.899  11.621 -0.0452  0.1790 -0.2274
  479MPD2     C 7175   1.888   2.456  15.183  1.0837  0.0740  0.3591
  479MPD2    C1 7176   2.018   2.447  15.152  0.4646 -0.2419 -0.3016
  479MPD2    C2 7177   2.094   2.553  15.191  0.2303 -0.6957 -0.0860
  479MPD2    C3 7178   2.044   2.661  15.265 -0.0757  0.7484 -0.4100
  479MPD2    C4 7179   1.913   2.667  15.296 -0.3035 -0.7492 -0.1243
  479MPD2    C5 7180   1.839   2.560  15.261  0.5372 -0.3065 -0.2173
  479MPD2     H 7181   2.201   2.561  15.177  0.1518  0.1597 -0.2357
  479MPD2    H1 7182   1.871   2.750  15.352  0.6350 -0.2986 -0.0658
  479MPD2    H2 7183   1.819   2.377  15.155  1.4541 -0.8497  2.0623
  479MPD2    H3 7184   1.740   2.563  15.303  1.3177  1.0392  1.5119
  479MPD2     N 7185   2.128   2.759  15.323 -0.5525 -0.0950 -0.7498
  479MPD2    H5 7186   2.084   2.808  15.400  1.0602  2.1723 -1.2839
  479MPD2    N1 7187   2.067   2.345  15.069 -0.4002  0.7567 -0.1375
  479MPD2    H7 7188   2.001   2.279  15.030  2.0237 -1.0002 -1.2782
  480TMC3    C1 7189   2.420   2.813  15.608  0.5114 -0.4487 -0.1038
  480TMC3    C2 7190   2.537   2.871  15.562  0.4714 -0.5957  0.6304
  480TMC3    C3 7191   2.539   2.918  15.430 -0.0894  0.6406 -0.8190
  480TMC3    C4 7192   2.318   2.801  15.519 -0.7060  0.9412  0.2069
  480TMC3    C5 7193   2.324   2.856  15.396  0.5533  0.5109  0.5364
  480TMC3    C6 7194   2.431   2.921  15.343  0.2096 -0.1509 -0.4461
  480TMC3     C 7195   2.429   2.686  15.687  0.6354  0.0711 -0.3757
  480TMC3     O 7196   2.331   2.615  15.683 -0.1135  0.0473 -0.1480
  480TMC3     H 7197   2.625   2.860  15.625  1.9299 -2.4215 -1.7251
  480TMC3    H1 7198   2.230   2.745  15.551  0.5283 -0.2777  1.4629
  480TMC3    H2 7199   2.427   2.959  15.242 -0.3859  0.7687 -0.0777
  480TMC3    C7 7200   2.262   2.776  15.290  0.5750 -0.3099  1.0603
  480TMC3    C8 7201   2.668   2.909  15.369  0.2214  0.0475 -0.1106
  480TMC3    O1 7202   2.329   2.749  15.194  0.6490  0.2114 -0.5157
  480TMC3    O2 7203   2.760   2.888  15.447 -0.4405 -0.2767  0.0696
  481MPD2     C 7204   0.038   2.733  14.384  0.9205 -0.4710  0.1063
  481MPD2    C1 7205   4.680   2.631  14.359 -0.1444 -0.2737  0.4946
  481MPD2    C2 7206   4.638   2.548  14.459  0.3424 -0.2805  0.0557
  481MPD2    C3 7207   4.694   2.562  14.581 -0.7367  0.3647 -0.8537
  481MPD2    C4 7208   0.064   2.643  14.598  0.7454  0.0630 -0.4665
  481MPD2    C5 7209   0.096   2.739  14.501 -0.2179  0.3588 -0.3236
  481MPD2     H 7210   4.556   2.480  14.439  0.5460 -0.2137 -0.9820
  481MPD2    H1 7211   0.090   2.669  14.700  1.2072  1.7563 -1.0176
  481MPD2    H2 7212   0.059   2.815  14.317 -1.9583 -0.3671 -0.6861
  481MPD2    H3 7213   0.160   2.824  14.524  1.0321 -0.4398 -0.8714
  481MPD2     N 7214   4.649   2.488  14.688  0.4645 -0.5250 -0.3555
  481MPD2    H5 7215   4.715   2.490  14.765  1.5755 -2.5078 -1.2523
  481MPD2    N1 7216   4.642   2.606  14.220 -0.3353 -0.4962 -0.2355
  481MPD2    H7 7217   4.688   2.666  14.152 -0.9324  0.9247  0.6233
  482TMC3    C1 7218   4.520   2.507  14.027 -0.6003 -0.0029  0.5139
  482TMC3    C2 7219   4.422   2.416  14.000  0.6671 -0.2749 -0.1584
  482TMC3    C3 7220   4.396   2.398  13.872 -0.1618  0.4380 -0.1419
  482TMC3    C4 7221   4.563   2.597  13.935  0.9639 -0.0544 -0.1599
  482TMC3    C5 7222   4.517   2.583  13.804  0.8879  0.3292 -0.0785
  482TMC3    C6 7223   4.433   2.483  13.770  0.5688 -0.6091  0.3868
  482TMC3     C 7224   4.555   2.506  14.174  0.4643  0.4224  0.0807
  482TMC3     O 7225   4.493   2.423  14.238  0.7179  0.3160  0.2985
  482TMC3     H 7226   4.370   2.353  14.072  0.3610  1.7998  1.4307
  482TMC3    H1 7227   4.617   2.684  13.970  0.8890  0.0856 -0.3892
  482TMC3    H2 7228   4.393   2.482  13.670  0.1913 -0.3893  0.5338
  482TMC3    C7 7229   4.551   2.684  13.707 -0.3671 -0.4398  0.2773
  482TMC3    C8 7230   4.354   2.262  13.828  0.6499  0.2091  0.0388
  482TMC3    O1 7231   4.584   2.795  13.746  0.0902 -0.4239 -0.5826
  482TMC3    O2 7232   4.393   2.174  13.908  0.6925  0.4608 -0.7331
  483TMC3    C1 7233   1.590   0.793  17.492 -0.3997  0.2883  0.1107
  483TMC3    C2 7234   1.572   0.925  17.518 -0.3773  0.1501 -1.0483
  483TMC3    C3 7235   1.622   0.975  17.628  0.4150  0.8513 -0.5251
  483TMC3    C4 7236   1.659   0.711  17.573  0.0931  0.4659  0.3944
  483TMC3    C5 7237   1.716   0.769  17.684  0.4306  0.1584  0.5823
  483TMC3    C6 7238   1.714   0.909  17.711  0.0650  0.3629 -0.5650
  483TMC3     C 7239   1.524   0.744  17.370 -0.4344 -0.7978 -0.4965
  483TMC3     O 7240   1.496   0.826  17.279  0.8836  0.2106  0.0221
  483TMC3     H 7241   1.494   0.973  17.460  0.8328  1.3087 -1.7097
  483TMC3    H1 7242   1.685   0.607  17.552  1.4505  0.9243 -0.1774
  483TMC3    H2 7243   1.754   0.939   0.061 -1.8834 -3.4556  1.4535
  483TMC3    C7 7244   1.793   0.690   0.023 -0.2001 -0.2428  1.0773
  483TMC3    C8 7245   1.650   1.118  17.611  0.0926  0.1774 -0.4445
  483TMC3    O1 7246   1.879   0.750   0.086 -0.9109 -0.2769  0.6218
  483TMC3    O2 7247   1.557   1.195  17.588 -0.4604 -0.4385  0.1465
  484MPD2     C 7248   0.273   4.190  12.777  0.7857 -0.2900  0.4197
  484MPD2    C1 7249   0.328   4.069  12.798  0.7431 -0.1951 -0.1209
  484MPD2    C2 7250   0.459   4.061  12.825  0.2494 -0.4013  0.7190
  484MPD2    C3 7251   0.536   4.177  12.833 -0.4646  0.2476  0.7383
  484MPD2    C4 7252   0.474   4.306  12.825  0.1262 -0.4184 -0.0321
  484MPD2    C5 7253   0.345   4.306  12.783  0.4310  0.6733  0.0494
  484MPD2     H 7254   0.501   3.961  12.826  1.5493  0.1348 -0.7133
  484MPD2    H1 7255   0.529   4.398  12.844 -0.5041  0.5366 -2.7700
  484MPD2    H2 7256   0.175   4.209  12.735  0.2957 -1.3138  1.1104
  484MPD2    H3 7257   0.289   4.399  12.770 -0.5903 -0.2710 -2.1927
  484MPD2     N 7258   0.674   4.171  12.844  0.0551 -0.6804 -0.0131
  484MPD2    H5 7259   0.719   4.262  12.835 -0.5440 -0.4058 -0.2625
  484MPD2    N1 7260   0.239   3.950  12.778  0.2728 -0.0404  0.6696
  484MPD2    H7 7261   0.144   3.976  12.755  0.2100 -2.5427 -1.8316
  485TMC3    C1 7262   0.892   4.096  12.831 -0.1151 -0.2399 -0.6201
  485TMC3    C2 7263   0.993   4.041  12.912 -0.1635 -0.4464  0.1783
  485TMC3    C3 7264   1.115   4.099  12.917  0.5934 -0.1517 -0.1011
  485TMC3    C4 7265   0.919   4.206  12.752 -0.3447 -0.1490  0.3151
  485TMC3    C5 7266   1.040   4.267  12.770  0.4911  0.7999  0.0479
  485TMC3    C6 7267   1.143   4.216  12.849  0.0453 -0.4832  0.0090
  485TMC3     C 7268   0.753   4.070  12.880 -0.3002 -0.3597  0.8806
  485TMC3     O 7269   0.722   3.962  12.932 -1.1322  0.2281  0.2663
  485TMC3     H 7270   0.967   3.969  12.988 -1.0385  0.4128  0.6954
  485TMC3    H1 7271   0.843   4.234  12.680  0.1946 -2.4771 -1.1671
  485TMC3    H2 7272   1.234   4.266  12.878  1.4713 -3.5441  0.7778
  485TMC3    C7 7273   1.107   4.313  12.646  0.3502 -0.5956  0.2748
  485TMC3    C8 7274   1.227   4.011  12.925 -0.2286 -0.3046 -0.2732
  485TMC3    O1 7275   1.226   4.313  12.661 -0.0276 -0.7522  0.0658
  485TMC3    O2 7276   1.221   3.914  12.994 -0.1814  0.1637 -0.0342
  486MPD2     C 7277   2.403   2.532  13.248  0.2088  0.4776 -0.6110
  486MPD2    C1 7278   2.437   2.547  13.120 -0.2924  0.4080 -0.3882
  486MPD2    C2 7279   2.394   2.657  13.049  0.0804 -0.2143 -0.3548
  486MPD2    C3 7280   2.302   2.737  13.102  0.7635 -0.8190  0.0436
  486MPD2    C4 7281   2.263   2.712  13.231  0.4896 -0.2308  0.3522
  486MPD2    C5 7282   2.312   2.612  13.305 -0.2871 -0.2690 -0.4008
  486MPD2     H 7283   2.440   2.672  12.952 -0.3497 -1.8001 -0.7987
  486MPD2    H1 7284   2.181   2.766  13.277 -1.0247 -0.9141 -1.5701
  486MPD2    H2 7285   2.444   2.450  13.306 -0.1676 -1.6751 -3.3424
  486MPD2    H3 7286   2.277   2.607  13.408  0.5088 -1.5179 -0.1905
  486MPD2     N 7287   2.248   2.843  13.030  0.4610  0.2768  0.2766
  486MPD2    H5 7288   2.271   2.846  12.931 -0.7049  0.3885  0.0023
  486MPD2    N1 7289   2.526   2.445  13.076  0.2218  0.1852 -0.4921
  486MPD2    H7 7290   2.551   2.366  13.134  1.9022  1.2380  0.1934
  487TMC3    C1 7291   2.661   2.314  12.929 -0.0323 -0.2910  0.1561
  487TMC3    C2 7292   2.649   2.255  12.808 -0.1284 -0.6234  1.0944
  487TMC3    C3 7293   2.731   2.152  12.782 -0.1812 -0.5552 -0.9368
  487TMC3    C4 7294   2.734   2.262  13.024  0.0224 -0.9970 -0.1908
  487TMC3    C5 7295   2.826   2.167  12.992  0.1104  0.4135  0.2646
  487TMC3    C6 7296   2.837   2.121  12.860  0.4876  0.0287 -0.0476
  487TMC3     C 7297   2.576   2.431  12.952 -0.4047 -1.0655  0.8507
  487TMC3     O 7298   2.533   2.483  12.850 -0.3666 -0.4330  0.1093
  487TMC3     H 7299   2.571   2.280  12.737  0.4341 -2.2669 -0.1102
  487TMC3    H1 7300   2.725   2.309  13.122 -0.1448 -1.6836  0.1242
  487TMC3    H2 7301   2.885   2.026  12.842  0.7166 -0.1770  1.6741
  487TMC3    C7 7302   2.822   2.064  13.090 -0.1007 -0.1459 -0.2132
  487TMC3    C8 7303   2.636   2.043  12.764 -0.7030 -0.2483  0.7142
  487TMC3    O1 7304   2.710   2.041  13.140 -0.5045  0.1781 -0.5762
  487TMC3    O2 7305   2.518   2.077  12.752  0.1882 -0.0056 -0.0102
  488MPD2     C 7306   2.655   4.613  15.637 -0.3780  0.5276  0.1387
  488MPD2    C1 7307   2.647   4.725  15.717 -0.1942 -0.2205  0.0266
  488MPD2    C2 7308   2.566   4.723  15.832 -0.1231  0.2502 -0.2145
  488MPD2    C3 7309   2.478   4.623  15.850  0.0844 -0.3389 -0.1664
  488MPD2    C4 7310   2.475   4.512  15.768 -0.2238 -0.3456 -0.6479
  488MPD2    C5 7311   2.572   4.503  15.658  0.2656 -0.4230  0.8829
  488MPD2     H 7312   2.566   0.059  15.912 -1.2791 -0.2086  0.2176
  488MPD2    H1 7313   2.406   4.430  15.786  1.3902 -1.1453  1.9616
  488MPD2    H2 7314   2.713   4.612  15.546  2.4019  0.5919  1.9169
  488MPD2    H3 7315   2.576   4.410  15.602  0.4548 -0.6316  1.2401
  488MPD2     N 7316   2.399   4.625  15.962  0.1698  0.8230  0.4235
  488MPD2    H5 7317   2.420   4.706  16.021 -0.7192 -0.0635  1.9624
  488MPD2    N1 7318   2.731   0.100  15.701  0.0570 -0.2504 -0.1298
  488MPD2    H7 7319   2.708   0.173  15.769 -2.3956  0.0155 -1.2322
  489TMC3    C1 7320   2.250   4.569  16.135  0.2454 -1.1260  0.1552
  489TMC3    C2 7321   2.339   4.634  16.223  0.7459  0.5923 -0.4260
  489TMC3    C3 7322   2.317   4.627  16.359 -0.1470  0.0874 -0.0238
  489TMC3    C4 7323   2.133   4.506  16.183  0.1352  0.0968  1.0947
  489TMC3    C5 7324   2.115   4.512  16.318 -0.6367  0.5646  0.1040
  489TMC3    C6 7325   2.200   4.572  16.409  0.8205 -0.1782 -0.4010
  489TMC3     C 7326   2.297   4.544  16.001 -0.4064  0.1563 -0.7635
  489TMC3     O 7327   2.215   4.502  15.927  0.0450 -0.3817 -0.1762
  489TMC3     H 7328   2.441   4.659  16.195  0.0768  1.9524 -1.6460
  489TMC3    H1 7329   2.080   4.440  16.115  0.4941  1.2433 -0.2936
  489TMC3    H2 7330   2.175   4.569  16.514  0.3322 -0.1934 -0.5197
  489TMC3    C7 7331   1.978   4.503  16.369 -0.1514 -0.1375  0.1697
  489TMC3    C8 7332   2.384   4.728  16.433 -0.4532  0.2250  0.2011
  489TMC3    O1 7333   1.953   4.550  16.477 -0.1823  0.0232  0.4291
  489TMC3    O2 7334   2.491   0.030  16.391 -0.0428 -0.0261 -0.6028
  490MPD2     C 7335   3.107   3.986   0.906  0.0684 -0.7525  0.2363
  490MPD2    C1 7336   3.022   3.980   0.796 -0.1057  0.8643  0.0421
  490MPD2    C2 7337   3.059   4.019   0.672 -0.2988  0.1306  0.6836
  490MPD2    C3 7338   3.193   4.053   0.642 -0.2262 -0.4209  0.9037
  490MPD2    C4 7339   3.280   4.041   0.747 -0.8523 -0.9334 -0.4076
  490MPD2    C5 7340   3.239   4.017   0.878 -0.2339 -0.3000 -0.0156
  490MPD2     H 7341   2.981   4.029   0.598  1.3495  1.2779 -0.9155
  490MPD2    H1 7342   3.386   4.050   0.728 -0.7200  1.7470  1.5619
  490MPD2    H2 7343   3.079   3.971   1.010 -1.6528  2.0822  0.2010
  490MPD2    H3 7344   3.317   4.013   0.954 -0.7778 -1.2372  0.4984
  490MPD2     N 7345   3.237   4.093   0.517 -0.3610  0.0991 -0.1780
  490MPD2    H5 7346   3.332   4.127   0.511 -0.5222  0.3719 -1.3312
  490MPD2    N1 7347   2.885   3.945   0.818  0.7571 -0.4536 -0.1452
  490MPD2    H7 7348   2.827   3.982   0.743  0.2190  0.0692  0.5169
  491TMC3    C1 7349   2.716   3.797   0.868  0.2343  0.3694  0.7147
  491TMC3    C2 7350   2.693   3.663   0.881  1.1602  0.4030 -0.1256
  491TMC3    C3 7351   2.568   3.616   0.873 -0.2354  0.4380 -0.7141
  491TMC3    C4 7352   2.610   3.884   0.856 -0.0875  0.3220 -0.3076
  491TMC3    C5 7353   2.489   3.832   0.831  1.1042  0.3324  0.0393
  491TMC3    C6 7354   2.458   3.701   0.843 -0.7527 -0.1066 -0.0759
  491TMC3     C 7355   2.842   3.852   0.905  0.1566 -0.8720  0.8704
  491TMC3     O 7356   2.917   3.786   0.975 -0.8554 -0.8759  0.2584
  491TMC3     H 7357   2.775   3.593   0.895  0.7961  0.2058  1.0525
  491TMC3    H1 7358   2.626   3.990   0.842  0.7486 -0.2073 -3.2887
  491TMC3    H2 7359   2.358   3.660   0.846 -0.6676 -0.2889  0.2166
  491TMC3    C7 7360   2.437   3.891   0.712 -0.4582  1.0069  0.0818
  491TMC3    C8 7361   2.549   3.497   0.788 -0.6058 -0.0228 -0.1617
  491TMC3    O1 7362   2.430   4.015   0.700  0.3406 -0.0360 -0.2897
  491TMC3    O2 7363   2.455   3.501   0.714  0.0594 -0.1376 -0.3036
  492MPD2     C 7364   3.988   3.972  10.231  0.0295  0.5131 -0.1435
  492MPD2    C1 7365   3.857   4.020  10.252  0.8231 -0.2887 -0.2679
  492MPD2    C2 7366   3.802   4.009  10.378 -0.9625  0.8576 -0.2488
  492MPD2    C3 7367   3.869   3.950  10.484 -0.1088 -0.2998 -0.1018
  492MPD2    C4 7368   3.995   3.893  10.452  0.4495  0.4966 -0.0873
  492MPD2    C5 7369   4.062   3.908  10.333  0.6680  0.5709 -0.2448
  492MPD2     H 7370   3.704   4.052  10.392 -2.2305 -1.2086 -2.8244
  492MPD2    H1 7371   4.044   3.834  10.529  1.4612  0.5045 -0.7289
  492MPD2    H2 7372   4.030   3.965  10.132  0.8787  2.4421  0.0897
  492MPD2    H3 7373   4.163   3.874  10.314  0.7153 -0.4690  1.9290
  492MPD2     N 7374   3.823   3.941  10.617  0.0356 -0.4019  0.6816
  492MPD2    H5 7375   3.891   3.892  10.674 -0.6778 -1.0281  0.9987
  492MPD2    N1 7376   3.790   4.058  10.135  0.3660  0.0007 -0.2726
  492MPD2    H7 7377   3.849   4.077  10.055 -0.3119  2.3514 -0.2235
  493TMC3    C1 7378   3.611   4.120   9.995  0.1535 -0.1546  0.1219
  493TMC3    C2 7379   3.706   4.160   9.899 -0.7440 -0.6085 -0.4667
  493TMC3    C3 7380   3.655   4.185   9.774 -0.9523 -0.3695  0.0451
  493TMC3    C4 7381   3.479   4.111   9.965  0.7678  0.7895 -0.5392
  493TMC3    C5 7382   3.433   4.149   9.844 -0.2389 -0.3246  0.0081
  493TMC3    C6 7383   3.520   4.183   9.741 -0.6187 -1.3480 -0.0558
  493TMC3     C 7384   3.652   4.095  10.132 -0.1276  0.0918 -0.7307
  493TMC3     O 7385   3.563   4.072  10.214  0.2463 -0.7285 -0.0446
  493TMC3     H 7386   3.813   4.154   9.917 -0.7090  0.8173 -0.2448
  493TMC3    H1 7387   3.416   4.072  10.043  1.4228  1.5543  0.3829
  493TMC3    H2 7388   3.489   4.205   9.640 -2.9923 -0.3639  0.8781
  493TMC3    C7 7389   3.290   4.180   9.829 -0.0353  0.3039  0.4218
  493TMC3    C8 7390   3.731   4.288   9.696 -0.0198  0.5386 -0.0852
  493TMC3    O1 7391   3.224   4.144   9.924 -0.3944 -0.0251 -0.1499
  493TMC3    O2 7392   3.668   4.336   9.604 -0.5028  0.0752  0.0516
  494TMC3    C1 7393   3.796   0.496   0.070  0.3218 -0.3602 -0.4456
  494TMC3    C2 7394   3.852   0.373   0.085 -0.4074 -0.3318 -0.2500
  494TMC3    C3 7395   3.964   0.350   0.004  1.0602 -0.8546  0.1191
  494TMC3    C4 7396   3.847   0.594  17.727 -0.7168 -0.0708  0.1469
  494TMC3    C5 7397   3.957   0.556  17.650  0.0974  0.3674 -0.0221
  494TMC3    C6 7398   4.007   0.430  17.651  0.3463  0.4470  0.2561
  494TMC3     C 7399   3.676   0.529   0.134  0.3416 -0.1794 -0.2349
  494TMC3     O 7400   3.651   0.487   0.247  0.8992 -0.5436 -0.0971
  494TMC3     H 7401   3.806   0.295   0.144 -1.5508 -2.0909 -3.4989
  494TMC3    H1 7402   3.813   0.696  17.736  0.1323  0.1056  1.4956
  494TMC3    H2 7403   4.109   0.423  17.615 -0.3632 -2.0298 -1.1915
  494TMC3    C7 7404   4.003   0.651  17.549 -0.3156 -0.0839  0.0124
  494TMC3    C8 7405   4.014   0.214  17.744  0.4666  0.4859  0.1964
  494TMC3    O1 7406   4.029   0.599  17.440  0.8040 -0.2825  0.0844
  494TMC3    O2 7407   4.021   0.155   0.101 -0.7406 -0.7408  0.7365
  495TMC3    C1 7408   2.773   2.521  14.546  0.1606 -0.2496 -0.2811
  495TMC3    C2 7409   2.669   2.525  14.460 -0.3423 -0.3799  0.0011
  495TMC3    C3 7410   2.596   2.641  14.450  0.1125 -0.7425  0.4178
  495TMC3    C4 7411   2.792   2.631  14.623  0.0003 -0.2768 -0.0160
  495TMC3    C5 7412   2.734   2.752  14.594 -0.3067 -0.0778  0.2767
  495TMC3    C6 7413   2.631   2.753  14.510 -1.0975  0.1287 -0.0347
  495TMC3     C 7414   2.854   2.402  14.560  0.6292 -0.4235  1.0791
  495TMC3     O 7415   2.952   2.425  14.632  0.0098  0.5070  0.3340
  495TMC3     H 7416   2.620   2.437  14.421 -1.2710  0.3779 -0.5275
  495TMC3    H1 7417   2.874   2.624  14.694 -0.5120 -0.5294  0.5496
  495TMC3    H2 7418   2.582   2.847  14.487 -1.1938  0.0994  0.0518
  495TMC3    C7 7419   2.711   2.832  14.713  0.0901  0.0097  0.4918
  495TMC3    C8 7420   2.456   2.626  14.419  0.4524 -0.4452  0.1280
  495TMC3    O1 7421   2.596   2.837  14.751 -0.4454 -0.2333 -0.1848
  495TMC3    O2 7422   2.380   2.698  14.482 -0.1602 -0.6623 -0.0518
  496MPD2     C 7423   0.210   3.338  15.036 -0.3349  0.3092 -0.0607
  496MPD2    C1 7424   0.259   3.300  15.157  0.6101 -0.0964  0.2007
  496MPD2    C2 7425   0.183   3.319  15.275  0.2397 -0.2792 -0.6725
  496MPD2    C3 7426   0.047   3.353  15.263  0.0495  0.4154 -0.1100
  496MPD2    C4 7427   0.001   3.388  15.138 -0.2686 -0.1476 -0.6362
  496MPD2    C5 7428   0.082   3.384  15.027 -0.0820 -0.1197 -0.9093
  496MPD2     H 7429   0.223   3.294  15.373 -2.0641  0.1770  0.3712
  496MPD2    H1 7430   4.640   3.433  15.130 -0.1513 -0.1842 -2.1975
  496MPD2    H2 7431   0.265   3.316  14.945 -0.8729 -0.3450 -0.2285
  496MPD2    H3 7432   0.035   3.399  14.930 -1.6545  0.0365 -0.1141
  496MPD2     N 7433   4.697   3.353  15.371 -0.2496 -0.0648  0.1868
  496MPD2    H5 7434   4.599   3.373  15.353 -0.7901 -1.1944  1.9409
  496MPD2    N1 7435   0.393   3.253  15.150 -0.4021  0.4607  0.0811
  496MPD2    H7 7436   0.426   3.233  15.056 -1.0403 -0.1307 -0.0172
  497TMC3    C1 7437   4.602   3.324  15.584  0.2149 -0.3368 -0.1192
  497TMC3    C2 7438   4.495   3.260  15.526 -0.3899  0.5280  0.0703
  497TMC3    C3 7439   4.412   3.195  15.613 -0.1847 -0.7206  0.5952
  497TMC3    C4 7440   4.616   3.321  15.721  0.4471  0.6721 -0.1498
  497TMC3    C5 7441   4.516   3.278  15.798 -0.0324 -0.3724 -0.2600
  497TMC3    C6 7442   4.422   3.194  15.749  0.0627  0.0495 -0.4536
  497TMC3     C 7443   4.723   3.316  15.504 -0.0435 -0.9378  0.5261
  497TMC3     O 7444   0.097   3.299  15.561 -0.3103  0.0198  0.1370
  497TMC3     H 7445   4.476   3.252  15.420 -3.2716  1.5775  0.4900
  497TMC3    H1 7446   4.696   3.379  15.765  1.5389 -1.1635  0.2759
  497TMC3    H2 7447   4.357   3.147  15.821  1.2149 -0.7724  0.0403
  497TMC3    C7 7448   4.530   3.291  15.940  0.0926  0.0781 -0.1486
  497TMC3    C8 7449   4.313   3.110  15.557  0.2051  0.5290  0.3574
  497TMC3    O1 7450   4.639   3.279  15.993  0.3480 -0.5638 -0.1026
  497TMC3    O2 7451   4.319   3.094  15.437  0.0532 -0.0420  0.2694
  498MPD2     C 7452   2.070   3.810   9.877 -0.7915 -0.2282  0.4290
  498MPD2    C1 7453   2.008   3.915   9.948 -0.2148  0.1684  0.2909
  498MPD2    C2 7454   1.883   3.887   9.995  0.2060 -0.2246 -0.0429
  498MPD2    C3 7455   1.822   3.763   9.981  0.2674  0.2389 -0.1174
  498MPD2    C4 7456   1.889   3.665   9.914 -0.2015 -0.3336  0.1502
  498MPD2    C5 7457   2.009   3.688   9.858  0.1100  0.3339  0.0972
  498MPD2     H 7458   1.842   3.969  10.053 -2.9406 -1.2403 -0.8149
  498MPD2    H1 7459   1.852   3.567   9.888 -2.6034  0.0774  2.0641
  498MPD2    H2 7460   2.170   3.834   9.841 -0.2668 -3.5203 -0.3494
  498MPD2    H3 7461   2.063   3.605   9.813 -1.0771 -0.7416  0.6456
  498MPD2     N 7462   1.687   3.739  10.009  0.1114 -0.2439  0.1158
  498MPD2    H5 7463   1.647   3.813  10.066  0.3089 -0.8488  1.0530
  498MPD2    N1 7464   2.069   4.041   9.979  0.1736  0.1599  0.2563
  498MPD2    H7 7465   2.011   4.106  10.032  1.1884 -0.2820  1.9349
  499TMC3    C1 7466   2.244   4.211   9.991 -0.6624 -0.3598  0.2621
  499TMC3    C2 7467   2.187   4.262  10.106 -0.2383  0.3297  0.6256
  499TMC3    C3 7468   2.216   4.394  10.136  0.0194 -1.3794  0.5212
  499TMC3    C4 7469   2.323   4.289   9.904  0.1276  0.0060  0.1079
  499TMC3    C5 7470   2.354   4.414   9.943 -0.0403  0.0820  0.1191
  499TMC3    C6 7471   2.298   4.471  10.053 -0.8137 -0.5080  0.2493
  499TMC3     C 7472   2.196   4.085   9.938 -0.3214 -0.2265  0.0448
  499TMC3     O 7473   2.270   4.032   9.857  0.0150  0.1636  0.2494
  499TMC3     H 7474   2.113   4.202  10.157 -0.4286  0.3630  0.3868
  499TMC3    H1 7475   2.371   4.232   9.825  0.6488  0.1286  0.3315
  499TMC3    H2 7476   2.320   4.572  10.085  2.1571 -0.3286 -2.3507
  499TMC3    C7 7477   2.448   4.492   9.864 -0.1229 -0.6705 -0.6644
  499TMC3    C8 7478   2.155   4.448  10.253 -0.0619 -0.5668 -0.3851
  499TMC3    O1 7479   2.453   4.613   9.875  0.5010 -0.2649 -0.0116
  499TMC3    O2 7480   2.177   4.567  10.266  0.4959  0.1682 -0.2448
  500MPD2     C 7481   3.244   0.456  11.013 -0.0823  0.3484  0.6081
  500MPD2    C1 7482   3.292   0.389  10.904  0.4187  0.7691 -0.3625
  500MPD2    C2 7483   3.233   0.404  10.781  1.1433 -0.3764  0.4707
  500MPD2    C3 7484   3.115   0.480  10.776  0.2712  0.2684  0.5539
  500MPD2    C4 7485   3.061   0.541  10.886 -0.3133 -1.0307 -0.9695
  500MPD2    C5 7486   3.135   0.533  11.002  1.1028  0.6171 -0.1743
  500MPD2     H 7487   3.267   0.359  10.688  0.5726  0.5079 -0.1719
  500MPD2    H1 7488   2.975   0.607  10.879  0.1948 -0.0897  1.5695
  500MPD2    H2 7489   3.296   0.460  11.108  2.6143 -1.8475 -0.7431
  500MPD2    H3 7490   3.089   0.589  11.083  0.2612  0.7238 -0.7290
  500MPD2     N 7491   3.041   0.501  10.660  0.7637 -0.0762  0.0900
  500MPD2    H5 7492   2.947   0.538  10.665  0.2858 -1.0770 -1.2761
  500MPD2    N1 7493   3.417   0.329  10.907 -0.1811  0.3488 -0.4596
  500MPD2    H7 7494   3.459   0.294  10.821  0.5904  1.1967 -0.4298
  501TMC3    C1 7495   3.608   0.215  10.972  0.1672 -0.5469  0.8453
  501TMC3    C2 7496   3.650   0.223  10.846  0.4305  0.2223 -1.0296
  501TMC3    C3 7497   3.751   0.138  10.803  0.2876 -0.6765 -0.5162
  501TMC3    C4 7498   3.682   0.139  11.064 -0.7413 -1.2608  0.3982
  501TMC3    C5 7499   3.790   0.070  11.022 -0.2412  0.5366  0.5757
  501TMC3    C6 7500   3.817   0.055  10.891 -0.1075  0.3787 -0.6572
  501TMC3     C 7501   3.489   0.284  11.015 -0.0602 -0.4314 -1.1616
  501TMC3     O 7502   3.457   0.284  11.132  0.9458  0.1622  0.1730
  501TMC3     H 7503   3.624   0.302  10.775 -0.2114  0.4894 -0.4963
  501TMC3    H1 7504   3.659   0.156  11.169 -0.1634 -1.5176  0.5670
  501TMC3    H2 7505   3.901   4.734  10.855  0.4718 -0.9845  2.8844
  501TMC3    C7 7506   3.877   4.733  11.111  0.1051 -0.5100  0.2520
  501TMC3    C8 7507   3.813   0.178  10.689  0.5402 -0.3795 -0.1208
  501TMC3    O1 7508   3.927   4.636  11.061 -0.6746  0.5097 -0.1140
  501TMC3    O2 7509   3.927   0.219  10.699  0.0624 -0.1002  0.3470
  502TMC3    C1 7510   2.292   3.797  15.900 -0.0767 -0.0192 -0.6750
  502TMC3    C2 7511   2.303   3.844  15.773  0.3378 -0.0130  0.0715
  502TMC3    C3 7512   2.202   3.838  15.690  0.2455 -0.3421  0.5719
  502TMC3    C4 7513   2.181   3.736  15.945 -0.0047 -0.2026 -0.9482
  502TMC3    C5 7514   2.073   3.722  15.860 -0.4940  0.0838 -0.2836
  502TMC3    C6 7515   2.086   3.771  15.729 -0.0681  0.1430  0.3563
  502TMC3     C 7516   2.400   3.834  15.989  0.3199  0.2672  0.7001
  502TMC3     O 7517   2.499   3.886  15.937 -0.3431 -0.5671 -0.5635
  502TMC3     H 7518   2.394   3.897  15.748  0.4780 -0.7785 -1.0762
  502TMC3    H1 7519   2.181   3.678  16.037 -0.7533  0.4420 -0.5400
  502TMC3    H2 7520   2.005   3.748  15.660  0.6276 -0.1433 -0.3632
  502TMC3    C7 7521   1.959   3.649  15.907 -0.4728 -0.0519 -0.3923
  502TMC3    C8 7522   2.229   3.873  15.552  0.0733 -0.1003 -0.9289
  502TMC3    O1 7523   1.965   3.595  16.018  0.0228  0.0573 -0.5609
  502TMC3    O2 7524   2.339   3.911  15.515 -0.3468  0.5546  0.1698
  503MPD2     C 7525   4.185   4.144  16.835 -0.4649  0.3392  0.7050
  503MPD2    C1 7526   4.258   4.203  16.935  0.3259  0.0493  0.0602
  503MPD2    C2 7527   4.282   4.140  17.050 -0.3447 -0.0339 -0.3465
  503MPD2    C3 7528   4.268   4.001  17.062  0.3020  0.1371 -0.2388
  503MPD2    C4 7529   4.199   3.940  16.955 -0.2435  0.1536 -0.0264
  503MPD2    C5 7530   4.156   4.011  16.846 -0.2421 -0.2455  0.3518
  503MPD2     H 7531   4.321   4.195  17.135 -0.8284 -0.2539  0.0186
  503MPD2    H1 7532   4.194   3.833  16.944  0.5822  0.0999  0.1016
  503MPD2    H2 7533   4.163   4.179  16.735 -0.4555  0.5534  0.7758
  503MPD2    H3 7534   4.105   3.950  16.773 -1.6531  0.5448  0.6647
  503MPD2     N 7535   4.313   3.948  17.183  0.4151  0.3935 -0.7189
  503MPD2    H5 7536   4.357   4.023  17.235  1.8522  0.9151 -2.6928
  503MPD2    N1 7537   4.277   4.347  16.946  0.1069 -0.0867  0.0531
  503MPD2    H7 7538   4.319   4.387  17.029 -0.1428  1.7650 -0.7045
  504TMC3    C1 7539   4.379   3.789  17.351 -0.6470  0.0911 -0.1580
  504TMC3    C2 7540   4.330   3.690  17.429 -0.2760  0.3566 -0.6492
  504TMC3    C3 7541   4.404   3.647  17.538 -0.0938  0.0984 -0.3573
  504TMC3    C4 7542   4.506   3.821  17.362 -0.2306  0.1246 -0.4049
  504TMC3    C5 7543   4.581   3.775  17.473  0.1489  0.5389  0.3267
  504TMC3    C6 7544   4.528   3.690  17.564 -0.6346  0.6493 -0.2256
  504TMC3     C 7545   4.303   3.823  17.231  0.5433 -0.2753 -0.0414
  504TMC3     O 7546   4.242   3.725  17.190  0.0492 -0.0399  0.4769
  504TMC3     H 7547   4.235   3.640  17.414  0.3834 -1.5944  1.6466
  504TMC3    H1 7548   4.548   3.883  17.284  2.0078 -1.9876 -0.8849
  504TMC3    H2 7549   4.590   3.644  17.640 -0.6563 -0.5190 -0.9087
  504TMC3    C7 7550   4.725   3.769  17.446  0.2728 -0.3843  0.1364
  504TMC3    C8 7551   4.364   3.533  17.612  1.2381 -0.1301 -0.5111
  504TMC3    O1 7552   0.024   3.808  17.338  0.1326  0.1629 -0.3741
  504TMC3    O2 7553   4.260   3.492  17.568  0.4368  0.5033  0.1516
  505MPD2     C 7554   0.514   3.628  10.475  0.5293 -0.0530  0.4020
  505MPD2    C1 7555   0.524   3.507  10.536  0.2244  0.3443  0.4044
  505MPD2    C2 7556   0.579   3.497  10.659  0.7675 -0.1559  0.0577
  505MPD2    C3 7557   0.632   3.610  10.721  0.4388  0.2959 -0.5022
  505MPD2    C4 7558   0.615   3.739  10.671 -0.2983  0.1714  0.3775
  505MPD2    C5 7559   0.551   3.740  10.547 -0.2913 -0.0053 -0.3813
  505MPD2     H 7560   0.579   3.405  10.716  1.9280 -1.4255 -1.9894
  505MPD2    H1 7561   0.644   3.828  10.726 -1.9248  0.4956  0.7065
  505MPD2    H2 7562   0.467   3.643  10.378 -0.9275  1.4273  1.3400
  505MPD2    H3 7563   0.533   3.834  10.495 -1.0449  0.1593  0.1822
  505MPD2     N 7564   0.705   3.582  10.838 -0.3143 -0.0551  0.1240
  505MPD2    H5 7565   0.717   3.487  10.869  0.9091  0.0788  0.0737
  505MPD2    N1 7566   0.482   3.389  10.464 -0.2717  0.3660 -0.7856
  505MPD2    H7 7567   0.451   3.412  10.370  1.5040 -2.1298 -2.0061
  506TMC3    C1 7568   0.429   3.159  10.434  0.6906 -0.2711  0.5758
  506TMC3    C2 7569   0.492   3.158  10.315  0.1221 -1.0578 -0.4747
  506TMC3    C3 7570   0.524   3.027  10.271  0.0597  0.0233 -0.0195
  506TMC3    C4 7571   0.392   3.046  10.506  0.9172  0.5143  0.1241
  506TMC3    C5 7572   0.435   2.931  10.461 -0.5495  0.9388 -0.1979
  506TMC3    C6 7573   0.496   2.918  10.340 -0.1746  0.0403  0.0160
  506TMC3     C 7574   0.470   3.266  10.521 -0.6405  0.0289  0.2731
  506TMC3     O 7575   0.464   3.233  10.639 -0.0263  0.0220  0.8512
  506TMC3     H 7576   0.524   3.247  10.263 -0.7361  0.1616  1.1210
  506TMC3    H1 7577   0.328   3.048  10.593  1.2016  0.8906  0.3262
  506TMC3    H2 7578   0.531   2.820  10.308  1.1980  1.2784 -2.2562
  506TMC3    C7 7579   0.509   2.864  10.568  0.4877 -0.3466 -0.0325
  506TMC3    C8 7580   0.608   3.014  10.154 -0.2465  0.1529  0.2805
  506TMC3    O1 7581   0.545   2.748  10.555  0.7024  0.5252 -0.4393
  506TMC3    O2 7582   0.615   2.901  10.099 -0.2704 -0.3669 -0.2339
  507TMC3    C1 7583   4.599   3.877  14.797  0.2841 -0.2554  0.7037
  507TMC3    C2 7584   4.535   3.851  14.677  0.6202 -0.5099 -0.2374
  507TMC3    C3 7585   4.596   3.772  14.582  0.8052  0.0103  0.5182
  507TMC3    C4 7586   4.727   3.827  14.814 -0.6970  0.2784 -0.9332
  507TMC3    C5 7587   0.050   3.748  14.721  0.4511  0.2293  0.4339
  507TMC3    C6 7588   4.717   3.714  14.608  0.1321  0.0108 -0.5257
  507TMC3     C 7589   4.520   3.874  14.923  0.0903  0.0914  0.0891
  507TMC3     O 7590   4.588   3.849  15.025  0.8248 -0.2606 -0.0908
  507TMC3     H 7591   4.436   3.890  14.659 -0.3652 -1.6413  2.7564
  507TMC3    H1 7592   0.046   3.865  14.899 -1.0186  2.1335 -1.5501
  507TMC3    H2 7593   0.027   3.653  14.532  0.2940  0.0813 -0.4836
  507TMC3    C7 7594   0.174   3.801  14.681  0.2389 -0.6686 -0.4315
  507TMC3    C8 7595   4.580   3.834  14.446 -0.5664  0.4939  0.1625
  507TMC3    O1 7596   0.183   3.813  14.558  0.1171 -0.0482  0.1680
  507TMC3    O2 7597   4.468   3.845  14.401  0.2820 -0.6240 -0.2040
  508MPD2     C 7598   1.661   1.382  15.718 -0.0680 -1.0978  0.4163
  508MPD2    C1 7599   1.616   1.389  15.846  0.8387 -0.3390  0.0134
  508MPD2    C2 7600   1.572   1.514  15.890  0.0627  0.5357  0.0954
  508MPD2    C3 7601   1.589   1.633  15.813  1.2107 -0.6432 -0.4857
  508MPD2    C4 7602   1.642   1.619  15.684 -0.4198  0.2571  0.3159
  508MPD2    C5 7603   1.670   1.490  15.636 -0.3415 -0.1067 -0.1872
  508MPD2     H 7604   1.531   1.517  15.990 -0.9168 -1.4091 -0.2649
  508MPD2    H1 7605   1.657   1.706  15.622  0.5604  1.5410  2.3462
  508MPD2    H2 7606   1.697   1.294  15.665  3.9367  0.0247  1.2717
  508MPD2    H3 7607   1.713   1.475  15.537  1.3693  1.3518  0.3341
  508MPD2     N 7608   1.550   1.750  15.879  0.0062  0.1993  0.0105
  508MPD2    H5 7609   1.518   1.745  15.975 -0.7905  1.9229 -0.1563
  508MPD2    N1 7610   1.609   1.274  15.936 -0.4850 -0.9870  0.2844
  508MPD2    H7 7611   1.592   1.296  16.034 -0.6638 -2.1017  0.5025
  509TMC3    C1 7612   1.493   2.218  15.909 -0.5083  0.9594 -0.3010
  509TMC3    C2 7613   1.519   2.223  16.039  0.4365 -0.0193  0.3223
  509TMC3    C3 7614   1.566   2.101  16.097  0.1725 -0.1707 -0.4580
  509TMC3    C4 7615   1.479   2.096  15.838 -0.5850 -0.0995  0.3992
  509TMC3    C5 7616   1.523   1.985  15.898  0.5365  0.1048 -0.3647
  509TMC3    C6 7617   1.566   1.982  16.028  0.6133 -0.2382 -0.9879
  509TMC3     C 7618   1.555   2.327  15.838 -0.9157  0.8887 -0.0820
  509TMC3     O 7619   1.644   2.375  15.906  0.2869 -0.3648 -0.1390
  509TMC3     H 7620   1.518   2.317  16.092  2.3530  0.5193 -0.5842
  509TMC3    H1 7621   1.461   2.092  15.731 -0.9599  1.3409  0.4031
  509TMC3    H2 7622   1.619   1.897  16.069  0.5590  0.4625  0.5722
  509TMC3    C7 7623   1.561   1.869  15.813  0.1192 -0.5761  0.2118
  509TMC3    C8 7624   1.674   2.122  16.190  0.3001  0.1214 -0.2445
  509TMC3    O1 7625   1.580   1.891  15.696 -0.5315  0.5046  0.2807
  509TMC3    O2 7626   1.702   2.031  16.263  0.0326 -0.0013  0.6981
  510MPD2     C 7627   4.034   3.146  14.406  0.1603 -0.5166 -0.7091
  510MPD2    C1 7628   4.048   3.148  14.540 -0.3263 -0.5944  0.2192
  510MPD2    C2 7629   4.176   3.171  14.584 -0.8782  0.2975  0.4749
  510MPD2    C3 7630   4.285   3.178  14.501  0.4843  0.2803 -0.3094
  510MPD2    C4 7631   4.271   3.193  14.363  0.0853  0.2386 -0.3557
  510MPD2    C5 7632   4.140   3.178  14.320 -0.3709  0.3391 -0.3777
  510MPD2     H 7633   4.190   3.171  14.691  2.5091 -0.7718  0.0142
  510MPD2    H1 7634   4.346   3.205  14.286  2.4874 -0.3521  1.8853
  510MPD2    H2 7635   3.934   3.157  14.365 -0.5516 -3.5755  0.2350
  510MPD2    H3 7636   4.108   3.175  14.216 -0.8161  0.1741 -0.2321
  510MPD2     N 7637   4.414   3.168  14.559 -0.1122 -0.1282 -0.1000
  510MPD2    H5 7638   4.418   3.173  14.660  0.9686  1.2311 -0.2039
  510MPD2    N1 7639   3.933   3.114  14.622 -0.1119  0.4580  0.2254
  510MPD2    H7 7640   3.851   3.090  14.567  0.1698  0.8504 -0.3636
  511TMC3    C1 7641   3.812   3.046  14.810 -0.6655  0.0535  0.8875
  511TMC3    C2 7642   3.783   3.071  14.939 -0.4060  0.3531  0.9225
  511TMC3    C3 7643   3.685   3.001  15.000  0.0873 -0.5306  0.1610
  511TMC3    C4 7644   3.750   2.948  14.739 -0.6420  0.3052 -0.0478
  511TMC3    C5 7645   3.660   2.878  14.811 -0.4188 -0.2228  0.3199
  511TMC3    C6 7646   3.625   2.896  14.942  0.3964 -0.6445  0.0467
  511TMC3     C 7647   3.937   3.096  14.759  0.1362 -0.0140 -0.2886
  511TMC3     O 7648   4.029   3.125  14.836  0.4949 -1.1497 -0.7374
  511TMC3     H 7649   3.849   3.130  15.001  0.6841 -0.2160  0.2946
  511TMC3    H1 7650   3.769   2.914  14.638  2.9071  0.5362  0.5332
  511TMC3    H2 7651   3.549   2.844  14.999 -0.7087 -0.6761 -1.4412
  511TMC3    C7 7652   3.624   2.751  14.757  0.1102  0.0384 -0.6405
  511TMC3    C8 7653   3.692   2.986  15.144  0.0704  0.3282 -0.0562
  511TMC3    O1 7654   3.650   2.722  14.639 -0.6073  0.4932  0.8825
  511TMC3    O2 7655   3.801   2.974  15.196  0.1713 -0.4021 -0.6453
  512TMC3    C1 7656   3.031   2.056  13.550 -0.1011 -0.1744  0.4015
  512TMC3    C2 7657   3.049   2.157  13.634  0.0504 -0.3707  0.4606
  512TMC3    C3 7658   3.146   2.246  13.606  0.0731  0.4543  0.4599
  512TMC3    C4 7659   3.109   2.035  13.440  0.4535 -0.5111  0.3027
  512TMC3    C5 7660   3.205   2.128  13.416  0.0659  0.4954  0.1517
  512TMC3    C6 7661   3.229   2.233  13.497 -0.1815 -0.1855  0.3592
  512TMC3     C 7662   2.930   1.958  13.584  0.1009  0.2480 -0.2487
  512TMC3     O 7663   2.831   1.994  13.647  0.2765  0.2260 -0.1160
  512TMC3     H 7664   2.996   2.164  13.728  0.2048 -0.6194  0.5660
  512TMC3    H1 7665   3.081   1.955  13.373 -0.4880 -0.6413  0.8586
  512TMC3    H2 7666   3.302   2.306  13.464  1.5802 -0.4392  3.7363
  512TMC3    C7 7667   3.279   2.123  13.291 -0.4835 -0.1680 -0.2138
  512TMC3    C8 7668   3.210   2.306  13.721 -0.6045  0.2977  0.3102
  512TMC3    O1 7669   3.306   2.232  13.248  0.8163 -0.7223 -0.0724
  512TMC3    O2 7670   3.170   2.269  13.829  0.2009  0.1901  0.4457
  513MPD2     C 7671   0.801   3.350  13.290  0.2972  0.3044  1.1853
  513MPD2    C1 7672   0.749   3.245  13.226 -0.2633 -0.5614  0.3464
  513MPD2    C2 7673   0.753   3.127  13.305 -0.1740 -0.2946 -0.2286
  513MPD2    C3 7674   0.803   3.113  13.433 -0.6849 -0.2422 -0.2674
  513MPD2    C4 7675   0.846   3.232  13.497 -0.0978  0.0641 -0.1483
  513MPD2    C5 7676   0.838   3.349  13.420  0.2683  0.1126  0.3972
  513MPD2     H 7677   0.717   3.033  13.263 -2.4613 -0.2033  1.5451
  513MPD2    H1 7678   0.878   3.237  13.600 -1.3210  1.6669  0.1587
  513MPD2    H2 7679   0.789   3.446  13.242  0.5002 -0.0555  0.4053
  513MPD2    H3 7680   0.865   3.446  13.461  0.6495 -0.2641  1.0321
  513MPD2     N 7681   0.800   2.983  13.496  0.2099  0.0525 -0.1581
  513MPD2    H5 7682   0.756   2.907  13.445  0.0914  0.8875 -1.2938
  513MPD2    N1 7683   0.711   3.253  13.095 -0.0660 -0.2935  0.6082
  513MPD2    H7 7684   0.704   3.343  13.048  0.9110 -0.2408  0.5663
  514TMC3    C1 7685   0.665   3.177  12.879  0.0765 -0.1986  0.2212
  514TMC3    C2 7686   0.748   3.263  12.811 -0.1614  0.4063  0.3777
  514TMC3    C3 7687   0.793   3.229  12.689  0.1961  0.4104 -0.4246
  514TMC3    C4 7688   0.625   3.063  12.816  0.2067  0.6642  0.6190
  514TMC3    C5 7689   0.694   3.011  12.708 -0.4053  0.2037  0.1843
  514TMC3    C6 7690   0.771   3.101  12.636 -0.2158 -0.2121 -0.1396
  514TMC3     C 7691   0.681   3.144  13.019 -0.1188 -0.0276  0.1161
  514TMC3     O 7692   0.664   3.027  13.054 -0.7190 -0.3776 -0.0982
  514TMC3     H 7693   0.776   3.356  12.860  0.5723 -1.0709  2.7408
  514TMC3    H1 7694   0.532   3.020  12.851  0.0497  0.3277 -0.2118
  514TMC3    H2 7695   0.829   3.069  12.550  1.0546 -0.4412  0.7944
  514TMC3    C7 7696   0.736   2.874  12.731 -0.6395 -1.0633 -0.2103
  514TMC3    C8 7697   0.855   3.330  12.607  0.6467 -1.1286  0.0530
  514TMC3    O1 7698   0.757   2.808  12.632  0.5413  0.3097  0.3016
  514TMC3    O2 7699   0.907   3.426  12.663 -0.4398  0.5726  0.0995
  515MPD2     C 7700   3.585   3.901  14.678 -0.6292  0.6847  0.3372
  515MPD2    C1 7701   3.507   3.983  14.597 -0.1632  0.3280 -0.0119
  515MPD2    C2 7702   3.546   4.113  14.575  0.1691  0.1545 -0.7086
  515MPD2    C3 7703   3.654   4.164  14.646 -0.0652  0.2562 -0.1256
  515MPD2    C4 7704   3.731   4.076  14.725  0.2112  0.2141  0.1680
  515MPD2    C5 7705   3.700   3.941  14.738 -0.1541  0.1356  0.1201
  515MPD2     H 7706   3.482   4.180  14.519 -0.5659  0.7728  0.8592
  515MPD2    H1 7707   3.810   4.121  14.784 -0.4204  2.7688 -0.9310
  515MPD2    H2 7708   3.557   3.802  14.713 -1.1808  1.2021  1.3665
  515MPD2    H3 7709   3.754   3.881  14.811  0.5715  2.2554  1.3117
  515MPD2     N 7710   3.702   4.296  14.662  0.6037 -0.3918  0.9546
  515MPD2    H5 7711   3.767   4.303  14.740 -1.1295  0.8506  2.3011
  515MPD2    N1 7712   3.377   3.942  14.556  1.1365  0.4230  0.1594
  515MPD2    H7 7713   3.324   4.012  14.506 -0.6945 -0.4588  0.8902
  516TMC3    C1 7714   3.177   3.819  14.565 -0.2632  0.1845  0.0252
  516TMC3    C2 7715   3.111   3.902  14.477  0.4717  0.2815 -0.1267
  516TMC3    C3 7716   2.982   3.952  14.505 -0.4714 -0.0277  0.6692
  516TMC3    C4 7717   3.118   3.771  14.674  0.6532  0.0728  0.4217
  516TMC3    C5 7718   2.995   3.833  14.703  0.4896  0.0703 -1.1009
  516TMC3    C6 7719   2.927   3.919  14.623  0.0441 -0.4531 -0.4178
  516TMC3     C 7720   3.312   3.824  14.596  0.1600  0.0334 -0.2946
  516TMC3     O 7721   3.353   3.730  14.663 -0.3475 -0.2541  0.4068
  516TMC3     H 7722   3.157   3.928  14.382 -4.1977 -1.6177 -2.9106
  516TMC3    H1 7723   3.144   3.683  14.731 -1.2325 -0.0799  1.0713
  516TMC3    H2 7724   2.827   3.950  14.650  0.5315  0.2677  0.5626
  516TMC3    C7 7725   2.940   3.816  14.835  0.0220 -0.6487  0.1899
  516TMC3    C8 7726   2.911   4.017  14.393  0.3965 -0.3958 -0.8500
  516TMC3    O1 7727   2.816   3.800  14.845  0.4350 -0.0540  0.2790
  516TMC3    O2 7728   2.787   4.017  14.390  0.1802 -0.4540  0.2897
  517MPD2     C 7729   2.556   1.192  16.907  0.1771  0.3442 -0.8627
  517MPD2    C1 7730   2.638   1.147  17.005 -0.4580 -1.6969 -0.4618
  517MPD2    C2 7731   2.612   1.185  17.137 -0.0391 -0.1343  0.7051
  517MPD2    C3 7732   2.521   1.279  17.171  0.2740  1.1161  0.2807
  517MPD2    C4 7733   2.436   1.328  17.070 -0.2517 -0.0696 -0.5381
  517MPD2    C5 7734   2.454   1.276  16.943  0.0124  1.0360  0.6249
  517MPD2     H 7735   2.683   1.156  17.214 -0.7292 -0.2167  1.3155
  517MPD2    H1 7736   2.360   1.404  17.084 -2.1787 -1.6838 -2.2159
  517MPD2    H2 7737   2.558   1.160  16.803  1.2052  2.0063 -1.3465
  517MPD2    H3 7738   2.387   1.316  16.868 -0.7938 -2.7195 -0.6435
  517MPD2     N 7739   2.515   1.335  17.293  0.4352 -0.0076  1.7171
  517MPD2    H5 7740   2.447   1.409  17.308 -0.8283 -1.3345  2.6412
  517MPD2    N1 7741   2.745   1.054  16.975 -0.2230 -0.2788  0.4334
  517MPD2    H7 7742   2.794   1.006  17.049 -0.9945 -0.9416  0.5041
  518TMC3    C1 7743   2.879   0.925  16.826 -0.1352  0.1313 -0.6142
  518TMC3    C2 7744   2.849   0.814  16.900  0.1832  0.5857  1.2298
  518TMC3    C3 7745   2.933   0.705  16.893  0.2713  0.2329  0.0933
  518TMC3    C4 7746   2.988   0.923  16.742 -0.6275 -0.4673  0.6916
  518TMC3    C5 7747   3.070   0.817  16.742  0.1111  0.2062  0.2899
  518TMC3    C6 7748   3.049   0.707  16.822  0.0280  0.3711  0.1509
  518TMC3     C 7749   2.790   1.036  16.844  0.6316 -0.2832  0.0897
  518TMC3     O 7750   2.772   1.096  16.741  0.6124  0.0101 -0.0627
  518TMC3     H 7751   2.765   0.809  16.969  1.2558 -1.5859  2.3772
  518TMC3    H1 7752   3.004   1.011  16.680  0.5344  0.0333  1.6807
  518TMC3    H2 7753   3.108   0.619  16.801 -1.1166 -0.3582 -0.0298
  518TMC3    C7 7754   3.127   0.800  16.607 -0.8229  0.4591 -0.2025
  518TMC3    C8 7755   2.875   0.570  16.925 -0.1887  0.0428  0.2397
  518TMC3    O1 7756   3.103   0.879  16.521  0.1493 -0.1631 -0.0295
  518TMC3    O2 7757   2.953   0.480  16.892  0.0391 -0.2353  0.1281
  519MPD2     C 7758   4.219   4.226  14.069  0.0998  0.0999  0.1606
  519MPD2    C1 7759   4.141   4.130  14.011 -0.2321 -0.3758 -0.2149
  519MPD2    C2 7760   4.158   3.994  14.046  0.2730  0.5940 -0.0019
  519MPD2    C3 7761   4.240   3.957  14.152  0.3297  0.5080  0.0687
  519MPD2    C4 7762   4.301   4.062  14.223  0.3678 -0.0338 -0.2158
  519MPD2    C5 7763   4.293   4.190  14.177  0.3238  0.2622  0.5571
  519MPD2     H 7764   4.104   3.917  13.992 -0.9335  1.8419 -0.5820
  519MPD2    H1 7765   4.376   4.043  14.300  2.7179  1.4872 -2.1285
  519MPD2    H2 7766   4.207   4.332  14.049  0.7082  0.8560  3.8474
  519MPD2    H3 7767   4.364   4.260  14.222  0.9289 -2.0478  3.2044
  519MPD2     N 7768   4.274   3.821  14.188 -0.4083 -0.0847  0.3096
  519MPD2    H5 7769   4.341   3.810  14.263  3.2219  1.4043 -2.7025
  519MPD2    N1 7770   4.047   4.153  13.906  0.1054  0.8512 -0.3835
  519MPD2    H7 7771   3.999   4.072  13.866 -1.5525  1.4353  0.4196
  520TMC3    C1 7772   4.281   3.583  14.152  0.6171  0.4676  1.2081
  520TMC3    C2 7773   4.252   3.492  14.058 -0.3596 -0.1673  0.2723
  520TMC3    C3 7774   4.335   3.385  14.042 -0.3408 -0.1563 -0.1362
  520TMC3    C4 7775   4.376   3.559  14.254  0.6212  0.1127 -0.0089
  520TMC3    C5 7776   4.463   3.457  14.233  0.0309  0.9069 -0.1685
  520TMC3    C6 7777   4.446   3.374  14.123  0.5326 -0.1104 -1.0162
  520TMC3     C 7778   4.210   3.707  14.139 -0.2458 -0.0224  0.5921
  520TMC3     O 7779   4.113   3.703  14.070  0.0229 -0.3549 -0.1022
  520TMC3     H 7780   4.171   3.511  13.989  0.7262 -0.0309 -0.9895
  520TMC3    H1 7781   4.394   3.622  14.341 -0.7858 -0.4656  0.7020
  520TMC3    H2 7782   4.513   3.289  14.113 -0.6105 -1.0385 -0.8147
  520TMC3    C7 7783   4.588   3.459  14.308 -0.0361  0.4514  0.1911
  520TMC3    C8 7784   4.334   3.300  13.925 -0.3484  0.2045 -0.5840
  520TMC3    O1 7785   4.597   3.504  14.423 -0.2455 -0.1437 -0.1072
  520TMC3    O2 7786   4.438   3.233  13.906 -0.2744 -0.1094 -0.1774
  521MPD2     C 7787   0.671   2.002  17.405  0.0733 -0.5542  1.4289
  521MPD2    C1 7788   0.600   1.912  17.322  0.0408 -0.3241 -1.2272
  521MPD2    C2 7789   0.675   1.834  17.226 -0.5694  0.3758 -0.5796
  521MPD2    C3 7790   0.811   1.848  17.231 -0.7798 -0.6785  0.5873
  521MPD2    C4 7791   0.877   1.941  17.311 -0.1250  0.0435  0.6591
  521MPD2    C5 7792   0.806   2.011  17.405 -0.1965 -0.3288 -0.6037
  521MPD2     H 7793   0.634   1.761  17.157  0.6768 -0.9147  0.0359
  521MPD2    H1 7794   0.983   1.961  17.306 -0.2537  0.3097 -1.1012
  521MPD2    H2 7795   0.621   2.055  17.486 -2.6382  1.1574 -1.3834
  521MPD2    H3 7796   0.855   2.085  17.467 -0.8096 -1.4605  1.2242
  521MPD2     N 7797   0.881   1.771  17.135 -0.3830  0.2228 -0.2316
  521MPD2    H5 7798   0.822   1.718  17.072 -1.8905  2.8528 -1.0487
  521MPD2    N1 7799   0.456   1.911  17.330 -0.1872 -0.2216 -0.2358
  521MPD2    H7 7800   0.409   1.969  17.399 -1.3066 -2.2594  0.7094
  522TMC3    C1 7801   1.054   1.678  17.002  0.0488 -0.0901 -0.0389
  522TMC3    C2 7802   1.115   1.559  17.029 -0.3845 -0.3955  0.4198
  522TMC3    C3 7803   1.139   1.473  16.926  0.0292 -0.2095  0.3434
  522TMC3    C4 7804   0.987   1.712  16.889 -0.0325  0.4298  0.2823
  522TMC3    C5 7805   1.013   1.620  16.785  0.4763  0.0648 -0.2877
  522TMC3    C6 7806   1.089   1.503  16.800  0.1872  0.5783 -0.3370
  522TMC3     C 7807   1.019   1.753  17.118 -0.2369  0.2572  0.1770
  522TMC3     O 7808   1.109   1.786  17.191 -0.6464  0.3699  0.8184
  522TMC3     H 7809   1.153   1.543  17.129  1.3710  1.9335  0.1165
  522TMC3    H1 7810   0.921   1.798  16.885  1.6187  1.6007 -1.2048
  522TMC3    H2 7811   1.094   1.428  16.721 -1.1379  0.9383 -0.7475
  522TMC3    C7 7812   0.970   1.655  16.651  0.1820  0.2205 -0.4468
  522TMC3    C8 7813   1.268   1.399  16.926 -0.0342  0.1747  0.6144
  522TMC3    O1 7814   1.015   1.590  16.560  0.5525 -0.0571 -0.4172
  522TMC3    O2 7815   1.318   1.395  17.040  0.1352 -0.3975 -0.5302
  523MPD2     C 7816   4.090   2.410  10.408  0.1031 -0.1877 -0.0345
  523MPD2    C1 7817   3.998   2.327  10.352  0.3090 -0.1146  0.0255
  523MPD2    C2 7818   3.922   2.376  10.241  0.1549 -0.2152  0.3134
  523MPD2    C3 7819   3.930   2.507  10.189  0.0358  0.4399  0.4090
  523MPD2    C4 7820   4.015   2.589  10.259 -0.2828 -0.1948  0.2984
  523MPD2    C5 7821   4.095   2.544  10.362 -0.4688  0.3204 -0.4222
  523MPD2     H 7822   3.854   2.302  10.201  1.4340 -1.1017 -0.2152
  523MPD2    H1 7823   4.048   2.690  10.236 -1.8238  0.1057 -0.5586
  523MPD2    H2 7824   4.148   2.380  10.494  0.7866  0.2612 -0.3348
  523MPD2    H3 7825   4.154   2.620  10.412 -0.0614 -0.8156  0.8510
  523MPD2     N 7826   3.854   2.559  10.084 -0.2060  1.1384  0.1463
  523MPD2    H5 7827   3.872   2.656  10.060  0.8995  0.8773 -0.0736
  523MPD2    N1 7828   3.985   2.195  10.398  0.5237 -0.2037 -0.0009
  523MPD2    H7 7829   4.032   2.166  10.483  1.3133  0.4606 -0.2059
  524TMC3    C1 7830   3.686   2.580   9.924  0.4400 -0.0449  0.2673
  524TMC3    C2 7831   3.653   2.532   9.798 -0.0349 -0.8029  0.9838
  524TMC3    C3 7832   3.609   2.633   9.711  0.1477  0.5799 -0.2705
  524TMC3    C4 7833   3.675   2.717   9.961  0.0621 -0.2938 -0.1611
  524TMC3    C5 7834   3.622   2.807   9.860  0.3814 -0.2942 -0.8872
  524TMC3    C6 7835   3.595   2.767   9.737 -0.0855 -0.6833 -0.1428
  524TMC3     C 7836   3.768   2.489  10.006  0.0168 -0.0214 -0.1591
  524TMC3     O 7837   3.747   2.370  10.003  0.1906 -0.0720  0.5178
  524TMC3     H 7838   3.694   2.435   9.773  1.6530  0.2244 -0.2143
  524TMC3    H1 7839   3.691   2.761  10.059  1.0606  1.2789 -1.0387
  524TMC3    H2 7840   3.547   2.826   9.659 -0.2902 -0.1921  0.3561
  524TMC3    C7 7841   3.625   2.945   9.900 -0.2579 -0.4312 -0.4319
  524TMC3    C8 7842   3.533   2.590   9.597 -0.5538 -0.3440  0.4166
  524TMC3    O1 7843   3.674   2.977  10.007 -0.2830  0.7072 -0.1758
  524TMC3    O2 7844   3.444   2.661   9.554  0.0714  0.6116  0.5392
  525MPD2     C 7845   0.958   3.672  14.841  0.4381 -0.2936 -0.3053
  525MPD2    C1 7846   1.086   3.637  14.855  0.1929  0.6814  0.6470
  525MPD2    C2 7847   1.183   3.697  14.779  0.5497 -0.3766 -0.0592
  525MPD2    C3 7848   1.140   3.783  14.678  0.0218 -0.4631  0.2904
  525MPD2    C4 7849   1.010   3.810  14.664  0.4099  0.1410  0.4376
  525MPD2    C5 7850   0.918   3.753  14.744  0.2626 -0.1375  0.5918
  525MPD2     H 7851   1.288   3.673  14.783  0.0709 -2.5179 -0.0647
  525MPD2    H1 7852   0.987   3.888  14.593  0.0864 -1.7527 -1.5614
  525MPD2    H2 7853   0.879   3.637  14.906 -0.0705 -2.1515 -1.9382
  525MPD2    H3 7854   0.813   3.776  14.744 -0.7054 -4.5069  0.4748
  525MPD2     N 7855   1.221   3.873  14.601  0.0701  0.4143 -0.3915
  525MPD2    H5 7856   1.178   3.921  14.523 -0.7337 -2.3863 -1.6551
  525MPD2    N1 7857   1.123   3.542  14.947 -0.2159  0.5542 -0.2191
  525MPD2    H7 7858   1.220   3.524  14.969 -0.7147 -2.2748 -0.3407
  526TMC3    C1 7859   1.103   3.382  15.110  0.0834  0.8096 -0.7076
  526TMC3    C2 7860   1.038   3.355  15.227  0.8100 -0.1464 -0.0698
  526TMC3    C3 7861   1.118   3.310  15.336 -0.0167 -0.1350 -0.5629
  526TMC3    C4 7862   1.238   3.352  15.082  0.0963 -0.0193  0.1073
  526TMC3    C5 7863   1.309   3.312  15.191 -0.1116 -0.2125 -0.2522
  526TMC3    C6 7864   1.253   3.303  15.317  0.3099  0.7350  0.1937
  526TMC3     C 7865   1.035   3.456  15.013 -0.1458  0.0907 -0.8121
  526TMC3     O 7866   0.912   3.447  15.006  0.4761 -0.2536  0.1546
  526TMC3     H 7867   0.934   3.386  15.227  0.4914 -1.2203  0.6588
  526TMC3    H1 7868   1.282   3.347  14.983  0.4576 -3.4623  0.4603
  526TMC3    H2 7869   1.320   3.279  15.399 -2.1849 -1.6092  1.5508
  526TMC3    C7 7870   1.446   3.270  15.174  0.3990 -0.3415  0.2325
  526TMC3    C8 7871   1.078   3.365  15.463 -0.2020 -0.0326  0.3060
  526TMC3    O1 7872   1.517   3.282  15.273  0.1267  0.8054  0.3503
  526TMC3    O2 7873   1.166   3.419  15.532  0.0502  0.0607 -0.2773
  527MPD2     C 7874   3.041   1.221   0.390 -0.5851 -0.0960  0.4727
  527MPD2    C1 7875   3.085   1.297   0.497 -0.2715 -0.2020 -0.2264
  527MPD2    C2 7876   3.222   1.292   0.538  0.1575 -0.6357  0.2445
  527MPD2    C3 7877   3.304   1.199   0.481 -0.7401  0.0681  0.7423
  527MPD2    C4 7878   3.256   1.112   0.389  0.3225  0.5132 -0.3333
  527MPD2    C5 7879   3.126   1.128   0.343 -0.4608  0.4352  0.0747
  527MPD2     H 7880   3.259   1.357   0.617  0.0000 -0.8912  0.5291
  527MPD2    H1 7881   3.316   1.043   0.331  0.4803 -0.8912  1.5007
  527MPD2    H2 7882   2.942   1.224   0.347  1.4177  2.0215 -3.9770
  527MPD2    H3 7883   3.105   1.077   0.250 -0.4928 -0.6991  0.7033
  527MPD2     N 7884   3.445   1.200   0.508  0.0883 -0.8193 -0.0476
  527MPD2    H5 7885   3.491   1.273   0.562  0.3360 -1.3848  0.5065
  527MPD2    N1 7886   3.007   1.397   0.566  0.1774 -0.3666 -0.4289
  527MPD2    H7 7887   3.046   1.440   0.650 -1.5320  3.5528 -1.6660
  528TMC3    C1 7888   2.832   1.541   0.616 -0.1989  1.1195 -0.1746
  528TMC3    C2 7889   2.920   1.638   0.662  0.2924  0.4415  0.3194
  528TMC3    C3 7890   2.868   1.730   0.746  0.1993 -0.0846 -0.1410
  528TMC3    C4 7891   2.696   1.538   0.647 -0.1727 -0.0099 -0.5133
  528TMC3    C5 7892   2.642   1.643   0.719 -0.7782  0.4990 -0.0997
  528TMC3    C6 7893   2.730   1.732   0.778 -0.1949 -0.9500  0.5902
  528TMC3     C 7894   2.882   1.429   0.540 -0.8613 -0.0142 -0.5912
  528TMC3     O 7895   2.798   1.362   0.484  0.3734  0.1808  0.4753
  528TMC3     H 7896   3.019   1.637   0.618 -0.0831 -1.6592 -0.5040
  528TMC3    H1 7897   2.633   1.454   0.621 -0.4623  0.3268 -0.9077
  528TMC3    H2 7898   2.678   1.811   0.831  2.1849  1.7672 -1.0849
  528TMC3    C7 7899   2.504   1.646   0.769  0.0481  0.4904  0.2474
  528TMC3    C8 7900   2.953   1.854   0.754  0.6305  0.2249 -0.3553
  528TMC3    O1 7901   2.478   1.713   0.867  0.0541 -0.2093  0.0506
  528TMC3    O2 7902   3.072   1.837   0.745 -0.2936  0.3231  0.1386
  529MPD2     C 7903   0.436   4.264   1.143 -0.1039  0.5857 -0.0182
  529MPD2    C1 7904   0.557   4.278   1.072  0.1909 -0.0676 -0.2418
  529MPD2    C2 7905   0.563   4.374   0.973 -0.6144 -0.0576 -0.1806
  529MPD2    C3 7906   0.452   4.434   0.922  0.5282  0.1650  0.2021
  529MPD2    C4 7907   0.339   4.404   0.987  0.5911  0.9354  0.4389
  529MPD2    C5 7908   0.326   4.325   1.097  0.3701  0.1497  0.1059
  529MPD2     H 7909   0.660   4.382   0.927  0.1781 -0.9291  1.3240
  529MPD2    H1 7910   0.245   4.440   0.947  0.5501  0.2526 -0.0817
  529MPD2    H2 7911   0.421   4.193   1.224 -1.5485 -0.2191 -1.0069
  529MPD2    H3 7912   0.229   4.319   1.146 -0.2025 -1.5014 -1.2135
  529MPD2     N 7913   0.448   4.523   0.812 -0.0520 -0.5665  0.4260
  529MPD2    H5 7914   0.361   4.567   0.785 -0.5582 -2.1149 -0.4714
  529MPD2    N1 7915   0.677   4.214   1.108  0.1801 -0.4941 -0.5986
  529MPD2    H7 7916   0.759   4.227   1.049  0.1780  2.0236 -0.0334
  530TMC3    C1 7917   0.833   4.078   1.231 -0.3255  0.5988 -0.0686
  530TMC3    C2 7918   0.928   4.169   1.201  0.6508 -0.1742 -0.0336
  530TMC3    C3 7919   1.051   4.137   1.232  0.5629  0.6904 -0.0497
  530TMC3    C4 7920   0.860   3.957   1.290 -0.1069  0.1661  0.8553
  530TMC3    C5 7921   0.987   3.935   1.335  0.4009 -0.4425  0.6222
  530TMC3    C6 7922   1.079   4.022   1.299 -0.7358 -0.3078 -0.0955
  530TMC3     C 7923   0.693   4.120   1.207  0.7364 -0.4340 -0.2561
  530TMC3     O 7924   0.606   4.046   1.249 -0.4043 -0.2077 -0.0024
  530TMC3     H 7925   0.901   4.266   1.162  0.6691  0.4004  1.3651
  530TMC3    H1 7926   0.779   3.886   1.303 -0.0089 -0.5357 -2.4724
  530TMC3    H2 7927   1.176   4.025   1.348 -0.9870  1.9364  0.2317
  530TMC3    C7 7928   1.025   3.837   1.441  0.0035 -0.3399 -0.1223
  530TMC3    C8 7929   1.149   4.246   1.224 -0.5450  0.3074  0.1634
  530TMC3    O1 7930   1.144   3.838   1.470 -0.0026  0.0526  0.6985
  530TMC3    O2 7931   1.106   4.358   1.192 -0.2753 -0.3418 -0.1688
  531MPD2     C 7932   0.820   2.475  13.048  0.3782 -0.0912  0.4036
  531MPD2    C1 7933   0.772   2.582  13.119  0.8702  0.6542  0.0116
  531MPD2    C2 7934   0.736   2.699  13.049 -0.0554  0.2239 -0.0759
  531MPD2    C3 7935   0.745   2.709  12.910  0.6696 -0.3886 -0.3493
  531MPD2    C4 7936   0.801   2.600  12.841 -1.1101  0.1818  0.3025
  531MPD2    C5 7937   0.831   2.481  12.907 -0.4239 -0.2836 -0.2840
  531MPD2     H 7938   0.704   2.793  13.092 -0.4089  0.2033 -0.2906
  531MPD2    H1 7939   0.821   2.616  12.736 -0.6806 -0.9069  0.2257
  531MPD2    H2 7940   0.864   2.388  13.097  0.6449 -0.2371 -0.0886
  531MPD2    H3 7941   0.880   2.402  12.851 -0.5667 -1.8134  1.7343
  531MPD2     N 7942   0.718   2.836  12.858 -0.2857 -0.4623  0.2698
  531MPD2    H5 7943   0.702   2.909  12.927 -1.8963 -0.8951  0.3405
  531MPD2    N1 7944   0.789   2.567  13.259 -0.8803  0.3275  0.2185
  531MPD2    H7 7945   0.827   2.479  13.292 -1.0937 -0.3274 -1.2870
  532TMC3    C1 7946   0.809   2.653  13.476 -0.0734 -0.1250 -0.3073
  532TMC3    C2 7947   0.762   2.753  13.556  0.3263  0.2964  0.7335
  532TMC3    C3 7948   0.859   2.814  13.633 -1.0716  0.1940  0.1137
  532TMC3    C4 7949   0.935   2.604  13.487 -0.2635 -0.0893 -0.1633
  532TMC3    C5 7950   1.020   2.662  13.574 -0.1671 -1.1909 -0.8347
  532TMC3    C6 7951   0.981   2.768  13.654  0.2087  0.4665 -0.7342
  532TMC3     C 7952   0.768   2.673  13.342  0.0544  0.2181  0.3043
  532TMC3     O 7953   0.685   2.762  13.332 -0.4769  0.1896 -0.2873
  532TMC3     H 7954   0.657   2.777  13.549  0.8593  1.9003 -1.5752
  532TMC3    H1 7955   0.964   2.514  13.434 -0.9644 -1.0667  1.0988
  532TMC3    H2 7956   1.056   2.822  13.709  0.5658 -0.9261  0.1312
  532TMC3    C7 7957   1.117   2.579  13.631  0.5124 -0.1059  0.6114
  532TMC3    C8 7958   0.857   2.955  13.620 -0.3166  0.1542 -0.2720
  532TMC3    O1 7959   1.123   2.588  13.752 -0.1732  0.2937 -0.5770
  532TMC3    O2 7960   0.926   3.015  13.696  0.1211 -0.0835  0.0382
  533TMC3    C1 7961   1.406   4.019  14.558 -0.1876  0.9301 -0.0903
  533TMC3    C2 7962   1.542   4.045  14.547 -0.4231  0.3078 -0.0395
  533TMC3    C3 7963   1.593   4.167  14.572  0.1425  0.2021  0.2953
  533TMC3    C4 7964   1.333   4.122  14.604 -0.3872  0.0454 -0.8567
  533TMC3    C5 7965   1.388   4.242  14.653 -0.2602  0.7881 -0.4454
  533TMC3    C6 7966   1.516   4.274  14.635  0.1117 -0.1649  0.4165
  533TMC3     C 7967   1.360   3.890  14.613  0.2785  0.5847 -0.2395
  533TMC3     O 7968   1.450   3.828  14.665  0.3258  0.1356  0.4224
  533TMC3     H 7969   1.604   3.959  14.522 -1.1922 -0.7548  1.6994
  533TMC3    H1 7970   1.225   4.113  14.597 -0.6861  0.3020  3.0799
  533TMC3    H2 7971   1.554   4.371  14.666  0.8394  0.0117 -1.0360
  533TMC3    C7 7972   1.337   4.255  14.792 -0.0475  0.0902 -0.2317
  533TMC3    C8 7973   1.738   4.185  14.579  0.1634  0.1040  0.4325
  533TMC3    O1 7974   1.249   4.178  14.823 -0.4353  0.2762  0.0961
  533TMC3    O2 7975   1.800   4.089  14.621  0.6331 -0.2667  0.6748
  534MPD2     C 7976   3.533   4.539   1.135  0.0663  0.0314  0.3426
  534MPD2    C1 7977   3.469   4.660   1.145  0.1750 -0.1858  0.6372
  534MPD2    C2 7978   3.355   4.681   1.064 -0.1825 -0.0550  0.6263
  534MPD2    C3 7979   3.312   4.590   0.969 -0.7099 -0.0359 -0.3682
  534MPD2    C4 7980   3.375   4.469   0.969  0.1103 -0.8386  0.1363
  534MPD2    C5 7981   3.479   4.444   1.049 -0.2838  0.2440  0.4736
  534MPD2     H 7982   3.317   0.045   1.056  0.7833  0.1922 -0.8939
  534MPD2    H1 7983   3.326   4.402   0.900  0.5241 -0.0827 -0.8967
  534MPD2    H2 7984   3.628   4.523   1.185  0.0498  1.5829  0.8620
  534MPD2    H3 7985   3.541   4.355   1.045  0.4838  0.8206 -0.3930
  534MPD2     N 7986   3.225   4.621   0.861 -0.3293 -0.2942 -0.2730
  534MPD2    H5 7987   3.210   4.542   0.799 -0.8878  0.1175 -0.6578
  534MPD2    N1 7988   3.527   0.049   1.194 -0.3234  0.2650 -0.4882
  534MPD2    H7 7989   3.471   0.132   1.180  1.6389  1.4807 -1.2251
  535TMC3    C1 7990   3.080   0.016   0.725 -0.8689 -0.0942 -0.4415
  535TMC3    C2 7991   2.975   0.101   0.726 -0.4392  0.0355 -0.0233
  535TMC3    C3 7992   2.922   0.136   0.605 -0.6547  0.1077  0.2481
  535TMC3    C4 7993   3.152   4.718   0.615  0.3983 -0.6300 -0.1681
  535TMC3    C5 7994   3.097   0.016   0.496  0.9685 -0.1367 -0.2982
  535TMC3    C6 7995   2.986   0.097   0.487 -0.3278  0.6233  0.7768
  535TMC3     C 7996   3.154   0.003   0.850 -0.5033 -1.1295 -0.0553
  535TMC3     O 7997   3.125   0.087   0.935  0.3637  0.0576  0.2556
  535TMC3     H 7998   2.934   0.133   0.822  0.4314 -0.4926  0.5212
  535TMC3    H1 7999   3.251   4.674   0.616 -0.0513 -1.6302  0.2642
  535TMC3    H2 8000   2.942   0.111   0.389  1.3730  0.6907  0.0151
  535TMC3    C7 8001   3.185   0.005   0.379  0.2801 -0.1126  0.7327
  535TMC3    C8 8002   2.778   0.158   0.590  0.0673 -0.5259 -0.9797
  535TMC3    O1 8003   3.266   4.649   0.382  0.4685 -0.0281 -0.6828
  535TMC3    O2 8004   2.722   0.075   0.522 -0.0720 -0.2287 -0.7403
  536MPD2     C 8005   2.860   3.345  17.179 -0.1432  0.2276 -0.1838
  536MPD2    C1 8006   2.753   3.391  17.249 -0.5759  0.1671 -0.5059
  536MPD2    C2 8007   2.666   3.468  17.178  0.0839  0.6961 -0.1559
  536MPD2    C3 8008   2.675   3.499  17.048  1.0363  0.6935  0.2111
  536MPD2    C4 8009   2.777   3.449  16.978 -0.1526 -0.0662 -0.1265
  536MPD2    C5 8010   2.872   3.377  17.046  0.8643  0.2773 -0.2166
  536MPD2     H 8011   2.577   3.487  17.238  0.2799 -1.7729  0.8857
  536MPD2    H1 8012   2.797   3.489  16.879 -0.2442  1.1594  0.3462
  536MPD2    H2 8013   2.942   3.298  17.232 -0.1318 -0.3341 -0.6934
  536MPD2    H3 8014   2.964   3.351  16.996  0.8728  0.1980 -0.1597
  536MPD2     N 8015   2.583   3.583  16.982  0.1469  0.6544  0.3206
  536MPD2    H5 8016   2.608   3.623  16.893  0.6117 -1.5262 -0.5346
  536MPD2    N1 8017   2.749   3.367  17.383 -0.6294 -0.3651  0.2187
  536MPD2    H7 8018   2.822   3.312  17.426 -0.2454  0.6888  0.9349
  537TMC3    C1 8019   2.702   3.386  17.605  0.1585 -0.1189 -0.3832
  537TMC3    C2 8020   2.647   3.459  17.702  0.0198  0.6324  0.2877
  537TMC3    C3 8021   2.639   3.417   0.085  0.2893 -1.2050  0.8716
  537TMC3    C4 8022   2.764   3.276  17.638 -0.1367 -0.5063  0.8049
  537TMC3    C5 8023   2.762   3.237   0.027 -0.6548 -0.5428 -0.3993
  537TMC3    C6 8024   2.699   3.307   0.128 -0.4353 -0.1206  0.1796
  537TMC3     C 8025   2.664   3.429  17.470 -0.9540 -0.1963 -0.4548
  537TMC3     O 8026   2.597   3.532  17.463 -0.4749  0.4423  0.7944
  537TMC3     H 8027   2.618   3.559  17.672  0.3406 -0.3521 -3.2411
  537TMC3    H1 8028   2.792   3.199  17.566 -0.4935 -0.8394  1.0210
  537TMC3    H2 8029   2.687   3.265   0.227 -1.9421  0.6362  0.3176
  537TMC3    C7 8030   2.820   3.106   0.072 -0.2445  0.7368  0.5827
  537TMC3    C8 8031   2.578   3.496   0.187  0.4297 -0.4275 -0.4033
  537TMC3    O1 8032   2.827   3.085   0.192 -0.1809 -0.1459 -0.4780
  537TMC3    O2 8033   2.592   3.448   0.302 -0.3645 -0.3157  0.5376
  538TMC3    C1 8034   4.273   2.003  11.195 -0.2310  0.5795 -0.7293
  538TMC3    C2 8035   4.318   1.872  11.200  0.4430 -0.1401 -0.5285
  538TMC3    C3 8036   4.352   1.812  11.088 -0.3505 -0.6544  0.3819
  538TMC3    C4 8037   4.246   2.072  11.080  0.1017 -0.0795 -0.4375
  538TMC3    C5 8038   4.265   1.999  10.965 -0.7331  0.3842  0.0115
  538TMC3    C6 8039   4.313   1.868  10.965  1.2381  0.1051 -0.8109
  538TMC3     C 8040   4.213   2.061  11.314  0.0258 -0.3655  0.0306
  538TMC3     O 8041   4.200   2.183  11.312 -0.5550  0.7135 -0.4223
  538TMC3     H 8042   4.332   1.815  11.291 -1.1698  0.7337  0.2592
  538TMC3    H1 8043   4.196   2.168  11.086 -0.0782 -0.1471 -0.8630
  538TMC3    H2 8044   4.323   1.822  10.868 -1.4737 -2.4038  0.1023
  538TMC3    C7 8045   4.188   2.047  10.853  0.2211  0.0542 -0.4089
  538TMC3    C8 8046   4.438   1.693  11.094  0.1246  0.5731 -0.0385
  538TMC3    O1 8047   4.095   1.978  10.812 -0.1414 -0.1943 -0.1130
  538TMC3    O2 8048   4.437   1.628  11.199 -0.1907 -0.3572 -0.0769
  539MPD2     C 8049   4.594   1.125  11.439 -0.0472  0.4857 -0.4451
  539MPD2    C1 8050   4.462   1.092  11.474  0.2407  0.2300  0.2752
  539MPD2    C2 8051   4.366   1.176  11.440 -0.1299 -0.3396  0.9064
  539MPD2    C3 8052   4.393   1.299  11.385  0.7234  0.3518 -0.0799
  539MPD2    C4 8053   4.520   1.337  11.354 -0.5046 -0.3343  0.4717
  539MPD2    C5 8054   4.619   1.249  11.377  0.1873 -0.4816  0.2727
  539MPD2     H 8055   4.264   1.150  11.465 -0.9153  0.5605 -1.3693
  539MPD2    H1 8056   4.550   1.431  11.311  2.3768 -1.0608  0.9272
  539MPD2    H2 8057   4.666   1.047  11.460 -0.3744 -0.2463 -2.0838
  539MPD2    H3 8058   4.715   1.288  11.348 -0.3635  0.0637 -0.8150
  539MPD2     N 8059   4.286   1.389  11.355 -0.3290  0.8233  0.3405
  539MPD2    H5 8060   4.308   1.483  11.322 -1.1179  0.3266 -1.5414
  539MPD2    N1 8061   4.424   0.965  11.525  0.3577  0.7814  1.0440
  539MPD2    H7 8062   4.330   0.928  11.535  0.9987 -1.1096  0.1730
  540TMC3    C1 8063   4.083   1.498  11.369  0.2198 -0.0522 -0.1362
  540TMC3    C2 8064   4.075   1.549  11.242 -0.1362 -0.7204 -0.1023
  540TMC3    C3 8065   3.968   1.631  11.212 -0.1201  0.4041  0.1632
  540TMC3    C4 8066   3.993   1.533  11.464 -0.2346  0.3956  0.0371
  540TMC3    C5 8067   3.898   1.622  11.433 -0.2431 -0.5392 -0.0163
  540TMC3    C6 8068   3.880   1.669  11.305 -0.0296  0.8279 -0.2505
  540TMC3     C 8069   4.157   1.371  11.394 -0.1233 -0.4300  0.1531
  540TMC3     O 8070   4.105   1.295  11.473 -0.0761 -0.0264 -0.0872
  540TMC3     H 8071   4.146   1.527  11.164 -0.0078 -2.0449  0.3837
  540TMC3    H1 8072   3.997   1.486  11.562  0.7693 -0.3310 -0.3631
  540TMC3    H2 8073   3.799   1.736  11.282 -0.1279  0.1666 -1.8342
  540TMC3    C7 8074   3.794   1.625  11.537 -0.0509  0.0744  0.9368
  540TMC3    C8 8075   3.920   1.641  11.074  0.2796  0.1185 -0.1883
  540TMC3    O1 8076   3.772   1.512  11.584  0.1679 -0.1477  0.4867
  540TMC3    O2 8077   3.834   1.722  11.044 -0.2531 -0.0218  0.6502
  541MPD2     C 8078   1.940   2.380  13.421 -0.7057 -0.2704 -0.0392
  541MPD2    C1 8079   1.962   2.326  13.296  0.3575  0.5550 -0.4026
  541MPD2    C2 8080   1.978   2.405  13.182 -0.0932  0.1781  0.1337
  541MPD2    C3 8081   1.966   2.541  13.193 -0.2443 -0.5110  0.1158
  541MPD2    C4 8082   1.930   2.597  13.309 -0.2968 -0.1467  0.5521
  541MPD2    C5 8083   1.920   2.520  13.422 -0.2527  0.2106  0.5249
  541MPD2     H 8084   1.973   2.355  13.086 -0.6055  2.0531 -0.8097
  541MPD2    H1 8085   1.915   2.704  13.308  0.5573 -0.0121  1.6866
  541MPD2    H2 8086   1.932   2.320  13.510 -3.5379 -0.5797 -0.4903
  541MPD2    H3 8087   1.906   2.568  13.518 -0.2369 -0.6131  0.9369
  541MPD2     N 8088   1.965   2.624  13.074 -0.1534 -0.3266 -0.7414
  541MPD2    H5 8089   1.938   2.722  13.082 -2.1582 -0.8940 -0.5415
  541MPD2    N1 8090   1.974   2.184  13.301 -0.1931 -0.2247 -0.5108
  541MPD2    H7 8091   1.973   2.156  13.398 -0.7766  0.4197 -0.3315
  542TMC3    C1 8092   1.960   2.669  12.844 -0.1797  0.1967 -0.6305
  542TMC3    C2 8093   1.942   2.613  12.724  0.1859 -0.2244 -0.1633
  542TMC3    C3 8094   1.878   2.681  12.623 -0.1936 -0.3063  0.0298
  542TMC3    C4 8095   1.938   2.802  12.859 -0.4438  0.1856  0.2956
  542TMC3    C5 8096   1.873   2.871  12.764  0.5977  0.3775  0.0745
  542TMC3    C6 8097   1.841   2.808  12.645  0.9755 -0.2927  0.0537
  542TMC3     C 8098   1.996   2.577  12.950  0.2495 -0.8397 -0.6295
  542TMC3     O 8099   2.034   2.467  12.915  0.0049 -0.2338 -0.3591
  542TMC3     H 8100   1.978   2.511  12.715 -0.9282 -0.4617 -1.9433
  542TMC3    H1 8101   1.952   2.855  12.953 -0.3585 -1.3183  1.1215
  542TMC3    H2 8102   1.777   2.849  12.568 -1.7037 -1.9895  1.3755
  542TMC3    C7 8103   1.832   3.009  12.790  0.0559  0.0993 -0.3937
  542TMC3    C8 8104   1.879   2.631  12.486  0.7547  0.7084 -0.4290
  542TMC3    O1 8105   1.837   3.044  12.904 -0.1243 -0.7893  0.1915
  542TMC3    O2 8106   1.883   2.711  12.393 -0.0363 -0.4616 -0.6465
  543TMC3    C1 8107   0.824   4.318  17.621  0.7888 -0.2799 -0.3061
  543TMC3    C2 8108   0.859   4.231  17.722 -0.2645 -0.1107 -0.2652
  543TMC3    C3 8109   0.810   4.247   0.108 -0.0372  0.3301  0.4550
  543TMC3    C4 8110   0.759   4.437  17.646 -0.1285  0.6468  0.0790
  543TMC3    C5 8111   0.700   4.443   0.027 -0.3605  0.0424 -0.1186
  543TMC3    C6 8112   0.721   4.348   0.125  1.3631  0.4439  0.2178
  543TMC3     C 8113   0.873   4.283  17.487  0.0890  1.1385  0.3081
  543TMC3     O 8114   0.914   4.168  17.477 -0.5486 -0.2567  0.0851
  543TMC3     H 8115   0.937   4.156  17.712  0.5311  0.6128  0.5431
  543TMC3    H1 8116   0.718   4.502  17.570 -1.2803 -1.0442 -0.7424
  543TMC3    H2 8117   0.710   4.374   0.230 -0.7191 -2.5339  0.7349
  543TMC3    C7 8118   0.635   4.564   0.071  0.3196 -0.1590  0.8466
  543TMC3    C8 8119   0.794   4.121   0.173 -0.0568 -0.5699  0.5108
  543TMC3    O1 8120   0.571   4.566   0.174  0.1739  0.0950  0.6357
  543TMC3    O2 8121   0.860   4.025   0.142  0.7866  0.2363 -0.0038
  544MPD2     C 8122   0.492   3.785   0.413 -0.5267 -0.4703 -0.3572
  544MPD2    C1 8123   0.610   3.766   0.345 -0.0187  0.9105 -0.1114
  544MPD2    C2 8124   0.685   3.877   0.297  0.0939 -0.1034  0.5142
  544MPD2    C3 8125   0.635   4.002   0.324  0.4217  0.4698  0.4393
  544MPD2    C4 8126   0.525   4.021   0.391 -0.4608  0.7361 -0.2105
  544MPD2    C5 8127   0.457   3.911   0.446  0.0556 -0.9324 -0.0569
  544MPD2     H 8128   0.775   3.856   0.240 -0.9392 -0.6738 -0.8999
  544MPD2    H1 8129   0.484   4.120   0.403 -3.3447 -0.7047  1.9288
  544MPD2    H2 8130   0.427   3.702   0.434  1.0545 -1.4609  0.6364
  544MPD2    H3 8131   0.361   3.925   0.494 -0.9490 -2.3933 -1.6257
  544MPD2     N 8132   0.690   4.120   0.265 -0.2527 -0.5351 -0.6378
  544MPD2    H5 8133   0.636   4.207   0.265  1.9649  0.8291  0.7515
  544MPD2    N1 8134   0.645   3.632   0.321 -0.2320  0.3143 -0.1341
  544MPD2    H7 8135   0.578   3.559   0.342 -1.3944  0.7264 -2.4679
  545TMC3    C1 8136   0.753   3.455   0.217 -0.3802 -0.7678  0.4256
  545TMC3    C2 8137   0.652   3.425   0.125  0.2303  0.0890 -0.1123
  545TMC3    C3 8138   0.679   3.341   0.022 -0.7645  0.1488  0.4638
  545TMC3    C4 8139   0.878   3.416   0.191  0.5064 -0.4856 -0.5243
  545TMC3    C5 8140   0.904   3.327   0.087 -0.4412 -0.4399  0.5382
  545TMC3    C6 8141   0.807   3.286   0.003 -0.3161  0.0766  0.7783
  545TMC3     C 8142   0.763   3.588   0.269  0.3441 -0.0096 -0.4182
  545TMC3     O 8143   0.870   3.640   0.250 -0.2466 -0.6189  0.1284
  545TMC3     H 8144   0.548   3.449   0.148  0.8062  2.8659 -0.3168
  545TMC3    H1 8145   0.967   3.439   0.249 -0.2085 -2.2181  1.2451
  545TMC3    H2 8146   0.819   3.196  17.690 -0.8201 -1.2654  2.7236
  545TMC3    C7 8147   1.031   3.258   0.085 -0.2610  0.4865 -0.4658
  545TMC3    C8 8148   0.574   3.315  17.668 -0.0806 -0.2130  0.4477
  545TMC3    O1 8149   1.079   3.238   0.194  0.2481  0.2211  0.4406
  545TMC3    O2 8150   0.459   3.330  17.710  0.1406 -0.5291  0.6659
  546MPD2     C 8151   2.790   3.775  17.310 -0.5198 -0.2712  0.1959
  546MPD2    C1 8152   2.678   3.853  17.289 -0.3741  0.4457  0.2286
  546MPD2    C2 8153   2.681   3.978  17.225 -0.0917 -0.6156  0.4952
  546MPD2    C3 8154   2.809   4.021  17.193  1.1419  0.3792 -0.0183
  546MPD2    C4 8155   2.920   3.943  17.211  0.2131 -0.3322 -0.1620
  546MPD2    C5 8156   2.910   3.812  17.258 -0.0926 -0.3325 -0.3852
  546MPD2     H 8157   2.596   4.044  17.219  0.4703 -0.0077 -0.9249
  546MPD2    H1 8158   3.017   3.988  17.190  0.6537 -1.2710 -0.1636
  546MPD2    H2 8159   2.785   3.683  17.367  0.9408  0.4737  1.5210
  546MPD2    H3 8160   2.996   3.747  17.268 -3.4990 -4.8042  0.1314
  546MPD2     N 8161   2.833   4.150  17.128 -0.0033  0.4363  0.4406
  546MPD2    H5 8162   2.929   4.171  17.106 -0.4476  1.2211 -0.7365
  546MPD2    N1 8163   2.557   3.807  17.360 -0.0839 -0.5281  0.5463
  546MPD2    H7 8164   2.563   3.713  17.397  1.1155 -1.0767 -1.0575
  547TMC3    C1 8165   2.339   3.806  17.463 -0.5820  0.2735  0.8993
  547TMC3    C2 8166   2.243   3.891  17.505 -0.1370 -0.2307 -0.1383
  547TMC3    C3 8167   2.111   3.844  17.493  0.3015 -0.2663 -0.5169
  547TMC3    C4 8168   2.313   3.676  17.424 -0.1628 -0.4051  0.0351
  547TMC3    C5 8169   2.187   3.622  17.448  0.0329  0.0573  0.3458
  547TMC3    C6 8170   2.083   3.709  17.482 -0.8252  0.2691  0.1926
  547TMC3     C 8171   2.451   3.875  17.393 -0.0530  0.9233  0.5913
  547TMC3     O 8172   2.432   3.991  17.363  0.1937 -0.6968 -0.2000
  547TMC3     H 8173   2.266   3.996  17.517 -0.8982 -0.1491  0.5758
  547TMC3    H1 8174   2.397   3.616  17.393  0.2373 -0.1385  0.6011
  547TMC3    H2 8175   1.981   3.672  17.482 -0.3210 -1.0814  1.3265
  547TMC3    C7 8176   2.159   3.486  17.420 -0.1308 -0.5464  0.2009
  547TMC3    C8 8177   2.005   3.934  17.510  0.4615 -0.4482 -0.2359
  547TMC3    O1 8178   2.042   3.450  17.442 -0.0278  0.2818 -0.5565
  547TMC3    O2 8179   2.032   4.046  17.555  0.2071 -0.4998 -0.2920
  548MPD2     C 8180   2.315   4.434  13.266 -0.3796  0.2955 -1.1880
  548MPD2    C1 8181   2.284   4.333  13.174  0.4757  0.0339  0.5773
  548MPD2    C2 8182   2.384   4.254  13.123  0.6913 -0.4545 -0.5172
  548MPD2    C3 8183   2.518   4.277  13.157  0.2107 -0.1928  0.7994
  548MPD2    C4 8184   2.546   4.367  13.254  0.0651 -0.1522  0.6321
  548MPD2    C5 8185   2.447   4.435  13.314 -0.5317 -0.2855 -0.7582
  548MPD2     H 8186   2.359   4.182  13.046  1.1132  0.0252 -1.1065
  548MPD2    H1 8187   2.649   4.388  13.282 -0.2098  0.4096  1.2392
  548MPD2    H2 8188   2.233   4.494  13.303 -0.3110 -0.3969  0.1134
  548MPD2    H3 8189   2.476   4.510  13.388 -1.8246  1.0358 -1.5960
  548MPD2     N 8190   2.615   4.195  13.090 -0.5881 -0.3378  0.4029
  548MPD2    H5 8191   2.571   4.126  13.031  0.7169 -0.9959  0.2012
  548MPD2    N1 8192   2.149   4.316  13.127 -0.1404  0.7635 -0.0485
  548MPD2    H7 8193   2.072   4.373  13.161 -0.2399  0.1830  0.6929
  549TMC3    C1 8194   1.955   4.200  13.074  0.4867  0.2567 -0.0971
  549TMC3    C2 8195   1.894   4.284  12.985  0.4456 -0.0692  0.2605
  549TMC3    C3 8196   1.765   4.260  12.950  0.4260  0.0615 -0.3778
  549TMC3    C4 8197   1.892   4.083  13.107  0.0905  0.1739  0.4732
  549TMC3    C5 8198   1.759   4.063  13.074  0.3657 -0.3853 -0.1709
  549TMC3    C6 8199   1.692   4.156  13.003  0.1880 -0.1469  0.3200
  549TMC3     C 8200   2.102   4.202  13.070  0.8572 -0.0223  0.0482
  549TMC3     O 8201   2.146   4.116  12.993  0.3926  0.6600  0.1709
  549TMC3     H 8202   1.943   4.380  12.975 -0.1086  0.1423 -0.4029
  549TMC3    H1 8203   1.950   4.004  13.153 -0.0033  0.4695  1.0940
  549TMC3    H2 8204   1.595   4.135  12.960 -0.6007  1.2534  1.4381
  549TMC3    C7 8205   1.697   3.940  13.109 -0.1507 -0.4682  0.3995
  549TMC3    C8 8206   1.698   4.341  12.846 -0.2400  0.4141  0.0619
  549TMC3    O1 8207   1.579   3.931  13.145 -0.3681  0.1257 -0.4821
  549TMC3    O2 8208   1.574   4.360  12.854  0.6221 -0.3754  0.1891
  550TMC3    C1 8209   1.554   2.522  12.302  0.4106 -0.2072  0.8800
  550TMC3    C2 8210   1.495   2.521  12.418  0.3194 -0.1845 -0.0270
  550TMC3    C3 8211   1.491   2.646  12.483  0.0335  0.0182 -0.1185
  550TMC3    C4 8212   1.601   2.633  12.240 -0.4446 -0.0022 -0.4603
  550TMC3    C5 8213   1.588   2.758  12.309  0.0415  0.2869 -0.0030
  550TMC3    C6 8214   1.537   2.764  12.430  0.1807 -0.4083 -0.0576
  550TMC3     C 8215   1.560   2.392  12.228 -0.1394  0.3669 -0.2940
  550TMC3     O 8216   1.515   2.294  12.283 -0.3572  0.0794  0.1488
  550TMC3     H 8217   1.476   2.425  12.466 -1.0144 -0.0889 -0.3487
  550TMC3    H1 8218   1.656   2.626  12.146  1.1584 -1.7407  0.6095
  550TMC3    H2 8219   1.521   2.861  12.475 -2.5415 -1.0211  0.2912
  550TMC3    C7 8220   1.554   2.869  12.232  0.2482  0.1426 -0.0013
  550TMC3    C8 8221   1.449   2.651  12.620  0.0822  0.6809 -0.6113
  550TMC3    O1 8222   1.464   2.943  12.269 -0.1680 -0.4429 -0.1411
  550TMC3    O2 8223   1.470   2.755  12.683  0.3466 -0.0080 -0.1810
  551TMC3    C1 8224   3.448   0.156  13.135 -0.2780 -0.0521  0.3736
  551TMC3    C2 8225   3.538   0.058  13.151  0.0070  0.1212  0.2714
  551TMC3    C3 8226   3.621   0.059  13.264  0.0161  1.2447  0.2047
  551TMC3    C4 8227   3.411   0.244  13.237  0.0799 -0.3388  0.5697
  551TMC3    C5 8228   3.489   0.233  13.352  0.1985 -0.4409  0.1414
  551TMC3    C6 8229   3.594   0.152  13.365 -0.3450 -0.5624  0.2271
  551TMC3     C 8230   3.353   0.144  13.023 -0.3604 -0.5763 -0.2566
  551TMC3     O 8231   3.247   0.200  13.022  0.4711  0.1796  0.3820
  551TMC3     H 8232   3.568   4.732  13.068 -0.4831 -1.1252  1.0434
  551TMC3    H1 8233   3.335   0.319  13.219  0.6904  0.1055 -0.1711
  551TMC3    H2 8234   3.661   0.165  13.449 -1.6163  3.9296  0.5028
  551TMC3    C7 8235   3.437   0.291  13.476 -0.1617  0.9149  0.0630
  551TMC3    C8 8236   3.756   0.041  13.214  0.0823  0.4390 -0.2683
  551TMC3    O1 8237   3.454   0.228  13.579 -0.6228 -0.0825  0.5123
  551TMC3    O2 8238   3.772   4.667  13.162 -0.0785 -0.2459 -0.2474
  552MPD2     C 8239   0.204   2.326  14.109 -0.1556 -1.0551 -0.1462
  552MPD2    C1 8240   0.274   2.208  14.139 -0.3622 -0.3364  0.4128
  552MPD2    C2 8241   0.332   2.189  14.259 -0.4920 -0.4740 -0.0545
  552MPD2    C3 8242   0.326   2.290  14.357  0.6796 -0.4553 -0.2771
  552MPD2    C4 8243   0.252   2.405  14.331  0.6411  0.0140 -0.5954
  552MPD2    C5 8244   0.198   2.426  14.209 -0.4040 -0.3619  0.3736
  552MPD2     H 8245   0.389   2.099  14.278 -0.4723 -0.5918 -0.6702
  552MPD2    H1 8246   0.235   2.485  14.401 -1.1115 -1.2393  0.4082
  552MPD2    H2 8247   0.153   2.337  14.014  0.0558  2.6469  0.1651
  552MPD2    H3 8248   0.151   2.521  14.187 -1.4368 -0.9282  0.1224
  552MPD2     N 8249   0.389   2.273  14.482 -0.8046 -0.0717 -0.2644
  552MPD2    H5 8250   0.380   2.348  14.550  0.3461 -1.5709  1.5314
  552MPD2    N1 8251   0.305   2.113  14.043  0.3523  0.0548 -0.8801
  552MPD2    H7 8252   0.355   2.032  14.078 -0.9702  0.3300  1.6437
  553TMC3    C1 8253   0.319   1.999  13.854 -0.4944 -0.2466  0.1078
  553TMC3    C2 8254   0.354   2.015  13.724 -0.1755  0.2941 -0.3115
  553TMC3    C3 8255   0.446   1.930  13.671 -0.1002 -0.7501  0.8543
  553TMC3    C4 8256   0.361   1.893  13.927  0.6279  0.7700  0.6907
  553TMC3    C5 8257   0.461   1.816  13.880 -0.0703 -0.0349 -0.9067
  553TMC3    C6 8258   0.506   1.837  13.753  0.5112  0.2965 -0.4202
  553TMC3     C 8259   0.260   2.108  13.921 -0.4285 -0.2473 -0.3429
  553TMC3     O 8260   0.196   2.192  13.855  0.1370  0.1787  0.1940
  553TMC3     H 8261   0.312   2.103  13.675 -1.7118  0.1469  0.7639
  553TMC3    H1 8262   0.320   1.868  14.024  2.0695  0.4377  1.2124
  553TMC3    H2 8263   0.568   1.761  13.708 -0.9468 -1.1095 -0.0643
  553TMC3    C7 8264   0.491   1.683  13.943  0.8926 -0.0419 -0.0469
  553TMC3    C8 8265   0.498   1.942  13.542  0.3708  0.4330  0.4131
  553TMC3    O1 8266   0.421   1.645  14.039  0.3082  0.4141  0.4966
  553TMC3    O2 8267   0.564   1.846  13.498  0.7315  0.4408  0.6594
  554TMC3    C1 8268   3.286   1.369  11.488 -0.7704  0.2660  0.1792
  554TMC3    C2 8269   3.232   1.304  11.377 -0.3194  0.4462  0.2806
  554TMC3    C3 8270   3.249   1.356  11.252 -0.0051  0.2539 -0.0839
  554TMC3    C4 8271   3.361   1.486  11.475 -0.0504  0.1875  0.3554
  554TMC3    C5 8272   3.365   1.535  11.343 -0.0827 -0.3550  0.4246
  554TMC3    C6 8273   3.323   1.467  11.234  0.3849  0.1510  0.4137
  554TMC3     C 8274   3.295   1.302  11.615 -0.8873  0.3625 -0.6753
  554TMC3     O 8275   3.387   1.332  11.684  0.3570  0.6429 -0.4336
  554TMC3     H 8276   3.189   1.205  11.375 -0.8515  0.6726  0.7543
  554TMC3    H1 8277   3.405   1.533  11.562  0.1561 -0.0060  0.3526
  554TMC3    H2 8278   3.325   1.513  11.135  1.7704 -0.6980  0.0572
  554TMC3    C7 8279   3.404   1.669  11.315 -0.3709 -0.4619 -0.6935
  554TMC3    C8 8280   3.168   1.320  11.136  0.4097  0.2166 -0.1479
  554TMC3    O1 8281   3.436   1.693  11.200 -0.0156  0.4704 -1.1075
  554TMC3    O2 8282   3.223   1.334  11.030 -0.0310 -0.1623 -0.5391
  555TMC3    C1 8283   1.901   0.606  15.124  0.3831  0.1533  0.2780
  555TMC3    C2 8284   1.892   0.716  15.212  0.1574 -0.5900  0.5153
  555TMC3    C3 8285   1.870   0.680  15.340  0.3398 -1.1151  0.0525
  555TMC3    C4 8286   1.887   0.478  15.164 -0.0747  0.2730  0.5633
  555TMC3    C5 8287   1.865   0.451  15.299  0.5828  0.0017  0.4562
  555TMC3    C6 8288   1.853   0.552  15.385 -1.4213 -0.5018 -0.2244
  555TMC3     C 8289   1.926   0.641  14.983  0.3873  0.1175  0.3327
  555TMC3     O 8290   1.989   0.558  14.914  0.6165 -0.0320 -0.4390
  555TMC3     H 8291   1.904   0.817  15.176 -1.4580 -0.6273 -0.0955
  555TMC3    H1 8292   1.872   0.407  15.083  0.0940 -1.9684  2.5180
  555TMC3    H2 8293   1.824   0.517  15.484  2.2998  0.3203  1.1677
  555TMC3    C7 8294   1.864   0.319  15.351 -0.1788  0.0501  0.0465
  555TMC3    C8 8295   1.912   0.786  15.442  0.1887 -0.3724 -0.7143
  555TMC3    O1 8296   1.807   0.299  15.461  0.0332 -0.0728 -0.0459
  555TMC3    O2 8297   1.898   0.900  15.411  0.7000 -0.0879 -0.1811
  556MPD2     C 8298   0.712   2.123  11.018  0.0082  0.5644  0.4208
  556MPD2    C1 8299   0.575   2.110  11.030  0.6911 -0.1155 -0.1023
  556MPD2    C2 8300   0.507   2.030  10.934 -0.2093  0.4715 -0.3856
  556MPD2    C3 8301   0.575   1.974  10.824  0.2238 -0.3405  0.5667
  556MPD2    C4 8302   0.713   1.999  10.816 -0.4251 -0.7640  0.0302
  556MPD2    C5 8303   0.783   2.068  10.916 -0.3504 -0.3658  0.3503
  556MPD2     H 8304   0.405   2.002  10.958  0.9603 -1.3019  2.5518
  556MPD2    H1 8305   0.767   1.964  10.729 -0.1261 -2.4241  0.8878
  556MPD2    H2 8306   0.779   2.162  11.094  0.7420 -1.3999  0.7790
  556MPD2    H3 8307   0.890   2.076  10.901 -0.3422  0.3082  0.7736
  556MPD2     N 8308   0.517   1.883  10.738  0.0225  0.1775 -0.1472
  556MPD2    H5 8309   0.421   1.854  10.753 -0.5359  0.2323 -3.6606
  556MPD2    N1 8310   0.502   2.162  11.137  0.6249  0.2414  0.1207
  556MPD2    H7 8311   0.406   2.134  11.153  0.5108  0.6907  0.2313
  557TMC3    C1 8312   0.502   1.693  10.596  0.2560  0.3015  0.0803
  557TMC3    C2 8313   0.517   1.649  10.468 -0.7158  0.1180  0.2122
  557TMC3    C3 8314   0.457   1.531  10.432  1.0827 -0.0696 -0.1813
  557TMC3    C4 8315   0.438   1.623  10.695 -0.4978  0.5527  0.1782
  557TMC3    C5 8316   0.377   1.507  10.656 -0.9157  0.0973 -0.0690
  557TMC3    C6 8317   0.384   1.458  10.527  0.2687  0.3033 -0.3408
  557TMC3     C 8318   0.573   1.809  10.635 -0.1839 -0.0048  0.2420
  557TMC3     O 8319   0.670   1.840  10.571 -0.2282  0.1430 -0.5294
  557TMC3     H 8320   0.563   1.705  10.388  0.7296 -1.6871 -0.2091
  557TMC3    H1 8321   0.424   1.663  10.794  0.0653 -0.3873  0.6377
  557TMC3    H2 8322   0.332   1.368  10.494 -0.7233  1.4581 -1.9045
  557TMC3    C7 8323   0.277   1.449  10.739  0.2069 -0.2991 -0.3876
  557TMC3    C8 8324   0.430   1.513  10.292 -0.7704 -1.1535  0.5933
  557TMC3    O1 8325   0.253   1.330  10.735 -0.2669  0.1429  1.2661
  557TMC3    O2 8326   0.433   1.613  10.222 -0.4830 -0.7374  0.2825
  558TMC3    C1 8327   2.977   0.483  10.440 -0.1497 -0.7831 -0.7636
  558TMC3    C2 8328   2.859   0.433  10.474  0.6124 -0.5648 -0.2805
  558TMC3    C3 8329   2.766   0.420  10.369  0.4938 -0.5153  0.6523
  558TMC3    C4 8330   3.020   0.515  10.315  0.5949  0.1240  0.0574
  558TMC3    C5 8331   2.924   0.480  10.218 -0.2501  0.1205 -0.4703
  558TMC3    C6 8332   2.803   0.430  10.240 -0.3633  0.0645  0.0674
  558TMC3     C 8333   3.086   0.466  10.532 -0.0494 -0.1442 -0.5533
  558TMC3     O 8334   3.199   0.451  10.491  0.3904 -0.3967  0.0464
  558TMC3     H 8335   2.831   0.407  10.576  3.4707 -1.6354  0.2403
  558TMC3    H1 8336   3.122   0.549  10.303  0.6808 -0.6214 -1.3033
  558TMC3    H2 8337   2.742   0.396  10.158  0.1753 -2.2340  0.6093
  558TMC3    C7 8338   2.981   0.500  10.084  0.1670  0.3880  0.1093
  558TMC3    C8 8339   2.628   0.389  10.390  0.7032  0.0530  0.2850
  558TMC3    O1 8340   3.096   0.540  10.071  0.3172  0.4217  0.1328
  558TMC3    O2 8341   2.571   0.332  10.299 -0.0325  0.0702  0.2232
  559MPD2     C 8342   2.615   0.748  10.257  0.1007  0.2572  0.4531
  559MPD2    C1 8343   2.571   0.789  10.380  0.0332 -0.2111  0.1627
  559MPD2    C2 8344   2.664   0.839  10.468  0.5471 -0.0179 -0.4850
  559MPD2    C3 8345   2.803   0.840  10.437 -0.1934 -0.0298  0.2284
  559MPD2    C4 8346   2.840   0.798  10.312  0.3039  0.2322 -0.4802
  559MPD2    C5 8347   2.751   0.755  10.215 -0.9204  0.3805  0.5659
  559MPD2     H 8348   2.639   0.868  10.569  1.9285 -0.9831  0.1439
  559MPD2    H1 8349   2.943   0.799  10.278  0.5575  0.9778  0.3046
  559MPD2    H2 8350   2.559   0.683  10.191  1.2971  1.0283 -1.2944
  559MPD2    H3 8351   2.779   0.714  10.119 -1.4004 -0.7217  0.8885
  559MPD2     N 8352   2.895   0.871  10.539  0.4784  0.4512  0.0328
  559MPD2    H5 8353   2.857   0.871  10.633 -0.7066  0.9644 -0.4472
  559MPD2    N1 8354   2.432   0.789  10.413  0.0528  0.0268  0.0378
  559MPD2    H7 8355   2.413   0.834  10.502 -2.4800 -1.9903  0.5030
  560TMC3    C1 8356   3.097   0.905  10.646 -0.5259 -0.1927 -0.6811
  560TMC3    C2 8357   3.026   0.959  10.743  0.6661 -0.2748  0.0615
  560TMC3    C3 8358   3.074   0.947  10.870 -0.2513  0.1972 -1.4390
  560TMC3    C4 8359   3.222   0.843  10.666 -0.2576 -0.5719  0.1372
  560TMC3    C5 8360   3.273   0.846  10.795 -0.3534  0.0118  0.5255
  560TMC3    C6 8361   3.199   0.893  10.903  0.3429  0.6402  0.0053
  560TMC3     C 8362   3.033   0.859  10.529 -0.4952  0.6771  0.3631
  560TMC3     O 8363   3.103   0.853  10.421 -0.1450  0.1809  0.1769
  560TMC3     H 8364   2.929   1.006  10.734  1.7424  1.9373 -0.1942
  560TMC3    H1 8365   3.270   0.793  10.583  0.7014  0.6129 -0.0213
  560TMC3    H2 8366   3.242   0.871  11.000  0.3314 -0.0449 -0.1471
  560TMC3    C7 8367   3.389   0.760  10.823  0.5539  0.2890  0.0912
  560TMC3    C8 8368   2.967   0.906  10.965 -0.0377  0.1151 -0.7921
  560TMC3    O1 8369   3.409   0.649  10.777 -0.4358  0.3873 -0.1667
  560TMC3    O2 8370   2.859   0.886  10.912  0.1156  0.8920 -0.3626
  561TMC3    C1 8371   0.523   4.421  11.360 -0.4160  0.7303  0.1988
  561TMC3    C2 8372   0.395   4.404  11.387 -0.0171 -0.0540  0.3244
  561TMC3    C3 8373   0.353   4.446  11.502 -0.1359  0.3753 -0.7389
  561TMC3    C4 8374   0.617   4.482  11.444  0.5831  0.3616 -0.4311
  561TMC3    C5 8375   0.571   4.527  11.567 -0.6780 -0.4098 -0.3062
  561TMC3    C6 8376   0.434   4.515  11.594 -0.5732 -0.6446 -0.5602
  561TMC3     C 8377   0.574   4.342  11.249 -0.4813 -0.2433  0.3288
  561TMC3     O 8378   0.498   4.259  11.206 -0.1325  0.5421 -0.2614
  561TMC3     H 8379   0.327   4.361  11.314  2.2282 -3.7902  0.4645
  561TMC3    H1 8380   0.724   4.478  11.427  0.4905 -0.5817 -0.7713
  561TMC3    H2 8381   0.400   4.561  11.686 -0.2855 -0.0110 -0.7710
  561TMC3    C7 8382   0.629   4.648  11.625  0.4532  0.0950  0.3638
  561TMC3    C8 8383   0.247   4.366  11.556  0.1045  0.8299  0.1675
  561TMC3    O1 8384   0.600   4.674  11.739 -0.3867  0.1416  0.1968
  561TMC3    O2 8385   0.203   4.278  11.482  0.4145  1.0445  0.2002
  562TMC3    C1 8386   1.446   0.883  16.235  0.4575 -0.2215  0.5034
  562TMC3    C2 8387   1.350   0.977  16.276 -0.2156  0.1711  0.3336
  562TMC3    C3 8388   1.258   1.010  16.178 -0.3280  0.7242 -0.1581
  562TMC3    C4 8389   1.445   0.817  16.116 -0.3741  0.7690 -0.3110
  562TMC3    C5 8390   1.341   0.842  16.034 -0.2551  0.2568 -0.0437
  562TMC3    C6 8391   1.254   0.947  16.055  0.1867  0.0143 -0.1986
  562TMC3     C 8392   1.550   0.866  16.334  0.2198  0.9251  0.4427
  562TMC3     O 8393   1.665   0.849  16.293 -0.1126 -0.2431  0.2999
  562TMC3     H 8394   1.346   1.021  16.374  0.8257 -1.5305  1.1547
  562TMC3    H1 8395   1.518   0.741  16.090  1.4734  2.2275  0.6106
  562TMC3    H2 8396   1.165   0.956  15.993  0.3081 -0.5154 -0.4563
  562TMC3    C7 8397   1.341   0.792  15.899  0.2803 -0.4611 -0.4742
  562TMC3    C8 8398   1.155   1.102  16.204 -0.9225  0.4583  0.2228
  562TMC3    O1 8399   1.284   0.856  15.812 -0.3704  0.3220  0.0243
  562TMC3    O2 8400   1.114   1.102  16.321 -0.0585  0.0002 -0.2418
  563MPD2     C 8401   3.774   2.350  15.342  0.2921 -0.2379  0.4407
  563MPD2    C1 8402   3.790   2.426  15.461 -0.1355  0.4022  0.7895
  563MPD2    C2 8403   3.914   2.483  15.487 -0.0324  0.1583  0.0798
  563MPD2    C3 8404   4.020   2.460  15.406 -0.7675 -0.2296 -1.2334
  563MPD2    C4 8405   3.995   2.405  15.279  0.1044  0.3961 -0.1904
  563MPD2    C5 8406   3.874   2.349  15.250  0.3389 -0.5443 -0.5480
  563MPD2     H 8407   3.931   2.536  15.580 -1.6875  2.1378 -0.7613
  563MPD2    H1 8408   4.076   2.386  15.208 -2.1740  1.7513 -3.1328
  563MPD2    H2 8409   3.678   2.301  15.329  1.6749 -2.8028 -0.2208
  563MPD2    H3 8410   3.852   2.300  15.155  0.3532  0.1914 -0.9344
  563MPD2     N 8411   4.153   2.493  15.456 -0.1938  0.3433  0.3041
  563MPD2    H5 8412   4.160   2.525  15.552 -2.3213 -0.2382  0.6516
  563MPD2    N1 8413   3.674   2.434  15.545  0.5163  0.1808  0.9018
  563MPD2    H7 8414   3.591   2.391  15.505  0.8243  1.6537 -1.3082
  564TMC3    C1 8415   3.536   2.478  15.735  0.0687  0.4305  0.0810
  564TMC3    C2 8416   3.429   2.421  15.675 -0.8368  0.4348 -0.7272
  564TMC3    C3 8417   3.317   2.403  15.759  0.4602 -0.3501  0.0565
  564TMC3    C4 8418   3.535   2.527  15.860  0.1239  0.3497 -0.1371
  564TMC3    C5 8419   3.434   2.484  15.946 -0.4261 -0.2977  0.1232
  564TMC3    C6 8420   3.322   2.432  15.893 -0.4869  0.1348 -0.3172
  564TMC3     C 8421   3.662   2.503  15.663 -0.5795 -0.0782  0.5816
  564TMC3     O 8422   3.749   2.565  15.727 -0.0614 -0.4728 -0.0076
  564TMC3     H 8423   3.424   2.398  15.569 -0.4828  1.2911 -0.9274
  564TMC3    H1 8424   3.622   2.572  15.905 -0.8846  0.7765  1.3849
  564TMC3    H2 8425   3.226   2.434  15.944 -1.6347 -2.9205 -2.3074
  564TMC3    C7 8426   3.478   2.399  16.052 -0.3469 -0.3803 -0.9188
  564TMC3    C8 8427   3.243   2.281  15.744  0.0633 -0.3557 -0.5047
  564TMC3    O1 8428   3.593   2.427  16.093 -0.8774 -0.5607 -0.2973
  564TMC3    O2 8429   3.214   2.232  15.854 -0.6623 -0.4477  0.1574
  565TMC3    C1 8430   4.492   3.415  10.232  0.0747 -0.1180 -0.3036
  565TMC3    C2 8431   4.494   3.326  10.339  0.2031  0.6765 -0.1729
  565TMC3    C3 8432   4.514   3.190  10.321  0.2741  0.8638  0.3736
  565TMC3    C4 8433   4.520   3.360  10.110 -0.3423 -0.3187 -0.7514
  565TMC3    C5 8434   4.540   3.227  10.098 -0.4847  0.5102 -0.5993
  565TMC3    C6 8435   4.527   3.135  10.199  0.2020 -0.7759  0.3771
  565TMC3     C 8436   4.510   3.559  10.240  0.3128 -0.8422  0.7176
  565TMC3     O 8437   4.568   3.615  10.143  0.1672 -0.0308  0.9390
  565TMC3     H 8438   4.468   3.360  10.439 -1.1240  1.5465 -0.8180
  565TMC3    H1 8439   4.506   3.419  10.020 -2.0015  4.3052  2.4967
  565TMC3    H2 8440   4.575   3.037  10.191  2.2883  0.2918 -0.1807
  565TMC3    C7 8441   4.627   3.179   9.988 -0.0496 -0.1702 -0.9126
  565TMC3    C8 8442   4.506   3.107  10.438 -0.1864  0.0612  0.6327
  565TMC3    O1 8443   4.722   3.107  10.022  0.2996 -0.1866 -0.0878
  565TMC3    O2 8444   4.510   3.154  10.551 -0.2094  0.9188 -0.6819
  566MPD2     C 8445   1.353   1.180  14.333 -0.3158 -0.3656 -0.2368
  566MPD2    C1 8446   1.361   1.048  14.368 -0.1001  0.5947  0.0049
  566MPD2    C2 8447   1.259   0.963  14.325 -0.6604 -0.1638 -0.2408
  566MPD2    C3 8448   1.151   1.006  14.245  0.4435 -0.0904  0.2743
  566MPD2    C4 8449   1.148   1.143  14.213  0.0447 -0.9876 -0.1196
  566MPD2    C5 8450   1.244   1.226  14.264 -0.8932 -0.2998  0.3006
  566MPD2     H 8451   1.266   0.858  14.350  2.9743  0.1968  0.1628
  566MPD2    H1 8452   1.063   1.186  14.162 -0.3503 -2.3033 -0.5504
  566MPD2    H2 8453   1.429   1.254  14.355  0.3383 -1.2530  0.4598
  566MPD2    H3 8454   1.236   1.329  14.231 -2.3205 -0.6652 -0.5268
  566MPD2     N 8455   1.053   0.919  14.186 -0.2258  0.0376 -0.4001
  566MPD2    H5 8456   0.978   0.964  14.135 -0.0905 -0.0215 -0.6480
  566MPD2    N1 8457   1.475   0.998  14.434 -0.5970  0.4015 -0.3241
  566MPD2    H7 8458   1.547   1.065  14.458  1.1721 -1.6736  0.1585
  567TMC3    C1 8459   1.611   0.808  14.487 -0.0908 -0.1917  0.2912
  567TMC3    C2 8460   1.671   0.814  14.361  0.0025  0.5375 -0.4583
  567TMC3    C3 8461   1.752   0.713  14.319  0.1173  0.2746  0.6398
  567TMC3    C4 8462   1.629   0.696  14.564  0.4143 -0.0555 -0.0792
  567TMC3    C5 8463   1.722   0.607  14.526  0.0943  0.5887  0.1543
  567TMC3    C6 8464   1.791   0.619  14.410 -0.6208 -0.0747 -0.6978
  567TMC3     C 8465   1.484   0.870  14.486  0.2284 -0.0966  0.9802
  567TMC3     O 8466   1.393   0.809  14.528 -0.2522  0.9475 -0.3809
  567TMC3     H 8467   1.631   0.873  14.279 -2.0367  0.2003  0.2897
  567TMC3    H1 8468   1.576   0.696  14.659 -0.2185 -1.0628 -0.4369
  567TMC3    H2 8469   1.860   0.541  14.379  0.5591  1.6939 -2.5711
  567TMC3    C7 8470   1.749   0.493  14.613  0.7782  0.7931 -0.2887
  567TMC3    C8 8471   1.798   0.718  14.179 -0.1169 -0.6163  0.3123
  567TMC3    O1 8472   1.835   0.415  14.570 -0.6112 -0.9497 -0.0011
  567TMC3    O2 8473   1.737   0.795  14.106  0.4772  0.0245  0.9095
  568MPD2     C 8474   3.510   0.936  15.963 -0.4308 -0.7597  0.3201
  568MPD2    C1 8475   3.504   1.020  16.075 -0.0700 -0.2265 -0.3382
  568MPD2    C2 8476   3.410   1.130  16.068  1.0827 -0.0487  0.2874
  568MPD2    C3 8477   3.322   1.147  15.963  0.1841  0.3005  0.2974
  568MPD2    C4 8478   3.322   1.055  15.861  0.4988 -0.5880  0.1080
  568MPD2    C5 8479   3.414   0.949  15.866 -0.6056  0.5822 -0.0251
  568MPD2     H 8480   3.404   1.203  16.148 -0.2380 -1.7656  1.7882
  568MPD2    H1 8481   3.266   1.060  15.769  2.6158 -0.9247 -1.1983
  568MPD2    H2 8482   3.579   0.853  15.974  1.1146  0.4862  0.0266
  568MPD2    H3 8483   3.414   0.887  15.776 -0.1536  0.6340 -0.0610
  568MPD2     N 8484   3.238   1.264  15.967 -0.1813 -0.1172 -0.1297
  568MPD2    H5 8485   3.240   1.328  16.046 -1.0393  1.4184 -1.3384
  568MPD2    N1 8486   3.584   0.984  16.187  1.1431 -0.4975  0.2370
  568MPD2    H7 8487   3.628   0.893  16.175  1.0857 -0.6998  1.5839
  569TMC3    C1 8488   3.066   1.419  15.906  0.0548 -0.4497 -0.8312
  569TMC3    C2 8489   3.072   1.472  16.029 -0.4694 -0.0933  0.5866
  569TMC3    C3 8490   3.021   1.599  16.038  0.6094  0.2615  0.5798
  569TMC3    C4 8491   3.003   1.478  15.802  0.0337 -0.1235  0.6055
  569TMC3    C5 8492   2.969   1.609  15.810  0.5386  0.0404 -0.3074
  569TMC3    C6 8493   2.968   1.671  15.933 -0.1278  0.1054  0.1572
  569TMC3     C 8494   3.147   1.297  15.871 -0.6850  0.1135  0.9655
  569TMC3     O 8495   3.112   1.239  15.772  0.1104 -0.1292 -0.4745
  569TMC3     H 8496   3.114   1.421  16.115 -3.0726 -0.9856  1.3285
  569TMC3    H1 8497   3.020   1.439  15.702 -0.0517  1.0864  0.1077
  569TMC3    H2 8498   2.948   1.777  15.945 -1.7209 -0.1578 -0.0378
  569TMC3    C7 8499   2.973   1.684  15.685  0.2250 -0.6639 -0.0676
  569TMC3    C8 8500   3.034   1.665  16.170 -0.0451 -0.1001 -0.3861
  569TMC3    O1 8501   2.932   1.633  15.585 -0.3041 -0.0877  0.2369
  569TMC3    O2 8502   3.138   1.648  16.230 -0.1627  0.4757 -0.3787
  570TMC3    C1 8503   2.873   0.261  15.617 -0.1261 -0.1383  0.3912
  570TMC3    C2 8504   2.999   0.287  15.585  0.0120 -0.2291 -0.3686
  570TMC3    C3 8505   3.056   0.404  15.622 -0.1119  0.1829  0.1031
  570TMC3    C4 8506   2.792   0.361  15.674  0.3756 -0.5152  0.5406
  570TMC3    C5 8507   2.854   0.480  15.696 -0.0832  0.8779 -0.1468
  570TMC3    C6 8508   2.988   0.504  15.674 -0.2452  0.2477  0.0647
  570TMC3     C 8509   2.822   0.124  15.603  0.3415  0.4091 -0.5060
  570TMC3     O 8510   2.867   0.054  15.508  0.1178 -0.0277  0.0168
  570TMC3     H 8511   3.054   0.205  15.540 -1.6254 -0.8940 -1.1565
  570TMC3    H1 8512   2.684   0.356  15.687 -0.1806  1.6125 -3.1381
  570TMC3    H2 8513   3.037   0.599  15.692  2.8354 -1.2035 -0.6977
  570TMC3    C7 8514   2.787   0.571  15.792  0.5717  0.2410 -0.4223
  570TMC3    C8 8515   3.195   0.416  15.631  0.6284 -0.6826  0.3018
  570TMC3    O1 8516   2.685   0.523  15.837  0.2486 -0.2827 -1.0306
  570TMC3    O2 8517   3.240   0.533  15.636  0.4338  0.0722  0.0988
  571MPD2     C 8518   4.348   1.595   1.033 -0.4528 -0.0344  0.6816
  571MPD2    C1 8519   4.410   1.606   0.911 -0.5465  0.2305  0.1602
  571MPD2    C2 8520   4.496   1.719   0.893  0.0394  0.5308  0.3803
  571MPD2    C3 8521   4.514   1.816   0.990  0.1814  0.4084 -0.4634
  571MPD2    C4 8522   4.450   1.801   1.111 -0.6454 -0.3582  0.4490
  571MPD2    C5 8523   4.362   1.693   1.130 -0.7057  0.1777 -0.0482
  571MPD2     H 8524   4.543   1.733   0.796 -3.0146 -0.0336 -1.1886
  571MPD2    H1 8525   4.469   1.861   1.199  1.4890 -0.6010  0.1423
  571MPD2    H2 8526   4.271   1.521   1.053 -1.6425  1.0413  0.0585
  571MPD2    H3 8527   4.302   1.696   1.220 -0.1961  0.4229  0.2877
  571MPD2     N 8528   4.589   1.935   0.975  0.5759 -0.2111  0.1161
  571MPD2    H5 8529   4.587   1.996   1.056  1.6439  0.5505 -0.4353
  571MPD2    N1 8530   4.399   1.488   0.831 -0.3499 -0.5861  0.3411
  571MPD2    H7 8531   4.353   1.405   0.868  2.6723 -2.3090  0.2389
  572TMC3    C1 8532   4.723   2.094   0.872 -0.2408 -0.2675  0.0904
  572TMC3    C2 8533   4.676   2.187   0.961  0.3448 -0.3109  0.0136
  572TMC3    C3 8534   0.005   2.306   0.954  0.1103  0.6530  0.1027
  572TMC3    C4 8535   0.101   2.102   0.802  0.4377 -0.4139  0.3980
  572TMC3    C5 8536   0.164   2.224   0.805 -0.4147  0.0904  0.1833
  572TMC3    C6 8537   0.117   2.327   0.879  0.0212  0.1453  0.6919
  572TMC3     C 8538   4.676   1.961   0.872  0.1122 -0.2800  0.3997
  572TMC3     O 8539   4.711   1.884   0.781 -0.3986 -0.0542 -0.1734
  572TMC3     H 8540   4.575   2.182   1.000 -0.5386  1.6029 -2.0459
  572TMC3    H1 8541   0.134   2.024   0.734  0.4490 -0.4401  0.4338
  572TMC3    H2 8542   0.165   2.424   0.866  0.7536 -0.5458 -1.7299
  572TMC3    C7 8543   0.208   2.263   0.675 -0.0192 -0.6407  0.5029
  572TMC3    C8 8544   4.716   2.416   1.050 -0.2443 -0.4225  0.7376
  572TMC3    O1 8545   0.136   2.234   0.581 -0.0229 -0.0137  0.3518
  572TMC3    O2 8546   0.033   2.525   1.030 -0.3793 -0.3960  0.3431
  573MPD2     C 8547   0.880   2.644   0.805  0.1944 -0.8337  0.3413
  573MPD2    C1 8548   0.998   2.679   0.864 -0.4960 -0.4401 -0.2760
  573MPD2    C2 8549   1.116   2.674   0.791  0.2409  0.4292 -0.5947
  573MPD2    C3 8550   1.110   2.637   0.658  0.2364 -0.6985  0.5668
  573MPD2    C4 8551   0.988   2.587   0.609  0.3920  0.3570 -0.4394
  573MPD2    C5 8552   0.875   2.593   0.677 -0.5700 -0.7136  0.1815
  573MPD2     H 8553   1.210   2.706   0.835 -0.0474  0.7194 -0.1826
  573MPD2    H1 8554   0.974   2.544   0.510  0.4196 -1.7380  0.4473
  573MPD2    H2 8555   0.790   2.642   0.866 -0.2282 -0.1777 -0.2525
  573MPD2    H3 8556   0.778   2.566   0.638 -0.3554 -0.8497 -0.2615
  573MPD2     N 8557   1.216   2.656   0.565  0.2202  0.1037 -0.3324
  573MPD2    H5 8558   1.201   2.642   0.466 -0.3892  0.9573 -0.3572
  573MPD2    N1 8559   0.997   2.703   1.005  0.0352  0.8310  0.0548
  573MPD2    H7 8560   0.906   2.708   1.048  0.5613  2.2379  1.0098
  574TMC3    C1 8561   1.445   2.696   0.498 -0.3536 -0.2785 -0.3959
  574TMC3    C2 8562   1.406   2.739   0.374 -0.6304  0.0852  0.7162
  574TMC3    C3 8563   1.498   2.729   0.274  0.0006 -0.3799 -0.2985
  574TMC3    C4 8564   1.572   2.654   0.527  0.1832 -0.6379  0.3896
  574TMC3    C5 8565   1.661   2.646   0.427 -0.7627 -0.0369  0.2010
  574TMC3    C6 8566   1.627   2.685   0.300  0.3293  0.7811 -0.4864
  574TMC3     C 8567   1.345   2.688   0.604 -0.2164  0.5676  0.2021
  574TMC3     O 8568   1.392   2.691   0.718 -0.0886 -0.3585 -0.5874
  574TMC3     H 8569   1.304   2.772   0.358 -0.3119  0.9421  0.4199
  574TMC3    H1 8570   1.585   2.607   0.624  0.9580  0.8248  1.0078
  574TMC3    H2 8571   1.697   2.677   0.218  0.6456  1.6639 -0.2975
  574TMC3    C7 8572   1.801   2.639   0.453 -0.1235 -0.0278  0.7039
  574TMC3    C8 8573   1.461   2.767   0.137 -0.3371  0.0720  0.4320
  574TMC3    O1 8574   1.874   2.606   0.362 -0.4266  0.0057 -0.1153
  574TMC3    O2 8575   1.510   2.707   0.046 -0.1807  0.2944  0.2954
  575TMC3    C1 8576   0.027   2.905  11.236  0.0797  0.2509 -0.5311
  575TMC3    C2 8577   0.038   2.774  11.269 -0.2560  0.3617  0.0035
  575TMC3    C3 8578   0.019   2.671  11.184  0.3411 -0.2372 -0.2276
  575TMC3    C4 8579   4.728   2.933  11.108  0.4864 -0.3987  0.1324
  575TMC3    C5 8580   4.716   2.827  11.021  0.0560  0.1640 -0.0867
  575TMC3    C6 8581   4.724   2.696  11.055 -0.5058  0.0400  0.0648
  575TMC3     C 8582   0.071   3.000  11.330 -0.3650  0.0645  0.3573
  575TMC3     O 8583   0.064   2.964  11.444  0.4286  0.5231 -0.8555
  575TMC3     H 8584   0.087   2.746  11.362  1.0872  0.6169 -0.6300
  575TMC3    H1 8585   4.723   3.035  11.072  2.2377  0.4384  2.2931
  575TMC3    H2 8586   4.717   2.620  10.978  0.2761 -1.1407  1.1589
  575TMC3    C7 8587   4.664   2.857  10.891 -0.2339 -0.3150 -0.3042
  575TMC3    C8 8588   0.006   2.538  11.236  0.5646  0.2584  0.0848
  575TMC3    O1 8589   4.669   2.974  10.858  0.3402  0.4683  0.0114
  575TMC3    O2 8590   4.733   2.515  11.354 -0.1086 -0.2489  0.1628
  576MPD2     C 8591   4.064   4.552  12.699 -0.4574  0.6833 -0.1610
  576MPD2    C1 8592   4.112   4.668  12.643 -0.0962 -0.0393  0.0974
  576MPD2    C2 8593   4.055   0.049  12.669 -0.5412 -0.0991 -0.1017
  576MPD2    C3 8594   3.945   0.064  12.751 -0.1608 -0.1998 -0.5088
  576MPD2    C4 8595   3.881   4.688  12.798 -0.2058  0.6509  0.9307
  576MPD2    C5 8596   3.941   4.565  12.768  0.5208 -0.0712  0.3063
  576MPD2     H 8597   4.082   0.150  12.639 -0.3070  0.1444  0.8934
  576MPD2    H1 8598   3.792   4.677  12.858 -1.4727  2.6331 -0.5692
  576MPD2    H2 8599   4.111   4.456  12.683 -2.2116 -0.2086  0.1327
  576MPD2    H3 8600   3.898   4.471  12.799 -0.9731  1.2209  2.1665
  576MPD2     N 8601   3.908   0.197  12.793 -0.0095 -0.2220  0.2050
  576MPD2    H5 8602   3.951   0.273  12.741 -0.0123 -0.8074 -0.6494
  576MPD2    N1 8603   4.236   4.673  12.573 -0.1351 -0.3624 -0.3689
  576MPD2    H7 8604   4.274   0.025  12.541 -1.9171  0.0185 -1.4606
  577TMC3    C1 8605   4.413   4.588  12.443 -0.2915 -0.3383  0.4343
  577TMC3    C2 8606   4.439   4.497  12.346 -0.9179  0.1185 -0.4015
  577TMC3    C3 8607   4.514   4.535  12.239  0.1707 -1.0844 -0.6141
  577TMC3    C4 8608   4.480   4.704  12.447  0.5901  0.2533 -0.5880
  577TMC3    C5 8609   4.572   4.731  12.350  0.8571  0.3454  0.2241
  577TMC3    C6 8610   4.589   4.650  12.245 -0.5070 -0.0667 -0.9112
  577TMC3     C 8611   4.304   4.559  12.534 -0.3625 -0.3087  0.1214
  577TMC3     O 8612   4.275   4.441  12.545 -0.0807  0.2347  0.0395
  577TMC3     H 8613   4.394   4.399  12.357  2.7080 -1.6141 -0.9274
  577TMC3    H1 8614   4.477   0.033  12.533  2.2754 -0.7674  0.2537
  577TMC3    H2 8615   4.672   4.672  12.179 -1.0435  0.5285 -1.3980
  577TMC3    C7 8616   4.629   0.122  12.344 -0.0711 -0.7599 -0.3211
  577TMC3    C8 8617   4.556   4.430  12.149 -0.0970 -0.1688 -0.6784
  577TMC3    O1 8618   4.654   0.179  12.446  0.3623  0.5860 -0.4502
  577TMC3    O2 8619   4.497   4.322  12.157 -0.7028 -0.0038 -0.5995
  578MPD2     C 8620   1.376   0.046   0.005 -0.1920 -0.1228  0.2199
  578MPD2    C1 8621   1.475   4.685  17.732  0.0417 -0.2223  0.7705
  578MPD2    C2 8622   1.564   4.648   0.085 -0.2055 -0.1230  0.4029
  578MPD2    C3 8623   1.578   4.729   0.195  0.2959  0.4483  0.5321
  578MPD2    C4 8624   1.483   0.096   0.213  0.3835  0.3368 -0.2127
  578MPD2    C5 8625   1.385   0.121   0.125 -0.0357 -0.3658 -0.7774
  578MPD2     H 8626   1.636   4.569   0.071 -0.3186 -0.1436 -0.0707
  578MPD2    H1 8627   1.479   0.155   0.304  1.3920 -1.0386  0.7208
  578MPD2    H2 8628   1.310   0.069  17.668 -0.3181  1.4729  0.7600
  578MPD2    H3 8629   1.324   0.209   0.137  1.6830  0.9765 -1.9117
  578MPD2     N 8630   1.675   4.706   0.287 -0.1446 -0.4404 -0.2108
  578MPD2    H5 8631   1.716   4.614   0.281 -0.2841 -0.6165  1.5198
  578MPD2    N1 8632   1.482   4.629  17.602 -0.1919  0.1713 -0.8908
  578MPD2    H7 8633   1.426   4.680  17.533 -1.4020 -0.8590 -0.6720
  579TMC3    C1 8634   1.861   0.043   0.416 -0.3667  0.4398  0.0832
  579TMC3    C2 8635   1.928   0.137   0.487  0.2309  0.6577  0.2907
  579TMC3    C3 8636   2.054   0.110   0.525 -0.5860  0.3594  0.1661
  579TMC3    C4 8637   1.920   4.660   0.376 -0.1575  0.2333  0.6419
  579TMC3    C5 8638   2.046   4.632   0.421 -0.3667  0.0572  0.2188
  579TMC3    C6 8639   2.114   4.722   0.504  1.0299 -0.2227 -0.0511
  579TMC3     C 8640   1.735   0.076   0.361 -0.1491  0.8017 -0.3373
  579TMC3     O 8641   1.700   0.190   0.382 -0.1142 -0.6691  0.3421
  579TMC3     H 8642   1.882   0.231   0.517 -1.6528  0.3035 -1.5042
  579TMC3    H1 8643   1.862   4.583   0.327 -1.6335  1.7954 -0.0378
  579TMC3    H2 8644   2.205   4.699   0.560  2.1060  2.0734 -0.8478
  579TMC3    C7 8645   2.084   4.492   0.448 -0.7936  0.4635 -0.4437
  579TMC3    C8 8646   2.124   0.216   0.594 -1.0803 -0.3968 -0.0267
  579TMC3    O1 8647   2.205   4.465   0.450  0.1067  0.5501  0.2569
  579TMC3    O2 8648   2.072   0.304   0.654  0.1982 -0.3312  0.3786
  580TMC3    C1 8649   1.987   3.764  11.915  0.6433  0.7565  0.0822
  580TMC3    C2 8650   2.021   3.724  11.789 -0.6075  0.0282  0.0942
  580TMC3    C3 8651   2.037   3.587  11.771  0.2854 -0.8441 -0.0685
  580TMC3    C4 8652   1.972   3.677  12.017 -0.3652 -0.1156  0.2210
  580TMC3    C5 8653   1.984   3.545  11.996  0.4778 -0.1663 -0.4069
  580TMC3    C6 8654   2.031   3.495  11.874 -0.5626 -0.2934  0.2253
  580TMC3     C 8655   1.989   3.907  11.937 -0.0620 -0.7817  0.7722
  580TMC3     O 8656   1.931   3.975  11.853 -0.1639  0.6382 -0.4466
  580TMC3     H 8657   2.036   3.792  11.706 -1.8609  1.5527  1.1089
  580TMC3    H1 8658   1.950   3.712  12.117 -0.8506 -0.3266  0.1888
  580TMC3    H2 8659   2.045   3.390  11.854  2.1350  0.1704 -0.3772
  580TMC3    C7 8660   2.003   3.463  12.112  0.3703 -0.0773 -0.4131
  580TMC3    C8 8661   2.108   3.554  11.649  0.5029  0.7884  0.3166
  580TMC3    O1 8662   2.035   3.522  12.212 -0.7023 -0.4998  0.7495
  580TMC3    O2 8663   2.091   3.438  11.608 -0.5421 -0.9903  0.2806
  581MPD2     C 8664   4.266   3.461  14.787 -0.5076 -0.5224 -0.2002
  581MPD2    C1 8665   4.134   3.492  14.825  0.1418 -0.0064 -0.2118
  581MPD2    C2 8666   4.061   3.587  14.752 -0.0784 -0.4524 -0.5533
  581MPD2    C3 8667   4.126   3.665  14.660 -0.9263  0.1619  0.2820
  581MPD2    C4 8668   4.255   3.633  14.629  0.0204 -0.0262  0.0645
  581MPD2    C5 8669   4.324   3.538  14.695 -0.1497  0.6724  0.4626
  581MPD2     H 8670   3.955   3.607  14.764 -0.2534 -0.5258 -1.9131
  581MPD2    H1 8671   4.310   3.685  14.551 -0.2311  0.8978  0.5069
  581MPD2    H2 8672   4.317   3.372  14.823  0.8504 -0.2126 -1.3067
  581MPD2    H3 8673   4.425   3.523  14.657 -0.4123  0.9544 -0.3437
  581MPD2     N 8674   4.052   3.760  14.586 -0.2751 -0.5386  0.0991
  581MPD2    H5 8675   3.950   3.758  14.588 -0.2829  1.9546  3.2709
  581MPD2    N1 8676   4.072   3.417  14.927 -0.8221 -0.1461 -0.0125
  581MPD2    H7 8677   4.127   3.341  14.964  2.7240  1.1092 -2.7074
  582TMC3    C1 8678   3.922   3.364  15.111 -0.0596 -0.8015  0.5696
  582TMC3    C2 8679   4.026   3.299  15.177 -0.6375  0.3620  0.3170
  582TMC3    C3 8680   4.009   3.269  15.314 -0.5994 -0.2367 -0.1940
  582TMC3    C4 8681   3.804   3.397  15.170  0.1702 -0.6123  0.2200
  582TMC3    C5 8682   3.787   3.359  15.301  0.0023 -0.9869  0.7740
  582TMC3    C6 8683   3.883   3.286  15.370  0.4792  0.1660  0.4175
  582TMC3     C 8684   3.950   3.447  14.991  0.1020 -0.3086  0.7597
  582TMC3     O 8685   3.887   3.551  14.984 -0.0332  0.2749  0.0176
  582TMC3     H 8686   4.113   3.264  15.123 -0.1958  2.1721 -0.1461
  582TMC3    H1 8687   3.741   3.474  15.127 -0.4342 -1.1996  0.0522
  582TMC3    H2 8688   3.870   3.260  15.475  0.6487  0.5068  0.5224
  582TMC3    C7 8689   3.724   3.463  15.380  0.2331 -0.1587  0.2143
  582TMC3    C8 8690   4.108   3.343  15.394  0.0066 -1.2382 -0.1964
  582TMC3    O1 8691   3.613   3.501  15.350 -0.3816 -0.9187  0.5031
  582TMC3    O2 8692   4.067   3.376  15.501 -0.3102 -0.8678 -0.2858
  583MPD2     C 8693   4.261   0.607  16.167  0.1167  0.1376 -0.4466
  583MPD2    C1 8694   4.369   0.696  16.192 -0.8422 -0.3447 -0.1031
  583MPD2    C2 8695   4.370   0.768  16.310  0.0359  0.3621  0.3376
  583MPD2    C3 8696   4.277   0.746  16.414 -0.3336  0.1557 -0.2951
  583MPD2    C4 8697   4.176   0.661  16.388  1.0610 -0.0797  0.6293
  583MPD2    C5 8698   4.169   0.587  16.270 -0.2605 -0.0886 -0.5735
  583MPD2     H 8699   4.456   0.831  16.329  0.2375  0.6237 -1.4906
  583MPD2    H1 8700   4.093   0.645  16.455 -0.2896  2.3091 -0.4464
  583MPD2    H2 8701   4.255   0.548  16.076  2.1655  1.2865 -1.3188
  583MPD2    H3 8702   4.094   0.509  16.267 -0.0252 -0.3130 -0.6522
  583MPD2     N 8703   4.283   0.827  16.527 -0.3368 -0.0546 -0.3712
  583MPD2    H5 8704   4.358   0.895  16.527  0.5679 -1.0429 -1.2124
  583MPD2    N1 8705   4.484   0.707  16.109 -0.5015 -0.2143 -0.5259
  583MPD2    H7 8706   4.547   0.774  16.152  1.0596 -1.1745 -1.3127
  584TMC3    C1 8707   4.228   0.908  16.741  0.4797 -0.3380 -0.4779
  584TMC3    C2 8708   4.260   1.031  16.706  0.0238 -0.6552 -0.1202
  584TMC3    C3 8709   4.277   1.118  16.805  0.4804  0.6051 -0.6931
  584TMC3    C4 8710   4.198   0.867  16.867 -0.2698 -0.3947 -0.3576
  584TMC3    C5 8711   4.208   0.957  16.970  0.3658  0.6320 -0.5155
  584TMC3    C6 8712   4.257   1.084  16.938 -0.4953  0.7117  0.1189
  584TMC3     C 8713   4.212   0.808  16.640  0.1883 -0.1102  0.5432
  584TMC3     O 8714   4.152   0.712  16.679 -0.5007  0.2637 -0.4667
  584TMC3     H 8715   4.245   1.062  16.603 -3.3591 -1.4159  0.1468
  584TMC3    H1 8716   4.175   0.763  16.883  2.7090 -1.1203 -0.6450
  584TMC3    H2 8717   4.269   1.159  17.016  0.0842  0.4659  0.2712
  584TMC3    C7 8718   4.188   0.920  17.112  0.2467 -0.3980 -0.2745
  584TMC3    C8 8719   4.316   1.254  16.765 -0.0438 -0.0576  0.3111
  584TMC3    O1 8720   4.165   0.802  17.128 -0.5068 -0.3419  0.0882
  584TMC3    O2 8721   4.321   1.273  16.644  0.2219 -0.3320  0.4835
  585MPD2     C 8722   3.845   4.672   0.478  0.4625  0.7609 -1.5304
  585MPD2    C1 8723   3.856   4.576   0.384  0.3158  0.1103 -0.6321
  585MPD2    C2 8724   3.739   4.515   0.340  0.0278  0.8358 -0.3314
  585MPD2    C3 8725   3.614   4.552   0.386 -0.2061  0.3756 -0.6909
  585MPD2    C4 8726   3.603   4.650   0.481  0.2137  0.1585 -0.0233
  585MPD2    C5 8727   3.718   4.710   0.521 -0.1793  0.5912  0.0765
  585MPD2     H 8728   3.743   4.428   0.276 -1.5036 -1.2249  2.3687
  585MPD2    H1 8729   3.505   4.681   0.516 -0.0485 -0.9087  0.1707
  585MPD2    H2 8730   3.933   4.729   0.507  1.7125 -3.0036  2.0859
  585MPD2    H3 8731   3.702   0.059   0.586  0.6961  0.3850  0.5629
  585MPD2     N 8732   3.498   4.493   0.338  0.0768  0.3196  0.5837
  585MPD2    H5 8733   3.404   4.517   0.366 -1.1522 -2.1529 -1.4849
  585MPD2    N1 8734   3.980   4.547   0.326  0.2444 -0.5649 -0.2795
  585MPD2    H7 8735   4.057   4.581   0.381 -0.3898  2.8116 -1.4780
  586TMC3    C1 8736   3.356   4.367   0.206  1.0976  0.8052 -0.6486
  586TMC3    C2 8737   3.342   4.316   0.083  0.3886 -0.7989 -0.0842
  586TMC3    C3 8738   3.260   4.207   0.065 -0.6134  0.5099 -0.3567
  586TMC3    C4 8739   3.296   4.300   0.313  0.0317  0.8893  0.6327
  586TMC3    C5 8740   3.212   4.193   0.292  0.4155 -0.1320 -0.3098
  586TMC3    C6 8741   3.197   4.141   0.168  0.3788 -0.3124 -0.1210
  586TMC3     C 8742   3.493   4.416   0.230  0.2936  0.3617 -0.8612
  586TMC3     O 8743   3.571   4.408   0.135 -0.4792  0.4512 -0.3684
  586TMC3     H 8744   3.392   4.368   0.003  2.1303 -0.2540  1.3664
  586TMC3    H1 8745   3.308   4.331   0.416  1.7195 -0.9680  1.0112
  586TMC3    H2 8746   3.162   4.040   0.152  1.8845 -1.0103  1.0301
  586TMC3    C7 8747   3.164   4.106   0.400 -0.3058 -0.0695  0.9802
  586TMC3    C8 8748   3.305   4.121  17.708 -0.9630  0.9509  0.6298
  586TMC3    O1 8749   3.049   4.066   0.387  0.6032  0.4368 -0.3988
  586TMC3    O2 8750   3.286   3.999  17.704  0.5664  0.9748  0.1667
  587TMC3    C1 8751   0.648   2.571  16.892 -0.0842 -0.2501  0.0962
  587TMC3    C2 8752   0.718   2.645  16.991 -0.0068  0.1131  0.1255
  587TMC3    C3 8753   0.848   2.612  16.999 -0.0019  0.1952 -0.3336
  587TMC3    C4 8754   0.701   2.469  16.817 -0.5320 -0.4427 -0.2065
  587TMC3    C5 8755   0.827   2.431  16.850  0.4481 -0.3291 -0.3436
  587TMC3    C6 8756   0.908   2.508  16.933  0.0404  0.3752 -0.2415
  587TMC3     C 8757   0.503   2.595  16.892 -0.3310  0.2592  0.3487
  587TMC3     O 8758   0.468   2.695  16.952  0.0703  0.1867 -0.2803
  587TMC3     H 8759   0.678   2.717  17.062 -1.2133 -0.9861  0.5519
  587TMC3    H1 8760   0.647   2.420  16.737 -0.2328  0.3766 -0.9033
  587TMC3    H2 8761   1.001   2.474  16.977 -0.6497  0.9286  1.6501
  587TMC3    C7 8762   0.892   2.320  16.779 -0.9190 -0.5496  0.0015
  587TMC3    C8 8763   0.943   2.717  17.035 -0.2719 -0.6985 -0.0613
  587TMC3    O1 8764   0.826   2.279  16.683  0.5383  0.5085 -0.6277
  587TMC3    O2 8765   1.062   2.680  17.028  0.4393 -0.0239  0.1890
  588TMC3    C1 8766   4.247   1.316   9.943  0.6680  0.1332  0.1645
  588TMC3    C2 8767   4.174   1.210   9.890 -0.2368 -0.2020  0.4121
  588TMC3    C3 8768   4.227   1.088   9.911 -0.3428 -0.0886 -0.6021
  588TMC3    C4 8769   4.369   1.294  10.006  0.1852  0.8055  0.1307
  588TMC3    C5 8770   4.413   1.167  10.020 -0.3938  0.4471 -0.5847
  588TMC3    C6 8771   4.342   1.061   9.981 -0.0795  0.1666 -0.5013
  588TMC3     C 8772   4.206   1.458   9.924 -0.9643  0.1621 -0.5025
  588TMC3     O 8773   4.089   1.486   9.923  0.2430 -0.1375 -0.3201
  588TMC3     H 8774   4.075   1.221   9.847 -0.6205 -1.1567  1.0429
  588TMC3    H1 8775   4.418   1.372  10.063  2.4774 -1.5516  1.4192
  588TMC3    H2 8776   4.385   0.963  10.000 -3.0874 -1.1493 -0.4646
  588TMC3    C7 8777   4.514   1.147  10.120  0.4983 -0.4938  0.3132
  588TMC3    C8 8778   4.153   0.984   9.848 -0.4074  0.0798  0.3458
  588TMC3    O1 8779   4.516   1.038  10.179  0.0816 -0.0017  0.2547
  588TMC3    O2 8780   4.043   1.015   9.804  0.1145 -0.2290 -0.0304
  589TMC3    C1 8781   2.447   2.855   1.541 -0.0824 -0.5781  0.4342
  589TMC3    C2 8782   2.544   2.893   1.629  0.2834 -0.0045 -0.0229
  589TMC3    C3 8783   2.663   2.828   1.637  0.4259  0.1489  0.1830
  589TMC3    C4 8784   2.476   2.745   1.458 -0.0782 -0.3423  0.3561
  589TMC3    C5 8785   2.599   2.680   1.475 -0.4721 -0.3220  0.0291
  589TMC3    C6 8786   2.695   2.711   1.567 -0.1269  0.3202 -0.2281
  589TMC3     C 8787   2.330   2.943   1.519 -0.0965 -0.0738 -0.5505
  589TMC3     O 8788   2.333   3.040   1.591  0.0345 -0.2352  0.1395
  589TMC3     H 8789   2.530   2.983   1.688  2.1087 -0.0266  0.4305
  589TMC3    H1 8790   2.407   2.709   1.382  0.3224 -0.4176  0.0294
  589TMC3    H2 8791   2.785   2.651   1.573  0.8849  1.7524 -0.9310
  589TMC3    C7 8792   2.617   2.564   1.384 -0.2822  0.3441  0.3349
  589TMC3    C8 8793   2.760   2.891   1.723  0.0189 -0.8155  0.2797
  589TMC3    O1 8794   2.509   2.518   1.337  0.2575 -0.4362 -0.3077
  589TMC3    O2 8795   2.725   2.991   1.791  0.3822  0.4425  0.0790
  590MPD2     C 8796   2.231   1.286  16.413 -0.6515  0.1972  0.9669
  590MPD2    C1 8797   2.160   1.288  16.294 -0.3604 -0.5117  0.4081
  590MPD2    C2 8798   2.177   1.387  16.200  0.0877  0.2332 -0.3491
  590MPD2    C3 8799   2.251   1.498  16.236  0.5492 -0.2344  0.1593
  590MPD2    C4 8800   2.327   1.494  16.349  0.1622  0.1138  0.1937
  590MPD2    C5 8801   2.325   1.385  16.429  0.3897 -0.3494 -0.0679
  590MPD2     H 8802   2.117   1.382  16.110  1.2002 -0.6071 -1.0338
  590MPD2    H1 8803   2.381   1.580  16.388  0.4840 -0.7928  1.7433
  590MPD2    H2 8804   2.219   1.207  16.486 -0.5155  1.0424  1.9130
  590MPD2    H3 8805   2.385   1.394  16.518 -0.5797 -1.1372  0.6680
  590MPD2     N 8806   2.256   1.608  16.149 -0.1617 -0.4324  0.4994
  590MPD2    H5 8807   2.240   1.584  16.052  0.9228  0.7200  0.0337
  590MPD2    N1 8808   2.077   1.175  16.277 -0.7803 -0.1320  0.5511
  590MPD2    H7 8809   2.062   1.118  16.360  0.8856 -3.0203 -1.1238
  591TMC3    C1 8810   2.337   1.809  16.070  0.0478 -0.1823 -0.0978
  591TMC3    C2 8811   2.257   1.808  15.960 -0.0843  0.1482  0.6433
  591TMC3    C3 8812   2.294   1.886  15.858 -0.4154 -0.7561 -0.2926
  591TMC3    C4 8813   2.430   1.911  16.087  1.0399  0.0753  0.4362
  591TMC3    C5 8814   2.444   2.006  15.991  0.6666  0.3665 -1.3350
  591TMC3    C6 8815   2.383   1.986  15.871 -0.3966  0.5388  0.2284
  591TMC3     C 8816   2.302   1.730  16.186  0.3619  0.4506 -0.0934
  591TMC3     O 8817   2.296   1.787  16.297 -0.0900 -0.0568  0.1986
  591TMC3     H 8818   2.181   1.732  15.948 -1.0521  1.3012 -0.5055
  591TMC3    H1 8819   2.489   1.906  16.178  1.3207 -0.4183  0.2209
  591TMC3    H2 8820   2.417   2.027  15.776  0.2429 -1.7297 -0.5276
  591TMC3    C7 8821   2.522   2.123  16.025  0.4085  0.2012  0.3441
  591TMC3    C8 8822   2.260   1.844  15.724 -0.2862  0.2382 -0.3059
  591TMC3    O1 8823   2.592   2.115  16.130 -0.2595 -0.6022  0.1469
  591TMC3    O2 8824   2.224   1.727  15.714  0.2432 -0.3690 -0.3572
  592MPD2     C 8825   2.986   3.327  11.982 -0.6844  0.3666  0.3560
  592MPD2    C1 8826   3.020   3.384  12.097  0.5862 -0.4059  0.0966
  592MPD2    C2 8827   2.968   3.332  12.215  0.5138  0.6929  0.4712
  592MPD2    C3 8828   2.889   3.214  12.224  0.4472 -0.1531 -0.5144
  592MPD2    C4 8829   2.855   3.154  12.100  0.2632 -0.4050  0.5605
  592MPD2    C5 8830   2.907   3.214  11.983 -0.5474  0.6597 -0.0019
  592MPD2     H 8831   2.988   3.393  12.303  1.8648  0.0336  0.6273
  592MPD2    H1 8832   2.794   3.065  12.089  1.4837 -1.3975  1.8492
  592MPD2    H2 8833   3.036   3.343  11.888 -2.3750 -0.9183 -0.7621
  592MPD2    H3 8834   2.865   3.173  11.892 -0.7462  1.8357 -0.4423
  592MPD2     N 8835   2.846   3.160  12.350  0.2128  0.3126 -0.1756
  592MPD2    H5 8836   2.866   3.219  12.430 -1.1088 -1.3318  1.3509
  592MPD2    N1 8837   3.093   3.505  12.114  0.9866 -0.0791 -0.1166
  592MPD2    H7 8838   3.099   3.550  12.205 -0.6312 -1.6383  0.7643
  593TMC3    C1 8839   3.260   3.670  12.065 -0.3472 -0.0638  0.0836
  593TMC3    C2 8840   3.212   3.774  12.133 -0.2218  0.4547  0.5599
  593TMC3    C3 8841   3.292   3.874  12.178 -0.4714  0.3213  0.0493
  593TMC3    C4 8842   3.397   3.656  12.045 -0.0021  0.6054  0.6157
  593TMC3    C5 8843   3.474   3.766  12.081 -0.4446 -0.3378 -0.0833
  593TMC3    C6 8844   3.424   3.872  12.147 -0.0506  0.2194 -0.2283
  593TMC3     C 8845   3.182   3.548  12.027  0.3717  0.1004 -0.2760
  593TMC3     O 8846   3.229   3.477  11.938  0.1520 -0.1306  0.4201
  593TMC3     H 8847   3.104   3.772  12.132 -0.1739 -4.5106  1.0815
  593TMC3    H1 8848   3.434   3.575  11.982 -2.1798  2.3648 -2.9378
  593TMC3    H2 8849   3.487   3.958  12.164  1.7623 -1.2124  0.3384
  593TMC3    C7 8850   3.593   3.786  12.004  0.7006 -0.1382 -0.5557
  593TMC3    C8 8851   3.231   4.008  12.198 -0.7638 -0.2979 -0.0719
  593TMC3    O1 8852   3.621   3.901  11.980 -0.3424 -0.2235 -0.5245
  593TMC3    O2 8853   3.124   4.038  12.148 -0.9697  0.1491  0.6300
  594MPD2     C 8854   0.969   2.397  14.284 -0.2109 -0.3297  0.2225
  594MPD2    C1 8855   0.979   2.405  14.422  0.1506 -0.6209  0.4351
  594MPD2    C2 8856   1.102   2.444  14.479  0.2311 -0.0669  0.7983
  594MPD2    C3 8857   1.210   2.470  14.398  0.0716 -0.9385  0.5645
  594MPD2    C4 8858   1.199   2.452  14.261 -0.2736  1.4049 -0.4973
  594MPD2    C5 8859   1.082   2.408  14.203 -0.1764 -0.0739  0.1246
  594MPD2     H 8860   1.112   2.457  14.586  1.2918 -0.2305  0.7250
  594MPD2    H1 8861   1.277   2.465  14.187  1.1503 -5.7044 -0.2607
  594MPD2    H2 8862   0.884   2.357  14.230  0.7391  1.1155 -2.3711
  594MPD2    H3 8863   1.084   2.401  14.095 -0.1063  0.8647  0.0674
  594MPD2     N 8864   1.333   2.516  14.452 -0.3766 -0.2716 -0.2839
  594MPD2    H5 8865   1.335   2.538  14.551 -0.4507 -0.9599 -0.1289
  594MPD2    N1 8866   0.866   2.364  14.498 -0.3269 -0.5704 -0.5348
  594MPD2    H7 8867   0.785   2.335  14.445 -0.6109  0.0093 -0.4219
  595TMC3    C1 8868   1.780   2.592  14.506  0.6897 -0.2001  0.4519
  595TMC3    C2 8869   1.686   2.523  14.438 -0.5159 -0.3663  0.2918
  595TMC3    C3 8870   1.558   2.566  14.461  0.1480 -0.5509  0.5344
  595TMC3    C4 8871   1.759   2.692  14.598  0.3527 -0.7018  0.1884
  595TMC3    C5 8872   1.633   2.744  14.600  0.1816 -0.3916  0.2735
  595TMC3    C6 8873   1.525   2.677  14.539 -0.1903 -0.4969  0.2783
  595TMC3     C 8874   1.925   2.570  14.477 -0.0612 -0.8857  0.0100
  595TMC3     O 8875   2.004   2.612  14.557 -0.4662 -0.7230 -0.0630
  595TMC3     H 8876   1.707   2.433  14.382 -3.1888 -0.2467 -0.8962
  595TMC3    H1 8877   1.842   2.750  14.637 -0.2675 -0.3819  1.0519
  595TMC3    H2 8878   1.422   2.710  14.542  0.7498  2.4120  0.5632
  595TMC3    C7 8879   1.599   2.842  14.700 -0.0261 -0.3586  0.0410
  595TMC3    C8 8880   1.452   2.504  14.386  0.0122  0.7448 -0.0066
  595TMC3    O1 8881   1.487   2.882  14.694  0.2640  0.3930  0.0490
  595TMC3    O2 8882   1.481   2.444  14.283  0.5103  0.2090 -0.2284
  596MPD2     C 8883   0.445   0.289  16.558  0.4409 -0.3529  0.3509
  596MPD2    C1 8884   0.494   0.411  16.540  1.0128 -0.1815  0.5881
  596MPD2    C2 8885   0.566   0.446  16.420  0.3816 -0.4333 -0.2110
  596MPD2    C3 8886   0.564   0.347  16.317 -0.0900 -0.1979 -0.2056
  596MPD2    C4 8887   0.502   0.222  16.341  0.1108  0.0679 -1.2472
  596MPD2    C5 8888   0.455   0.187  16.463 -0.1397 -0.1919 -0.0900
  596MPD2     H 8889   0.618   0.539  16.402 -0.9241  0.1657 -0.9054
  596MPD2    H1 8890   0.504   0.139  16.271  1.1952 -0.0451 -1.0803
  596MPD2    H2 8891   0.404   0.264  16.655 -1.0736  0.5440 -0.0555
  596MPD2    H3 8892   0.422   0.086  16.486  1.4100 -0.9002 -0.9991
  596MPD2     N 8893   0.629   0.367  16.191 -0.4839  0.2073 -0.2275
  596MPD2    H5 8894   0.610   0.294  16.123  2.9554 -0.6948 -0.2033
  596MPD2    N1 8895   0.483   0.519  16.641  0.3263 -0.1345  0.1276
  596MPD2    H7 8896   0.519   0.611  16.620  0.2085 -0.0866  0.1378
  597TMC3    C1 8897   0.373   0.653  16.805  0.7658 -0.1931  0.1570
  597TMC3    C2 8898   0.474   0.740  16.803  0.7208  0.0482 -0.1446
  597TMC3    C3 8899   0.446   0.868  16.847  0.0578  0.1739 -0.6422
  597TMC3    C4 8900   0.252   0.685  16.853 -0.4742  0.4902 -0.1666
  597TMC3    C5 8901   0.226   0.815  16.883 -0.5217 -0.8620  0.3739
  597TMC3    C6 8902   0.323   0.907  16.896 -0.2800  0.5592 -1.0801
  597TMC3     C 8903   0.388   0.520  16.739 -0.6263  0.0174 -0.3009
  597TMC3     O 8904   0.310   0.427  16.772  0.1988  0.1400  0.3085
  597TMC3     H 8905   0.573   0.707  16.774  1.1294  1.4953 -0.3933
  597TMC3    H1 8906   0.177   0.609  16.836  0.2585 -0.2469 -0.0940
  597TMC3    H2 8907   0.316   1.005  16.942  0.5790 -1.1737  2.7548
  597TMC3    C7 8908   0.100   0.836  16.939 -0.7075  1.1600 -0.4802
  597TMC3    C8 8909   0.538   0.965  16.784 -0.1304 -0.5229 -0.4423
  597TMC3    O1 8910   0.054   0.744  17.001  0.0421 -0.1304  0.0524
  597TMC3    O2 8911   0.643   0.926  16.748 -0.4065  0.4499 -0.2500
  598TMC3    C1 8912   3.443   2.018  15.401  0.0132 -0.1792  0.1432
  598TMC3    C2 8913   3.378   1.901  15.409  0.2195 -0.3666  0.3138
  598TMC3    C3 8914   3.299   1.866  15.304  0.0086  0.4106 -0.0071
  598TMC3    C4 8915   3.434   2.100  15.295  0.0955  0.0052  0.5412
  598TMC3    C5 8916   3.347   2.062  15.193 -0.3182  0.1628 -0.0712
  598TMC3    C6 8917   3.278   1.943  15.196  0.5080 -0.2584 -0.8319
  598TMC3     C 8918   3.524   2.065  15.510  0.3784 -0.2488  0.2643
  598TMC3     O 8919   3.554   2.182  15.505 -0.6006  0.1333 -0.0865
  598TMC3     H 8920   3.398   1.832  15.490 -1.6136 -0.1848  0.9317
  598TMC3    H1 8921   3.488   2.194  15.299  0.6023 -0.2907  0.6978
  598TMC3    H2 8922   3.205   1.906  15.125 -0.5990 -0.3498  0.3381
  598TMC3    C7 8923   3.355   2.122  15.057 -0.3476  0.0093  0.1258
  598TMC3    C8 8924   3.233   1.737  15.307  0.0085  0.3960  0.5765
  598TMC3    O1 8925   3.300   2.062  14.965  0.3683 -0.1482 -0.4314
  598TMC3    O2 8926   3.144   1.711  15.226 -0.4826  0.2828 -0.0438
  599MPD2     C 8927   3.734   3.957  15.896 -0.2626  0.4564  0.1093
  599MPD2    C1 8928   3.611   3.907  15.930  0.0353 -0.0955 -0.3901
  599MPD2    C2 8929   3.519   3.970  16.011  0.5516 -0.1724  0.3394
  599MPD2    C3 8930   3.552   4.103  16.048 -0.2473  0.5857  0.1930
  599MPD2    C4 8931   3.671   4.157  16.000  0.2120  0.1211  0.6456
  599MPD2    C5 8932   3.763   4.083  15.926 -0.5644  0.5301 -0.0509
  599MPD2     H 8933   3.426   3.928  16.048  0.7613 -1.2029 -0.2871
  599MPD2    H1 8934   3.699   4.257  16.030 -0.2523  0.7485 -0.9790
  599MPD2    H2 8935   3.804   3.904  15.832  1.1477  1.9123  0.4388
  599MPD2    H3 8936   3.866   4.111  15.906  0.5065 -2.2855  1.5678
  599MPD2     N 8937   3.457   4.185  16.115  0.5350  0.0786  0.1596
  599MPD2    H5 8938   3.485   4.277  16.147  0.3877  1.0622 -2.5280
  599MPD2    N1 8939   3.588   3.768  15.894  0.3859  0.2518 -0.0032
  599MPD2    H7 8940   3.670   3.722  15.855 -0.0500 -1.1216  0.6909
  600TMC3    C1 8941   3.232   4.276  16.166  0.0453  0.4476 -1.2210
  600TMC3    C2 8942   3.107   4.235  16.212 -0.5014  0.5243 -0.1431
  600TMC3    C3 8943   3.016   4.332  16.235 -0.1696  0.1627  0.8133
  600TMC3    C4 8944   3.270   4.406  16.143 -0.2465  0.2352 -0.7081
  600TMC3    C5 8945   3.164   4.499  16.166  1.0709 -0.1183 -0.3837
  600TMC3    C6 8946   3.038   4.463  16.210 -0.8584 -0.7194  0.7169
  600TMC3     C 8947   3.319   4.156  16.137 -0.0575  0.3611  0.4084
  600TMC3     O 8948   3.248   4.055  16.137 -0.1912  0.2216 -1.1560
  600TMC3     H 8949   3.070   4.133  16.219  1.3252 -0.1126  0.3417
  600TMC3    H1 8950   3.369   4.432  16.108  0.7533 -2.7298  0.0271
  600TMC3    H2 8951   2.969   4.542  16.235 -0.9148  0.1902 -2.2508
  600TMC3    C7 8952   3.192   4.637  16.200 -0.6019  0.0238 -0.5519
  600TMC3    C8 8953   2.907   4.310  16.325  0.0626  0.3722 -0.4614
  600TMC3    O1 8954   3.135   4.677  16.298 -0.2231  0.5390  0.2558
  600TMC3    O2 8955   2.873   4.192  16.345  0.2993 -0.2609  0.3757
  601MPD2     C 8956   0.556   2.407   0.329 -0.0240 -0.0399 -0.1894
  601MPD2    C1 8957   0.422   2.426   0.326 -0.2234  0.2687  0.0732
  601MPD2    C2 8958   0.347   2.379   0.435  0.8749  0.1983  0.2815
  601MPD2    C3 8959   0.404   2.341   0.552  0.0864 -0.9425 -0.4759
  601MPD2    C4 8960   0.536   2.353   0.564  0.1723  0.2153 -0.4950
  601MPD2    C5 8961   0.611   2.383   0.455 -0.1597  0.3823  0.2859
  601MPD2     H 8962   0.240   2.390   0.438  1.0194  2.1030 -1.5579
  601MPD2    H1 8963   0.588   2.342   0.659  2.2480  0.4955 -1.5954
  601MPD2    H2 8964   0.617   2.419   0.240 -0.8674 -0.1214 -0.7797
  601MPD2    H3 8965   0.717   2.378   0.478 -0.0932 -0.8904 -0.2866
  601MPD2     N 8966   0.340   2.302   0.672  0.3709 -0.6459 -0.4105
  601MPD2    H5 8967   0.389   2.302   0.761  1.8072 -2.8757 -1.1807
  601MPD2    N1 8968   0.353   2.475   0.213  0.7963  0.0862 -0.4559
  601MPD2    H7 8969   0.251   2.475   0.218  0.7867  2.9456 -0.5402
  602TMC3    C1 8970   0.324   2.609   0.018 -0.2902  0.3679  0.3072
  602TMC3    C2 8971   0.350   2.730  17.720 -0.3611  0.1234  0.6670
  602TMC3    C3 8972   0.254   2.778  17.635 -0.7593 -0.2716 -0.1200
  602TMC3    C4 8973   0.227   2.525  17.723 -0.6642  0.8128 -0.1167
  602TMC3    C5 8974   0.141   2.574  17.629 -0.5029 -0.6069  0.1712
  602TMC3    C6 8975   0.148   2.700  17.590 -0.0627  0.1157 -0.5538
  602TMC3     C 8976   0.410   2.558   0.122  0.2297  0.1288  0.0305
  602TMC3     O 8977   0.523   2.607   0.122 -0.0989  0.0750  0.7031
  602TMC3     H 8978   0.426   2.790   0.023 -0.6819 -0.7400  2.2245
  602TMC3    H1 8979   0.224   2.420   0.001 -1.2502  1.0974  1.0945
  602TMC3    H2 8980   0.091   2.729  17.503 -0.3601  0.5459 -0.2198
  602TMC3    C7 8981   0.023   2.493  17.602 -0.3997  0.7817 -0.3694
  602TMC3    C8 8982   0.245   2.927  17.622  0.2826 -0.1459  0.2203
  602TMC3    O1 8983   0.040   2.372  17.587 -0.2616  0.5584 -0.2437
  602TMC3    O2 8984   0.342   2.996  17.652 -0.0696  0.2127 -0.5689
  603TMC3    C1 8985   3.764   2.935  10.491  0.1691  0.7876 -0.1116
  603TMC3    C2 8986   3.843   2.879  10.592 -0.5898 -0.0733 -0.1869
  603TMC3    C3 8987   3.947   2.956  10.641  0.1635 -0.4995 -0.7615
  603TMC3    C4 8988   3.776   3.066  10.455 -0.0132 -0.8002 -0.0609
  603TMC3    C5 8989   3.881   3.141  10.509  0.3250 -0.0439  0.0667
  603TMC3    C6 8990   3.962   3.089  10.609  1.2389 -0.4108 -0.6215
  603TMC3     C 8991   3.660   2.864  10.423  0.2339  0.0716  0.5504
  603TMC3     O 8992   3.564   2.927  10.374 -0.3152 -0.2613 -0.2217
  603TMC3     H 8993   3.830   2.779  10.630 -0.7401 -0.4404 -1.2200
  603TMC3    H1 8994   3.712   3.101  10.375 -0.6774 -0.4052  0.6426
  603TMC3    H2 8995   4.045   3.157  10.625 -0.9252  1.6301  1.9516
  603TMC3    C7 8996   3.918   3.268  10.444 -0.2335  0.2675 -0.8631
  603TMC3    C8 8997   4.012   2.901  10.756 -0.0854 -0.2753  0.1457
  603TMC3    O1 8998   4.027   3.313  10.466  0.4048 -0.2064 -0.3958
  603TMC3    O2 8999   3.967   2.798  10.798 -0.2313 -0.0393 -0.2149
  604MPD2     C 9000   4.545   1.876  16.394  0.1571 -0.3384  0.5837
  604MPD2    C1 9001   4.430   1.833  16.329  0.3368 -0.4084  0.5848
  604MPD2    C2 9002   4.444   1.780  16.202  0.1020  0.1890  0.3193
  604MPD2    C3 9003   4.572   1.766  16.143  0.6569  0.2505 -0.0372
  604MPD2    C4 9004   4.688   1.814  16.216 -0.0471 -0.1501  0.4398
  604MPD2    C5 9005   4.666   1.865  16.337  0.7848  0.1632  0.0247
  604MPD2     H 9006   4.356   1.750  16.146  0.2444  1.1742 -0.4245
  604MPD2    H1 9007   0.053   1.815  16.179  0.7771 -1.5998  2.6760
  604MPD2    H2 9008   4.546   1.926  16.490  2.7916  0.2159  0.2602
  604MPD2    H3 9009   0.016   1.903  16.389  1.6331  1.1417 -2.1530
  604MPD2     N 9010   4.573   1.700  16.018  0.2037  0.1787 -0.1245
  604MPD2    H5 9011   4.487   1.669  15.975  0.8671 -0.3457 -1.0831
  604MPD2    N1 9012   4.313   1.855  16.399  0.4910  0.1115 -1.0849
  604MPD2    H7 9013   4.330   1.897  16.490  1.3454  0.4179 -1.3835
  605TMC3    C1 9014   4.077   1.861  16.451 -0.5516  0.7624 -0.2932
  605TMC3    C2 9015   4.113   1.906  16.577  0.2175 -0.0613  0.2054
  605TMC3    C3 9016   4.042   2.001  16.639  0.4215  0.5522 -0.3210
  605TMC3    C4 9017   3.972   1.928  16.391  0.1990  0.1559 -0.4757
  605TMC3    C5 9018   3.910   2.027  16.450  0.0216  0.0310 -0.2250
  605TMC3    C6 9019   3.928   2.054  16.585 -0.6914  0.0648  0.2509
  605TMC3     C 9020   4.188   1.815  16.361  0.2158 -0.0790 -0.5787
  605TMC3     O 9021   4.150   1.770  16.256  0.1476 -0.9365 -0.2108
  605TMC3     H 9022   4.191   1.858  16.635 -1.6165 -2.7170  0.4688
  605TMC3    H1 9023   3.958   1.904  16.286  0.3284 -1.4581 -0.1256
  605TMC3    H2 9024   3.874   2.133  16.636  1.1737  0.1964  2.0265
  605TMC3    C7 9025   3.804   2.097  16.380  0.1667 -0.3996  0.3976
  605TMC3    C8 9026   4.120   2.093  16.717  0.1703  0.7648 -0.4513
  605TMC3    O1 9027   3.814   2.214  16.364 -0.3760 -0.2738 -0.3703
  605TMC3    O2 9028   4.098   2.108  16.832  0.4601  0.5527 -0.1606
  606TMC3    C1 9029   4.733   0.389  17.423  0.0522 -0.3550  0.4978
  606TMC3    C2 9030   4.719   0.305  17.530 -0.2103 -0.8629  0.4923
  606TMC3    C3 9031   0.054   0.189  17.536 -0.2565 -0.8256  0.0298
  606TMC3    C4 9032   0.086   0.354  17.324 -0.4842  0.6683  0.6305
  606TMC3    C5 9033   0.150   0.231  17.335 -0.3908 -0.5524  0.6705
  606TMC3    C6 9034   0.140   0.147  17.438 -0.1173 -0.3381  0.3544
  606TMC3     C 9035   4.720   0.533  17.447 -0.1851  0.0982  0.3529
  606TMC3     O 9036   4.736   0.596  17.342 -0.3835 -0.1073 -0.0379
  606TMC3     H 9037   4.657   0.324  17.617 -0.3355  0.7476  0.0464
  606TMC3    H1 9038   0.099   0.422  17.241  2.1444 -0.4233  0.1256
  606TMC3    H2 9039   0.203   0.059  17.440 -1.1651 -1.1214 -2.5121
  606TMC3    C7 9040   0.228   0.190  17.221  0.4683  0.9562  0.1176
  606TMC3    C8 9041   0.066   0.125  17.665 -0.1479  0.6318 -0.1825
  606TMC3    O1 9042   0.274   0.275  17.152 -0.1038  0.7715 -0.8707
  606TMC3    O2 9043   0.034   0.192   0.015  0.0801  0.5151 -0.7460
  607MPD2     C 9044   3.174   3.712  11.134 -0.3849 -0.4415  0.2973
  607MPD2    C1 9045   3.285   3.772  11.200  0.1365 -0.3331  0.1430
  607MPD2    C2 9046   3.298   3.741  11.334  0.3964  0.0114 -0.2831
  607MPD2    C3 9047   3.236   3.639  11.399 -0.1315 -0.2726  0.1470
  607MPD2    C4 9048   3.141   3.568  11.333  0.7129 -0.0253 -0.8249
  607MPD2    C5 9049   3.111   3.608  11.201 -0.0696 -0.1547  0.3426
  607MPD2     H 9050   3.375   3.794  11.388  1.2065 -1.0792 -0.3591
  607MPD2    H1 9051   3.094   3.478  11.372 -0.5309  1.5612  1.3406
  607MPD2    H2 9052   3.144   3.726  11.031  0.2553  1.0748  0.3069
  607MPD2    H3 9053   3.034   3.559  11.142  1.7915 -0.8012 -1.5364
  607MPD2     N 9054   3.294   3.594  11.524 -0.0130  0.2063  0.4297
  607MPD2    H5 9055   3.361   3.658  11.565  1.1231 -1.2919  0.9128
  607MPD2    N1 9056   3.388   3.858  11.137  0.3107  0.4096 -0.0345
  607MPD2    H7 9057   3.466   3.895  11.191  1.8749 -1.0594 -1.3145
  608TMC3    C1 9058   3.530   3.907  10.962 -0.7636 -0.9108 -0.5633
  608TMC3    C2 9059   3.637   3.860  11.037 -0.6184 -0.3040  0.0633
  608TMC3    C3 9060   3.768   3.877  10.990  0.7062  0.1136  0.1599
  608TMC3    C4 9061   3.554   3.953  10.836 -0.9813  1.2176  0.1034
  608TMC3    C5 9062   3.682   3.979  10.803  0.7871 -0.3523 -0.0529
  608TMC3    C6 9063   3.793   3.938  10.876 -0.4075 -0.5570  0.3347
  608TMC3     C 9064   3.397   3.879  11.001  0.1580  0.1621  0.9178
  608TMC3     O 9065   3.304   3.865  10.919  0.2712 -0.1683 -0.2686
  608TMC3     H 9066   3.620   3.809  11.131 -0.9439  1.3148  0.8906
  608TMC3    H1 9067   3.473   3.965  10.764 -1.2502  0.1421  0.2284
  608TMC3    H2 9068   3.892   3.973  10.850 -0.0562 -1.6162  0.2281
  608TMC3    C7 9069   3.703   3.995  10.660 -0.3984  0.5195 -1.0221
  608TMC3    C8 9070   3.876   3.838  11.072  0.2387 -1.2715  0.0323
  608TMC3    O1 9071   3.605   4.012  10.597 -1.0350  0.1769  0.3739
  608TMC3    O2 9072   3.977   3.816  11.014 -0.4218 -0.1439  0.0091
  609TMC3    C1 9073   2.114   2.880   9.834  0.4693  0.6822  0.3199
  609TMC3    C2 9074   2.153   3.006   9.797 -0.8214 -0.1714  0.3729
  609TMC3    C3 9075   2.273   3.019   9.741 -0.1479 -0.0562  0.1364
  609TMC3    C4 9076   2.191   2.770   9.825 -0.0768 -0.2882  0.5110
  609TMC3    C5 9077   2.318   2.790   9.767  0.8143  0.4981  0.1411
  609TMC3    C6 9078   2.360   2.916   9.729  0.7197  0.6136 -0.4456
  609TMC3     C 9079   1.988   2.857   9.907 -0.8736 -0.7887 -0.2071
  609TMC3     O 9080   1.990   2.756   9.974 -0.2461 -0.1265 -0.0468
  609TMC3     H 9081   2.099   3.086   9.846 -0.5342  0.2982 -0.0861
  609TMC3    H1 9082   2.167   2.676   9.872 -1.4724  0.9629  2.3025
  609TMC3    H2 9083   2.457   2.926   9.682  1.1100 -0.3213  0.1700
  609TMC3    C7 9084   2.428   2.692   9.749 -0.7910 -0.2737 -0.8562
  609TMC3    C8 9085   2.329   3.147   9.705 -0.3635  0.8695 -0.5785
  609TMC3    O1 9086   2.539   2.736   9.732  0.1767 -0.5496 -0.2015
  609TMC3    O2 9087   2.448   3.162   9.703 -0.5425 -0.3514  0.2060
  610TMC3    C1 9088   3.632   3.231  12.167 -0.1062  0.4126 -0.0228
  610TMC3    C2 9089   3.725   3.248  12.065 -0.2441  0.1986  0.5603
  610TMC3    C3 9090   3.828   3.160  12.065 -0.3452 -0.5113  0.1508
  610TMC3    C4 9091   3.656   3.132  12.266  0.1558 -0.3251  0.3171
  610TMC3    C5 9092   3.763   3.052  12.262 -0.0032 -0.3852 -0.7553
  610TMC3    C6 9093   3.849   3.064  12.158 -0.7144  0.5334  0.3913
  610TMC3     C 9094   3.555   3.350  12.193  0.9520  0.3227  0.0002
  610TMC3     O 9095   3.603   3.459  12.156 -0.0172 -0.0194 -0.2313
  610TMC3     H 9096   3.715   3.330  11.995 -1.2313 -2.9761 -3.0363
  610TMC3    H1 9097   3.588   3.117  12.350 -1.6743  2.8846 -0.6017
  610TMC3    H2 9098   3.932   2.995  12.150 -0.3338  1.0951 -0.4254
  610TMC3    C7 9099   3.801   2.958  12.366  0.7866  0.3494 -0.4101
  610TMC3    C8 9100   3.925   3.197  11.963 -0.1157  0.0150  0.5701
  610TMC3    O1 9101   3.900   2.892  12.349 -0.0450  0.3824 -0.4642
  610TMC3    O2 9102   3.885   3.239  11.859  0.2763  0.3447  0.2571
  611MPD2     C 9103   2.629   3.560  10.403 -0.2041 -0.3215  0.5992
  611MPD2    C1 9104   2.717   3.458  10.363 -0.2136  0.1992  0.3507
  611MPD2    C2 9105   2.811   3.497  10.274  0.4297  0.0674 -0.0181
  611MPD2    C3 9106   2.824   3.634  10.227  0.4108  0.0789  0.1682
  611MPD2    C4 9107   2.740   3.733  10.279  0.4951 -0.1414 -0.3584
  611MPD2    C5 9108   2.642   3.690  10.364 -0.5471 -0.4033  0.5907
  611MPD2     H 9109   2.871   3.422  10.224  0.3833  0.8259 -1.2042
  611MPD2    H1 9110   2.729   3.836  10.247  0.7314 -0.4625 -1.5001
  611MPD2    H2 9111   2.554   3.539  10.479  0.2226 -0.8940  0.8585
  611MPD2    H3 9112   2.578   3.770  10.400 -0.8920  0.5168 -2.0261
  611MPD2     N 9113   2.923   3.674  10.133  0.1041  0.1793  0.0509
  611MPD2    H5 9114   2.908   3.768  10.100 -0.9604  0.0779  0.2458
  611MPD2    N1 9115   2.704   3.326  10.407  0.1555  0.2140  0.0125
  611MPD2    H7 9116   2.627   3.311  10.472  0.2574 -0.5607 -0.0498
  612TMC3    C1 9117   3.146   3.690  10.051  0.1805 -0.1794  0.1626
  612TMC3    C2 9118   3.274   3.691  10.097 -0.2964 -0.3696 -0.2081
  612TMC3    C3 9119   3.366   3.755  10.016 -0.2916  0.2994 -0.7219
  612TMC3    C4 9120   3.105   3.739   9.932  0.4691  0.7935  0.1319
  612TMC3    C5 9121   3.199   3.797   9.853  0.3859  0.4641  0.1668
  612TMC3    C6 9122   3.336   3.796   9.891 -0.6160 -0.4956  0.2876
  612TMC3     C 9123   3.051   3.616  10.130 -0.1106 -0.0836  0.1205
  612TMC3     O 9124   3.096   3.539  10.213  0.2328 -0.0657 -0.1840
  612TMC3     H 9125   3.304   3.661  10.197 -2.7530  0.1753  0.7109
  612TMC3    H1 9126   3.005   3.710   9.902  1.1308 -1.5424  0.1864
  612TMC3    H2 9127   3.408   3.841   9.824 -1.5292  0.6465  0.0625
  612TMC3    C7 9128   3.168   3.863   9.730 -0.1940  0.0772 -0.2697
  612TMC3    C8 9129   3.511   3.727  10.031 -0.2652 -0.2011 -0.0735
  612TMC3    O1 9130   3.252   3.873   9.641 -0.3292 -0.2501  0.2161
  612TMC3    O2 9131   3.589   3.796   9.963 -0.2161 -0.2896  0.0723
  613MPD2     C 9132   2.021   0.219  16.398 -0.0364  0.1411  0.0895
  613MPD2    C1 9133   2.107   0.221  16.289 -0.5386  0.1804  0.3210
  613MPD2    C2 9134   2.071   0.136  16.186  0.9401  0.3329 -0.2632
  613MPD2    C3 9135   1.945   0.075  16.185  0.1790 -0.2691  0.1249
  613MPD2    C4 9136   1.862   0.079  16.294 -0.0793  0.5308 -0.0821
  613MPD2    C5 9137   1.905   0.147  16.404  0.6479 -0.1165 -0.0120
  613MPD2     H 9138   2.143   0.119  16.107 -0.4712  1.8296 -1.8618
  613MPD2    H1 9139   1.761   0.039  16.295 -0.2076  0.8226 -1.5462
  613MPD2    H2 9140   2.047   0.275  16.488  1.3610  0.0525 -0.2674
  613MPD2    H3 9141   1.844   0.138  16.493  1.0870 -3.5433 -0.0485
  613MPD2     N 9142   1.909   0.001  16.066  0.4898 -0.2101  0.0681
  613MPD2    H5 9143   1.985   4.731  15.998  1.6486 -1.3137  1.4549
  613MPD2    N1 9144   2.219   0.305  16.274 -0.0975  0.0483  0.6353
  613MPD2    H7 9145   2.281   0.290  16.195 -3.3634  0.9088 -2.0635
  614TMC3    C1 9146   2.372   0.476  16.305  0.2532  0.7915 -0.4202
  614TMC3    C2 9147   2.437   0.392  16.221  0.0667  0.6412  0.1220
  614TMC3    C3 9148   2.467   0.427  16.092 -0.5076  0.3187 -0.2520
  614TMC3    C4 9149   2.349   0.603  16.259 -0.7741 -0.5605  0.1983
  614TMC3    C5 9150   2.382   0.645  16.135 -0.2188 -0.1284 -0.0755
  614TMC3    C6 9151   2.435   0.558  16.048 -0.5087 -0.4802  0.1086
  614TMC3     C 9152   2.250   0.410  16.352  0.3798 -0.6403 -0.1197
  614TMC3     O 9153   2.179   0.477  16.425 -0.1719 -0.2696  0.1967
  614TMC3     H 9154   2.443   0.289  16.253  0.3854  0.5319 -0.2873
  614TMC3    H1 9155   2.296   0.673  16.322 -1.4209 -1.2941  0.4681
  614TMC3    H2 9156   2.455   0.594  15.948 -1.2337 -0.0671  0.1188
  614TMC3    C7 9157   2.294   0.746  16.080 -0.1357  0.6334 -0.1555
  614TMC3    C8 9158   2.440   0.325  15.993  0.1364  0.5020  0.3802
  614TMC3    O1 9159   2.252   0.833  16.157 -0.6119  0.2499 -0.4131
  614TMC3    O2 9160   2.377   0.230  16.043 -0.6394  1.0261 -0.2335
  615MPD2     C 9161   1.255   1.768  16.085 -0.1989 -0.4517  0.5380
  615MPD2    C1 9162   1.214   1.899  16.075  0.0209  0.3023  0.0147
  615MPD2    C2 9163   1.169   1.952  15.960  0.4583  0.3335  0.4283
  615MPD2    C3 9164   1.142   1.874  15.847  0.7853 -0.3218  0.0940
  615MPD2    C4 9165   1.161   1.742  15.858 -0.4431  0.4541  0.2536
  615MPD2    C5 9166   1.219   1.689  15.978  0.2291 -0.2134  0.6098
  615MPD2     H 9167   1.146   2.058  15.962 -2.7547 -0.3818  2.0795
  615MPD2    H1 9168   1.153   1.672  15.776  1.9129  1.7121 -1.0561
  615MPD2    H2 9169   1.273   1.714  16.177  3.4399 -0.1133  0.0052
  615MPD2    H3 9170   1.242   1.584  15.992  1.1576 -0.1155 -0.1826
  615MPD2     N 9171   1.106   1.935  15.724  0.0580  0.5431  0.2019
  615MPD2    H5 9172   1.096   2.035  15.737 -1.2886  0.7983 -2.8545
  615MPD2    N1 9173   1.239   1.979  16.193 -0.5171 -0.1293  0.1541
  615MPD2    H7 9174   1.222   2.079  16.183 -2.4492 -0.4591  0.1965
  616TMC3    C1 9175   1.294   2.050  16.405 -0.2981  0.4799  0.1679
  616TMC3    C2 9176   1.414   2.050  16.471 -0.4158  0.3037  0.1099
  616TMC3    C3 9177   1.455   2.164  16.537 -0.2858 -0.5335  0.0781
  616TMC3    C4 9178   1.213   2.157  16.403 -0.0517 -0.8841 -0.0452
  616TMC3    C5 9179   1.249   2.268  16.482 -0.0833 -0.3151 -0.4177
  616TMC3    C6 9180   1.369   2.276  16.549  0.8688 -0.1613  0.6555
  616TMC3     C 9181   1.292   1.939  16.312 -0.4773  0.4819 -0.5284
  616TMC3     O 9182   1.328   1.830  16.353  0.2551  0.1722  0.5395
  616TMC3     H 9183   1.484   1.969  16.461 -2.4964 -1.2280 -2.0285
  616TMC3    H1 9184   1.115   2.146  16.358  0.5283  1.4757 -1.8743
  616TMC3    H2 9185   1.387   2.358  16.618  1.2455  1.5153 -1.4627
  616TMC3    C7 9186   1.166   2.385  16.465 -0.8145 -0.3543 -0.2564
  616TMC3    C8 9187   1.578   2.155  16.602  0.2164 -0.1923 -0.5518
  616TMC3    O1 9188   1.087   2.375  16.369 -0.1931 -0.0983 -0.5156
  616TMC3    O2 9189   1.613   2.044  16.631  0.5620  0.1967  0.1249
  617MPD2     C 9190   4.554   0.073  13.298 -0.8012 -0.4120  0.0835
  617MPD2    C1 9191   4.484   0.157  13.380 -0.1115 -0.8717  0.5262
  617MPD2    C2 9192   4.362   0.116  13.426  0.4108 -0.7905  0.1198
  617MPD2    C3 9193   4.311   4.721  13.391  0.1396  0.2833 -0.3906
  617MPD2    C4 9194   4.393   4.637  13.321  0.2157 -0.1498 -0.1014
  617MPD2    C5 9195   4.510   4.681  13.272  1.0831 -0.0370  0.7708
  617MPD2     H 9196   4.301   0.192  13.474 -1.3691 -3.0943  1.5391
  617MPD2    H1 9197   4.357   4.538  13.296  2.2145 -0.8125 -0.3598
  617MPD2    H2 9198   4.654   0.095  13.262 -1.3339 -0.5974 -1.5055
  617MPD2    H3 9199   4.576   4.617  13.214  0.5385  1.1281 -1.1146
  617MPD2     N 9200   4.186   4.676  13.432 -0.1278  0.0109  0.2787
  617MPD2    H5 9201   4.166   4.581  13.403 -0.9219 -0.4069  2.2491
  617MPD2    N1 9202   4.539   0.286  13.397  0.3678 -0.2799  0.0565
  617MPD2    H7 9203   4.607   0.317  13.328 -0.7470 -0.9697 -1.3440
  618TMC3    C1 9204   4.629   0.454  13.527  0.3593  0.8643  0.2786
  618TMC3    C2 9205   4.706   0.455  13.636  0.1613  0.3724 -0.0645
  618TMC3    C3 9206   0.087   0.519  13.634  0.3657  0.4930  0.2752
  618TMC3    C4 9207   4.665   0.521  13.416 -0.0366 -0.6561  0.3908
  618TMC3    C5 9208   0.050   0.579  13.413  0.3524  0.4121  0.3473
  618TMC3    C6 9209   0.130   0.598  13.528 -0.3253 -0.2900  0.2780
  618TMC3     C 9210   4.537   0.348  13.516 -0.8583 -0.1645 -0.1565
  618TMC3     O 9211   4.496   0.305  13.621  0.4650  0.5296  0.1782
  618TMC3     H 9212   4.690   0.378  13.711 -0.6400  0.2272 -0.3903
  618TMC3    H1 9213   4.597   0.543  13.334  0.4538  2.9089  0.9520
  618TMC3    H2 9214   0.221   0.657  13.529 -0.6114  0.1357  1.1239
  618TMC3    C7 9215   0.067   0.674  13.299  0.1913 -0.4374  0.1295
  618TMC3    C8 9216   0.195   0.493  13.733  0.1713 -0.0107  0.6910
  618TMC3    O1 9217   4.702   0.735  13.266 -0.2120 -0.1382 -0.2475
  618TMC3    O2 9218   0.166   0.458  13.847  0.2022  0.6041  0.4094
  619MPD2     C 9219   1.111   1.374  13.475  0.3334 -0.0111 -0.1797
  619MPD2    C1 9220   1.023   1.476  13.451 -0.1230  0.0679  0.1381
  619MPD2    C2 9221   0.890   1.467  13.489  0.2840  0.3607 -0.8405
  619MPD2    C3 9222   0.839   1.348  13.547  0.2155 -0.2313  0.4608
  619MPD2    C4 9223   0.927   1.239  13.555 -0.1164  0.0912  0.2485
  619MPD2    C5 9224   1.061   1.261  13.525  0.1704  0.7304  0.1562
  619MPD2     H 9225   0.829   1.553  13.469  0.0215  0.8494  2.0318
  619MPD2    H1 9226   0.888   1.144  13.588  0.8761  0.6463  2.9797
  619MPD2    H2 9227   1.218   1.391  13.476  0.4006 -0.4210 -0.0725
  619MPD2    H3 9228   1.125   1.175  13.542  0.7154  1.9684  4.3696
  619MPD2     N 9229   0.699   1.339  13.588 -0.5115 -0.5003 -0.0581
  619MPD2    H5 9230   0.683   1.255  13.642  0.2343 -2.5150 -2.9650
  619MPD2    N1 9231   1.061   1.591  13.385  0.5430 -0.5502  0.3981
  619MPD2    H7 9232   0.993   1.665  13.369 -0.6190 -1.7429 -0.0967
  620TMC3    C1 9233   1.175   1.736  13.247 -0.1777  0.2042 -0.2421
  620TMC3    C2 9234   1.055   1.762  13.189 -0.8459  1.0498 -0.9146
  620TMC3    C3 9235   1.015   1.883  13.147 -0.4266 -0.4338 -0.0647
  620TMC3    C4 9236   1.266   1.839  13.263  0.5890 -0.4075 -0.4236
  620TMC3    C5 9237   1.216   1.963  13.227  0.9171 -0.5009  0.0429
  620TMC3    C6 9238   1.102   1.992  13.169  0.3131 -0.0940 -0.1827
  620TMC3     C 9239   1.181   1.617  13.333 -0.0067 -0.0807 -0.1593
  620TMC3     O 9240   1.291   1.566  13.340  0.5738 -0.4010  0.3172
  620TMC3     H 9241   0.987   1.680  13.170  1.4461 -0.8754 -0.8937
  620TMC3    H1 9242   1.351   1.820  13.327 -0.9087 -0.0006  1.6657
  620TMC3    H2 9243   1.074   2.093  13.141 -2.0341 -0.7677 -0.2680
  620TMC3    C7 9244   1.282   2.078  13.278  0.1325 -0.5248  0.1790
  620TMC3    C8 9245   0.872   1.903  13.178 -0.6678  0.4004  0.2052
  620TMC3    O1 9246   1.268   2.180  13.213  0.0574  0.1323  0.1353
  620TMC3    O2 9247   0.816   1.817  13.240 -0.3637 -0.1392  0.3382
  621MPD2     C 9248   1.762   1.500   9.954  0.2437 -0.1918  0.4757
  621MPD2    C1 9249   1.871   1.465  10.025 -0.3843  0.1349 -0.1108
  621MPD2    C2 9250   1.963   1.564  10.043  0.2259 -1.0107 -0.7109
  621MPD2    C3 9251   1.952   1.695   9.997  0.4204 -0.3848 -0.4188
  621MPD2    C4 9252   1.839   1.728   9.926 -0.2227  0.2275  0.3866
  621MPD2    C5 9253   1.750   1.629   9.909 -0.4255  0.5776  0.1563
  621MPD2     H 9254   2.053   1.539  10.098 -0.6836 -2.0881  0.2776
  621MPD2    H1 9255   1.824   1.824   9.879  1.1505  0.5406  0.5700
  621MPD2    H2 9256   1.679   1.433   9.935  3.2026 -3.3035 -1.5591
  621MPD2    H3 9257   1.660   1.649   9.852  0.7800  0.3896 -1.8376
  621MPD2     N 9258   2.060   1.778  10.027  0.4282 -0.2183 -0.6973
  621MPD2    H5 9259   2.131   1.740  10.088 -0.2076 -0.0874  0.1320
  621MPD2    N1 9260   1.887   1.340  10.091  0.6358 -0.4737  0.4650
  621MPD2    H7 9261   1.964   1.328  10.157  1.6831 -0.0110 -0.6782
  622TMC3    C1 9262   1.841   1.114  10.138 -0.3908  0.3517  0.1329
  622TMC3    C2 9263   1.823   1.121  10.269  0.0709  1.0448 -0.0232
  622TMC3    C3 9264   1.811   1.007  10.336 -0.5428  0.1578  1.4586
  622TMC3    C4 9265   1.847   0.998  10.065 -0.0952  0.1634 -0.2908
  622TMC3    C5 9266   1.834   0.883  10.135  0.5464 -0.1000  0.4642
  622TMC3    C6 9267   1.823   0.881  10.276  0.2123 -0.0282  0.6303
  622TMC3     C 9268   1.806   1.232  10.063  0.3090  0.4400 -0.6396
  622TMC3     O 9269   1.728   1.220   9.970 -0.1744 -0.1254  0.7758
  622TMC3     H 9270   1.823   1.218  10.317 -1.6197  1.3637 -0.6523
  622TMC3    H1 9271   1.887   1.005   9.964 -2.6842  1.1054 -1.2381
  622TMC3    H2 9272   1.820   0.787  10.329  1.2538 -1.1448 -1.2812
  622TMC3    C7 9273   1.754   0.772  10.076 -0.2754 -0.1741  0.6503
  622TMC3    C8 9274   1.794   1.025  10.475 -0.0530 -0.3628 -0.0337
  622TMC3    O1 9275   1.729   0.680  10.153  0.0930  0.3793 -0.5968
  622TMC3    O2 9276   1.860   0.944  10.541 -0.7138 -0.0809  0.2148
  623MPD2     C 9277   0.059   2.088  15.561 -0.3094 -0.0535  0.1191
  623MPD2    C1 9278   0.026   2.211  15.609  0.2084 -0.3008  0.1498
  623MPD2    C2 9279   0.036   2.226  15.750  0.5477 -0.4012 -0.4380
  623MPD2    C3 9280   0.080   2.127  15.830  0.3263  0.7648  0.4146
  623MPD2    C4 9281   0.116   2.010  15.774 -0.2827 -0.0590 -0.0744
  623MPD2    C5 9282   0.110   1.990  15.643 -0.0561  0.9973  0.2662
  623MPD2     H 9283   0.009   2.313  15.809 -1.1895 -0.8130 -0.6268
  623MPD2    H1 9284   0.137   1.921  15.833  0.7515  0.9847  1.1176
  623MPD2    H2 9285   0.060   2.059  15.457  0.1380 -2.3846  0.7526
  623MPD2    H3 9286   0.136   1.894  15.599 -0.9313 -0.2331  2.4459
  623MPD2     N 9287   0.107   2.156  15.965  0.4417 -0.0407  0.1131
  623MPD2    H5 9288   0.066   2.241  15.999  0.0625  0.3879 -1.4144
  623MPD2    N1 9289   4.711   2.318  15.525 -0.0900 -0.2321  0.1440
  623MPD2    H7 9290   4.677   2.296  15.432  0.1565  1.0838 -0.2573
  624TMC3    C1 9291   0.317   2.075  16.369  0.0410  0.2985 -0.5228
  624TMC3    C2 9292   0.211   2.116  16.444 -0.0493 -1.0663 -0.4822
  624TMC3    C3 9293   0.107   2.175  16.372  0.5406 -0.4656 -0.3315
  624TMC3    C4 9294   0.313   2.086  16.238 -0.9886  0.0559  0.3178
  624TMC3    C5 9295   0.210   2.136  16.173 -0.6491 -0.7172 -0.5589
  624TMC3    C6 9296   0.103   2.184  16.235  0.3299  1.1868  0.2000
  624TMC3     C 9297   0.435   2.017  16.440  0.4541  0.3817  0.5853
  624TMC3     O 9298   0.410   1.962  16.548  0.9449 -0.1678 -0.0370
  624TMC3     H 9299   0.210   2.107  16.552  1.1447  0.3619 -0.3402
  624TMC3    H1 9300   0.404   2.066  16.183 -0.7873  0.1735  0.6081
  624TMC3    H2 9301   0.016   2.217  16.179  0.3098 -2.9142 -2.2000
  624TMC3    C7 9302   0.199   2.087  16.042  0.1781  0.5167  0.3957
  624TMC3    C8 9303   4.717   2.193  16.443  0.9623  0.4211 -0.3500
  624TMC3    O1 9304   0.271   1.994  16.008 -0.3679  0.4762 -0.2917
  624TMC3    O2 9305   4.625   2.227  16.368  0.1921  0.0417 -0.2515
  625MPD2     C 9306   0.409   2.941   0.570 -0.0594  0.7001 -0.2868
  625MPD2    C1 9307   0.412   3.049   0.659 -0.6656 -0.0876  0.4639
  625MPD2    C2 9308   0.539   3.085   0.718 -0.5021  0.6756 -0.1388
  625MPD2    C3 9309   0.652   3.008   0.693 -0.4600 -0.9653 -0.5135
  625MPD2    C4 9310   0.643   2.910   0.603 -0.0150  0.4250 -0.2050
  625MPD2    C5 9311   0.523   2.875   0.548  0.0442  0.3325  0.3312
  625MPD2     H 9312   0.547   3.153   0.802  2.0015  2.0274 -1.4900
  625MPD2    H1 9313   0.729   2.848   0.580  0.9500  0.6337  2.9872
  625MPD2    H2 9314   0.315   2.905   0.529 -0.3114  0.7510  0.2487
  625MPD2    H3 9315   0.523   2.797   0.473  0.2887  1.4087 -0.7835
  625MPD2     N 9316   0.771   3.032   0.769 -0.7591  0.0733  0.4475
  625MPD2    H5 9317   0.761   3.090   0.852 -0.7295  0.2466  0.3289
  625MPD2    N1 9318   0.294   3.112   0.703 -0.0704  0.0829 -0.2612
  625MPD2    H7 9319   0.312   3.190   0.766 -2.5985 -0.6059  1.3243
  626TMC3    C1 9320   0.078   3.217   0.674  0.0389 -0.3891  0.3630
  626TMC3    C2 9321   4.708   3.243   0.582  0.2445 -0.1221  0.2468
  626TMC3    C3 9322   4.616   3.340   0.609  0.5200 -0.2505 -0.3575
  626TMC3    C4 9323   0.091   3.296   0.784 -0.1976  0.2201  0.1307
  626TMC3    C5 9324   4.734   3.398   0.803  0.7128  0.3844  0.6553
  626TMC3    C6 9325   4.631   3.420   0.718  0.3500  0.3017 -0.1928
  626TMC3     C 9326   0.171   3.103   0.640 -0.4430  0.2218 -0.4026
  626TMC3     O 9327   0.142   3.036   0.542  0.2853 -0.3601 -0.1096
  626TMC3     H 9328   4.709   3.194   0.485 -1.8227  1.2155 -0.4727
  626TMC3    H1 9329   0.159   3.290   0.868  2.0515  0.2181 -1.6748
  626TMC3    H2 9330   4.559   3.500   0.734  0.0283 -0.3606  1.6420
  626TMC3    C7 9331   4.734   3.457   0.936 -0.0534  0.3690 -0.3669
  626TMC3    C8 9332   4.540   3.389   0.496 -0.9207  0.2539 -0.1183
  626TMC3    O1 9333   0.105   3.458   0.993  0.4631 -0.9171 -0.4269
  626TMC3    O2 9334   4.548   3.506   0.466  0.0195  0.0766 -0.6697
  627MPD2     C 9335   3.483   3.775  14.172  0.0123 -0.6670 -0.2042
  627MPD2    C1 9336   3.535   3.745  14.298  0.6000 -0.3058 -0.7537
  627MPD2    C2 9337   3.481   3.636  14.372 -0.0504 -0.8794 -0.3590
  627MPD2    C3 9338   3.374   3.564  14.327 -0.2010 -0.0007 -0.4437
  627MPD2    C4 9339   3.327   3.594  14.203  0.5413 -0.3695  0.8239
  627MPD2    C5 9340   3.380   3.696  14.131 -0.1538  0.3771 -0.4907
  627MPD2     H 9341   3.518   3.621  14.472  0.2300  1.4633 -0.1096
  627MPD2    H1 9342   3.249   3.531  14.161  0.5432  0.0731  0.1461
  627MPD2    H2 9343   3.528   3.845  14.103 -1.4736 -0.0648 -0.5740
  627MPD2    H3 9344   3.351   3.707  14.027 -1.5357 -0.7091 -0.2236
  627MPD2     N 9345   3.316   3.459  14.406  0.0507 -0.4911  0.4095
  627MPD2    H5 9346   3.353   3.448  14.500  0.2135  1.0671  0.5190
  627MPD2    N1 9347   3.648   3.817  14.352 -0.0975  0.4607 -0.3453
  627MPD2    H7 9348   3.695   3.773  14.431 -0.2360 -3.2946 -2.3446
  628TMC3    C1 9349   3.805   3.983  14.354  0.4113 -0.6596  0.8131
  628TMC3    C2 9350   3.886   3.899  14.422  0.3569  0.2311 -0.1169
  628TMC3    C3 9351   4.009   3.955  14.455 -0.2483  0.1780 -0.0182
  628TMC3    C4 9352   3.827   4.115  14.326  0.9971  0.2690  0.0055
  628TMC3    C5 9353   3.952   4.156  14.369  0.7612  0.8509 -0.2577
  628TMC3    C6 9354   4.042   4.087  14.446  0.0901 -0.6631  0.1523
  628TMC3     C 9355   3.688   3.926  14.295  0.0194  0.1805 -0.4763
  628TMC3     O 9356   3.652   3.989  14.195 -0.5064  0.3003 -0.2225
  628TMC3     H 9357   3.864   3.793  14.428  0.2021  0.2377 -0.5786
  628TMC3    H1 9358   3.760   4.184  14.276 -2.2605 -2.5187  0.5768
  628TMC3    H2 9359   4.144   4.122  14.454  0.0905  0.2231 -3.5907
  628TMC3    C7 9360   3.992   4.294  14.341 -0.1891  0.0150  0.2432
  628TMC3    C8 9361   4.107   3.874  14.533 -0.5444  0.4272 -0.6162
  628TMC3    O1 9362   4.079   4.343  14.411  0.0332 -0.0702  0.0567
  628TMC3    O2 9363   4.216   3.913  14.550 -0.1782  0.1680  0.0068
  629MPD2     C 9364   2.008   2.312  16.846 -0.0424 -0.1394  0.2286
  629MPD2    C1 9365   1.967   2.404  16.762  0.2495 -0.3592  0.6205
  629MPD2    C2 9366   1.842   2.390  16.692  0.2353 -0.8723 -0.0444
  629MPD2    C3 9367   1.769   2.274  16.702  0.4682  0.5430 -0.4088
  629MPD2    C4 9368   1.814   2.173  16.791 -0.1756 -0.5051 -0.1339
  629MPD2    C5 9369   1.932   2.195  16.860  0.6773  0.3211  0.2322
  629MPD2     H 9370   1.811   2.469  16.624 -2.3280 -1.9069 -0.1083
  629MPD2    H1 9371   1.758   2.081  16.791  0.1556 -0.7062 -1.2398
  629MPD2    H2 9372   2.098   2.321  16.907 -1.0294 -1.3140  1.8530
  629MPD2    H3 9373   1.975   2.114  16.917 -0.5430  0.3174  1.1456
  629MPD2     N 9374   1.640   2.276  16.633 -0.7770  0.3079 -0.3931
  629MPD2    H5 9375   1.608   2.356  16.579 -2.0320  1.6819  2.4316
  629MPD2    N1 9376   2.061   2.509  16.732  0.0410  0.1403  0.4117
  629MPD2    H7 9377   2.156   2.508  16.768 -0.5788 -1.6918  1.9991
  630TMC3    C1 9378   2.155   2.693  16.636 -0.4499  0.2345 -0.1534
  630TMC3    C2 9379   2.151   2.820  16.594  0.3240  0.5424  0.4019
  630TMC3    C3 9380   2.269   2.881  16.566 -0.2810 -0.6314  0.2296
  630TMC3    C4 9381   2.275   2.621  16.647  0.0270 -0.5876 -0.0567
  630TMC3    C5 9382   2.389   2.688  16.620 -0.7441 -0.0143 -0.1307
  630TMC3    C6 9383   2.387   2.817  16.580  0.4532 -0.0449 -0.4801
  630TMC3     C 9384   2.025   2.617  16.660 -0.1011  0.6477  0.3346
  630TMC3     O 9385   1.926   2.671  16.621 -0.1996 -0.8750 -0.0911
  630TMC3     H 9386   2.056   2.868  16.576 -0.5982 -2.5753 -3.0298
  630TMC3    H1 9387   2.267   2.515  16.626 -0.4671 -0.4316 -0.6466
  630TMC3    H2 9388   2.478   2.873  16.560 -0.7046  1.7876 -0.6352
  630TMC3    C7 9389   2.503   2.626  16.686  0.2069 -0.4282 -0.2433
  630TMC3    C8 9390   2.268   3.013  16.515  0.1862  0.2130 -0.5618
  630TMC3    O1 9391   2.488   2.514  16.733 -0.2809  0.0320 -1.1014
  630TMC3    O2 9392   2.348   3.032  16.427 -0.5048 -0.3503 -0.3244
  631MPD2     C 9393   0.606   2.666  15.568  0.5910  0.1759 -0.3843
  631MPD2    C1 9394   0.697   2.688  15.469 -0.1512  0.0818  0.3601
  631MPD2    C2 9395   0.759   2.581  15.409 -0.0926 -0.1676 -0.4094
  631MPD2    C3 9396   0.753   2.452  15.456 -0.1867 -0.5589 -0.0671
  631MPD2    C4 9397   0.660   2.434  15.552 -0.7047 -0.2950  0.4997
  631MPD2    C5 9398   0.584   2.539  15.606 -0.4166 -0.4386  0.2703
  631MPD2     H 9399   0.830   2.601  15.330  0.7044  0.1864  0.3899
  631MPD2    H1 9400   0.642   2.335  15.595 -1.0168 -0.3561  0.2283
  631MPD2    H2 9401   0.549   2.748  15.610  1.3774  0.3716  0.2985
  631MPD2    H3 9402   0.501   2.513  15.671  0.6796 -0.5969  1.6106
  631MPD2     N 9403   0.832   2.346  15.396 -0.8044  0.3148 -1.0900
  631MPD2    H5 9404   0.892   2.376  15.320 -0.7829  2.4138 -0.2589
  631MPD2    N1 9405   0.704   2.824  15.433 -0.3976  0.1822 -0.3444
  631MPD2    H7 9406   0.652   2.890  15.490 -1.9427 -2.2868  1.0661
  632TMC3    C1 9407   0.760   3.019  15.313  0.2833 -0.0077 -0.4025
  632TMC3    C2 9408   0.634   3.063  15.325  0.5703 -0.5528  0.0204
  632TMC3    C3 9409   0.588   3.147  15.230  0.3137 -0.5304  0.2523
  632TMC3    C4 9410   0.833   3.053  15.205 -0.2965 -0.9541  0.5156
  632TMC3    C5 9411   0.785   3.136  15.107 -0.2578 -0.1356  0.7008
  632TMC3    C6 9412   0.659   3.189  15.121 -0.4626 -0.8851 -0.5162
  632TMC3     C 9413   0.789   2.876  15.338  0.0415  0.3622  0.1392
  632TMC3     O 9414   0.877   2.820  15.272  0.1259  0.9669  0.3345
  632TMC3     H 9415   0.563   3.034  15.401 -0.4896 -0.1089 -0.7951
  632TMC3    H1 9416   0.940   3.037  15.204 -0.3331 -1.0749 -1.3433
  632TMC3    H2 9417   0.628   3.253  15.038  0.5840  2.1251  1.4030
  632TMC3    C7 9418   0.816   3.092  14.972  0.1212  0.1395  0.4745
  632TMC3    C8 9419   0.462   3.218  15.264 -0.3009  0.3094 -0.0132
  632TMC3    O1 9420   0.782   3.163  14.879 -0.1710 -0.5012 -0.0494
  632TMC3    O2 9421   0.442   3.233  15.381  0.3936  0.0127  0.4684
  633MPD2     C 9422   4.609   4.714  16.967 -0.4128 -0.0457  0.4694
  633MPD2    C1 9423   4.608   4.651  16.846 -0.1356 -0.0268  0.3935
  633MPD2    C2 9424   4.614   4.512  16.845 -0.1669  0.0707  0.2471
  633MPD2    C3 9425   4.622   4.443  16.964 -0.0859 -0.5571 -0.3982
  633MPD2    C4 9426   4.626   4.511  17.080 -0.0171 -0.2336 -0.0005
  633MPD2    C5 9427   4.620   4.645  17.081  0.1159  0.6450  0.3871
  633MPD2     H 9428   4.624   4.468  16.746 -0.2622 -0.8395  0.6403
  633MPD2    H1 9429   4.643   4.463  17.176  1.3758  0.5386  0.1421
  633MPD2    H2 9430   4.600   0.085  16.978  1.2196  0.0575  0.7083
  633MPD2    H3 9431   4.636   4.691  17.178  1.1693 -0.7988  0.8908
  633MPD2     N 9432   4.632   4.301  16.979 -0.0213  0.2667  0.2199
  633MPD2    H5 9433   4.626   4.262  17.073  1.2395  0.0515  0.2062
  633MPD2    N1 9434   4.618   4.721  16.725  0.0696 -0.3106 -0.1941
  633MPD2    H7 9435   4.628   4.667  16.640 -1.1928  0.9955 -1.1863
  634TMC3    C1 9436   4.652   0.160  16.574  0.1000 -0.4085 -0.3447
  634TMC3    C2 9437   0.023   0.090  16.516  0.3377 -0.4371 -0.0063
  634TMC3    C3 9438   0.100   0.158  16.423  0.0034  0.0700 -0.3792
  634TMC3    C4 9439   4.632   0.294  16.544  0.2056 -0.4515  0.6146
  634TMC3    C5 9440   4.723   0.354  16.458  0.1377 -0.4759  0.1556
  634TMC3    C6 9441   0.093   0.293  16.397 -0.3413  0.0954  0.3435
  634TMC3     C 9442   4.600   0.120  16.706 -0.4121  0.8510  0.5235
  634TMC3     O 9443   4.543   0.201  16.779 -0.1195  0.3809 -0.5173
  634TMC3     H 9444   0.045   4.723  16.541 -3.5398 -0.9620  1.1790
  634TMC3    H1 9445   4.543   0.340  16.585 -0.6660 -1.6259  0.0525
  634TMC3    H2 9446   0.172   0.345  16.343  0.7512 -1.4198  0.5025
  634TMC3    C7 9447   4.725   0.495  16.458 -0.4816  0.0728  0.2842
  634TMC3    C8 9448   0.184   0.076  16.330 -0.1812 -0.7561 -0.7142
  634TMC3    O1 9449   0.040   0.552  16.360  0.3103 -0.4406  0.5469
  634TMC3    O2 9450   0.206   4.700  16.372 -0.0394 -0.5251 -0.0004
  635TMC3    C1 9451   4.431   1.365   0.631  0.2754 -0.0858  0.5900
  635TMC3    C2 9452   4.536   1.338   0.542 -0.8983 -0.3595  0.0084
  635TMC3    C3 9453   4.532   1.217   0.474 -0.1887  0.9946 -0.1101
  635TMC3    C4 9454   4.333   1.270   0.654  0.5001  0.3512 -0.1295
  635TMC3    C5 9455   4.324   1.157   0.578  0.3811  0.4043  0.5806
  635TMC3    C6 9456   4.427   1.125   0.487  0.3665 -0.3384 -0.1953
  635TMC3     C 9457   4.449   1.485   0.702  0.7183  0.7598  0.0270
  635TMC3     O 9458   4.484   1.578   0.634 -0.1505  0.2400 -0.1471
  635TMC3     H 9459   4.614   1.413   0.531 -0.6670 -0.6121 -0.1011
  635TMC3    H1 9460   4.279   1.284   0.747  0.2040 -1.8814  0.0193
  635TMC3    H2 9461   4.431   1.027   0.440  1.1348 -0.0518 -0.7453
  635TMC3    C7 9462   4.255   1.050   0.645  0.5261  0.9918  0.3272
  635TMC3    C8 9463   4.622   1.202   0.356 -0.1893  0.5744 -0.0617
  635TMC3    O1 9464   4.229   1.056   0.763 -0.2284 -0.2332  0.1315
  635TMC3    O2 9465   4.603   1.109   0.276  0.1582  0.0298 -0.3436
  636MPD2     C 9466   1.404   0.645  15.645  0.3153  0.4082 -0.2569
  636MPD2    C1 9467   1.421   0.596  15.771 -0.0367 -0.4973  0.7168
  636MPD2    C2 9468   1.471   0.470  15.779  0.3672  0.1718 -1.0536
  636MPD2    C3 9469   1.522   0.410  15.674  1.0124 -0.2938 -0.4714
  636MPD2    C4 9470   1.508   0.461  15.541 -0.0850 -0.4987  0.4317
  636MPD2    C5 9471   1.441   0.578  15.538 -0.0253 -0.5583 -0.8701
  636MPD2     H 9472   1.478   0.428  15.879 -0.5800  1.9052 -0.2594
  636MPD2    H1 9473   1.544   0.415  15.450 -0.2855  1.5745 -0.6974
  636MPD2    H2 9474   1.350   0.738  15.627 -0.8134 -0.0588  0.7181
  636MPD2    H3 9475   1.429   0.620  15.439  1.8989  1.6394 -0.1754
  636MPD2     N 9476   1.601   0.291  15.680  0.0323  0.0719  0.1218
  636MPD2    H5 9477   1.646   0.268  15.592  1.6857 -1.6996  1.4191
  636MPD2    N1 9478   1.388   0.666  15.895  0.2138 -0.2916  0.7090
  636MPD2    H7 9479   1.403   0.620  15.984 -0.7266 -0.5051  0.7534
  637TMC3    C1 9480   1.696   0.095  15.768 -0.3803  0.2380  0.1792
  637TMC3    C2 9481   1.668   4.725  15.848 -0.3519 -0.1942  0.2610
  637TMC3    C3 9482   1.775   4.649  15.895  0.9627  0.1316 -0.2074
  637TMC3    C4 9483   1.823   0.121  15.718 -1.0875  0.4805 -0.0991
  637TMC3    C5 9484   1.917   0.022  15.739  0.3019 -0.0039  0.2363
  637TMC3    C6 9485   1.898   4.664  15.833 -0.5953 -0.1262 -0.4132
  637TMC3     C 9486   1.603   0.205  15.788  0.3051 -0.3120 -0.4611
  637TMC3     O 9487   1.547   0.215  15.894  0.6583 -0.1303 -0.1989
  637TMC3     H 9488   1.568   4.719  15.889 -0.5668 -0.2670 -0.2744
  637TMC3    H1 9489   1.854   0.209  15.662  1.4076  0.1096  0.7030
  637TMC3    H2 9490   1.976   4.590  15.847 -0.6258 -0.5038 -2.3212
  637TMC3    C7 9491   2.056   0.077  15.746 -0.7160 -0.2508 -0.1441
  637TMC3    C8 9492   1.785   4.691  16.032  0.0832 -0.0176  0.0195
  637TMC3    O1 9493   2.099   0.045  15.853 -0.3910  0.6918 -0.5160
  637TMC3    O2 9494   1.680   4.720  16.091  0.3709  0.1852  0.0486
  638MPD2     C 9495   1.519   4.389  15.087  0.0291 -0.3337 -0.2200
  638MPD2    C1 9496   1.432   4.308  15.014 -0.0447 -0.3605  0.1054
  638MPD2    C2 9497   1.364   4.213  15.086  0.7312 -0.1067 -0.2650
  638MPD2    C3 9498   1.371   4.202  15.226 -0.1049 -0.3287 -0.0944
  638MPD2    C4 9499   1.460   4.284  15.289  0.0943  1.3833 -0.0899
  638MPD2    C5 9500   1.538   4.369  15.218 -0.5075 -0.3035  0.3252
  638MPD2     H 9501   1.283   4.163  15.035  0.4801 -0.0755  0.1041
  638MPD2    H1 9502   1.482   4.270  15.394  3.3492  0.4848 -0.8740
  638MPD2    H2 9503   1.586   4.453  15.031 -3.3245  1.4557 -2.2102
  638MPD2    H3 9504   1.609   4.432  15.270  0.4687 -0.3855 -0.8836
  638MPD2     N 9505   1.304   4.098  15.290  0.1217  0.0350 -0.2771
  638MPD2    H5 9506   1.247   4.050  15.221 -2.2808  0.9129  1.1238
  638MPD2    N1 9507   1.423   4.327  14.873 -0.6204  0.1758 -0.0556
  638MPD2    H7 9508   1.485   4.395  14.829  1.1536 -0.5513  1.3422
  639TMC3    C1 9509   1.217   3.965  15.474  0.4674 -0.1461  0.2984
  639TMC3    C2 9510   1.120   3.915  15.392 -0.9456  0.0095  0.1955
  639TMC3    C3 9511   1.047   3.812  15.448  0.0650 -0.0287 -0.0719
  639TMC3    C4 9512   1.247   3.913  15.594 -0.6892  0.0941  0.6325
  639TMC3    C5 9513   1.176   3.806  15.644 -0.4263 -0.3782  1.1170
  639TMC3    C6 9514   1.071   3.751  15.572  0.1919 -0.4677 -0.8564
  639TMC3     C 9515   1.313   4.061  15.428 -0.3152  0.9378  1.0674
  639TMC3     O 9516   1.410   4.089  15.495  0.3662  0.3375  0.0019
  639TMC3     H 9517   1.102   3.946  15.290 -0.2081  0.2382  0.1392
  639TMC3    H1 9518   1.318   3.953  15.665  0.1408 -0.0744 -0.0935
  639TMC3    H2 9519   1.025   3.664  15.618  0.6292 -1.3111 -2.0156
  639TMC3    C7 9520   1.238   3.736  15.754  0.0086  0.6358  0.6479
  639TMC3    C8 9521   0.961   3.729  15.364  0.1399  0.5226  0.3754
  639TMC3    O1 9522   1.165   3.664  15.817 -0.2090  0.2668 -0.2177
  639TMC3    O2 9523   1.018   3.675  15.274 -0.1456 -0.1943 -0.1118
  640MPD2     C 9524   2.680   3.198  10.017 -0.0885 -0.5028  0.7620
  640MPD2    C1 9525   2.696   3.328   9.960 -0.2146 -0.2576  0.3592
  640MPD2    C2 9526   2.612   3.432   9.997 -0.0326 -0.4584 -0.2079
  640MPD2    C3 9527   2.500   3.412  10.078 -0.1287  0.2429  0.0489
  640MPD2    C4 9528   2.489   3.280  10.135  0.2327 -0.1887 -0.2895
  640MPD2    C5 9529   2.576   3.178  10.103  0.2089 -0.4624  0.2590
  640MPD2     H 9530   2.630   3.531   9.958 -1.8457 -0.0911 -0.1158
  640MPD2    H1 9531   2.417   3.257  10.213  0.1829  4.8945  1.1932
  640MPD2    H2 9532   2.761   3.127  10.007  0.4244  0.1159  0.5080
  640MPD2    H3 9533   2.565   3.082  10.154 -0.3835  0.7112  2.3326
  640MPD2     N 9534   2.417   3.516  10.122 -0.2669  0.4422  0.4362
  640MPD2    H5 9535   2.346   3.482  10.187  0.4597 -1.5702  0.1737
  640MPD2    N1 9536   2.808   3.349   9.876  0.3364  0.9491 -0.0299
  640MPD2    H7 9537   2.863   3.264   9.871 -1.3696 -0.1804  0.6468
  641TMC3    C1 9538   2.959   3.438   9.720  0.2501  0.5913  0.0846
  641TMC3    C2 9539   3.048   3.332   9.750 -0.0850 -0.0139 -0.5924
  641TMC3    C3 9540   3.132   3.279   9.654 -0.3717  0.0733  0.3811
  641TMC3    C4 9541   2.973   3.503   9.601  0.5459 -0.3031  0.5066
  641TMC3    C5 9542   3.067   3.458   9.512 -0.3755  0.8159  0.4457
  641TMC3    C6 9543   3.145   3.343   9.536  0.2797  0.0413 -0.4159
  641TMC3     C 9544   2.845   3.464   9.807  0.2279  0.0433 -0.7459
  641TMC3     O 9545   2.795   3.576   9.796  0.1347  0.1292  0.4982
  641TMC3     H 9546   3.036   3.284   9.847 -1.5747  1.1635 -0.1957
  641TMC3    H1 9547   2.919   3.593   9.573  0.6206 -0.8870 -1.5028
  641TMC3    H2 9548   3.225   3.299   9.477 -0.8863 -1.5101 -0.8321
  641TMC3    C7 9549   3.088   3.506   9.379 -0.0656  0.0676  0.1571
  641TMC3    C8 9550   3.194   3.152   9.675 -0.6200 -0.2717  0.6995
  641TMC3    O1 9551   3.177   3.453   9.317  0.0406  0.0464 -0.6885
  641TMC3    O2 9552   3.210   3.073   9.582  1.2815  0.1761  0.3210
  642TMC3    C1 9553   2.817   4.092  13.034  0.0665 -0.3400  0.1598
  642TMC3    C2 9554   2.948   4.118  13.006 -0.1293  0.0588 -0.2814
  642TMC3    C3 9555   3.024   4.019  12.945 -0.0114 -0.6740  0.7330
  642TMC3    C4 9556   2.757   3.971  13.019 -0.0564  0.3250  0.4280
  642TMC3    C5 9557   2.835   3.875  12.957 -0.8833  0.1985 -0.2527
  642TMC3    C6 9558   2.964   3.896  12.923 -0.3256 -0.2349  0.0069
  642TMC3     C 9559   2.751   4.204  13.099 -0.5708 -0.2511  0.7318
  642TMC3     O 9560   2.817   4.276  13.172 -0.2536  0.2525 -0.4837
  642TMC3     H 9561   2.983   4.221  13.009  1.6010 -0.5251 -0.5161
  642TMC3    H1 9562   2.652   3.950  13.039 -0.2860  1.3916  0.3288
  642TMC3    H2 9563   3.019   3.814  12.878  2.0328  0.6274  1.2937
  642TMC3    C7 9564   2.776   3.760  12.899 -0.5603 -0.2815  0.4315
  642TMC3    C8 9565   3.143   4.045  12.867 -0.0192  0.1998  0.4413
  642TMC3    O1 9566   2.826   3.714  12.795 -0.1918  0.1135  0.0391
  642TMC3    O2 9567   3.194   3.949  12.807  0.1288 -0.3413  0.4000
  643TMC3    C1 9568   1.730   2.926  17.614 -0.2018 -0.5376  0.4247
  643TMC3    C2 9569   1.622   2.945  17.536 -0.7123  0.5467  0.2956
  643TMC3    C3 9570   1.638   2.916  17.403  0.0008  0.0229 -0.0081
  643TMC3    C4 9571   1.852   2.879  17.562 -0.7111  0.1244  0.1100
  643TMC3    C5 9572   1.868   2.853  17.426  0.4128  0.2340  0.6133
  643TMC3    C6 9573   1.758   2.876  17.344 -0.4983  0.4169 -0.6646
  643TMC3     C 9574   1.717   2.987   0.003  0.2047  0.6932  0.1481
  643TMC3     O 9575   1.617   3.048   0.021  0.0997  0.6014 -0.7247
  643TMC3     H 9576   1.532   2.990  17.576 -1.0355 -0.8342  1.1214
  643TMC3    H1 9577   1.938   2.892  17.627 -0.5777  3.1226 -0.6399
  643TMC3    H2 9578   1.774   2.883  17.237  2.3261 -2.1114 -0.4115
  643TMC3    C7 9579   1.996   2.871  17.355  0.4152 -0.2436  0.4222
  643TMC3    C8 9580   1.570   3.009  17.319 -0.5971 -0.2677  0.2591
  643TMC3    O1 9581   2.016   2.792  17.262  0.7613  0.5632  0.4282
  643TMC3    O2 9582   1.558   2.983  17.203  0.2422 -0.3013  0.0200
  644MPD2     C 9583   3.464   4.214   9.381  0.1605  0.3576  0.3628
  644MPD2    C1 9584   3.369   4.125   9.333 -0.1344 -0.4654 -0.1430
  644MPD2    C2 9585   3.256   4.172   9.272 -0.0886 -0.1319  0.1430
  644MPD2    C3 9586   3.223   4.306   9.268 -0.3973 -0.0805  0.6022
  644MPD2    C4 9587   3.317   4.396   9.314  0.2746  0.5552 -0.6654
  644MPD2    C5 9588   3.438   4.349   9.367  0.5205 -0.2700  0.2115
  644MPD2     H 9589   3.176   4.105   9.241 -0.8919  0.4118  1.0369
  644MPD2    H1 9590   3.310   4.504   9.319  1.2537  0.5948 -0.0354
  644MPD2    H2 9591   3.559   4.186   9.426  0.5516  0.8767 -0.1358
  644MPD2    H3 9592   3.515   4.421   9.392  0.2736 -1.0275  3.1179
  644MPD2     N 9593   3.098   4.343   9.204 -0.5332  0.3146 -0.3353
  644MPD2    H5 9594   3.050   4.265   9.160 -0.2980 -2.1008  3.7110
  644MPD2    N1 9595   3.390   3.987   9.338 -0.0123 -0.8292 -0.1226
  644MPD2    H7 9596   3.465   3.949   9.394  0.0573  0.5941  0.7375
  645TMC3    C1 9597   2.950   4.495   9.099 -0.7320  0.2857  0.5417
  645TMC3    C2 9598   2.856   4.399   9.083  0.4306  0.1345  0.7274
  645TMC3    C3 9599   2.740   4.418   9.021 -0.0556  0.0594 -0.3809
  645TMC3    C4 9600   2.933   4.615   9.044  0.6251  0.1792  0.3229
  645TMC3    C5 9601   2.808   4.634   8.986 -0.2224  0.2808 -0.0791
  645TMC3    C6 9602   2.708   4.542   8.982  0.3491  0.0265 -0.1439
  645TMC3     C 9603   3.058   4.476   9.184  0.2673 -0.1015 -0.0895
  645TMC3     O 9604   3.107   4.573   9.231  0.0997 -0.1252  0.4427
  645TMC3     H 9605   2.859   4.304   9.136 -0.9966 -1.1447 -1.5162
  645TMC3    H1 9606   3.005   4.694   9.056  2.3684 -1.2144 -0.8553
  645TMC3    H2 9607   2.613   4.576   8.942  1.3168 -0.4585 -2.8737
  645TMC3    C7 9608   2.782   0.031   8.922  0.2849  0.8166 -0.0366
  645TMC3    C8 9609   2.632   4.343   9.094  0.4953 -0.5870 -0.0057
  645TMC3    O1 9610   2.687   0.030   8.844 -0.1256  0.2986  0.4294
  645TMC3    O2 9611   2.642   4.221   9.099 -0.2507  0.0232  0.0672
  646MPD2     C 9612   1.338   3.203  14.701  0.2674  0.9125 -0.9125
  646MPD2    C1 9613   1.236   3.135  14.766  0.0600 -0.1872 -0.3097
  646MPD2    C2 9614   1.109   3.191  14.765  0.4355 -0.4142 -0.1710
  646MPD2    C3 9615   1.068   3.298  14.690 -0.4141  0.3158 -0.9891
  646MPD2    C4 9616   1.171   3.365  14.630  0.0529 -0.4001  0.5377
  646MPD2    C5 9617   1.300   3.313  14.634 -0.0231 -0.1544  0.5152
  646MPD2     H 9618   1.031   3.148  14.827  0.3257 -1.1240 -0.8064
  646MPD2    H1 9619   1.153   3.460  14.581  1.4323 -0.1431  0.5210
  646MPD2    H2 9620   1.439   3.167  14.686 -0.2946 -0.7800 -0.7201
  646MPD2    H3 9621   1.379   3.369  14.586 -0.4244 -0.6187 -0.6779
  646MPD2     N 9622   0.930   3.337  14.691  0.4721  0.2189  0.2585
  646MPD2    H5 9623   0.868   3.283  14.751 -1.0154 -0.7280 -2.0944
  646MPD2    N1 9624   1.266   3.013  14.829  0.2016  0.2310 -0.7107
  646MPD2    H7 9625   1.348   2.963  14.796 -1.2808 -2.6708  0.0256
  647TMC3    C1 9626   1.252   2.852  14.992 -0.2954 -0.7117 -0.0291
  647TMC3    C2 9627   1.305   2.837  15.113  0.1553  0.1426  0.2743
  647TMC3    C3 9628   1.389   2.734  15.140 -0.5759  0.5319 -0.2152
  647TMC3    C4 9629   1.297   2.766  14.890  0.6202 -0.5762  0.3931
  647TMC3    C5 9630   1.377   2.662  14.918  0.1938 -0.3822 -0.0484
  647TMC3    C6 9631   1.431   2.644  15.045 -0.3742 -0.0736  0.0195
  647TMC3     C 9632   1.201   2.975  14.946 -0.7219  0.0375 -0.1744
  647TMC3     O 9633   1.140   3.047  15.027 -0.6774 -0.4502  0.0822
  647TMC3     H 9634   1.279   2.906  15.193 -0.4484  0.4183 -0.1580
  647TMC3    H1 9635   1.251   2.779  14.793  1.0093  0.3163  0.3385
  647TMC3    H2 9636   1.499   2.564  15.073 -0.2480  0.0983  0.2022
  647TMC3    C7 9637   1.393   2.560  14.819 -0.3048 -0.0124 -0.7795
  647TMC3    C8 9638   1.477   2.751  15.250  1.0045  0.5238  0.5680
  647TMC3    O1 9639   1.318   2.558  14.726 -0.0094 -0.6653 -0.6592
  647TMC3    O2 9640   1.491   2.867  15.286  0.1184  0.2486 -0.0973
  648TMC3    C1 9641   0.715   0.476  15.998  0.0866 -0.3683  0.0066
  648TMC3    C2 9642   0.727   0.355  15.944 -0.2589 -0.1984 -0.1335
  648TMC3    C3 9643   0.709   0.342  15.808  0.0172 -0.7220 -0.1966
  648TMC3    C4 9644   0.668   0.583  15.932  0.5906 -0.2831  0.3486
  648TMC3    C5 9645   0.633   0.565  15.803 -0.2710  0.0770  0.3761
  648TMC3    C6 9646   0.661   0.448  15.739 -0.2844 -0.6570  0.1036
  648TMC3     C 9647   0.689   0.481  16.143  0.6731 -0.3677 -0.3527
  648TMC3     O 9648   0.719   0.587  16.191  0.3125  0.0612 -0.2564
  648TMC3     H 9649   0.763   0.270  16.001 -1.5306 -0.3569  0.4352
  648TMC3    H1 9650   0.663   0.676  15.989  0.5927 -0.8637  1.2910
  648TMC3    H2 9651   0.643   0.436  15.632 -1.5221  3.4424 -0.1280
  648TMC3    C7 9652   0.578   0.668  15.724  0.0484 -0.2239 -0.1017
  648TMC3    C8 9653   0.718   0.211  15.748  0.0883 -0.0144  0.3746
  648TMC3    O1 9654   0.591   0.653  15.605  0.6949  0.4740 -0.2932
  648TMC3    O2 9655   0.637   0.182  15.663 -0.1706 -0.0372  0.4604
  649TMC3    C1 9656   4.604   1.727  12.477 -0.1488  0.2428  0.4051
  649TMC3    C2 9657   4.715   1.731  12.399 -0.2302  0.2007  0.4423
  649TMC3    C3 9658   0.095   1.693  12.451 -0.3456  0.1064 -0.5988
  649TMC3    C4 9659   4.613   1.670  12.600  0.5376  0.1514  0.0312
  649TMC3    C5 9660   4.735   1.625  12.643  0.0105 -0.4198 -0.1902
  649TMC3    C6 9661   0.113   1.647  12.575 -0.3075 -0.9576  0.0921
  649TMC3     C 9662   4.477   1.787  12.446 -0.6316 -0.0482  0.2328
  649TMC3     O 9663   4.392   1.783  12.536  0.2553  0.0687  0.2519
  649TMC3     H 9664   4.710   1.794  12.310 -0.8011  0.9530  1.0069
  649TMC3    H1 9665   4.524   1.646  12.657  0.3686  1.5358  0.3528
  649TMC3    H2 9666   0.208   1.603  12.602  0.0858  0.0803  0.3992
  649TMC3    C7 9667   0.000   1.576  12.787  0.1324  0.7897 -0.6793
  649TMC3    C8 9668   0.215   1.743  12.377 -0.3445 -0.3713 -0.2906
  649TMC3    O1 9669   4.638   1.514  12.822 -0.2199  0.7566 -0.1863
  649TMC3    O2 9670   0.191   1.747  12.258  0.1028  0.2969 -0.3012
  650TMC3    C1 9671   2.163   3.056  12.979  0.0875  0.0434 -0.4849
  650TMC3    C2 9672   2.113   3.178  13.017  0.1058  0.1154 -0.3744
  650TMC3    C3 9673   2.112   3.278  12.919 -0.0380 -0.1249 -0.0766
  650TMC3    C4 9674   2.202   3.036  12.849  0.4308  0.1236 -0.7850
  650TMC3    C5 9675   2.198   3.137  12.753  0.8391  0.0774  0.5941
  650TMC3    C6 9676   2.151   3.256  12.790 -0.2588  0.3822  0.0098
  650TMC3     C 9677   2.178   2.946  13.081  0.2168  0.2034  0.7309
  650TMC3     O 9678   2.154   2.987  13.193  0.0903  0.1221 -0.1997
  650TMC3     H 9679   2.080   3.201  13.117  1.5088 -1.2311  0.4036
  650TMC3    H1 9680   2.233   2.942  12.804 -1.7327 -0.2349 -1.5025
  650TMC3    H2 9681   2.136   3.339  12.722 -2.5719 -1.5560 -1.8412
  650TMC3    C7 9682   2.163   3.081  12.623 -0.4653 -0.3902  0.2185
  650TMC3    C8 9683   2.046   3.406  12.952  0.1204 -0.0037 -0.3298
  650TMC3    O1 9684   2.166   2.960  12.611  0.6914  0.4722 -0.0728
  650TMC3    O2 9685   2.055   3.496  12.872 -0.1208 -0.1733  0.1885
  651MPD2     C 9686   1.544   0.197  10.654 -0.1697  0.2076 -0.5831
  651MPD2    C1 9687   1.522   0.324  10.703  1.4185  0.4792 -0.7438
  651MPD2    C2 9688   1.623   0.419  10.695 -0.1253  0.1550 -0.5853
  651MPD2    C3 9689   1.738   0.409  10.618 -0.2536 -0.7457 -0.5128
  651MPD2    C4 9690   1.756   0.279  10.565  0.0938 -0.1732  0.2259
  651MPD2    C5 9691   1.671   0.176  10.591 -1.1175  0.2838 -0.4428
  651MPD2     H 9692   1.599   0.517  10.735 -1.3841 -0.3822 -0.0394
  651MPD2    H1 9693   1.847   0.257  10.510  0.3293 -1.9660  1.3611
  651MPD2    H2 9694   1.470   0.121  10.678 -0.0902 -0.5142 -2.6175
  651MPD2    H3 9695   1.698   0.076  10.558  0.5578  0.4729  0.3407
  651MPD2     N 9696   1.827   0.517  10.594 -0.7336  0.1902  0.0151
  651MPD2    H5 9697   1.811   0.608  10.635 -0.7308 -0.3150  1.1239
  651MPD2    N1 9698   1.412   0.359  10.784 -0.0975 -0.2792  0.6977
  651MPD2    H7 9699   1.417   0.459  10.801  3.0128 -0.1844 -0.6923
  652TMC3    C1 9700   2.200   0.747  10.421  0.2879 -0.0639  0.7078
  652TMC3    C2 9701   2.113   0.641  10.400 -0.5619  0.0088 -0.3921
  652TMC3    C3 9702   2.016   0.627  10.503 -0.2117  0.2356 -0.3444
  652TMC3    C4 9703   2.200   0.834  10.528  0.0260  0.4676 -0.1072
  652TMC3    C5 9704   2.110   0.800  10.626  0.0042  0.3576 -0.4214
  652TMC3    C6 9705   2.009   0.706  10.620 -0.8907 -0.3478 -0.6153
  652TMC3     C 9706   2.327   0.741  10.343 -0.2913  0.0154 -0.0338
  652TMC3     O 9707   2.335   0.672  10.244  0.3844 -0.5180  0.0038
  652TMC3     H 9708   2.123   0.583  10.310 -0.7083 -0.8859  0.1654
  652TMC3    H1 9709   2.262   0.922  10.531  0.7512 -0.0944  1.4474
  652TMC3    H2 9710   1.944   0.685  10.704  0.3494  1.3183  0.7628
  652TMC3    C7 9711   2.100   0.881  10.744  0.1354  0.3957 -0.5463
  652TMC3    C8 9712   1.928   0.513  10.494 -0.2436 -0.1472  0.1758
  652TMC3    O1 9713   2.040   0.825  10.834 -0.1794  0.3356 -0.1152
  652TMC3    O2 9714   1.933   0.441  10.395  0.1463  0.3570 -0.0378
  653MPD2     C 9715   4.385   0.317  17.622  0.0658 -0.2634  0.8347
  653MPD2    C1 9716   4.359   0.406  17.519  0.3720 -0.0659  0.1097
  653MPD2    C2 9717   4.334   0.354  17.391 -0.0207 -0.4437 -0.6578
  653MPD2    C3 9718   4.337   0.217  17.367 -0.1430 -0.4063 -0.7587
  653MPD2    C4 9719   4.360   0.135  17.472  0.0802 -0.9299  0.0859
  653MPD2    C5 9720   4.385   0.186  17.598 -0.2032  0.2661  0.0552
  653MPD2     H 9721   4.299   0.430  17.322 -0.9433 -0.7077 -0.4808
  653MPD2    H1 9722   4.355   0.027  17.478 -4.4581 -0.6361  1.9999
  653MPD2    H2 9723   4.393   0.353  17.724 -2.2192  1.5548  0.3810
  653MPD2    H3 9724   4.404   0.112  17.675 -0.6889  0.1736  0.0882
  653MPD2     N 9725   4.289   0.164  17.242 -0.1606  0.5633  0.1084
  653MPD2    H5 9726   4.254   0.231  17.174  0.7570  1.5195  0.5628
  653MPD2    N1 9727   4.361   0.547  17.535 -0.3847  0.1041  0.3982
  653MPD2    H7 9728   4.346   0.600  17.450  1.2698  0.6628  0.4668
  654TMC3    C1 9729   4.269   0.004  17.067 -0.2493  0.1817  0.5730
  654TMC3    C2 9730   4.254   0.103  16.976  0.6909 -0.5593  0.3023
  654TMC3    C3 9731   4.211   0.070  16.854 -0.1649 -0.1129 -0.3567
  654TMC3    C4 9732   4.258   4.609  17.029  0.1537 -0.3293 -0.1944
  654TMC3    C5 9733   4.242   4.580  16.895  0.6901  0.8527  0.4379
  654TMC3    C6 9734   4.213   4.676  16.805  0.0583  0.1214  0.0932
  654TMC3     C 9735   4.301   0.032  17.203 -0.0393 -0.1527  0.2508
  654TMC3     O 9736   4.366   4.678  17.260 -0.2976  0.1898 -0.0110
  654TMC3     H 9737   4.274   0.206  17.000  1.3941 -0.6334  0.0321
  654TMC3    H1 9738   4.261   4.536  17.109  0.2736  0.6682  0.7170
  654TMC3    H2 9739   4.183   4.652  16.703 -1.2582 -0.9513  0.7327
  654TMC3    C7 9740   4.226   4.440  16.852  0.4554  0.5713 -0.1242
  654TMC3    C8 9741   4.152   0.179  16.775  0.7543 -0.1452  0.1427
  654TMC3    O1 9742   4.170   4.417  16.744 -0.3429 -0.0948 -0.1034
  654TMC3    O2 9743   4.120   0.277  16.835  0.4441 -0.2307 -0.6791
  655MPD2     C 9744   1.100   0.535  15.883 -0.5556  0.4640 -0.6436
  655MPD2    C1 9745   1.027   0.615  15.801 -0.3869 -0.2695  0.7634
  655MPD2    C2 9746   1.019   0.578  15.670 -0.0927  0.3274 -0.0748
  655MPD2    C3 9747   1.069   0.462  15.625  0.9803 -0.1176 -0.3137
  655MPD2    C4 9748   1.123   0.371  15.712 -0.0293  0.6145  0.3723
  655MPD2    C5 9749   1.149   0.414  15.842 -0.0951 -0.5730  0.0633
  655MPD2     H 9750   0.985   0.660  15.607  3.6212  0.6492 -1.6368
  655MPD2    H1 9751   1.162   0.275  15.680  0.9797  1.6807 -1.6273
  655MPD2    H2 9752   1.126   0.566  15.984 -1.5563 -0.7072 -0.0145
  655MPD2    H3 9753   1.210   0.354  15.909 -0.6713  0.1335  1.2098
  655MPD2     N 9754   1.066   0.426  15.488 -0.4836 -0.6932  0.4544
  655MPD2    H5 9755   1.109   0.340  15.457  0.4813 -0.2219  0.4822
  655MPD2    N1 9756   0.973   0.744  15.838  0.5723 -0.4822  0.3435
  655MPD2    H7 9757   0.926   0.790  15.761  1.0366  0.4403  0.6191
  656TMC3    C1 9758   0.892   0.935  15.963  1.0244  0.0455 -0.2189
  656TMC3    C2 9759   0.825   0.974  16.081  0.2708  0.6796 -0.3574
  656TMC3    C3 9760   0.729   1.067  16.073  0.8521 -0.1677  0.0409
  656TMC3    C4 9761   0.861   0.988  15.843 -0.7703  0.3056  0.5669
  656TMC3    C5 9762   0.761   1.086  15.846 -0.0124 -0.4319 -1.0646
  656TMC3    C6 9763   0.707   1.139  15.960  0.2481 -0.2688  0.1949
  656TMC3     C 9764   0.955   0.800  15.964  0.5348 -0.3970 -0.4992
  656TMC3     O 9765   0.998   0.758  16.069  0.0517 -0.2052  0.7122
  656TMC3     H 9766   0.839   0.915  16.171  0.2720 -1.3281 -1.6675
  656TMC3    H1 9767   0.917   0.973  15.752  0.6975  1.7250  1.2268
  656TMC3    H2 9768   0.631   1.216  15.963  0.5110 -0.0041  0.0453
  656TMC3    C7 9769   0.737   1.152  15.725 -0.1358  0.3991  0.8018
  656TMC3    C8 9770   0.603   1.005  16.115 -0.3827 -0.2540 -0.5304
  656TMC3    O1 9771   0.810   1.137  15.630  0.5950  0.5768 -0.0374
  656TMC3    O2 9772   0.515   1.005  16.028 -0.2964  0.2087  0.2568
  657TMC3    C1 9773   4.600   4.492  15.186  0.1769 -0.0874  0.4772
  657TMC3    C2 9774   4.478   4.522  15.243 -0.0633  0.0384 -0.2514
  657TMC3    C3 9775   4.378   4.562  15.155 -0.1528  0.2400  0.1924
  657TMC3    C4 9776   4.617   4.502  15.051  0.0606 -0.3358  0.2423
  657TMC3    C5 9777   4.518   4.556  14.971  0.0564  0.1787 -0.5689
  657TMC3    C6 9778   4.393   4.574  15.022 -0.5956 -0.2631 -0.3447
  657TMC3     C 9779   4.682   4.412  15.270 -0.6750  0.0643  0.1822
  657TMC3     O 9780   4.627   4.373  15.371 -0.2577 -0.8818 -0.2315
  657TMC3     H 9781   4.482   4.538  15.350  0.9375 -1.2451 -0.0883
  657TMC3    H1 9782   4.710   4.476  15.002  0.3671 -0.2659  0.7920
  657TMC3    H2 9783   4.316   4.596  14.949 -0.8831  0.1093  0.0718
  657TMC3    C7 9784   4.537   4.546  14.828 -0.2923  0.2549  1.0908
  657TMC3    C8 9785   4.246   4.608  15.206  0.1684  0.0727 -0.1202
  657TMC3    O1 9786   4.640   4.493  14.779 -0.5372  0.2053 -0.0329
  657TMC3    O2 9787   4.195   4.691  15.135 -0.7402  0.1456 -0.0591
  658MPD2     C 9788   1.581   0.164  14.970 -0.1037  0.2577 -0.1129
  658MPD2    C1 9789   1.488   0.267  14.958 -0.4823  0.2346 -0.4633
  658MPD2    C2 9790   1.528   0.375  14.874  0.1071  0.4535 -0.6560
  658MPD2    C3 9791   1.645   0.375  14.806 -0.2698  0.3937 -0.1232
  658MPD2    C4 9792   1.731   0.275  14.826  0.9113  0.1350  0.1823
  658MPD2    C5 9793   1.695   0.165  14.900 -0.6565 -0.0350  0.0325
  658MPD2     H 9794   1.463   0.457  14.847  1.0611  1.1869 -0.7313
  658MPD2    H1 9795   1.823   0.268  14.768  0.8085 -1.8346  0.2719
  658MPD2    H2 9796   1.561   0.078  15.033 -1.2325  0.6581  0.0922
  658MPD2    H3 9797   1.762   0.081  14.914 -2.3113 -1.4356 -0.3971
  658MPD2     N 9798   1.657   0.488  14.718 -0.0866 -0.0962  0.2974
  658MPD2    H5 9799   1.587   0.561  14.726 -1.1375 -1.1033  0.3202
  658MPD2    N1 9800   1.364   0.266  15.022  0.0628  0.0677  0.2230
  658MPD2    H7 9801   1.336   0.181  15.071  0.2127 -1.0865 -1.6612
  659TMC3    C1 9802   1.154   0.349  15.094 -0.3705 -0.2476  1.4123
  659TMC3    C2 9803   1.143   0.398  15.218 -0.1756  1.1684 -0.3000
  659TMC3    C3 9804   1.023   0.445  15.264  0.1768  0.2770  0.0239
  659TMC3    C4 9805   1.060   0.365  15.002 -1.3641  0.0719  0.3375
  659TMC3    C5 9806   0.936   0.396  15.059 -1.2655  0.4875 -0.3348
  659TMC3    C6 9807   0.919   0.442  15.185  0.3821  0.3945 -0.3345
  659TMC3     C 9808   1.279   0.377  15.025  0.6199  0.1217  0.2788
  659TMC3     O 9809   1.303   0.494  15.009  0.5154 -0.0338  1.0097
  659TMC3     H 9810   1.236   0.411  15.272  0.0375  0.2345 -0.4328
  659TMC3    H1 9811   1.083   0.341  14.899 -1.0797 -0.1066  0.4450
  659TMC3    H2 9812   0.834   0.501  15.219  1.4583  1.5958  0.2963
  659TMC3    C7 9813   0.820   0.378  14.967  0.8311  0.0137  0.1574
  659TMC3    C8 9814   1.008   0.501  15.392 -0.2057  0.8734  0.2854
  659TMC3    O1 9815   0.718   0.429  15.007  0.6003 -0.2204  0.3902
  659TMC3    O2 9816   0.917   0.581  15.406 -0.2621 -0.2943 -0.6444
  660MPD2     C 9817   4.200   3.940  12.491  0.0804  0.4090 -0.4234
  660MPD2    C1 9818   4.080   4.010  12.499 -0.7895  0.8883  0.1223
  660MPD2    C2 9819   3.978   3.945  12.566  0.2867  0.6016  0.2090
  660MPD2    C3 9820   3.986   3.818  12.611 -0.2495  0.0525 -0.1271
  660MPD2    C4 9821   4.098   3.750  12.587  0.1927 -0.0698 -0.2037
  660MPD2    C5 9822   4.206   3.808  12.530  0.3675  0.1979 -0.4386
  660MPD2     H 9823   3.879   3.990  12.577  0.1400 -0.0536  1.6087
  660MPD2    H1 9824   4.114   3.647  12.617 -1.2025 -0.4186 -0.6777
  660MPD2    H2 9825   4.280   3.976  12.428  1.5513 -3.2314 -0.6149
  660MPD2    H3 9826   4.294   3.746  12.521  0.4153 -0.0165  1.5385
  660MPD2     N 9827   3.885   3.752  12.687 -0.2642 -0.2307 -0.1411
  660MPD2    H5 9828   3.900   3.658  12.721  0.2252 -0.2633 -0.4488
  660MPD2    N1 9829   4.071   4.137  12.437  0.4229  0.0948 -0.0151
  660MPD2    H7 9830   4.149   4.163  12.377 -0.8478 -0.4674 -1.8859
  661TMC3    C1 9831   3.960   4.341  12.378  0.0868 -0.2004 -0.7457
  661TMC3    C2 9832   4.029   4.345  12.264  0.2601 -0.2913  0.1636
  661TMC3    C3 9833   4.000   4.447  12.178 -0.2340 -0.2963  0.0493
  661TMC3    C4 9834   3.862   4.431  12.407 -0.2329  0.9222 -0.8047
  661TMC3    C5 9835   3.830   4.527  12.315  0.8234  0.3960  0.5379
  661TMC3    C6 9836   3.898   4.537  12.194  0.7320  0.4053  0.3381
  661TMC3     C 9837   3.964   4.225  12.462  0.1502  0.3824  0.4161
  661TMC3     O 9838   3.876   4.217  12.549 -0.1689  0.5505 -0.2787
  661TMC3     H 9839   4.092   4.262  12.235 -0.7732 -1.2020  0.5503
  661TMC3    H1 9840   3.818   4.429  12.506  2.2240 -0.9015  0.2305
  661TMC3    H2 9841   3.875   4.610  12.117  1.9062 -0.0987 -0.4953
  661TMC3    C7 9842   3.682   4.550  12.310 -0.6131  0.2758 -0.4664
  661TMC3    C8 9843   4.075   4.453  12.053  0.1923  0.2733 -0.3746
  661TMC3    O1 9844   3.646   4.640  12.234 -0.1661 -0.4026 -0.3023
  661TMC3    O2 9845   4.125   4.349  12.012 -0.0890  0.0056  0.1318
  662MPD2     C 9846   3.569   4.077  17.263 -0.2616 -0.5394  0.3979
  662MPD2    C1 9847   3.540   3.979  17.352  0.5784  0.0480  0.0030
  662MPD2    C2 9848   3.465   4.013  17.465 -0.5707  0.2815 -0.1515
  662MPD2    C3 9849   3.435   4.145  17.489  1.2591  0.3053  0.8287
  662MPD2    C4 9850   3.477   4.243  17.411 -0.7250 -0.1017 -0.4612
  662MPD2    C5 9851   3.538   4.208  17.293 -0.1376 -0.1107 -0.2551
  662MPD2     H 9852   3.418   3.934  17.523 -2.0059  1.2639  0.0344
  662MPD2    H1 9853   3.456   4.348  17.426 -0.9023 -0.0402 -1.1512
  662MPD2    H2 9854   3.636   4.066  17.179 -2.0632 -1.0897 -0.9683
  662MPD2    H3 9855   3.571   4.287  17.226 -0.0760 -0.1124 -0.2270
  662MPD2     N 9856   3.358   4.191  17.602  0.5340  0.2673 -0.2390
  662MPD2    H5 9857   3.354   4.292  17.604 -0.4469  0.2237  0.0631
  662MPD2    N1 9858   3.587   3.848  17.337 -0.5705 -0.0740  0.0612
  662MPD2    H7 9859   3.586   3.796  17.425  0.7418  0.6060  0.4816
  663TMC3    C1 9860   3.683   3.665  17.246 -0.4100 -0.2185  0.8073
  663TMC3    C2 9861   3.766   3.640  17.348  0.5793  0.0859 -0.1152
  663TMC3    C3 9862   3.856   3.535  17.331  0.1194 -0.1652 -0.1176
  663TMC3    C4 9863   3.692   3.599  17.125 -1.0157 -0.1944 -0.6354
  663TMC3    C5 9864   3.791   3.506  17.105 -0.1404 -0.4081 -0.0334
  663TMC3    C6 9865   3.861   3.463  17.212 -0.8602  0.9784  0.1044
  663TMC3     C 9866   3.620   3.794  17.220 -0.4160 -0.0970  0.2208
  663TMC3     O 9867   3.582   3.831  17.107 -0.7614 -0.7332  0.7121
  663TMC3     H 9868   3.747   3.683  17.446  1.4524  0.7767 -0.2465
  663TMC3    H1 9869   3.617   3.617  17.049 -0.8394 -2.3173 -1.3089
  663TMC3    H2 9870   3.950   3.412  17.179 -0.7294  0.4950  1.1979
  663TMC3    C7 9871   3.750   3.407  17.013 -0.1089 -0.0624  0.3792
  663TMC3    C8 9872   3.833   3.433  17.429  0.5315 -0.7379  0.2166
  663TMC3    O1 9873   3.752   3.421  16.889  0.5391 -0.4873  0.0119
  663TMC3    O2 9874   3.820   3.316  17.389 -0.0125 -0.0195 -0.1900
  664MPD2     C 9875   2.350   1.940  17.526 -0.2236 -0.0584 -0.1006
  664MPD2    C1 9876   2.407   2.050  17.589 -0.9755 -0.4614 -0.8110
  664MPD2    C2 9877   2.345   2.090  17.711 -0.0947  0.0310  0.2093
  664MPD2    C3 9878   2.223   2.039   0.012 -0.4919  0.6952 -0.1780
  664MPD2    C4 9879   2.162   1.945  17.683 -0.4788  0.7139 -0.8335
  664MPD2    C5 9880   2.229   1.891  17.574 -0.3222 -0.3990 -0.2637
  664MPD2     H 9881   2.402   2.159   0.025  0.3634 -1.4100  1.4510
  664MPD2    H1 9882   2.065   1.900  17.698  0.0039  0.6470  2.1338
  664MPD2    H2 9883   2.395   1.904  17.435  0.2124  1.9270 -0.6807
  664MPD2    H3 9884   2.176   1.812  17.521  1.5452 -3.2771  2.1703
  664MPD2     N 9885   2.171   2.086   0.130 -0.3484  0.2010  0.0931
  664MPD2    H5 9886   2.237   2.140   0.184 -0.8069 -1.9258  2.7821
  664MPD2    N1 9887   2.521   2.112  17.543 -0.0288 -0.4565 -0.3134
  664MPD2    H7 9888   2.562   2.183  17.603  1.8377 -1.0411 -0.8826
  665TMC3    C1 9889   2.028   2.108   0.315 -0.2078  0.2058  0.1184
  665TMC3    C2 9890   1.900   2.148   0.337 -0.3409  0.0796 -0.5996
  665TMC3    C3 9891   1.881   2.228   0.447  0.0922  0.5002  0.8121
  665TMC3    C4 9892   2.138   2.164   0.382  0.5936  0.8711 -0.5738
  665TMC3    C5 9893   2.114   2.230   0.495 -0.3569 -0.0338  0.2384
  665TMC3    C6 9894   1.989   2.274   0.530 -0.4952  0.3108 -0.0968
  665TMC3     C 9895   2.054   2.038   0.190 -0.8684 -0.0974 -0.2408
  665TMC3     O 9896   1.966   1.968   0.135  0.0699 -0.1234  0.1046
  665TMC3     H 9897   1.823   2.106   0.274  0.0110 -0.5266 -0.6266
  665TMC3    H1 9898   2.243   2.140   0.371  0.0819 -1.5392 -0.4232
  665TMC3    H2 9899   1.974   2.350   0.606 -1.1701  0.4918 -0.4106
  665TMC3    C7 9900   2.229   2.264   0.575  0.6615 -0.1345 -0.0510
  665TMC3    C8 9901   1.751   2.283   0.483  0.2600  0.0694  0.2489
  665TMC3    O1 9902   2.339   2.264   0.520  0.2403 -0.0156 -0.0238
  665TMC3    O2 9903   1.732   2.322   0.597 -0.1142  0.6163 -0.1115
  666TMC3    C1 9904   2.152   2.005  10.060  1.1724 -0.2532  0.3638
  666TMC3    C2 9905   2.244   1.942  10.144 -0.3446  0.3218 -0.4880
  666TMC3    C3 9906   2.326   2.020  10.214  0.9831  0.4341  0.0962
  666TMC3    C4 9907   2.158   2.139  10.036  0.7866 -0.6628 -0.2313
  666TMC3    C5 9908   2.256   2.212  10.101 -0.3152 -0.6306  0.1029
  666TMC3    C6 9909   2.338   2.152  10.189  0.2618 -0.5306 -0.9521
  666TMC3     C 9910   2.049   1.917   9.998  0.5688  0.2683  0.2078
  666TMC3     O 9911   1.975   1.977   9.922 -0.4552  0.0714  0.1142
  666TMC3     H 9912   2.254   1.838  10.173  1.8460  0.5179 -0.5609
  666TMC3    H1 9913   2.074   2.177   9.979 -0.9842 -2.8027  0.9757
  666TMC3    H2 9914   2.386   2.217  10.261 -0.8320 -0.7853  0.0033
  666TMC3    C7 9915   2.239   2.350  10.115  0.7631 -0.1362 -0.1843
  666TMC3    C8 9916   2.413   1.956  10.305  0.1719 -0.0969  0.2208
  666TMC3    O1 9917   2.132   2.389  10.067  0.1926  0.1715 -0.3549
  666TMC3    O2 9918   2.391   1.844  10.352 -0.2507 -0.1928 -0.2141
  667MPD2     C 9919   2.380   2.212  14.558  0.1723 -0.5088 -0.1753
  667MPD2    C1 9920   2.435   2.089  14.593 -0.8928 -0.0449 -0.2921
  667MPD2    C2 9921   2.386   1.975  14.531  0.4442  0.2653 -0.5485
  667MPD2    C3 9922   2.264   1.985  14.460 -0.2109 -0.2290  0.5904
  667MPD2    C4 9923   2.201   2.110  14.441 -1.2390 -0.2949  0.3525
  667MPD2    C5 9924   2.261   2.225  14.491  0.3566  0.1504 -0.4045
  667MPD2     H 9925   2.436   1.881  14.550 -1.5193 -0.5649  0.5708
  667MPD2    H1 9926   2.098   2.112  14.409 -1.3111 -0.2656  0.5892
  667MPD2    H2 9927   2.417   2.302  14.605 -1.0896 -0.5667  0.9424
  667MPD2    H3 9928   2.211   2.321  14.484 -1.4292 -0.8453 -1.5033
  667MPD2     N 9929   2.188   1.866  14.420  0.2898  0.5487 -0.1618
  667MPD2    H5 9930   2.089   1.880  14.404  0.8027  0.8763 -2.9795
  667MPD2    N1 9931   2.556   2.081  14.668  0.0539 -0.6709  0.2050
  667MPD2    H7 9932   2.592   1.987  14.677 -0.4974 -0.7052  1.9358
  668TMC3    C1 9933   2.738   2.145  14.808 -0.2214 -0.4585  0.2572
  668TMC3    C2 9934   2.827   2.245  14.832  0.6942  0.0406  0.2731
  668TMC3    C3 9935   2.927   2.218  14.911 -0.2920  0.0177  0.5277
  668TMC3    C4 9936   2.756   2.022  14.852  0.4770 -0.2140 -0.4931
  668TMC3    C5 9937   2.865   1.997  14.933 -0.1171  0.0206 -0.1573
  668TMC3    C6 9938   2.951   2.095  14.970  0.3664  1.2969 -0.0095
  668TMC3     C 9939   2.620   2.187  14.727 -0.2071  0.1437 -0.4469
  668TMC3     O 9940   2.595   2.306  14.732 -0.3328  0.1902 -0.4565
  668TMC3     H 9941   2.808   2.348  14.803 -1.7237 -0.5125 -0.1240
  668TMC3    H1 9942   2.682   1.942  14.853 -0.5801  0.7750  0.5382
  668TMC3    H2 9943   3.036   2.077  15.035  0.2933 -3.4128 -1.2386
  668TMC3    C7 9944   2.919   1.869  14.894  0.0563 -1.2210  0.3001
  668TMC3    C8 9945   2.994   2.328  14.974  0.4802  0.0520 -0.1196
  668TMC3    O1 9946   2.837   1.784  14.863  0.2573 -0.0988 -0.1388
  668TMC3    O2 9947   3.003   2.325  15.098 -0.1857 -0.1196  0.1435
  669TMC3    C1 9948   0.683   2.061  14.772 -0.1686 -0.0314  0.3046
  669TMC3    C2 9949   0.562   2.087  14.712 -0.7097  0.5738  0.6147
  669TMC3    C3 9950   0.533   2.196  14.634  0.2234  0.4968  0.9917
  669TMC3    C4 9951   0.780   2.155  14.754  0.1822  0.2666 -0.0395
  669TMC3    C5 9952   0.755   2.268  14.679  0.3641 -0.0751 -0.2432
  669TMC3    C6 9953   0.630   2.292  14.616  0.4776  0.0894  0.1493
  669TMC3     C 9954   0.708   1.954  14.864 -0.3793  0.5643 -0.3959
  669TMC3     O 9955   0.608   1.896  14.904 -0.1146 -0.3980 -0.1020
  669TMC3     H 9956   0.494   2.003  14.708 -3.0331  2.5344 -2.0195
  669TMC3    H1 9957   0.876   2.144  14.804  1.2934  3.0837 -1.5527
  669TMC3    H2 9958   0.616   2.375  14.547 -1.6613 -0.4103 -0.0042
  669TMC3    C7 9959   0.869   2.340  14.639 -0.3492  1.0032  0.6027
  669TMC3    C8 9960   0.461   2.160  14.517  0.2605 -0.8602 -0.3675
  669TMC3    O1 9961   0.966   2.338  14.713  0.2200 -0.2285 -0.2300
  669TMC3    O2 9962   0.524   2.081  14.450  0.4359 -0.4106 -0.1382
  670MPD2     C 9963   4.683   4.258  13.263 -0.0707  0.7415  0.3474
  670MPD2    C1 9964   4.653   4.338  13.370 -0.3854  0.0965  0.1380
  670MPD2    C2 9965   4.529   4.330  13.428 -0.1085 -0.0112  0.4114
  670MPD2    C3 9966   4.435   4.252  13.370 -0.0080 -0.4632  0.5481
  670MPD2    C4 9967   4.456   4.199  13.243 -0.8919  0.2478  0.0268
  670MPD2    C5 9968   4.583   4.195  13.195  0.0210 -0.5810 -0.1012
  670MPD2     H 9969   4.513   4.389  13.517  2.5489  0.0899  0.8252
  670MPD2    H1 9970   4.385   4.140  13.187 -0.1632  0.5208 -1.1745
  670MPD2    H2 9971   0.048   4.253  13.226 -0.7026  0.4114 -1.3599
  670MPD2    H3 9972   4.611   4.147  13.102  1.1458 -0.3679  0.1258
  670MPD2     N 9973   4.314   4.244  13.439 -0.5874 -0.2099 -0.6662
  670MPD2    H5 9974   4.318   4.260  13.539 -3.1985  2.0919 -0.9155
  670MPD2    N1 9975   4.730   4.438  13.424  0.3876  0.5051 -0.1920
  670MPD2    H7 9976   4.695   4.481  13.509  2.2216 -0.0690  0.8521
  671TMC3    C1 9977   4.106   4.186  13.492  0.1848  0.1349  0.1841
  671TMC3    C2 9978   4.092   4.274  13.601  0.7881 -0.1669  0.0655
  671TMC3    C3 9979   3.993   4.251  13.697 -0.0418 -0.4313 -0.2090
  671TMC3    C4 9980   4.022   4.081  13.479 -0.0903 -0.2675 -0.3971
  671TMC3    C5 9981   3.928   4.061  13.578  0.6626  0.1460  0.1484
  671TMC3    C6 9982   3.908   4.143  13.682 -0.4528 -0.6338  0.3646
  671TMC3     C 9983   4.202   4.199  13.387 -0.3370 -0.2309  0.1425
  671TMC3     O 9984   4.179   4.151  13.279 -0.1138 -0.0215  0.0362
  671TMC3     H 9985   4.154   4.363  13.602 -1.6393  1.5165 -0.3660
  671TMC3    H1 9986   4.027   4.022  13.388 -0.8932  1.5984 -1.6653
  671TMC3    H2 9987   3.835   4.115  13.758 -2.3400  0.6787 -0.9906
  671TMC3    C7 9988   3.829   3.963  13.537 -1.1259 -0.2302 -0.3371
  671TMC3    C8 9989   4.029   4.275  13.839 -0.3163 -0.3550 -0.3948
  671TMC3    O1 9990   3.862   3.880  13.453 -0.1560  0.2392  0.1308
  671TMC3    O2 9991   4.090   4.379  13.860 -0.1829 -0.3003  0.4262
  672MPD2     C 9992   4.212   0.128   0.368  0.5463 -0.6203  0.6677
  672MPD2    C1 9993   4.257   0.034   0.456 -0.4297 -0.2398 -0.5155
  672MPD2    C2 9994   4.221   0.034   0.589 -0.1620 -0.3660  0.4926
  672MPD2    C3 9995   4.141   0.135   0.637  0.1282  0.3903  0.5895
  672MPD2    C4 9996   4.088   0.224   0.550  0.6348  0.2843  0.5521
  672MPD2    C5 9997   4.126   0.220   0.421 -0.1716 -0.7942 -0.0720
  672MPD2     H 9998   4.270   4.703   0.657 -1.5592 -1.7935  0.0783
  672MPD2    H1 9999   4.020   0.300   0.585 -1.6830 -0.8352 -1.5695
  672MPD2    H210000   4.218   0.130   0.260  0.1065 -0.8953  0.6386
  672MPD2    H310001   4.096   0.299   0.353  3.0357 -1.6108 -2.4037
  672MPD2     N10002   4.098   0.149   0.772 -0.0138  0.0901  0.4535
  672MPD2    H510003   4.035   0.227   0.789  1.0619  0.7859  1.2520
  672MPD2    N110004   4.339   4.662   0.407  0.1745  0.0273  0.2489
  672MPD2    H710005   4.347   4.587   0.475 -3.1849 -0.5964 -0.0478
  673TMC3    C110006   4.461   4.523   0.256 -0.0966 -0.2511 -0.4561
  673TMC3    C210007   4.438   4.416   0.339 -0.2243 -0.1659 -0.2432
  673TMC3    C310008   4.401   4.293   0.284 -0.6840  0.4299  0.4425
  673TMC3    C410009   4.477   4.505   0.121 -0.4529  1.0275  0.5534
  673TMC3    C510010   4.439   4.385   0.067  1.3213 -0.2629  0.7734
  673TMC3    C610011   4.400   4.275   0.150 -0.0082 -0.3382 -0.3741
  673TMC3     C10012   4.395   4.654   0.285 -0.0921 -0.7710  0.1701
  673TMC3     O10013   4.381   4.719   0.183 -0.3653  0.2631  0.6126
  673TMC3     H10014   4.422   4.427   0.445  2.2931  0.7368  0.0558
  673TMC3    H110015   4.497   4.589   0.055  1.6085  0.7823  0.8556
  673TMC3    H210016   4.372   4.181   0.104 -2.1214  0.8032 -1.4355
  673TMC3    C710017   4.357   4.406  17.693  0.3170 -0.1241  0.2681
  673TMC3    C810018   4.402   4.181   0.375  0.0079 -0.0788  0.1802
  673TMC3    O110019   4.344   4.323  17.605  0.0046 -0.2321  0.4156
  673TMC3    O210020   4.368   4.076   0.320 -0.1917 -0.2325 -0.6457
  674MPD2     C10021   3.990   3.847  17.409  0.3628  0.0504  0.4467
  674MPD2    C110022   3.972   3.858  17.546  0.3767  0.4490  0.2978
  674MPD2    C210023   3.907   3.979  17.598  0.2781  0.2654 -0.3846
  674MPD2    C310024   3.888   4.090  17.515  0.6565  0.6200  0.5688
  674MPD2    C410025   3.904   4.076  17.379 -0.5144  0.7194  0.1979
  674MPD2    C510026   3.950   3.953  17.330  0.3947 -0.1188  0.5322
  674MPD2     H10027   3.896   3.987  17.706  2.1983 -1.3312 -0.0875
  674MPD2    H110028   3.872   4.154  17.310 -1.2751  0.9708  0.8201
  674MPD2    H210029   4.024   3.756  17.362 -1.2642 -0.7299  0.7813
  674MPD2    H310030   3.954   3.948  17.221 -0.0686  0.2279  0.5027
  674MPD2     N10031   3.861   4.214  17.577 -0.0489  0.0132 -0.1532
  674MPD2    H510032   3.833   4.204  17.674 -0.0304  2.0279  0.0537
  674MPD2    N110033   4.022   3.756  17.625  0.1508  0.6091  0.2791
  674MPD2    H710034   4.097   3.696  17.592  0.9990  1.2553  1.0454
  675TMC3    C110035   4.097   3.702   0.092 -0.8482 -0.2367  0.3386
  675TMC3    C210036   4.073   3.631   0.203  0.3458  0.2199 -0.1151
  675TMC3    C310037   4.168   3.637   0.303 -0.0520  0.3647 -0.5050
  675TMC3    C410038   4.213   3.778   0.074 -0.6122 -0.1644  0.0370
  675TMC3    C510039   4.298   3.787   0.182  0.1281 -0.2670 -0.0644
  675TMC3    C610040   4.277   3.713   0.296  0.0554 -0.3100  0.7445
  675TMC3     C10041   3.985   3.740   0.007 -0.2036  0.1723  0.1713
  675TMC3     O10042   3.874   3.755   0.057  0.0625 -0.3802  0.1714
  675TMC3     H10043   3.980   3.581   0.226  0.5014  0.0835  0.2236
  675TMC3    H110044   4.211   3.837  17.729  3.2770 -0.6524 -0.3258
  675TMC3    H210045   4.358   3.703   0.367  1.9453  0.7195 -1.2322
  675TMC3    C710046   4.441   3.819   0.148  0.8535  0.7450 -0.4103
  675TMC3    C810047   4.134   3.587   0.432  0.0393  0.0293  0.5839
  675TMC3    O110048   4.516   3.732   0.186  0.0457 -0.0556  0.3990
  675TMC3    O210049   4.095   3.473   0.446 -0.0567  0.2543 -0.2440
  676MPD2     C10050   2.124   2.998  11.722  0.2214 -0.4075 -0.2972
  676MPD2    C110051   2.234   2.948  11.780  0.9200  0.6827 -0.1321
  676MPD2    C210052   2.315   2.859  11.713  0.4346  0.5808 -0.2174
  676MPD2    C310053   2.295   2.840  11.576 -0.1091  0.4731  0.1945
  676MPD2    C410054   2.177   2.880  11.523  0.1351 -0.3554  0.1070
  676MPD2    C510055   2.094   2.966  11.593  0.4999 -0.0562  0.3139
  676MPD2     H10056   2.404   2.813  11.754  0.2916  0.1657 -0.3680
  676MPD2    H110057   2.149   2.869  11.419  1.4902  1.4912 -0.4595
  676MPD2    H210058   2.062   3.069  11.776  1.1402  0.2563 -0.1149
  676MPD2    H310059   2.000   3.005  11.557 -0.0005 -0.2624  1.4170
  676MPD2     N10060   2.385   2.770  11.489 -0.8433 -0.1233 -0.4528
  676MPD2    H510061   2.367   2.767  11.389 -0.5181 -2.2565 -0.4528
  676MPD2    N110062   2.286   2.997  11.901  0.6338  0.3275 -0.5746
  676MPD2    H710063   2.354   2.940  11.950 -2.4048 -1.6264  1.3679
  677TMC3    C110064   2.328   3.134  12.079  0.1661  0.1266 -0.0979
  677TMC3    C210065   2.325   3.029  12.177 -0.6870  0.0178  0.0991
  677TMC3    C310066   2.391   3.044  12.296  0.2198  0.1638 -0.0647
  677TMC3    C410067   2.411   3.238  12.094  0.1754 -0.0564 -0.2734
  677TMC3    C510068   2.461   3.259  12.224  0.0018 -0.5912 -0.6115
  677TMC3    C610069   2.452   3.162  12.323 -0.3861  0.2872  0.4274
  677TMC3     C10070   2.257   3.119  11.951  0.5948  0.4297 -0.5981
  677TMC3     O10071   2.233   3.217  11.886 -0.4131  0.0456 -0.6598
  677TMC3     H10072   2.267   2.938  12.167  2.2339 -1.7442 -1.0016
  677TMC3    H110073   2.414   3.318  12.022 -1.9682  0.0936 -0.1953
  677TMC3    H210074   2.498   3.184  12.419 -1.0060 -3.0755  1.4947
  677TMC3    C710075   2.538   3.378  12.251  0.3192 -0.7178  0.2481
  677TMC3    C810076   2.433   2.941  12.393 -0.4541 -0.0011 -0.0553
  677TMC3    O110077   2.547   3.408  12.368  0.1533  0.1389 -0.3080
  677TMC3    O210078   2.483   2.979  12.497 -0.2590  0.1898 -0.5088
  678MPD2     C10079   3.247   3.048   1.779  0.5580 -0.1095  0.1932
  678MPD2    C110080   3.245   2.948   1.681 -0.3329  0.2251  0.6315
  678MPD2    C210081   3.127   2.885   1.660  0.8532 -0.1544 -0.1726
  678MPD2    C310082   3.013   2.914   1.732 -0.0731  0.0293 -0.3663
  678MPD2    C410083   3.018   3.008   1.832  0.3023 -0.7920  0.1445
  678MPD2    C510084   3.132   3.079   1.845 -0.5461  0.1804  0.1657
  678MPD2     H10085   3.127   2.803   1.588  3.6374 -0.2370 -0.0908
  678MPD2    H110086   2.931   3.036   1.890  0.2019 -1.5787  0.3732
  678MPD2    H210087   3.341   3.097   1.800 -1.0161  3.0504 -0.0445
  678MPD2    H310088   3.129   3.156   1.921 -3.4772  0.8047 -0.5948
  678MPD2     N10089   2.891   2.853   1.687  0.4377 -0.3939 -0.6372
  678MPD2    H510090   2.906   2.779   1.620 -1.1404 -0.2870 -1.1203
  678MPD2    N110091   3.345   2.922   1.582  0.2277 -0.4702  0.3006
  678MPD2    H710092   3.347   2.833   1.532 -2.7692 -0.0874 -0.4575
  679TMC3    C110093   3.631   2.747   1.359 -0.8270  0.0283 -0.8532
  679TMC3    C210094   3.559   2.803   1.464  0.0306 -0.7572 -0.0097
  679TMC3    C310095   3.566   2.934   1.483 -0.3919 -0.3850  0.0894
  679TMC3    C410096   3.706   2.826   1.274 -0.1799  0.2002 -0.4955
  679TMC3    C510097   3.715   2.957   1.306  0.8857  0.1702 -0.0554
  679TMC3    C610098   3.641   3.017   1.399  0.4956  0.0133 -0.4639
  679TMC3     C10099   3.641   2.607   1.358  0.3341  0.2114  0.2799
  679TMC3     O10100   3.743   2.565   1.298  0.0808  0.5200 -0.0075
  679TMC3     H10101   3.508   2.752   1.545 -0.1929  0.7756  0.8149
  679TMC3    H110102   3.757   2.780   1.191 -0.6565 -1.8180  0.3234
  679TMC3    H210103   3.648   3.124   1.408  0.5028  0.0813 -1.2719
  679TMC3    C710104   3.771   3.050   1.211  0.1490 -0.3148 -0.5568
  679TMC3    C810105   3.460   3.005   1.560 -0.3344 -0.4180  0.0734
  679TMC3    O110106   3.720   3.164   1.202  0.0895 -0.1861 -0.2110
  679TMC3    O210107   3.489   3.111   1.612  0.1843  0.2643 -0.2306
  680MPD2     C10108   4.204   1.946  13.454  0.4292  0.3084  0.3286
  680MPD2    C110109   4.282   1.923  13.568  0.1454 -0.5270  0.1019
  680MPD2    C210110   4.299   2.027  13.663  0.2085 -0.0235 -0.0896
  680MPD2    C310111   4.236   2.147  13.643  0.9604  0.0480  0.3358
  680MPD2    C410112   4.158   2.174  13.528  0.1890 -0.6126 -0.0156
  680MPD2    C510113   4.152   2.075  13.436 -0.4914 -0.0685  0.1794
  680MPD2     H10114   4.372   2.010  13.742  1.1248  0.1701 -0.9073
  680MPD2    H110115   4.125   2.274  13.501  1.1816 -0.0287  0.9251
  680MPD2    H210116   4.189   1.879  13.369  1.5511  0.2084  0.2040
  680MPD2    H310117   4.107   2.092  13.339 -0.1309  0.5533  0.1261
  680MPD2     N10118   4.264   2.260  13.720  0.1146 -0.2034 -0.3217
  680MPD2    H510119   4.224   2.347  13.686  0.3467 -0.2919 -0.8153
  680MPD2    N110120   4.365   1.808  13.588 -0.2437 -0.0022 -0.3363
  680MPD2    H710121   4.418   1.806  13.675  0.6571 -1.1206 -0.9143
  681TMC3    C110122   4.476   1.603  13.547 -0.1778 -0.5081 -0.2513
  681TMC3    C210123   4.464   1.555  13.676  0.1427  0.2402 -0.1094
  681TMC3    C310124   4.566   1.472  13.720  0.5199  0.2057 -0.6280
  681TMC3    C410125   4.578   1.571  13.464 -0.1816  0.4532 -0.2903
  681TMC3    C510126   4.672   1.472  13.507  0.1131  0.5388 -0.1306
  681TMC3    C610127   4.665   1.429  13.632  0.9201  0.5447  0.2348
  681TMC3     C10128   4.382   1.703  13.498 -0.6640  0.3607  0.1980
  681TMC3     O10129   4.327   1.693  13.390  0.0627  0.0770 -0.3635
  681TMC3     H10130   4.375   1.584  13.729  0.0228  1.9228 -1.2187
  681TMC3    H110131   4.573   1.616  13.366  1.5533 -2.3473 -1.6784
  681TMC3    H210132   0.012   1.366  13.660  0.0252 -2.1686 -3.1426
  681TMC3    C710133   0.048   1.435  13.423  0.1274  0.1774  0.3824
  681TMC3    C810134   4.570   1.419  13.857  0.3929 -0.7043  0.2010
  681TMC3    O110135   0.150   1.401  13.477 -0.2588 -0.3070 -0.6095
  681TMC3    O210136   4.636   1.321  13.879 -0.4034 -0.4079 -0.4772
  682MPD2     C10137   1.929   3.566  10.685 -0.4713  0.2294  0.2130
  682MPD2    C110138   1.851   3.454  10.695 -0.4472  0.3925 -0.0957
  682MPD2    C210139   1.742   3.455  10.788 -0.0424  0.7005  0.1421
  682MPD2    C310140   1.717   3.564  10.868  0.0068 -0.1095 -0.3559
  682MPD2    C410141   1.790   3.684  10.841  0.0448 -0.4900  0.6856
  682MPD2    C510142   1.900   3.678  10.761 -0.6286  0.3414  0.1214
  682MPD2     H10143   1.688   3.362  10.797 -0.1682  0.8815  1.2287
  682MPD2    H110144   1.773   3.774  10.899  0.9519  1.1556 -1.6114
  682MPD2    H210145   2.004   3.583  10.609 -1.6637 -0.7982 -1.1724
  682MPD2    H310146   1.956   3.770  10.757  0.4720 -0.3175  0.5100
  682MPD2     N10147   1.626   3.572  10.979 -0.0908 -0.0747 -0.0089
  682MPD2    H510148   1.642   3.658  11.030  0.4807 -0.3893  0.3455
  682MPD2    N110149   1.853   3.339  10.609 -0.6916  0.2940  0.0940
  682MPD2    H710150   1.771   3.281  10.608 -1.4621  1.3829  0.4084
  683TMC3    C110151   1.435   3.561  11.361 -0.2596  0.5496 -1.0683
  683TMC3    C210152   1.332   3.475  11.375 -0.4855 -0.6250 -0.7654
  683TMC3    C310153   1.297   3.389  11.267  0.9913 -0.3102  0.4338
  683TMC3    C410154   1.494   3.588  11.240 -0.0657 -0.3996 -0.3266
  683TMC3    C510155   1.454   3.506  11.132  0.7116 -0.2599  0.1561
  683TMC3    C610156   1.366   3.406  11.148  0.9681 -0.2377 -0.2510
  683TMC3     C10157   1.501   3.620  11.482 -0.0815 -0.8060  0.2753
  683TMC3     O10158   1.574   3.716  11.459  0.0758  0.4815 -1.0345
  683TMC3     H10159   1.293   3.450  11.474  1.4208  1.2823  0.4595
  683TMC3    H110160   1.588   3.643  11.240 -0.4169  0.2236  1.8102
  683TMC3    H210161   1.323   3.351  11.065  1.3702 -0.7839 -0.0917
  683TMC3    C710162   1.537   3.473  11.021 -0.1167  0.3040 -0.4106
  683TMC3    C810163   1.193   3.287  11.288  0.4243 -0.2729 -0.0401
  683TMC3    O110164   1.521   3.361  10.973  0.3688 -0.3088 -0.0467
  683TMC3    O210165   1.104   3.306  11.370 -0.3401 -0.2491  0.0127
  684MPD2     C10166   4.451   2.912  15.961 -0.2527  0.2829 -0.8945
  684MPD2    C110167   4.355   2.836  15.901 -0.1107 -0.3600 -0.4201
  684MPD2    C210168   4.239   2.809  15.965 -0.2986 -0.0575  0.2757
  684MPD2    C310169   4.214   2.871  16.089 -0.8742 -0.7324 -0.2807
  684MPD2    C410170   4.309   2.946  16.150 -0.3359 -0.0594 -0.8285
  684MPD2    C510171   4.430   2.961  16.088 -0.1685  1.0179 -0.3181
  684MPD2     H10172   4.157   2.763  15.912 -0.5642  0.1523  0.5040
  684MPD2    H110173   4.293   2.999  16.243  0.7981 -1.0292 -0.0820
  684MPD2    H210174   4.544   2.939  15.911  0.8568  0.3494  1.1967
  684MPD2    H310175   4.510   3.020  16.132 -0.8022  1.0776  0.7364
  684MPD2     N10176   4.091   2.854  16.162 -0.3121 -0.2429 -0.1239
  684MPD2    H510177   4.083   2.902  16.251  1.7088  0.1098 -0.1441
  684MPD2    N110178   4.379   2.765  15.774 -0.2536 -0.1980 -0.2189
  684MPD2    H710179   4.317   2.690  15.744  0.0554  0.1627 -1.7452
  685TMC3    C110180   4.491   2.697  15.579  0.0376  0.0168 -0.0744
  685TMC3    C210181   4.375   2.640  15.541 -0.7883  0.9143  0.1613
  685TMC3    C310182   4.390   2.535  15.457 -0.1121 -0.1645  0.2169
  685TMC3    C410183   4.621   2.651  15.562 -0.3412  0.9851 -0.1422
  685TMC3    C510184   4.630   2.534  15.494  0.7101  0.0731 -0.0584
  685TMC3    C610185   4.512   2.471  15.440  0.1413 -0.6974 -0.3845
  685TMC3     C10186   4.483   2.785  15.690  0.7315  0.0943  0.3277
  685TMC3     O10187   4.571   2.871  15.696 -0.2094  0.3169 -0.1465
  685TMC3     H10188   4.280   2.689  15.554 -1.8326 -1.1279  0.2769
  685TMC3    H110189   4.701   2.708  15.608 -0.3751  1.5098 -0.7208
  685TMC3    H210190   4.508   2.368  15.407 -0.3152 -0.4477 -1.0800
  685TMC3    C710191   4.706   2.446  15.569  0.3257  0.1977  0.5350
  685TMC3    C810192   4.278   2.486  15.387 -0.2039 -0.0457 -0.0780
  685TMC3    O110193   0.022   2.497  15.670  0.5665 -0.3136  0.7109
  685TMC3    O210194   4.306   2.435  15.280  0.1147  0.1357  0.0855
  686MPD2     C10195   0.990   2.605  15.702 -0.4012 -1.0026 -0.5265
  686MPD2    C110196   1.013   2.470  15.718 -0.2898  0.5630  0.5855
  686MPD2    C210197   1.098   2.400  15.631 -0.4238  0.4202 -0.9170
  686MPD2    C310198   1.145   2.471  15.530 -0.6982 -0.1198  0.3665
  686MPD2    C410199   1.128   2.604  15.505 -0.3403 -0.1676  0.2478
  686MPD2    C510200   1.053   2.669  15.601 -0.3022  0.1752  0.2360
  686MPD2     H10201   1.124   2.296  15.645  0.5110  0.8959  0.9352
  686MPD2    H110202   1.157   2.662  15.418  1.8858 -1.1656  0.3390
  686MPD2    H210203   0.921   2.665  15.761 -0.1188  0.1881 -1.3921
  686MPD2    H310204   1.034   2.775  15.588  1.4185  0.2466 -1.8003
  686MPD2     N10205   1.203   2.394  15.428 -0.4123 -0.1655 -0.3660
  686MPD2    H510206   1.192   2.425  15.332 -2.9653  0.5914  0.1554
  686MPD2    N110207   0.938   2.399  15.815  0.2778 -0.0427 -0.4660
  686MPD2    H710208   0.872   2.457  15.865 -0.4962  1.1153 -2.8325
  687TMC3    C110209   1.174   2.159  15.394  0.5091  0.2936  0.2883
  687TMC3    C210210   1.050   2.199  15.354 -1.0149  0.2644 -0.5447
  687TMC3    C310211   0.937   2.129  15.392  0.3779 -0.3401 -0.3866
  687TMC3    C410212   1.183   2.039  15.461  0.4505  0.5871 -0.1006
  687TMC3    C510213   1.070   1.971  15.489  0.4804  0.2268  0.5059
  687TMC3    C610214   0.944   2.016  15.463  0.1492 -0.2973  0.1317
  687TMC3     C10215   1.253   2.265  15.456  0.4823 -0.2501 -0.2891
  687TMC3     O10216   1.323   2.232  15.552  0.1733  0.0379  0.4263
  687TMC3     H10217   1.047   2.289  15.293 -0.6855 -0.3682 -1.5056
  687TMC3    H110218   1.280   2.014  15.501 -0.2471 -0.8273  0.7115
  687TMC3    H210219   0.858   1.953  15.478  1.6716 -2.7091 -1.1452
  687TMC3    C710220   1.076   1.876  15.603  0.0632  0.1456 -0.2589
  687TMC3    C810221   0.825   2.213  15.431  0.0966 -0.7476  0.9038
  687TMC3    O110222   1.096   1.764  15.559  0.3201  0.4106 -0.3659
  687TMC3    O210223   0.740   2.159  15.500  0.7490 -0.2318 -0.1886
  688MPD2     C10224   4.549   1.163  17.194 -0.2673 -0.0189  0.1034
  688MPD2    C110225   4.579   1.030  17.225 -0.3783  0.2410  0.1131
  688MPD2    C210226   4.656   0.962  17.135 -0.3151 -0.5792 -0.0458
  688MPD2    C310227   4.710   1.028  17.025  0.0200 -0.0572 -0.2591
  688MPD2    C410228   4.679   1.163  16.995 -0.0746 -0.4061  0.1830
  688MPD2    C510229   4.594   1.225  17.081  0.4143 -0.2032 -0.6611
  688MPD2     H10230   4.687   0.861  17.158 -0.7731 -1.1003 -1.6889
  688MPD2    H110231   4.721   1.226  16.917 -1.6144  0.6078  0.1556
  688MPD2    H210232   4.472   1.214  17.250  0.4396  1.6387 -0.4176
  688MPD2    H310233   4.572   1.328  17.056 -0.6616 -0.3295 -0.2325
  688MPD2     N10234   0.066   0.970  16.935 -0.0727 -0.4598 -0.2850
  688MPD2    H510235   0.110   1.029  16.865 -0.7822  0.7990  0.3181
  688MPD2    N110236   4.526   0.965  17.341  0.8472 -0.0107 -0.5313
  688MPD2    H710237   4.538   0.865  17.342 -0.8242 -0.2114 -0.2751
  689TMC3    C110238   4.430   0.953  17.559 -0.5149  0.0516  0.1850
  689TMC3    C210239   4.390   1.025  17.665 -0.0234  0.2145 -0.2043
  689TMC3    C310240   4.343   0.946   0.026 -0.3091 -0.4303  0.9003
  689TMC3    C410241   4.420   0.821  17.556  0.1295  0.4268  0.0518
  689TMC3    C510242   4.358   0.748  17.655  0.2050 -0.1835  0.4580
  689TMC3    C610243   4.336   0.813   0.025 -0.0796  0.4779 -0.1638
  689TMC3     C10244   4.462   1.031  17.440  0.4352 -0.0593  0.2577
  689TMC3     O10245   4.439   1.150  17.447  0.6169 -0.2507 -0.3159
  689TMC3     H10246   4.372   1.132  17.666 -2.1857 -0.1382 -1.8014
  689TMC3    H110247   4.459   0.776  17.466  0.9997 -1.2918  1.2807
  689TMC3    H210248   4.310   0.754   0.113  0.1935  1.5813  0.6626
  689TMC3    C710249   4.385   0.614  17.656 -0.2812  0.1448  0.2705
  689TMC3    C810250   4.274   1.013   0.132 -0.5924  0.0538  0.2066
  689TMC3    O110251   4.411   0.575   0.026 -0.2699 -0.3789 -0.2295
  689TMC3    O210252   4.219   0.941   0.213  0.3891 -0.1709 -0.2061
  690MPD2     C10253   2.291   3.357  16.258  0.5627  0.6644  0.7910
  690MPD2    C110254   2.241   3.301  16.145 -0.1698 -0.3337 -0.1006
  690MPD2    C210255   2.301   3.337  16.023  0.1760 -0.2862 -0.3426
  690MPD2    C310256   2.395   3.432  16.013 -0.3975 -0.3196 -0.6007
  690MPD2    C410257   2.438   3.503  16.125  0.4516 -0.4367 -0.8397
  690MPD2    C510258   2.389   3.450  16.245 -0.0841 -0.9061 -0.2363
  690MPD2     H10259   2.251   3.296  15.935 -0.4575 -0.0680 -0.0801
  690MPD2    H110260   2.514   3.580  16.135 -0.9180  0.8805 -0.4690
  690MPD2    H210261   2.271   3.322  16.359  1.9619  3.3685  2.0154
  690MPD2    H310262   2.428   3.481  16.341  0.5466 -0.4802 -0.6313
  690MPD2     N10263   2.440   3.459  15.882 -0.5596 -0.3588  0.2946
  690MPD2    H510264   2.403   3.410  15.801  1.1227 -0.8424 -0.1903
  690MPD2    N110265   2.147   3.203  16.161  0.1765  0.2638  0.3524
  690MPD2    H710266   2.136   3.135  16.086  0.9518 -0.7609  1.1740
  691TMC3    C110267   1.995   3.058  16.264 -0.6814 -0.1731  0.2806
  691TMC3    C210268   1.864   3.053  16.316 -0.5641 -0.3711 -0.2596
  691TMC3    C310269   1.821   2.934  16.364 -0.0326  0.2785 -0.2671
  691TMC3    C410270   2.075   2.950  16.246 -0.2115 -0.1688 -0.3480
  691TMC3    C510271   2.025   2.829  16.293 -0.1062  0.7261  0.3139
  691TMC3    C610272   1.905   2.822  16.359 -1.0947 -0.1833  0.6950
  691TMC3     C10273   2.055   3.190  16.263  0.0976  0.1078  0.5157
  691TMC3     O10274   2.021   3.273  16.345  0.0078 -0.0986 -0.2929
  691TMC3     H10275   1.816   3.151  16.313  0.8375  0.3186  0.0769
  691TMC3    H110276   2.171   2.954  16.196 -0.3949  1.1756 -0.6053
  691TMC3    H210277   1.887   2.728  16.410 -0.3715 -0.1079  1.0899
  691TMC3    C710278   2.090   2.701  16.257  0.6692  0.1300  0.9551
  691TMC3    C810279   1.682   2.907  16.399  0.1445  1.0164 -0.5196
  691TMC3    O110280   2.206   2.677  16.287  0.1903  0.3067 -0.7292
  691TMC3    O210281   1.644   2.791  16.405 -0.0779 -0.5564 -0.3037
  692TMC3    C110282   3.477   3.568  15.837  0.2594 -0.4187 -0.3858
  692TMC3    C210283   3.570   3.544  15.751  0.2283  0.2668 -0.8049
  692TMC3    C310284   3.616   3.413  15.735  0.0941 -0.6243 -0.7947
  692TMC3    C410285   3.397   3.473  15.883  0.1381 -0.0558 -0.4438
  692TMC3    C510286   3.423   3.342  15.859  0.4332  0.2708  0.2819
  692TMC3    C610287   3.547   3.310  15.801 -0.0926 -0.7326 -0.0370
  692TMC3     C10288   3.466   3.698  15.893 -0.3974  0.2796 -0.5007
  692TMC3     O10289   3.354   3.736  15.931 -0.0321  0.1346 -0.0399
  692TMC3     H10290   3.652   3.612  15.735  0.9595 -0.5763 -0.6698
  692TMC3    H110291   3.314   3.505  15.945  0.1205  0.0035 -0.4991
  692TMC3    H210292   3.570   3.207  15.774  0.8876 -0.8112  1.1041
  692TMC3    C710293   3.342   3.242  15.939  0.9653  0.9396 -0.1117
  692TMC3    C810294   3.755   3.412  15.770  0.1286 -0.1964 -0.6809
  692TMC3    O110295   3.250   3.287  16.006  0.2016  0.3371 -0.7016
  692TMC3    O210296   3.838   3.405  15.682 -0.7200 -0.3949  0.3062
  693MPD2     C10297   3.954   2.497  10.704 -0.1464  0.5365 -0.3310
  693MPD2    C110298   3.908   2.366  10.720  0.3685  0.1934 -0.7242
  693MPD2    C210299   3.991   2.256  10.754 -0.1916  0.0968  0.1217
  693MPD2    C310300   4.121   2.278  10.779  0.8802 -0.3148  0.3154
  693MPD2    C410301   4.169   2.405  10.771 -0.0581 -0.3620  0.5396
  693MPD2    C510302   4.086   2.512  10.743  0.3222 -0.2632 -0.3324
  693MPD2     H10303   3.941   2.167  10.791  1.8354  0.6726  4.2473
  693MPD2    H110304   4.271   2.433  10.793 -1.5129  2.7959  3.2190
  693MPD2    H210305   3.894   2.587  10.689  1.2583  1.2823 -1.4588
  693MPD2    H310306   4.120   2.613  10.764  2.3703 -1.1023  0.3027
  693MPD2     N10307   4.207   2.182  10.843  0.6294 -0.2612  0.0995
  693MPD2    H510308   4.288   2.218  10.892  0.1503 -0.5576  1.1217
  693MPD2    N110309   3.767   2.340  10.723  0.8520  0.9626 -0.2850
  693MPD2    H710310   3.748   2.240  10.727 -0.8523  1.2520 -0.9448
  694TMC3    C110311   3.538   2.379  10.769 -0.2191  0.0837  0.3454
  694TMC3    C210312   3.470   2.291  10.689 -0.1507  0.3466  0.3766
  694TMC3    C310313   3.380   2.205  10.746  0.5300  0.0192  0.1742
  694TMC3    C410314   3.536   2.371  10.907  0.0334 -0.0906  0.2147
  694TMC3    C510315   3.452   2.278  10.958 -0.0024  0.9708  0.2801
  694TMC3    C610316   3.377   2.191  10.881 -0.1989  0.1877  0.0261
  694TMC3     C10317   3.665   2.436  10.716 -0.2725 -0.0940  0.0679
  694TMC3     O10318   3.670   2.556  10.725  0.1770 -0.1017  0.1078
  694TMC3     H10319   3.475   2.308  10.582 -2.5863 -1.2402  0.0024
  694TMC3    H110320   3.584   2.441  10.975  2.2464 -1.0566 -0.3436
  694TMC3    H210321   3.303   2.120  10.914  0.6211 -0.8822 -0.4345
  694TMC3    C710322   3.439   2.275  11.103 -0.1553 -0.5124 -0.2733
  694TMC3    C810323   3.288   2.136  10.661  0.0302 -0.5940 -0.2919
  694TMC3    O110324   3.459   2.373  11.171 -0.8663 -0.2262  0.0557
  694TMC3    O210325   3.191   2.080  10.717  0.6923  0.9337  0.2239
  695MPD2     C10326   4.368   3.275  13.626 -0.0192  0.2467 -0.0365
  695MPD2    C110327   4.256   3.322  13.692  0.4973  0.4725  0.0503
  695MPD2    C210328   4.146   3.362  13.616  0.5212  0.0373  0.4232
  695MPD2    C310329   4.145   3.358  13.478 -0.3512 -0.2454  0.3151
  695MPD2    C410330   4.250   3.292  13.416 -0.0109 -0.3137  0.3039
  695MPD2    C510331   4.365   3.264  13.492 -0.1088  0.2813 -0.6091
  695MPD2     H10332   4.056   3.394  13.669 -0.1537 -2.2281  0.6414
  695MPD2    H110333   4.262   3.297  13.308  1.4256  0.8546  0.5059
  695MPD2    H210334   4.462   3.259  13.678 -0.9635 -1.1074  1.2591
  695MPD2    H310335   4.460   3.249  13.440  0.1632 -2.4445  0.6771
  695MPD2     N10336   4.030   3.405  13.418 -0.2796  0.1221  0.5330
  695MPD2    H510337   3.955   3.427  13.484 -1.4022 -0.8210 -0.4255
  695MPD2    N110338   4.244   3.345  13.831 -0.2419  0.0705 -0.4438
  695MPD2    H710339   4.156   3.379  13.868  1.0599 -1.4552  4.0367
  696TMC3    C110340   3.890   3.500  13.240 -0.6826  0.9819 -0.7341
  696TMC3    C210341   3.781   3.480  13.320  0.4552 -0.9442 -0.8009
  696TMC3    C310342   3.675   3.571  13.302  0.4391  0.4832 -0.1777
  696TMC3    C410343   3.907   3.612  13.163  0.0448  0.4475 -0.0632
  696TMC3    C510344   3.800   3.693  13.164 -0.4357 -0.1030 -0.2836
  696TMC3    C610345   3.683   3.681  13.226  0.1367  1.2214 -0.4182
  696TMC3     C10346   4.011   3.433  13.281  0.2339 -0.4549  0.2076
  696TMC3     O10347   4.084   3.397  13.189 -0.0553  0.3936 -0.1995
  696TMC3     H10348   3.774   3.397  13.390 -0.8685 -1.2471 -1.2921
  696TMC3    H110349   3.992   3.622  13.096 -0.6440 -1.5881 -1.2625
  696TMC3    H210350   3.597   3.745  13.208  0.6455  1.3543 -2.3817
  696TMC3    C710351   3.807   3.819  13.087 -0.3292 -0.2413  0.3402
  696TMC3    C810352   3.548   3.528  13.352  0.1827 -0.0424 -0.5571
  696TMC3    O110353   3.891   3.820  13.000 -0.6023 -0.7888 -0.2152
  696TMC3    O210354   3.531   3.409  13.323 -0.0110  0.5026  0.4223
  697MPD2     C10355   3.763   1.301  15.756 -0.8623  0.7328  0.0517
  697MPD2    C110356   3.774   1.237  15.630 -0.0576 -0.2986  0.0701
  697MPD2    C210357   3.763   1.313  15.517 -0.5667 -0.5289 -0.3348
  697MPD2    C310358   3.717   1.448  15.523 -0.4206 -1.1636  0.2271
  697MPD2    C410359   3.697   1.512  15.642  0.5607 -0.1379  0.3202
  697MPD2    C510360   3.725   1.436  15.754 -0.3247 -0.2327  0.1177
  697MPD2     H10361   3.782   1.256  15.426 -2.5002 -0.4827 -0.7574
  697MPD2    H110362   3.660   1.614  15.643  0.2334 -0.2530 -0.1790
  697MPD2    H210363   3.772   1.250  15.851 -1.1004  0.7177  0.0671
  697MPD2    H310364   3.712   1.478  15.853  1.0724 -1.4757  0.8378
  697MPD2     N10365   3.699   1.507  15.393 -0.0980 -0.4030 -0.6140
  697MPD2    H510366   3.733   1.458  15.311 -0.9713  0.0287 -1.2329
  697MPD2    N110367   3.818   1.103  15.621 -1.1849 -0.3685 -0.6276
  697MPD2    H710368   3.835   1.074  15.525  0.6854 -0.6589 -0.2221
  698TMC3    C110369   3.637   1.647  15.223  0.0244  0.3111  0.2484
  698TMC3    C210370   3.666   1.762  15.163  0.7501 -0.1557  0.0554
  698TMC3    C310371   3.654   1.768  15.032  0.2296  0.2503 -0.4177
  698TMC3    C410372   3.583   1.536  15.155 -0.3711 -0.5686  0.1009
  698TMC3    C510373   3.566   1.545  15.022 -0.2278  0.3828  0.1008
  698TMC3    C610374   3.602   1.662  14.962 -0.3710  0.5333 -0.6991
  698TMC3     C10375   3.658   1.632  15.366  0.1910 -0.0532 -0.5071
  698TMC3     O10376   3.605   1.715  15.436  0.1096  0.3395  0.3990
  698TMC3     H10377   3.692   1.847  15.225  0.7083  0.8884 -1.3401
  698TMC3    H110378   3.570   1.438  15.199  0.3748 -1.7996 -2.4165
  698TMC3    H210379   3.602   1.671  14.854 -1.0634 -0.4231 -0.7737
  698TMC3    C710380   3.510   1.437  14.942  0.2245  0.1543  0.0840
  698TMC3    C810381   3.678   1.887  14.960 -0.8376 -0.5358  0.5208
  698TMC3    O110382   3.552   1.422  14.830 -0.2441  0.4614  0.5118
  698TMC3    O210383   3.630   1.904  14.846  0.0150 -0.4554  0.1290
  699TMC3    C110384   3.677   3.700  12.792 -0.3342  0.0526  0.4212
  699TMC3    C210385   3.712   3.573  12.813  0.9166  0.1013 -0.2128
  699TMC3    C310386   3.637   3.482  12.875  0.5507 -0.7560  0.5962
  699TMC3    C410387   3.570   3.753  12.859  0.9095 -0.1527  0.3842
  699TMC3    C510388   3.494   3.656  12.923  0.2056  0.1137  0.1011
  699TMC3    C610389   3.522   3.522  12.933 -0.2950 -0.0602 -0.2783
  699TMC3     C10390   3.760   3.792  12.715 -0.7276 -0.7591  0.0613
  699TMC3     O10391   3.707   3.901  12.703  0.2879 -0.2781 -0.4562
  699TMC3     H10392   3.809   3.540  12.777  1.5179  3.4363 -1.6112
  699TMC3    H110393   3.545   3.858  12.852  2.1566  0.1794  0.8743
  699TMC3    H210394   3.460   3.450  12.985  0.5333 -0.9906 -0.5597
  699TMC3    C710395   3.390   3.707  13.002  0.9366 -0.1158 -0.4500
  699TMC3    C810396   3.680   3.357  12.937  0.1934  0.4896 -0.4896
  699TMC3    O110397   3.409   3.800  13.076 -0.5147 -0.2246  0.8258
  699TMC3    O210398   3.592   3.285  12.979 -0.2054  0.6420 -0.8211
  700TMC3    C110399   2.729   1.470  16.925  0.1667 -0.4532  0.4871
  700TMC3    C210400   2.830   1.385  16.881 -0.3053 -0.5492 -0.3903
  700TMC3    C310401   2.931   1.359  16.965 -0.4240  0.4446  0.8338
  700TMC3    C410402   2.737   1.537  17.038 -0.3219  0.1922 -0.0812
  700TMC3    C510403   2.837   1.502  17.119  0.3717 -0.3410 -0.1382
  700TMC3    C610404   2.937   1.420  17.087  0.2637  0.3279 -0.6004
  700TMC3     C10405   2.654   1.522  16.813  0.8027 -0.1075  0.2003
  700TMC3     O10406   2.629   1.456  16.716 -0.6417  0.5596 -0.2655
  700TMC3     H10407   2.827   1.337  16.784 -0.2284  0.0801 -0.7063
  700TMC3    H110408   2.658   1.602  17.074  2.7274  2.6342  2.1700
  700TMC3    H210409   3.017   1.395  17.155  0.5085  0.9827 -0.6501
  700TMC3    C710410   2.869   1.580  17.239 -0.1289 -0.0496 -0.2978
  700TMC3    C810411   3.052   1.288  16.914  0.3649 -0.2767  0.1801
  700TMC3    O110412   2.988   1.599  17.263  0.1441  0.1850  0.3141
  700TMC3    O210413   3.076   1.286  16.793  0.0688 -0.3522 -0.4531
  701TMC3    C110414   2.937   0.375  15.260 -0.7931 -0.6795  0.2510
  701TMC3    C210415   2.836   0.300  15.205  0.1955 -0.0765 -0.5215
  701TMC3    C310416   2.711   0.355  15.195 -0.8582 -0.4169 -0.2599
  701TMC3    C410417   2.915   0.501  15.304 -0.5954  0.2779  0.6140
  701TMC3    C510418   2.794   0.556  15.289 -0.1808  0.1155  0.0043
  701TMC3    C610419   2.689   0.479  15.244  0.1906  0.4844  0.8729
  701TMC3     C10420   3.078   0.329  15.253 -0.3041 -0.8136 -0.5036
  701TMC3     O10421   3.167   0.405  15.284  0.9097  0.1329  0.2344
  701TMC3     H10422   2.849   0.193  15.194 -2.3628 -0.1980 -2.3079
  701TMC3    H110423   2.996   0.561  15.343  0.3543 -1.0573  0.6876
  701TMC3    H210424   2.595   0.532  15.229 -0.5294 -0.4899  1.9065
  701TMC3    C710425   2.760   0.683  15.369 -0.8335  0.5392  0.8868
  701TMC3    C810426   2.646   0.327  15.068  0.2377 -0.4030 -0.7757
  701TMC3    O110427   2.850   0.734  15.430 -0.1864  0.9240 -0.6173
  701TMC3    O210428   2.584   0.417  15.012 -0.8981  0.1624  0.2132
  702MPD2     C10429   3.071   2.865  11.090 -0.4431  1.0960  0.3657
  702MPD2    C110430   2.974   2.773  11.041 -0.0939  0.6691  0.4743
  702MPD2    C210431   2.948   2.781  10.903 -0.4668 -0.2623 -0.3827
  702MPD2    C310432   3.012   2.871  10.816  0.2498 -0.3430  0.7744
  702MPD2    C410433   3.105   2.958  10.869 -0.6320  0.4561 -0.3132
  702MPD2    C510434   3.139   2.949  11.004  0.4699 -0.0840 -0.0353
  702MPD2     H10435   2.862   2.726  10.866  0.0691 -2.0621  1.0276
  702MPD2    H110436   3.163   3.027  10.809 -0.2029  1.0629  0.7991
  702MPD2    H210437   3.085   2.863  11.197  3.0320 -2.1585 -0.1508
  702MPD2    H310438   3.207   3.024  11.044  1.7445 -0.5681 -1.2696
  702MPD2     N10439   2.973   2.902  10.677 -0.0383 -0.1347 -0.2336
  702MPD2    H510440   3.000   2.992  10.639  2.6827 -1.1701 -0.7554
  702MPD2    N110441   2.886   2.688  11.115 -0.4698 -0.0185  0.2612
  702MPD2    H710442   2.814   2.631  11.072  1.8788 -1.8822 -1.1807
  703TMC3    C110443   2.826   2.885  10.491  0.0735 -0.0576  0.0269
  703TMC3    C210444   2.698   2.834  10.485 -0.8286  0.0485  0.2471
  703TMC3    C310445   2.597   2.928  10.466 -0.8296  0.3026  0.9082
  703TMC3    C410446   2.854   3.017  10.474 -0.0902 -0.5108 -0.2990
  703TMC3    C510447   2.753   3.099  10.453  0.0856 -0.7477  0.5894
  703TMC3    C610448   2.619   3.059  10.458  0.5009 -0.2555 -0.3318
  703TMC3     C10449   2.897   2.816  10.603 -1.1986  0.0163  0.3230
  703TMC3     O10450   2.870   2.700  10.635  0.0191 -0.0553 -0.1106
  703TMC3     H10451   2.689   2.729  10.509  0.3941 -0.5115 -1.7430
  703TMC3    H110452   2.952   3.062  10.482 -1.0736  1.7989 -1.2452
  703TMC3    H210453   2.537   3.127  10.438  0.8330 -0.1432 -1.3118
  703TMC3    C710454   2.790   3.217  10.377  0.3292  0.1925  0.3178
  703TMC3    C810455   2.462   2.876  10.502  0.6819  0.0598  0.3628
  703TMC3    O110456   2.898   3.218  10.320 -0.0199 -0.1079 -0.0106
  703TMC3    O210457   2.447   2.757  10.493 -0.0310 -0.1017  0.2055
  704TMC3    C110458   0.107   0.887  12.354 -0.1766 -0.1605 -0.3598
  704TMC3    C210459   0.188   0.902  12.247  0.8463  0.1432 -0.2144
  704TMC3    C310460   0.314   0.856  12.256 -0.2351  0.1318  0.3580
  704TMC3    C410461   0.152   0.839  12.473  0.2699 -0.5453  0.0791
  704TMC3    C510462   0.287   0.816  12.487 -0.5337  0.7767  0.4157
  704TMC3    C610463   0.368   0.809  12.373 -0.3751  0.1602 -0.0478
  704TMC3     C10464   4.703   0.936  12.358  1.0648 -0.4417 -0.2648
  704TMC3     O10465   4.616   0.865  12.403  0.1576  0.1818  0.3550
  704TMC3     H10466   0.145   0.927  12.151 -0.7000 -0.2589  0.3904
  704TMC3    H110467   0.081   0.840  12.555  0.6533 -1.5499  0.4261
  704TMC3    H210468   0.468   0.770  12.371 -1.1687 -1.8608 -0.1351
  704TMC3    C710469   0.328   0.744  12.600  0.2984 -0.0262  0.3958
  704TMC3    C810470   0.380   0.803  12.140  0.5496 -0.2060  0.2207
  704TMC3    O110471   0.253   0.654  12.643 -0.3961  0.1089  0.0514
  704TMC3    O210472   0.487   0.746  12.145 -0.1863 -0.4251  0.3398
  705MPD2     C10473   4.404   3.612  16.510  0.3130  0.1432  0.3820
  705MPD2    C110474   4.301   3.685  16.448  0.5817 -0.5812 -0.0021
  705MPD2    C210475   4.189   3.711  16.519  0.9953  0.2434 -0.6047
  705MPD2    C310476   4.170   3.671  16.651 -0.2499 -0.5092 -0.6949
  705MPD2    C410477   4.278   3.604  16.711  0.0230 -0.9483 -0.0967
  705MPD2    C510478   4.395   3.582  16.646 -0.3065 -0.5499 -0.2106
  705MPD2     H10479   4.115   3.775  16.472 -0.5260 -1.1424 -0.0903
  705MPD2    H110480   4.268   3.551  16.805 -0.0190 -1.4052 -0.3576
  705MPD2    H210481   4.499   3.582  16.468  1.3765  1.4831  1.8065
  705MPD2    H310482   4.482   3.531  16.685 -1.0700 -1.8666 -0.2206
  705MPD2     N10483   4.049   3.685  16.716 -0.3122  0.2153  0.0910
  705MPD2    H510484   4.049   3.648  16.810 -0.0040 -1.4202 -0.5420
  705MPD2    N110485   4.317   3.753  16.327  0.2154  0.4568  0.2779
  705MPD2    H710486   4.241   3.814  16.298  1.6994  2.6469  1.0035
  706TMC3    C110487   4.387   3.733  15.885  0.7371 -0.0677 -0.2958
  706TMC3    C210488   4.369   3.866  15.860 -0.5693 -0.0189  0.5689
  706TMC3    C310489   4.366   3.962  15.965 -0.8692  0.2932  0.2520
  706TMC3    C410490   4.401   3.688  16.012 -0.5118 -0.2380  0.0806
  706TMC3    C510491   4.381   3.782  16.109  0.5231  0.2419  0.1096
  706TMC3    C610492   4.356   3.915  16.093 -0.8038 -0.6112 -1.1059
  706TMC3     C10493   4.360   3.638  15.775 -0.0487  0.2489  0.1490
  706TMC3     O10494   4.298   3.537  15.801 -0.3904  0.7712 -0.1253
  706TMC3     H10495   4.361   3.903  15.758  1.7741  1.2214  0.8365
  706TMC3    H110496   4.423   3.585  16.035 -1.2361 -0.2110  0.8928
  706TMC3    H210497   4.367   3.982  16.178 -1.2362  0.5429 -1.9666
  706TMC3    C710498   4.423   3.736  16.239  0.1627 -1.2901  0.0305
  706TMC3    C810499   4.341   4.099  15.924 -0.0683 -0.1457 -0.0408
  706TMC3    O110500   4.528   3.675  16.249  0.4025  0.3278  0.7009
  706TMC3    O210501   4.382   4.122  15.806 -0.3698 -0.3155  0.4436
  707TMC3    C110502   0.193   2.389   1.411 -0.2411 -0.3032  0.3432
  707TMC3    C210503   0.234   2.326   1.296  0.1037  0.7713  0.4333
  707TMC3    C310504   0.192   2.197   1.280  0.4990 -0.0750  0.6735
  707TMC3    C410505   0.110   2.339   1.506  0.9534  0.6844  0.3650
  707TMC3    C510506   0.066   2.212   1.472 -0.1800  0.1617 -0.4977
  707TMC3    C610507   0.101   2.142   1.361 -0.1779  0.4455  0.2069
  707TMC3     C10508   0.295   2.487   1.459 -0.1079  0.2125 -0.0323
  707TMC3     O10509   0.346   2.557   1.369  0.2053 -0.4935  0.7794
  707TMC3     H10510   0.301   2.375   1.227 -2.7859  2.2489 -1.3445
  707TMC3    H110511   0.067   2.402   1.584 -2.5138 -1.5687  0.3050
  707TMC3    H210512   0.060   2.042   1.347  0.2890 -0.0354  2.2883
  707TMC3    C710513   4.676   2.161   1.534  0.0374 -0.7741  0.3214
  707TMC3    C810514   0.232   2.125   1.160  0.2380  0.1986 -0.8486
  707TMC3    O110515   4.623   2.058   1.485 -0.2283 -0.2235 -0.3126
  707TMC3    O210516   0.177   2.018   1.131 -0.3277  0.8814 -0.3123
  708MPD2     C10517   2.858   1.072  13.784 -0.4614 -0.6129 -0.4667
  708MPD2    C110518   2.733   1.123  13.758  0.4422  0.1795  0.4489
  708MPD2    C210519   2.674   1.211  13.852  0.4914  0.6732  0.2706
  708MPD2    C310520   2.732   1.226  13.975 -0.2411 -0.3010  0.1124
  708MPD2    C410521   2.847   1.164  14.010  0.1466  0.1274 -0.5953
  708MPD2    C510522   2.907   1.084  13.912 -0.0661 -0.2949  0.0919
  708MPD2     H10523   2.584   1.266  13.830  0.1035  0.1688  0.5964
  708MPD2    H110524   2.883   1.182  14.111 -0.3391 -1.0018 -0.2147
  708MPD2    H210525   2.900   0.998  13.717 -0.9790  0.4301 -1.9327
  708MPD2    H310526   2.985   1.018  13.949 -0.0365  0.5074  1.4547
  708MPD2     N10527   2.676   1.326  14.059  0.1107 -0.0752 -0.4450
  708MPD2    H510528   2.587   1.364  14.027 -0.0305 -1.2127 -1.3596
  708MPD2    N110529   2.678   1.107  13.627  0.0915  0.4382  0.7437
  708MPD2    H710530   2.738   1.074  13.553  1.6039  2.1393  1.2079
  709TMC3    C110531   2.541   1.198  13.453 -0.8481  0.2447  0.2024
  709TMC3    C210532   2.644   1.252  13.398 -0.3494  0.1409  0.0956
  709TMC3    C310533   2.629   1.375  13.343  0.1285  0.3098  0.3808
  709TMC3    C410534   2.418   1.256  13.438  0.3573  0.3352  0.2376
  709TMC3    C510535   2.413   1.387  13.416 -0.7600  0.2077 -0.7811
  709TMC3    C610536   2.515   1.452  13.356  0.2286  0.0300  0.5671
  709TMC3     C10537   2.551   1.143  13.586 -0.2892 -0.0426 -0.7603
  709TMC3     O10538   2.456   1.170  13.659 -0.1229 -0.1252 -0.1094
  709TMC3     H10539   2.741   1.209  13.418 -1.2546 -1.6415  0.6071
  709TMC3    H110540   2.328   1.223  13.490 -0.1886  0.5051 -0.5982
  709TMC3    H210541   2.511   1.557  13.328 -2.6108 -0.5764 -1.3252
  709TMC3    C710542   2.317   1.466  13.499 -0.2476  0.4570  0.2059
  709TMC3    C810543   2.753   1.425  13.291 -0.2647  0.1695  0.6962
  709TMC3    O110544   2.275   1.414  13.599  0.6782  0.8183  0.4248
  709TMC3    O210545   2.839   1.344  13.269  0.0740  0.2073 -0.1064
  710TMC3    C110546   3.641   3.683   0.632 -0.1504  0.8047 -0.1407
  710TMC3    C210547   3.635   3.654   0.497 -0.0959  1.3989  1.1521
  710TMC3    C310548   3.654   3.525   0.453  0.4888  0.2000 -0.1487
  710TMC3    C410549   3.676   3.584   0.726  0.2132  0.5303 -0.2624
  710TMC3    C510550   3.675   3.455   0.678 -0.5741 -0.1474 -0.4363
  710TMC3    C610551   3.668   3.427   0.547 -0.5193 -0.6792  0.1504
  710TMC3     C10552   3.682   3.821   0.665 -0.0404 -0.2358 -0.2426
  710TMC3     O10553   3.723   3.891   0.572 -0.2134  0.5145  0.1794
  710TMC3     H10554   3.631   3.734   0.424 -3.4486  0.3146  0.1867
  710TMC3    H110555   3.717   3.607   0.823 -1.0026 -0.2154  0.4280
  710TMC3    H210556   3.688   3.322   0.531  0.8255 -0.0904 -2.0781
  710TMC3    C710557   3.710   3.354   0.778  0.3228 -0.3338  0.7288
  710TMC3    C810558   3.684   3.503   0.312  0.0958  0.2509 -0.1333
  710TMC3    O110559   3.674   3.373   0.893  0.5701  0.2725 -0.1741
  710TMC3    O210560   3.636   3.585   0.234  0.6200 -0.1742 -0.2427
  711TMC3    C110561   3.731   4.517  14.634 -0.0751  0.7022 -0.4978
  711TMC3    C210562   3.682   4.641  14.680 -0.8918 -0.7541  0.3574
  711TMC3    C310563   3.776   4.730  14.727 -0.0182 -0.2920 -0.7156
  711TMC3    C410564   3.860   4.494  14.619 -0.2238 -0.7053 -0.4112
  711TMC3    C510565   3.955   4.579  14.660  0.4007  0.1255 -0.2180
  711TMC3    C610566   3.911   4.702  14.719  0.6420 -0.2243  1.1049
  711TMC3     C10567   3.649   4.408  14.605  0.2079 -0.0272 -0.4075
  711TMC3     O10568   3.545   4.425  14.548  0.8549  0.6571 -0.2457
  711TMC3     H10569   3.578   4.667  14.695 -0.4089  1.4950 -0.1291
  711TMC3    H110570   3.897   4.408  14.564 -0.3964 -0.9405 -0.1593
  711TMC3    H210571   3.987   0.026  14.766  0.9816 -1.1300  1.7365
  711TMC3    C710572   4.056   4.516  14.745  0.4896 -0.5402  0.5320
  711TMC3    C810573   3.728   0.074  14.840 -0.5566  0.2259  0.3627
  711TMC3    O110574   4.084   4.569  14.852  0.0862 -0.5625  0.2543
  711TMC3    O210575   3.607   0.091  14.849  0.0515  0.3552  0.2235
  712MPD2     C10576   0.506   0.801  14.197 -0.3678  0.5229 -0.0053
  712MPD2    C110577   0.392   0.803  14.123 -0.0437 -0.0488 -0.1038
  712MPD2    C210578   0.395   0.881  14.009 -0.2359 -0.5389 -0.5169
  712MPD2    C310579   0.496   0.967  13.980 -0.1544 -0.5699  0.3456
  712MPD2    C410580   0.612   0.960  14.048 -0.5731 -0.3119 -0.5759
  712MPD2    C510581   0.616   0.879  14.157 -0.7183 -0.3412  0.5385
  712MPD2     H10582   0.303   0.895  13.954  0.3553 -2.8699 -2.1007
  712MPD2    H110583   0.698   1.017  14.013  0.4574 -0.6215  1.4286
  712MPD2    H210584   0.515   0.738  14.285 -0.4737 -2.0907 -1.8779
  712MPD2    H310585   0.708   0.875  14.214  0.2741 -0.9926 -1.0985
  712MPD2     N10586   0.474   1.073  13.887 -0.0967 -0.4456 -0.3099
  712MPD2    H510587   0.554   1.123  13.850  1.2933 -1.5268  1.2445
  712MPD2    N110588   0.281   0.724  14.159 -0.1619  0.1203  0.6229
  712MPD2    H710589   0.273   0.680  14.250  1.4453  1.9660  1.6468
  713TMC3    C110590   0.356   1.253  13.792  0.3738  0.0177  0.0540
  713TMC3    C210591   0.469   1.276  13.713  0.2973 -0.1307 -0.6185
  713TMC3    C310592   0.479   1.393  13.647  0.0270  0.2919  0.3722
  713TMC3    C410593   0.256   1.343  13.803  0.1173  0.3078  0.2907
  713TMC3    C510594   0.272   1.453  13.726 -0.4446  0.2165  1.1460
  713TMC3    C610595   0.384   1.481  13.654  0.4582  0.6493 -0.0013
  713TMC3     C10596   0.358   1.140  13.877 -0.3107  0.3312  0.4571
  713TMC3     O10597   0.252   1.126  13.938 -0.9510  0.3375  0.1049
  713TMC3     H10598   0.541   1.194  13.706 -0.6267 -0.9831 -0.1093
  713TMC3    H110599   0.165   1.331  13.861  1.1551  0.4712  1.9350
  713TMC3    H210600   0.397   1.577  13.605  0.7231  0.6419  0.0561
  713TMC3    C710601   0.187   1.566  13.756 -0.0160  0.1745  0.3442
  713TMC3    C810602   0.593   1.429  13.569 -0.0403  0.8081 -0.2706
  713TMC3    O110603   0.145   1.571  13.869  0.1879  0.9940  0.3656
  713TMC3    O210604   0.589   1.542  13.512  0.2266  0.1429 -0.1091
  714MPD2     C10605   1.617   4.426   1.179 -0.0406 -0.0807 -0.8839
  714MPD2    C110606   1.629   4.290   1.166  0.5187 -0.5012 -0.4344
  714MPD2    C210607   1.511   4.214   1.169 -0.3946 -0.3085 -0.6166
  714MPD2    C310608   1.392   4.274   1.211  0.1351 -0.0418 -0.4838
  714MPD2    C410609   1.380   4.414   1.227 -0.5825 -0.2929 -0.5297
  714MPD2    C510610   1.496   4.485   1.209  0.3071  0.3126 -0.2502
  714MPD2     H10611   1.514   4.106   1.159 -1.0378 -0.3327 -0.5917
  714MPD2    H110612   1.287   4.454   1.266  0.1634  2.9349 -2.0947
  714MPD2    H210613   1.698   4.498   1.174 -1.2061  1.2336 -0.7431
  714MPD2    H310614   1.491   4.593   1.218 -0.0422  0.2608  0.2067
  714MPD2     N10615   1.278   4.196   1.214 -0.1183 -0.3799 -0.0775
  714MPD2    H510616   1.289   4.095   1.208 -1.5081 -0.5929  0.8702
  714MPD2    N110617   1.748   4.230   1.133  0.4921 -0.1233 -0.2739
  714MPD2    H710618   1.820   4.296   1.105  0.4582  0.7606  1.6962
  715TMC3    C110619   1.901   4.069   1.055 -0.1812  0.0268 -0.7648
  715TMC3    C210620   1.938   3.934   1.031 -0.4888  0.8559  0.5295
  715TMC3    C310621   2.048   3.912   0.952 -0.1616  0.4998  0.6739
  715TMC3    C410622   1.975   4.172   1.013 -0.5637 -0.0084 -0.4901
  715TMC3    C510623   2.078   4.147   0.931  0.0006 -0.2890  0.2312
  715TMC3    C610624   2.111   4.018   0.901  0.4128 -0.5168  0.8513
  715TMC3     C10625   1.769   4.094   1.110  0.3560  1.1908 -0.0028
  715TMC3     O10626   1.698   4.000   1.131  0.0475 -0.1651 -0.3536
  715TMC3     H10627   1.886   3.851   1.077  0.2016  1.8514  3.1163
  715TMC3    H110628   1.953   4.275   1.036  1.4823  0.5723 -1.1126
  715TMC3    H210629   2.194   4.001   0.834 -0.8933  0.4027 -1.0090
  715TMC3    C710630   2.150   4.258   0.867 -0.1681  0.4143  0.6509
  715TMC3    C810631   2.094   3.780   0.928  0.1193  0.4566 -0.3000
  715TMC3    O110632   2.266   4.234   0.834  0.1085  0.0042  0.0688
  715TMC3    O210633   2.123   3.737   0.819  0.3413  0.2716  0.7780
  716MPD2     C10634   3.320   3.040  10.001  0.8923  0.3193  0.5325
  716MPD2    C110635   3.280   3.026   9.869  0.2904  0.7660  0.0655
  716MPD2    C210636   3.257   2.901   9.820 -0.1304  0.0238 -0.0571
  716MPD2    C310637   3.262   2.784   9.902 -0.0757 -0.3587 -0.2007
  716MPD2    C410638   3.304   2.802  10.036  0.4087 -0.0277 -0.1203
  716MPD2    C510639   3.335   2.930  10.076 -0.5078  1.1756 -0.7749
  716MPD2     H10640   3.202   2.895   9.727  0.6441 -0.1394 -0.4988
  716MPD2    H110641   3.315   2.711  10.095  0.5951 -1.1987 -1.9483
  716MPD2    H210642   3.339   3.133  10.052  1.2105 -1.2599  3.3283
  716MPD2    H310643   3.360   2.949  10.180 -2.4335 -1.8164  0.2449
  716MPD2     N10644   3.216   2.667   9.843  0.3458  0.3406  0.0945
  716MPD2    H510645   3.171   2.680   9.753 -1.6040 -2.8329  0.5945
  716MPD2    N110646   3.249   3.149   9.802 -0.1592  0.0285 -0.1883
  716MPD2    H710647   3.259   3.239   9.847  2.0380 -0.1222 -0.3460
  717TMC3    C110648   3.211   2.435   9.803  0.2728  0.7540 -0.4716
  717TMC3    C210649   3.078   2.427   9.766  0.4041  0.0631  1.0239
  717TMC3    C310650   3.037   2.298   9.729 -0.1250 -0.2675 -0.3085
  717TMC3    C410651   3.306   2.335   9.783  0.6226  0.2076  0.1267
  717TMC3    C510652   3.259   2.210   9.747 -0.1976  0.0427 -0.0621
  717TMC3    C610653   3.127   2.195   9.715 -0.2059  0.9080  0.2562
  717TMC3     C10654   3.242   2.540   9.897 -0.1078  0.0654 -0.0661
  717TMC3     O10655   3.305   2.505   9.994 -0.6156  0.6578  0.0906
  717TMC3     H10656   3.013   2.512   9.781 -0.9537 -0.4911 -1.6152
  717TMC3    H110657   3.401   2.349   9.835 -1.3809 -0.0341  3.8300
  717TMC3    H210658   3.090   2.094   9.701  0.6278  0.6177  0.0924
  717TMC3    C710659   3.339   2.090   9.768  0.1048 -0.3142  0.1923
  717TMC3    C810660   2.903   2.254   9.769  0.2334  0.2836 -0.2146
  717TMC3    O110661   3.438   2.105   9.838 -0.5521  0.1697 -0.2189
  717TMC3    O210662   2.903   2.139   9.820 -1.1310 -0.1308 -0.3207
  718MPD2     C10663   2.129   0.712  12.606 -0.0063 -0.3272  0.4760
  718MPD2    C110664   2.066   0.833  12.610  0.3046 -0.6349  0.4842
  718MPD2    C210665   1.926   0.832  12.620 -0.4059 -0.0141 -0.0353
  718MPD2    C310666   1.851   0.716  12.639  0.3216  0.4666  0.0912
  718MPD2    C410667   1.915   0.593  12.632 -0.4936  0.4413  0.7931
  718MPD2    C510668   2.053   0.594  12.614 -0.3749  0.6424  0.5780
  718MPD2     H10669   1.863   0.920  12.629  0.7095  0.6888  0.9199
  718MPD2    H110670   1.854   0.503  12.629  1.8013 -1.0493 -1.4601
  718MPD2    H210671   2.237   0.714  12.605 -0.0469  1.5327  0.5197
  718MPD2    H310672   2.112   0.504  12.596 -0.8770  0.5017 -0.3796
  718MPD2     N10673   1.717   0.743  12.645  0.1783  0.5745 -0.0131
  718MPD2    H510674   1.688   0.840  12.653 -0.6290  0.3717 -0.4865
  718MPD2    N110675   2.139   0.950  12.593 -0.3476  0.4340 -0.0831
  718MPD2    H710676   2.237   0.937  12.569 -0.2722  1.4245 -0.3156
  719TMC3    C110677   2.164   1.189  12.563  0.0270 -0.7962 -0.0326
  719TMC3    C210678   2.100   1.308  12.574  0.9753 -1.1975 -0.3216
  719TMC3    C310679   2.104   1.406  12.476  0.5734 -0.1618 -0.3173
  719TMC3    C410680   2.260   1.184  12.460  0.1430  0.4631 -0.5474
  719TMC3    C510681   2.280   1.284  12.368  0.0943 -0.5071  0.2105
  719TMC3    C610682   2.193   1.390  12.376 -0.4739 -0.1387 -0.4517
  719TMC3     C10683   2.087   1.078  12.605  0.2636 -0.2666  0.5387
  719TMC3     O10684   1.975   1.114  12.640  0.0634  0.7823 -0.6142
  719TMC3     H10685   2.037   1.329  12.659  0.0053 -0.8041 -1.1379
  719TMC3    H110686   2.331   1.102  12.449  0.0166  0.5126 -1.7047
  719TMC3    H210687   2.183   1.457  12.292 -0.9044  1.2301  0.7002
  719TMC3    C710688   2.420   1.323  12.349 -0.0014 -0.6861 -0.2089
  719TMC3    C810689   1.967   1.450  12.425  0.1940  0.0206 -0.3636
  719TMC3    O110690   2.500   1.231  12.332  0.4997  0.0484  0.1671
  719TMC3    O210691   1.959   1.539  12.347 -0.0710  0.1714  0.2877
  720MPD2     C10692   0.357   2.524  13.803 -0.4368 -0.4372  0.4729
  720MPD2    C110693   0.401   2.640  13.756  0.1574  0.2855  0.7673
  720MPD2    C210694   0.487   2.721  13.829 -0.2322  0.2264 -0.0491
  720MPD2    C310695   0.541   2.675  13.947 -0.1981 -0.8722  0.3656
  720MPD2    C410696   0.502   2.546  13.984  0.0468 -0.5294 -0.8700
  720MPD2    C510697   0.413   2.469  13.916 -0.7792 -0.0580 -0.2676
  720MPD2     H10698   0.508   2.819  13.788  1.1049  0.2697  0.7507
  720MPD2    H110699   0.545   2.498  14.071  0.6108 -0.7890 -1.2967
  720MPD2    H210700   0.273   2.471  13.759  0.0828 -0.2086 -0.7973
  720MPD2    H310701   0.377   2.375  13.957 -0.4501  1.0513  2.5761
  720MPD2     N10702   0.636   2.751  14.029  0.0895 -0.5208 -0.0167
  720MPD2    H510703   0.672   2.710  14.115 -0.9231 -1.8807 -0.2386
  720MPD2    N110704   0.344   2.686  13.634  0.6129  0.2936 -0.4742
  720MPD2    H710705   0.357   2.784  13.610  1.4932 -0.1018 -1.6330
  721TMC3    C110706   0.778   2.924  14.088  0.1914 -0.3969  0.1742
  721TMC3    C210707   0.731   2.939  14.213 -0.0903  1.0056  0.1361
  721TMC3    C310708   0.814   2.989  14.310 -0.1660 -0.1747  0.2927
  721TMC3    C410709   0.915   2.937  14.055  0.0267 -1.2246 -0.5042
  721TMC3    C510710   0.989   3.006  14.148 -0.0922 -0.1868  0.0300
  721TMC3    C610711   0.938   3.027  14.274 -0.7944  0.0623 -0.1451
  721TMC3     C10712   0.695   2.867  13.987  0.5230 -0.1402  0.2607
  721TMC3     O10713   0.686   2.935  13.884  0.1581 -0.2456  0.1130
  721TMC3     H10714   0.634   2.898  14.237 -0.6161  2.2766  0.1842
  721TMC3    H110715   0.949   2.913  13.955  1.2929 -0.8575 -0.1563
  721TMC3    H210716   0.995   3.077  14.352 -1.0658 -0.5066  0.4147
  721TMC3    C710717   1.129   3.019  14.130  0.2089 -0.1809 -0.8490
  721TMC3    C810718   0.790   2.969  14.453  0.2893 -0.1169  0.2392
  721TMC3    O110719   1.186   2.932  14.061  0.8001 -0.1498 -0.0541
  721TMC3    O210720   0.688   3.008  14.501  0.0126  0.0214  0.2967
  722MPD2     C10721   4.310   1.495  12.884  0.6664 -0.4061 -0.1851
  722MPD2    C110722   4.220   1.581  12.945  1.0073 -0.4569  0.2850
  722MPD2    C210723   4.093   1.541  12.966 -0.6691 -0.3526 -0.7354
  722MPD2    C310724   4.039   1.427  12.915 -0.3100 -0.2385 -0.1576
  722MPD2    C410725   4.126   1.349  12.842 -0.2501  0.2414 -0.2801
  722MPD2    C510726   4.259   1.377  12.830  0.7005  0.2463  0.6129
  722MPD2     H10727   4.032   1.611  13.021 -1.4830 -0.8082 -1.0589
  722MPD2    H110728   4.094   1.255  12.798  2.5755 -1.5759  1.5104
  722MPD2    H210729   4.408   1.538  12.871  0.5590 -0.6399 -1.7153
  722MPD2    H310730   4.315   1.315  12.760 -1.3399  1.0531 -1.7202
  722MPD2     N10731   3.905   1.396  12.942  0.6786  0.2635 -0.0136
  722MPD2    H510732   3.857   1.459  13.005  1.7957 -1.5045  2.5910
  722MPD2    N110733   4.255   1.703  13.022  0.0842  0.5846 -0.3773
  722MPD2    H710734   4.180   1.757  13.064  0.1914 -0.3289  1.0010
  723TMC3    C110735   3.703   1.292  12.937  0.7097  0.8235 -0.2209
  723TMC3    C210736   3.629   1.177  12.959 -0.6692 -0.0105 -0.6140
  723TMC3    C310737   3.515   1.186  13.025 -0.9202 -0.7621 -0.1850
  723TMC3    C410738   3.650   1.410  12.968 -0.3032 -0.4469  0.6439
  723TMC3    C510739   3.528   1.413  13.027 -0.0277  0.5620 -0.3768
  723TMC3    C610740   3.461   1.303  13.072 -0.2268 -1.1922 -0.2854
  723TMC3     C10741   3.840   1.283  12.901 -0.9698  0.5978  0.2132
  723TMC3     O10742   3.873   1.175  12.859 -0.3537  0.2158 -0.6058
  723TMC3     H10743   3.681   1.085  12.936  0.1776  0.7944 -1.9271
  723TMC3    H110744   3.694   1.500  12.927 -0.1516 -0.6239  0.4198
  723TMC3    H210745   3.365   1.307  13.122  0.2596  0.6996  0.5254
  723TMC3    C710746   3.469   1.541  13.058 -0.2019  0.3648 -0.9340
  723TMC3    C810747   3.436   1.067  13.050  0.2207  0.1713 -0.4864
  723TMC3    O110748   3.381   1.544  13.144  0.7050 -0.0792  0.4457
  723TMC3    O210749   3.345   1.073  13.125 -0.4055  0.5765 -0.1592
  724TMC3    C110750   4.018   4.304  10.859  0.2059 -0.6823 -1.1520
  724TMC3    C210751   4.067   4.265  10.736  0.4797  0.3664 -0.0063
  724TMC3    C310752   4.203   4.269  10.706  0.3558  0.4026 -0.1247
  724TMC3    C410753   4.095   4.386  10.935  0.3321  0.3076 -0.7303
  724TMC3    C510754   4.230   4.395  10.900 -0.5648  0.3385 -0.4816
  724TMC3    C610755   4.281   4.324  10.794  0.1276 -0.4492  0.1977
  724TMC3     C10756   3.878   4.281  10.884  0.2635 -0.0395 -0.0992
  724TMC3     O10757   3.797   4.282  10.792 -0.5625 -0.0075 -0.5538
  724TMC3     H10758   3.994   4.215  10.673 -1.5811  0.8807  1.9744
  724TMC3    H110759   4.052   4.439  11.019  0.1265 -0.7350 -0.1715
  724TMC3    H210760   4.388   4.327  10.779  0.0525  0.2147 -0.1908
  724TMC3    C710761   4.325   4.468  10.983 -0.8234  0.2793 -0.3176
  724TMC3    C810762   4.255   4.238  10.571 -0.3620  0.6136  0.0493
  724TMC3    O110763   4.443   4.445  10.960 -0.0498 -0.4313  0.7082
  724TMC3    O210764   4.184   4.177  10.493  0.5300  0.1703  0.3324
  725TMC3    C110765   1.121   3.082  13.265 -0.2780 -0.2715  0.7235
  725TMC3    C210766   1.092   3.143  13.143  0.5832  0.0172 -0.5694
  725TMC3    C310767   1.031   3.070  13.043  0.1959  0.1180 -1.0921
  725TMC3    C410768   1.102   2.950  13.286 -0.2603  0.2312 -0.5189
  725TMC3    C510769   1.039   2.879  13.189  0.2445 -0.3926  0.5524
  725TMC3    C610770   1.001   2.936  13.067 -0.7761 -0.3618  0.2447
  725TMC3     C10771   1.199   3.157  13.359  0.5995  0.2895  0.2702
  725TMC3     O10772   1.170   3.275  13.362  0.0425  0.0621  0.4888
  725TMC3     H10773   1.123   3.247  13.130  3.2422 -0.8060 -0.9135
  725TMC3    H110774   1.119   2.905  13.383 -1.4471  0.6776 -0.1055
  725TMC3    H210775   0.938   2.886  12.995  2.1246 -1.4423 -1.5448
  725TMC3    C710776   1.097   2.752  13.165 -0.4049 -0.8245 -0.2013
  725TMC3    C810777   1.082   3.077  12.906  0.3216 -0.5381 -0.1825
  725TMC3    O110778   1.095   2.673  13.261  0.3067  0.5123 -0.0664
  725TMC3    O210779   1.096   2.967  12.853  0.2964 -0.6354  0.3053
  726MPD2     C10780   3.669   4.395  10.335  0.0363  0.7655 -0.4599
  726MPD2    C110781   3.681   4.529  10.367 -0.1066  0.7287 -0.0097
  726MPD2    C210782   3.614   4.589  10.472 -0.1686 -0.0644  0.0220
  726MPD2    C310783   3.536   4.507  10.556  0.5115  0.2309 -0.2093
  726MPD2    C410784   3.548   4.372  10.536 -0.0233 -0.3324  0.6816
  726MPD2    C510785   3.595   4.314  10.422  0.3361 -0.0188 -0.1470
  726MPD2     H10786   3.631   4.694  10.489  1.6061 -0.3351 -0.0801
  726MPD2    H110787   3.487   4.310  10.601 -2.1498  0.1246 -0.8690
  726MPD2    H210788   3.725   4.355  10.251  0.9969  1.8701 -0.3400
  726MPD2    H310789   3.591   4.206  10.417  0.2904  0.0535 -1.8923
  726MPD2     N10790   3.466   4.549  10.670 -0.3849  0.0491 -0.4305
  726MPD2    H510791   3.418   4.480  10.726 -0.3894 -0.3503 -0.9372
  726MPD2    N110792   3.759   4.617  10.293 -0.1667 -0.3044 -0.3950
  726MPD2    H710793   3.770   4.709  10.335 -0.6516 -1.2979  1.9623
  727TMC3    C110794   3.870   4.720  10.115 -0.0883  0.8051  0.4989
  727TMC3    C210795   3.928   0.076  10.194  0.3754  0.0324 -0.1130
  727TMC3    C310796   3.984   0.184  10.132 -0.6549  0.3336 -0.4112
  727TMC3    C410797   3.850   0.011   9.985  0.4537 -0.7430  0.8912
  727TMC3    C510798   3.897   0.126   9.930 -0.4900  0.1214  0.8220
  727TMC3    C610799   3.970   0.216  10.004  0.2568  0.2562 -0.0089
  727TMC3     C10800   3.810   4.594  10.168 -1.2136 -0.5840  0.7853
  727TMC3     O10801   3.803   4.497  10.096  0.4347  0.2787 -0.3580
  727TMC3     H10802   3.941   0.063  10.301  2.4586  0.8685 -0.2631
  727TMC3    H110803   3.819   4.664   9.924  0.1175 -1.9745  2.7251
  727TMC3    H210804   4.025   0.298   9.960  1.0097 -1.1362 -1.6658
  727TMC3    C710805   3.914   0.134   9.787  0.4027  0.0863  0.2735
  727TMC3    C810806   4.057   0.278  10.223  0.1557 -0.2524  0.2905
  727TMC3    O110807   4.014   0.195   9.745  0.5974  0.1367  0.5161
  727TMC3    O210808   4.092   0.239  10.330 -0.0689  0.6708  0.8485
  728TMC3    C110809   2.539   3.572  15.697  0.5298  0.0613 -0.0299
  728TMC3    C210810   2.431   3.532  15.627 -0.0350 -0.5807  0.2043
  728TMC3    C310811   2.441   3.529  15.491  0.7078  0.2210  0.5804
  728TMC3    C410812   2.646   3.627  15.642 -0.4904  0.8199 -0.4601
  728TMC3    C510813   2.657   3.617  15.508  0.0095  0.3152  0.6763
  728TMC3    C610814   2.554   3.571  15.428  0.6449  0.3897  1.0801
  728TMC3     C10815   2.535   3.553  15.841 -0.3812  0.1920  0.4228
  728TMC3     O10816   2.621   3.608  15.905 -0.0839 -0.5671 -0.5122
  728TMC3     H10817   2.339   3.504  15.677 -0.8539 -0.7154 -1.3495
  728TMC3    H110818   2.728   3.669  15.701  0.8447 -0.1335 -1.6388
  728TMC3    H210819   2.554   3.556  15.320 -2.2181  0.6786  1.0364
  728TMC3    C710820   2.796   3.621  15.457  0.6911 -0.7785  0.5320
  728TMC3    C810821   2.322   3.494  15.414 -0.8922  0.4937 -0.6966
  728TMC3    O110822   2.884   3.615  15.543 -0.2506  0.0815 -0.1743
  728TMC3    O210823   2.231   3.438  15.470  0.3444  0.4509  0.6438
  729MPD2     C10824   0.092   4.000  16.082 -0.8157 -0.3641  0.4204
  729MPD2    C110825   0.201   4.052  16.144 -0.0105  0.6217 -0.0780
  729MPD2    C210826   0.202   4.081  16.283 -0.0146 -0.3219  0.7051
  729MPD2    C310827   0.083   4.054  16.354  0.1147  0.3430 -0.3682
  729MPD2    C410828   4.715   3.994  16.292  1.0873  0.2194 -0.3291
  729MPD2    C510829   4.712   3.980  16.155 -0.2787  0.6724  0.0197
  729MPD2     H10830   0.289   4.128  16.327 -0.1705  1.8374 -1.2760
  729MPD2    H110831   4.627   3.970  16.350  1.7969  1.8060  1.4072
  729MPD2    H210832   0.076   3.986  15.975  0.9593 -0.1065  0.1138
  729MPD2    H310833   4.622   3.941  16.110  0.2668 -1.0888  0.4615
  729MPD2     N10834   0.070   4.065  16.494  0.4766 -0.0546 -0.8200
  729MPD2    H510835   4.715   4.052  16.535  1.2272 -2.3027  0.1743
  729MPD2    N110836   0.313   4.072  16.056  0.2829 -0.0940 -0.9081
  729MPD2    H710837   0.289   4.083  15.958 -0.3843 -0.6313 -0.7982
  730TMC3    C110838   0.137   4.103  16.720 -0.4728 -0.2996  0.3667
  730TMC3    C210839   0.225   4.160  16.803  0.3937  0.0879  0.2066
  730TMC3    C310840   0.188   4.165  16.936 -0.6556 -0.5742 -0.3908
  730TMC3    C410841   0.011   4.070  16.763 -0.0843  0.0692 -0.0538
  730TMC3    C510842   4.698   4.099  16.892 -0.7287 -0.2243 -0.1720
  730TMC3    C610843   0.060   4.132  16.979 -0.1608  0.2996 -0.3442
  730TMC3     C10844   0.175   4.083  16.580  0.2702 -0.4382  0.1915
  730TMC3     O10845   0.293   4.091  16.560  0.5823 -0.4496 -0.0342
  730TMC3     H10846   0.325   4.181  16.766  0.2978 -0.1996 -0.2132
  730TMC3    H110847   4.672   4.018  16.705 -0.8518  1.1343 -0.0034
  730TMC3    H210848   0.042   4.132  17.086 -0.4280  2.6681 -0.3875
  730TMC3    C710849   4.608   4.212  16.875  0.2294  0.8739  0.6503
  730TMC3    C810850   0.238   4.291  16.995  0.0568  0.4117  0.4537
  730TMC3    O110851   4.563   4.234  16.763  0.4294 -0.0358 -0.1572
  730TMC3    O210852   0.215   4.301  17.111 -0.1052 -0.2115 -0.1131
  731MPD2     C10853   1.075   3.472  12.165 -0.2246 -0.1860  0.3268
  731MPD2    C110854   0.982   3.375  12.134  0.4870  0.7123 -0.2339
  731MPD2    C210855   0.902   3.323  12.241 -1.0138  0.0655  0.0276
  731MPD2    C310856   0.926   3.370  12.368 -0.3160 -0.0005 -0.1088
  731MPD2    C410857   1.023   3.463  12.388 -0.1035  0.1889  0.3241
  731MPD2    C510858   1.099   3.528  12.288  0.2814  0.5234 -0.3740
  731MPD2     H10859   0.832   3.243  12.223 -0.9177 -0.0186  0.0238
  731MPD2    H110860   1.036   3.499  12.490  1.4532 -0.9759  0.5313
  731MPD2    H210861   1.129   3.526  12.088  1.1723 -2.5013 -0.3249
  731MPD2    H310862   1.173   3.606  12.305 -0.5839  1.6004 -1.5595
  731MPD2     N10863   0.850   3.306  12.472 -0.2944 -0.0654 -0.3700
  731MPD2    H510864   0.788   3.234  12.437 -0.6527 -1.2483  2.7683
  731MPD2    N110865   0.972   3.344  11.994  1.0433  0.1803  0.2664
  731MPD2    H710866   1.016   3.405  11.925 -1.8820  1.0784 -0.7937
  732TMC3    C110867   0.960   3.203  11.813  0.1386 -0.6710  0.1168
  732TMC3    C210868   0.902   3.087  11.765 -0.2287  0.5970 -0.4631
  732TMC3    C310869   0.979   3.019  11.671 -0.2963  0.4162  0.1298
  732TMC3    C410870   1.082   3.252  11.779 -0.0687 -0.4455 -0.4482
  732TMC3    C510871   1.154   3.178  11.684 -0.4062 -0.1754  0.0332
  732TMC3    C610872   1.107   3.058  11.631  0.0520  0.4769  0.6160
  732TMC3     C10873   0.905   3.239  11.938 -0.6462 -0.9557  0.2932
  732TMC3     O10874   0.835   3.158  11.998 -0.0744  0.2185  0.5956
  732TMC3     H10875   0.805   3.058  11.803 -1.3578  1.3432 -2.7930
  732TMC3    H110876   1.117   3.351  11.809  1.7122 -0.4961 -2.3584
  732TMC3    H210877   1.178   2.997  11.575 -0.0078 -0.9306  2.0849
  732TMC3    C710878   1.304   3.195  11.693  0.0527 -0.4399 -0.0087
  732TMC3    C810879   0.949   2.878  11.644  0.8387  0.1605 -0.7775
  732TMC3    O110880   1.364   3.239  11.596  0.2082  0.2685 -0.2823
  732TMC3    O210881   1.044   2.802  11.648  0.1430  0.4848  0.4807
  733TMC3    C110882   1.278   0.763  12.719  0.0218 -1.0279  0.1095
  733TMC3    C210883   1.378   0.671  12.702  0.7946  0.0909  0.2844
  733TMC3    C310884   1.482   0.705  12.624 -0.2806 -0.8368  0.9704
  733TMC3    C410885   1.264   0.869  12.637 -0.3926  0.4621  0.2461
  733TMC3    C510886   1.368   0.895  12.549  0.3887  0.3001  0.5581
  733TMC3    C610887   1.478   0.828  12.553  0.4600 -0.4235 -0.0659
  733TMC3     C10888   1.189   0.761  12.837  0.6278  0.1893 -0.3011
  733TMC3     O10889   1.090   0.834  12.832 -0.1030  0.1622  0.6953
  733TMC3     H10890   1.371   0.577  12.754  0.1569 -0.1801 -0.2889
  733TMC3    H110891   1.177   0.933  12.635  1.9550  3.5971 -1.5485
  733TMC3    H210892   1.558   0.849  12.484 -0.5047 -2.5027 -1.8222
  733TMC3    C710893   1.374   1.029  12.496 -0.2957  0.3962  0.1502
  733TMC3    C810894   1.611   0.644  12.654  0.2872 -0.1556  1.0852
  733TMC3    O110895   1.268   1.074  12.447  1.0808  0.2247  0.8904
  733TMC3    O210896   1.623   0.523  12.662 -0.3551 -0.1035 -0.1914
  734MPD2     C10897   4.008   3.552  11.483  0.1669  0.0345 -0.2006
  734MPD2    C110898   3.883   3.604  11.490 -0.2247 -0.0818  1.1392
  734MPD2    C210899   3.842   3.701  11.399 -0.4779  0.3989 -0.6184
  734MPD2    C310900   3.911   3.728  11.282 -0.3412  0.1246  1.2969
  734MPD2    C410901   4.031   3.659  11.265  0.0216 -0.3939  0.0964
  734MPD2    C510902   4.081   3.577  11.368 -0.3316 -0.8935  0.3780
  734MPD2     H10903   3.750   3.755  11.419 -0.3567  0.5595 -0.4937
  734MPD2    H110904   4.091   3.678  11.176 -0.9385 -0.2696 -0.5174
  734MPD2    H210905   4.053   3.499  11.567 -1.1949 -0.7410  0.0423
  734MPD2    H310906   4.180   3.533  11.355 -0.6483 -0.8592 -2.0619
  734MPD2     N10907   3.839   3.809  11.200  0.3856 -0.0538  0.0223
  734MPD2    H510908   3.753   3.847  11.237 -0.6104 -0.4503 -1.9221
  734MPD2    N110909   3.798   3.565  11.593  0.3687  0.3148 -0.4069
  734MPD2    H710910   3.830   3.502  11.665  0.7724  0.5339 -0.3956
  735TMC3    C110911   3.593   3.528  11.706 -0.0260  0.0095  0.5482
  735TMC3    C210912   3.464   3.565  11.696  0.2846  0.2163 -0.3201
  735TMC3    C310913   3.370   3.462  11.697 -0.2429 -0.1087  0.5472
  735TMC3    C410914   3.629   3.403  11.730 -0.4524  0.8444  0.1359
  735TMC3    C510915   3.530   3.308  11.730 -0.2391 -0.0051 -0.3446
  735TMC3    C610916   3.403   3.336  11.711  0.1592 -0.0924 -0.1904
  735TMC3     C10917   3.661   3.587  11.596 -0.3400  0.3511 -0.5208
  735TMC3     O10918   3.586   3.656  11.524 -0.4518 -0.1593 -0.6893
  735TMC3     H10919   3.446   3.669  11.720  0.3372  0.1747 -0.1009
  735TMC3    H110920   3.730   3.365  11.734 -0.7998 -0.2150 -1.2067
  735TMC3    H210921   3.332   3.253  11.709  0.7700 -0.6634  1.4340
  735TMC3    C710922   3.567   3.171  11.727 -0.0764  0.0346  0.0569
  735TMC3    C810923   3.273   3.475  11.588 -0.0303 -0.7684 -0.3450
  735TMC3    O110924   3.650   3.137  11.643  0.3788 -0.1590 -0.2074
  735TMC3    O210925   3.218   3.377  11.545 -0.1969  0.0242  0.0250
  736MPD2     C10926   3.514   2.925  12.001 -0.4044 -0.2089 -0.2539
  736MPD2    C110927   3.578   2.988  11.895  0.2813 -0.9828  0.4327
  736MPD2    C210928   3.690   2.928  11.839 -0.7172  0.2796  0.6025
  736MPD2    C310929   3.742   2.810  11.885 -0.1350 -0.4170 -0.0765
  736MPD2    C410930   3.694   2.760  12.005  0.0219  0.7790 -0.5661
  736MPD2    C510931   3.581   2.815  12.062 -0.0694  0.5526 -0.1349
  736MPD2     H10932   3.742   2.973  11.754 -1.5508  0.1428  0.0168
  736MPD2    H110933   3.731   2.669  12.052  0.2385  1.9070  1.4527
  736MPD2    H210934   3.420   2.951  12.047  0.7480  1.4132  1.2157
  736MPD2    H310935   3.549   2.766  12.153  0.1275 -0.4149 -0.5849
  736MPD2     N10936   3.847   2.741  11.814  0.1956 -0.9105  0.3007
  736MPD2    H510937   3.898   2.674  11.870  0.3437 -2.0404 -1.2040
  736MPD2    N110938   3.523   3.109  11.842  0.1841 -0.4295  0.7280
  736MPD2    H710939   3.442   3.146  11.891 -0.3714  2.0610 -2.1058
  737TMC3    C110940   3.993   2.687  11.631  1.0725 -0.4562 -0.4998
  737TMC3    C210941   4.045   2.732  11.514  0.4046 -0.3038  0.1187
  737TMC3    C310942   4.148   2.664  11.454  0.7093  0.1741 -0.5379
  737TMC3    C410943   4.049   2.579  11.694 -0.5466 -0.2014 -1.2516
  737TMC3    C510944   4.161   2.527  11.637  0.6460  0.3184  0.4844
  737TMC3    C610945   4.211   2.560  11.513 -0.4760 -0.7711 -0.7983
  737TMC3     C10946   3.875   2.757  11.679  0.3515 -0.1138 -0.4649
  737TMC3     O10947   3.818   2.821  11.591 -0.4385  0.2211 -0.3907
  737TMC3     H10948   4.014   2.828  11.475  1.9815 -0.0333 -0.4511
  737TMC3    H110949   4.003   2.539  11.784  2.3164  1.1853  0.8221
  737TMC3    H210950   4.298   2.519  11.461  1.8528  0.5310  2.0767
  737TMC3    C710951   4.245   2.432  11.714 -0.6158 -0.7889  0.0286
  737TMC3    C810952   4.231   2.735  11.353  0.3646 -0.3214 -0.5373
  737TMC3    O110953   4.205   2.373  11.816  0.0268 -0.7722  0.0710
  737TMC3    O210954   4.350   2.716  11.355  0.3113  0.5194 -0.4306
  738MPD2     C10955   3.762   2.164  14.894  0.7393 -0.5513 -0.1838
  738MPD2    C110956   3.838   2.069  14.968 -0.7797  0.3562  0.2715
  738MPD2    C210957   3.971   2.101  15.000  0.6457  0.3718  0.3944
  738MPD2    C310958   4.021   2.223  14.950  0.6500 -0.4559 -0.5165
  738MPD2    C410959   3.946   2.309  14.882  0.1155  0.4004 -0.2271
  738MPD2    C510960   3.817   2.284  14.857 -0.1635  0.5455 -0.1924
  738MPD2     H10961   4.027   2.022  15.049 -1.8178 -2.5271 -1.4858
  738MPD2    H110962   3.988   2.394  14.829 -0.5169  1.3331  0.7481
  738MPD2    H210963   3.657   2.145  14.875  0.4768 -1.2808  1.9908
  738MPD2    H310964   3.765   2.346  14.785 -0.0744  2.9436  1.7712
  738MPD2     N10965   4.160   2.253  14.947  0.2041  1.0235  0.1105
  738MPD2    H510966   4.199   2.339  14.909  0.0087  0.6141 -1.0164
  738MPD2    N110967   3.780   1.950  15.022 -0.3953 -0.0765  0.7777
  738MPD2    H710968   3.835   1.906  15.095 -1.0122 -0.3826  1.0526
  739TMC3    C110969   4.385   2.225  14.974  0.4232 -0.2700 -0.2761
  739TMC3    C210970   4.405   2.287  14.855 -0.4592  0.1606 -0.7538
  739TMC3    C310971   4.513   2.363  14.837 -0.4122 -0.2813  0.2435
  739TMC3    C410972   4.461   2.236  15.079 -0.0260  0.5051 -0.5784
  739TMC3    C510973   4.559   2.325  15.063 -1.2623 -0.5043 -0.4841
  739TMC3    C610974   4.593   2.390  14.944  0.2683  0.6067  0.0773
  739TMC3     C10975   4.256   2.166  15.002 -0.5374 -0.1503 -0.5882
  739TMC3     O10976   4.255   2.079  15.085  0.0094  0.2492  0.2476
  739TMC3     H10977   4.335   2.275  14.773 -2.6085  0.0670  1.0867
  739TMC3    H110978   4.440   2.189  15.175 -1.5461  1.6508 -0.3586
  739TMC3    H210979   4.683   2.449  14.931  0.5160  0.9376  3.4532
  739TMC3    C710980   4.671   2.288  15.146 -0.6571  0.7629  0.7296
  739TMC3    C810981   4.531   2.422  14.711  0.0231 -0.0271 -0.0102
  739TMC3    O110982   4.662   2.177  15.203 -0.4192  0.8842  0.0812
  739TMC3    O210983   4.443   2.399  14.626 -0.1720 -0.0481  0.1675
  740TMC3    C110984   4.641   3.142  14.581  0.3338  0.2723  0.2681
  740TMC3    C210985   4.629   3.095  14.709  0.6093 -0.9032  0.1199
  740TMC3    C310986   0.008   3.101  14.781  0.0436 -0.0352  0.6042
  740TMC3    C410987   0.021   3.175  14.525 -0.2303 -0.2914 -0.0368
  740TMC3    C510988   0.133   3.154  14.600  0.0637  0.0781  0.2890
  740TMC3    C610989   0.123   3.136  14.729  0.0191  0.2244 -0.1824
  740TMC3     C10990   4.530   3.148  14.484  0.0466 -0.5717 -0.0196
  740TMC3     O10991   4.547   3.127  14.363 -0.0426 -0.2730 -0.3375
  740TMC3     H10992   4.536   3.064  14.754  0.9983 -1.7356  0.3439
  740TMC3    H110993   0.027   3.221  14.427  2.2197 -2.0886 -0.7251
  740TMC3    H210994   0.211   3.144  14.792 -0.7694 -2.8897  1.2976
  740TMC3    C710995   0.261   3.207  14.546  0.1415  0.4071  0.0184
  740TMC3    C810996   4.727   3.091  14.929  0.3284 -0.2955 -0.2888
  740TMC3    O110997   0.326   3.279  14.619  0.1704 -0.4757  0.4905
  740TMC3    O210998   4.622   3.131  14.979  0.1187  0.1746  0.3571
  741TMC3    C110999   4.034   2.774  14.264 -0.1723 -0.5739  0.1608
  741TMC3    C211000   3.946   2.663  14.263 -0.4399 -0.5208 -0.8582
  741TMC3    C311001   3.927   2.593  14.385 -0.6026 -0.0989 -0.0372
  741TMC3    C411002   4.087   2.820  14.382  0.7463  0.1149 -0.4003
  741TMC3    C511003   4.059   2.748  14.499  0.0794  0.5582  0.3307
  741TMC3    C611004   3.978   2.643  14.502  0.3908  0.4682  0.8030
  741TMC3     C11005   4.089   2.824  14.141  0.2357  0.4376  0.1204
  741TMC3     O11006   4.120   2.943  14.141  0.4453  0.1114  0.5789
  741TMC3     H11007   3.896   2.630  14.172 -2.3075  0.5464 -0.2325
  741TMC3    H111008   4.157   2.902  14.379  1.6357 -0.5263  2.5629
  741TMC3    H211009   3.960   2.584  14.591 -1.3956  0.0191  0.1326
  741TMC3    C711010   4.103   2.797  14.629  0.0019 -0.2799  0.0666
  741TMC3    C811011   3.838   2.482  14.381 -0.3478  0.5326  0.2943
  741TMC3    O111012   4.037   2.776  14.728  0.3036  0.0954  0.7487
  741TMC3    O211013   3.755   2.479  14.294  0.0055  0.2840  0.4923
  742TMC3    C111014   4.160   1.078  15.177  0.1940  0.7067  0.3376
  742TMC3    C211015   4.068   1.026  15.090 -0.1083 -0.1218  0.4465
  742TMC3    C311016   4.113   0.957  14.981 -0.2447  0.6845  0.3455
  742TMC3    C411017   4.289   1.037  15.169 -0.0513  0.3910 -0.0660
  742TMC3    C511018   4.334   0.961  15.060  0.0170 -0.3854 -0.7235
  742TMC3    C611019   4.245   0.928  14.956  1.2168  0.0896 -0.4014
  742TMC3     C11020   4.114   1.159  15.282 -0.0331  0.0073  0.2502
  742TMC3     O11021   4.002   1.133  15.326 -0.0638 -0.2451 -0.1488
  742TMC3     H11022   3.967   1.064  15.101 -0.0232  0.2313  0.0261
  742TMC3    H111023   4.357   1.065  15.249  0.9768 -2.1252 -0.0592
  742TMC3    H211024   4.270   0.890  14.858  1.8009 -1.0047  0.1659
  742TMC3    C711025   4.448   0.880  15.068 -0.4437 -0.0828  0.3851
  742TMC3    C811026   4.023   0.923  14.865 -0.3823  0.0118  0.5521
  742TMC3    O111027   4.468   0.794  14.984 -0.1272 -0.3015  0.5058
  742TMC3    O211028   4.070   0.899  14.753 -0.2045 -0.6387 -0.1132
  743MPD2     C11029   1.034   2.340   1.531 -0.3662 -0.3477  0.2322
  743MPD2    C111030   1.137   2.373   1.443 -0.1012 -0.0560  0.4271
  743MPD2    C211031   1.252   2.427   1.496  0.7769 -0.4517 -0.1220
  743MPD2    C311032   1.269   2.450   1.627  0.0355  0.0460  0.1634
  743MPD2    C411033   1.166   2.421   1.715 -0.5224  0.1518  0.0535
  743MPD2    C511034   1.050   2.363   1.664  0.3454 -0.4227 -0.2033
  743MPD2     H11035   1.334   2.435   1.426  0.4863 -2.8224 -0.7489
  743MPD2    H111036   1.180   2.461   1.815 -0.0976  0.7447 -0.2470
  743MPD2    H211037   0.940   2.300   1.494 -0.3869  0.6318 -0.7565
  743MPD2    H311038   0.965   2.348   1.731  0.2443 -1.3125 -0.5242
  743MPD2     N11039   1.396   2.495   1.662  0.1743 -0.1261  0.7842
  743MPD2    H511040   1.453   2.518   1.582 -2.8962  0.5592 -1.2298
  743MPD2    N111041   1.122   2.339   1.307 -0.3711 -0.9952 -0.0049
  743MPD2    H711042   1.028   2.304   1.291 -0.4266 -0.5947 -0.5520
  744TMC3    C111043   1.150   2.345   1.072 -0.7580  0.3410 -0.7931
  744TMC3    C211044   1.017   2.360   1.058  0.2348 -0.1429  0.4392
  744TMC3    C311045   0.967   2.334   0.934 -0.0966 -0.1318  0.1399
  744TMC3    C411046   1.231   2.300   0.975  0.3583  0.2419  0.1421
  744TMC3    C511047   1.183   2.286   0.848 -0.2847  0.3507  0.3253
  744TMC3    C611048   1.048   2.301   0.826  0.6553  0.0995  0.5014
  744TMC3     C11049   1.215   2.348   1.205  0.1324  0.1746  0.3032
  744TMC3     O11050   1.336   2.365   1.206  0.5420  0.2229 -0.7198
  744TMC3     H11051   0.962   2.394   1.145  2.6358  2.3349  0.9880
  744TMC3    H111052   1.334   2.271   0.992  0.3141 -0.9008 -1.5410
  744TMC3    H211053   1.004   2.276   0.730 -2.8435  1.4414  1.7466
  744TMC3    C711054   1.282   2.276   0.748 -0.5953 -0.0029 -0.0059
  744TMC3    C811055   0.824   2.329   0.934 -0.1698  0.1726  0.2298
  744TMC3    O111056   1.390   2.234   0.787  0.2870  0.4418  0.4838
  744TMC3    O211057   0.769   2.411   1.004 -0.4595  0.3687 -0.2853
  745TMC3    C111058   0.050   0.671  14.136 -0.8839  0.0899  0.8299
  745TMC3    C211059   0.038   0.713  14.268 -0.8238 -0.7800 -0.4673
  745TMC3    C311060   4.682   0.803  14.289  0.2060 -0.0153 -0.0722
  745TMC3    C411061   4.693   0.702  14.040 -0.4616  0.4975 -0.1239
  745TMC3    C511062   4.604   0.801  14.066 -0.4500 -0.6214 -0.3533
  745TMC3    C611063   4.595   0.849  14.195 -0.8194 -0.1622 -0.3197
  745TMC3     C11064   0.180   0.689  14.068  0.1778 -0.0599  0.4776
  745TMC3     O11065   0.167   0.726  13.952 -0.0040  0.0854  0.4729
  745TMC3     H11066   0.098   0.677  14.350  0.7991 -0.3251 -1.4547
  745TMC3    H111067   4.693   0.655  13.942  0.4829  0.2393 -0.0020
  745TMC3    H211068   4.529   0.932  14.219  0.7005  0.6904  0.9288
  745TMC3    C711069   4.596   0.898  13.960  0.3477 -0.4701  0.1119
  745TMC3    C811070   4.707   0.908  14.391  0.0955  0.0758  0.4749
  745TMC3    O111071   4.502   0.977  13.964 -0.0112  0.3712 -0.1328
  745TMC3    O211072   0.087   0.941  14.405  0.1983 -0.3331  0.0379
  746TMC3    C111073   2.574   2.645  11.417  0.1592  0.4073  0.2363
  746TMC3    C211074   2.706   2.646  11.409 -0.1941  0.3046 -0.0978
  746TMC3    C311075   2.763   2.600  11.294  0.4174 -0.2334  0.0297
  746TMC3    C411076   2.498   2.583  11.320 -0.5416 -0.3339  0.2513
  746TMC3    C511077   2.562   2.524  11.213 -0.2279  0.1637 -0.3437
  746TMC3    C611078   2.697   2.530  11.198 -0.3479  0.0485 -0.3983
  746TMC3     C11079   2.509   2.725  11.522 -0.4153 -0.1266 -0.5373
  746TMC3     O11080   2.573   2.758  11.621  0.1975  0.2313  0.9758
  746TMC3     H11081   2.759   2.700  11.486  2.0027  0.7085 -1.9055
  746TMC3    H111082   2.390   2.580  11.325 -0.4003 -2.3916  2.0235
  746TMC3    H211083   2.744   2.473  11.118 -1.8647 -0.8641 -0.6516
  746TMC3    C711084   2.493   2.404  11.160  0.6775  0.3727 -0.2460
  746TMC3    C811085   2.876   2.680  11.257  0.0750  0.5528  0.1868
  746TMC3    O111086   2.500   2.381  11.042  0.2645 -0.4085  0.0648
  746TMC3    O211087   2.923   2.752  11.348 -0.9975  0.2210  0.3333
  747TMC3    C111088   0.456   2.332  11.305 -0.1013  0.3981  0.3460
  747TMC3    C211089   0.356   2.257  11.358  0.8214 -0.7266 -0.8402
  747TMC3    C311090   0.266   2.315  11.443  0.4238 -0.0215 -0.0627
  747TMC3    C411091   0.459   2.468  11.319  0.0518  0.8349  0.1255
  747TMC3    C511092   0.367   2.519  11.404  0.6345 -0.0643  0.2606
  747TMC3    C611093   0.268   2.449  11.469 -0.6579  0.4768 -0.5130
  747TMC3     C11094   0.543   2.277  11.197  0.4266 -0.2940  0.4735
  747TMC3     O11095   0.640   2.342  11.163  0.3358  0.0624 -0.3232
  747TMC3     H11096   0.348   2.150  11.346 -1.4381 -0.7735  0.9560
  747TMC3    H111097   0.534   2.527  11.267  0.7654  0.1941  0.4331
  747TMC3    H211098   0.207   2.495  11.545  1.4103  0.6278  1.0747
  747TMC3    C711099   0.354   2.665  11.403 -0.2602  0.0589  0.4316
  747TMC3    C811100   0.164   2.235  11.511  0.1461  0.1766 -0.0303
  747TMC3    O111101   0.326   2.727  11.503 -0.1881 -0.2121 -0.5025
  747TMC3    O211102   0.168   2.111  11.502  0.0409 -0.1804 -0.0753
  748MPD2     C11103   0.594   2.947   1.501  0.4352 -0.1337 -0.6043
  748MPD2    C111104   0.651   2.969   1.373 -0.7939  0.0411 -0.1972
  748MPD2    C211105   0.778   3.024   1.371  0.4393 -0.0913  0.3496
  748MPD2    C311106   0.835   3.061   1.487 -0.3693 -0.0065 -0.0193
  748MPD2    C411107   0.771   3.051   1.608  0.6919  0.8093 -0.0968
  748MPD2    C511108   0.646   2.995   1.617  0.8095 -0.4707  0.8991
  748MPD2     H11109   0.831   3.024   1.277 -0.3147 -1.9711 -0.0833
  748MPD2    H111110   0.815   3.076   1.704 -0.9651 -3.1791  1.7068
  748MPD2    H211111   0.500   2.893   1.502 -0.4420  1.3637 -2.0604
  748MPD2    H311112   0.596   2.996   1.713  2.0237 -1.3392  1.5413
  748MPD2     N11113   0.964   3.113   1.479  0.0714 -0.3168 -0.0926
  748MPD2    H511114   1.015   3.114   1.391 -1.2775 -1.9961 -0.8962
  748MPD2    N111115   0.576   2.936   1.264  0.6413 -0.5290  0.2775
  748MPD2    H711116   0.481   2.903   1.278  0.8573 -1.8597 -1.2939
  749TMC3    C111117   1.177   3.183   1.536  0.6282 -0.0273  0.4825
  749TMC3    C211118   1.279   3.185   1.618  0.5552 -0.7514  0.2899
  749TMC3    C311119   1.405   3.193   1.560 -0.1393 -0.3439 -0.8971
  749TMC3    C411120   1.189   3.237   1.407  0.0366 -0.5249  0.6519
  749TMC3    C511121   1.316   3.237   1.357 -0.1177  0.7897 -0.0380
  749TMC3    C611122   1.431   3.204   1.427  0.2313  0.0677  0.2696
  749TMC3     C11123   1.054   3.125   1.580 -0.4125  0.1610 -0.2088
  749TMC3     O11124   1.051   3.069   1.689 -0.0948  0.0691 -0.2043
  749TMC3     H11125   1.268   3.151   1.720  1.2070  0.6945  0.8418
  749TMC3    H111126   1.105   3.266   1.344  0.9717 -0.4801 -0.5626
  749TMC3    H211127   1.533   3.222   1.393 -0.0465  1.1788  0.0184
  749TMC3    C711128   1.339   3.300   1.229 -0.2919 -0.2277  0.2263
  749TMC3    C811129   1.512   3.192   1.648  0.8422  0.5208 -0.4196
  749TMC3    O111130   1.254   3.380   1.188 -0.6026  0.0509 -0.0411
  749TMC3    O211131   1.488   3.246   1.753 -0.1349  0.0984  0.5549
  750MPD2     C11132   2.566   0.167  11.539 -0.1151 -0.2794  0.0639
  750MPD2    C111133   2.483   0.065  11.559  0.3485  0.2230  0.0778
  750MPD2    C211134   2.509   4.691  11.487 -0.6149 -0.3317 -0.0664
  750MPD2    C311135   2.615   4.674  11.399 -0.1749  0.6124 -0.3549
  750MPD2    C411136   2.689   0.047  11.374 -0.0316  0.5585  0.0395
  750MPD2    C511137   2.664   0.158  11.450  0.1126 -0.3067  0.8813
  750MPD2     H11138   2.441   4.608  11.499 -0.4767 -0.8909 -3.2525
  750MPD2    H111139   2.763   0.050  11.295  1.0839  0.3610  1.0799
  750MPD2    H211140   2.564   0.252  11.606 -0.5683  1.4486 -2.1436
  750MPD2    H311141   2.726   0.246  11.437  0.8732 -0.9295  0.2473
  750MPD2     N11142   2.641   4.552  11.324 -0.3080  0.3189  0.2715
  750MPD2    H511143   2.708   4.554  11.247 -2.8556  1.0093 -1.9338
  750MPD2    N111144   2.380   0.079  11.652  0.0595 -0.5141  0.1315
  750MPD2    H711145   2.361   0.166  11.700 -1.5998 -0.3428 -0.8487
  751TMC3    C111146   2.611   4.319  11.268  0.7538  0.3906  0.4201
  751TMC3    C211147   2.570   4.194  11.330 -0.4571  0.3455  0.2673
  751TMC3    C311148   2.545   4.092  11.243  0.2063  0.3008 -0.3431
  751TMC3    C411149   2.632   4.336  11.132  0.1727  0.3101  0.0981
  751TMC3    C511150   2.639   4.216  11.060 -0.6235  0.5291  0.0424
  751TMC3    C611151   2.591   4.101  11.112  0.7933 -0.0547 -0.7790
  751TMC3     C11152   2.598   4.436  11.359 -0.3956 -0.2387  0.5900
  751TMC3     O11153   2.541   4.406  11.462  0.4208  0.3761 -0.0591
  751TMC3     H11154   2.550   4.188  11.436 -3.2293 -0.9915 -0.3382
  751TMC3    H111155   2.643   4.436  11.091 -2.5502  1.6064  2.4808
  751TMC3    H211156   2.581   4.017  11.044  1.7283  1.9397 -3.3653
  751TMC3    C711157   2.655   4.228  10.921 -0.0647 -0.3533 -0.6531
  751TMC3    C811158   2.423   4.014  11.253  0.0625 -0.2403 -0.7613
  751TMC3    O111159   2.656   4.337  10.864 -0.7736 -0.0569 -0.4234
  751TMC3    O211160   2.395   3.951  11.153 -0.3485 -0.1079 -0.1490
  752TMC3    C111161   0.626   4.251  16.961  0.3712  0.4283  0.1077
  752TMC3    C211162   0.703   4.142  16.936  0.3070 -0.6671  0.1611
  752TMC3    C311163   0.704   4.047  17.035  0.2233 -0.0841  0.1055
  752TMC3    C411164   0.547   4.267  17.072 -0.2526 -0.7348 -0.1047
  752TMC3    C511165   0.551   4.173  17.168  0.8763 -0.0521 -0.1068
  752TMC3    C611166   0.633   4.062  17.152  0.0044  0.1140  0.5112
  752TMC3     C11167   0.615   4.356  16.865 -0.0739 -0.3167  0.3362
  752TMC3     O11168   0.600   4.470  16.906  0.4612 -0.3630  0.3959
  752TMC3     H11169   0.765   4.123  16.849 -1.2854 -0.6059 -0.9810
  752TMC3    H111170   0.493   4.359  17.089  0.6943 -0.7168  2.8165
  752TMC3    H211171   0.648   3.987  17.229 -1.1411  0.4287  1.0468
  752TMC3    C711172   0.523   4.217  17.304  0.1641  0.3225  0.0895
  752TMC3    C811173   0.784   3.933  17.031 -0.3296 -0.0854  0.8903
  752TMC3    O111174   0.517   4.340  17.329  0.0097  0.0945  0.0218
  752TMC3    O211175   0.827   3.878  17.134 -0.8907  0.0928 -0.3844
  753TMC3    C111176   3.066   0.363  13.413 -0.6007  0.8087 -0.2634
  753TMC3    C211177   3.061   0.372  13.551  0.0278  0.4527 -0.3468
  753TMC3    C311178   3.090   0.258  13.617  0.5215  0.0337 -0.3264
  753TMC3    C411179   3.101   0.247  13.340 -0.2391 -0.3368 -0.4979
  753TMC3    C511180   3.118   0.137  13.426 -0.3879  0.7047  0.0594
  753TMC3    C611181   3.117   0.138  13.557  0.9095  0.5757 -0.2520
  753TMC3     C11182   3.036   0.482  13.344  0.0583 -0.4130  0.7971
  753TMC3     O11183   3.033   0.474  13.223  0.5150  0.3909 -0.0568
  753TMC3     H11184   3.013   0.454  13.603  0.4290  0.7875 -0.5109
  753TMC3    H111185   3.096   0.233  13.233  1.0379  0.7309 -0.6989
  753TMC3    H211186   3.125   0.053  13.624  1.8351 -0.5097 -1.7463
  753TMC3    C711187   3.178   0.018  13.362 -0.6065 -0.1023 -0.7609
  753TMC3    C811188   3.084   0.251  13.765  0.0643 -0.2359  0.4709
  753TMC3    O111189   3.187   0.033  13.241  0.3769  0.1584  0.3299
  753TMC3    O211190   3.049   0.144  13.810  0.7230  0.0835  0.7829
  754MPD2     C11191   2.174   4.167  13.417 -0.3792  0.4711 -0.4070
  754MPD2    C111192   2.151   4.034  13.422  0.2636 -0.3406 -0.2360
  754MPD2    C211193   2.023   3.991  13.433  0.6260 -0.1479  0.3576
  754MPD2    C311194   1.915   4.084  13.442 -0.4506  1.1280  0.2640
  754MPD2    C411195   1.946   4.214  13.441 -0.2876 -0.5066  0.3445
  754MPD2    C511196   2.074   4.256  13.440 -0.2674  0.3305  0.5033
  754MPD2     H11197   2.003   3.889  13.405 -1.3412  0.6342 -1.1108
  754MPD2    H111198   1.866   4.284  13.460  0.0673 -0.3073  1.0925
  754MPD2    H211199   2.273   4.209  13.400  0.5737 -1.4026  0.5156
  754MPD2    H311200   2.098   4.361  13.449 -1.9884  0.7194  0.6983
  754MPD2     N11201   1.784   4.030  13.471  0.6302  0.2867  0.0188
  754MPD2    H511202   1.714   4.101  13.486 -0.2474 -0.6967  0.6166
  754MPD2    N111203   2.270   3.954  13.418  0.7592 -0.4128  0.4305
  754MPD2    H711204   2.354   4.010  13.408 -0.0651  0.5399 -1.2219
  755MPD2     C11205   0.817   4.236  13.501  0.2962 -1.0011  0.3956
  755MPD2    C111206   0.936   4.310  13.507  0.0958 -0.0765 -0.4403
  755MPD2    C211207   1.058   4.240  13.526  0.1686  0.6179 -1.4030
  755MPD2    C311208   1.060   4.103  13.529  0.1900  0.1689 -0.8557
  755MPD2    C411209   0.944   4.037  13.515  0.3427  0.6108  0.0403
  755MPD2    C511210   0.822   4.102  13.512 -0.2743 -1.5238 -1.1993
  755MPD2     H11211   1.151   4.296  13.525  0.9069 -0.5883 -0.4360
  755MPD2    H111212   0.937   3.929  13.514 -0.1718  0.6479 -0.2097
  755MPD2    H211213   0.722   4.280  13.475  0.7591  0.4687  1.2230
  755MPD2    H311214   0.730   4.046  13.503 -0.1177 -2.1431  1.1941
  755MPD2     N11215   1.172   4.021  13.552  0.3977 -0.1902  0.2775
  755MPD2    H511216   1.160   3.922  13.534  2.4101 -0.3576 -0.1221
  755MPD2    N111217   0.945   4.445  13.475 -0.2828  0.1666 -0.7930
  755MPD2    H711218   1.038   4.486  13.483  0.1938 -0.7089 -1.8406
  756MPD2     C11219   2.983   0.626   9.808  0.2019 -0.1405 -0.6428
  756MPD2    C111220   2.908   0.517   9.845 -0.1400 -0.0164  0.4813
  756MPD2    C211221   2.819   0.468   9.751  0.0045  0.5470 -0.2669
  756MPD2    C311222   2.828   0.515   9.621  0.0381  0.5283 -0.1088
  756MPD2    C411223   2.919   0.620   9.585  0.3412  0.0914 -0.7429
  756MPD2    C511224   3.007   0.670   9.678  0.8138  0.2874  0.1618
  756MPD2     H11225   2.739   0.398   9.772  0.0465  0.7297  0.4938
  756MPD2    H111226   2.927   0.650   9.481  0.4928  2.5443 -0.0269
  756MPD2    H211227   3.037   0.678   9.886 -0.0437 -3.0906  1.5074
  756MPD2    H311228   3.063   0.761   9.658 -1.3729  1.7324  0.5757
  756MPD2     N11229   2.734   0.467   9.527 -0.5045  0.3710  0.0910
  756MPD2    H511230   2.677   0.389   9.558  0.2725 -0.0272  0.5332
  756MPD2    N111231   2.896   0.471   9.979 -0.3745 -0.6213 -0.0028
  756MPD2    H711232   2.814   0.413   9.994 -0.0001 -1.6398 -2.0050
  757MPD2     C11233   2.645   4.361   9.580  0.4601 -0.1130  0.1117
  757MPD2    C111234   2.573   4.459   9.653  0.1227  0.3477  0.3908
  757MPD2    C211235   2.565   4.584   9.598 -0.1485 -0.2713 -0.0897
  757MPD2    C311236   2.612   4.613   9.472 -0.0882  0.7827  0.5880
  757MPD2    C411237   2.686   4.517   9.407  0.3034 -0.0530 -0.1129
  757MPD2    C511238   2.705   4.396   9.464 -0.4289 -0.0402  0.0629
  757MPD2     H11239   2.524   4.668   9.653 -0.4967 -0.4269 -0.1143
  757MPD2    H111240   2.746   4.540   9.320  1.7115  0.0813  0.8988
  757MPD2    H211241   2.664   4.260   9.617  0.2421 -0.1950  0.0033
  757MPD2    H311242   2.783   4.336   9.418  0.3862  0.7144  0.4642
  757MPD2     N11243   2.607   0.012   9.425 -0.1833  0.3825  0.0173
  757MPD2    H511244   2.577   0.086   9.489  1.2093  1.0312 -0.0852
  757MPD2    N111245   2.511   4.417   9.769  1.2345 -0.4281  0.9635
  757MPD2    H711246   2.518   4.318   9.790  2.8318 -0.8258 -1.3860
  758MPD2     C11247   1.901   3.788  16.537 -0.2460  0.7134  0.9916
  758MPD2    C111248   1.908   3.818  16.670  0.0520 -0.2066  0.1777
  758MPD2    C211249   1.788   3.831  16.736 -0.2542 -0.5100 -0.2153
  758MPD2    C311250   1.668   3.824  16.667  0.0411  0.1398 -0.2814
  758MPD2    C411251   1.659   3.776  16.537 -0.3198  0.6102 -0.0453
  758MPD2    C511252   1.781   3.762  16.475 -0.2760  0.1841 -0.8342
  758MPD2     H11253   1.784   3.854  16.842 -0.4766 -0.1207 -0.3056
  758MPD2    H111254   1.574   3.750  16.475 -0.3451  0.8048 -0.0937
  758MPD2    H211255   1.985   3.762  16.473 -0.8267  2.3570 -0.4234
  758MPD2    H311256   1.777   3.725  16.373 -2.3411  0.2868 -0.7981
  758MPD2     N11257   1.545   3.831  16.738  0.2366 -0.0928 -0.2304
  758MPD2    H511258   1.553   3.827  16.839 -2.4152 -3.0193 -0.1464
  758MPD2    N111259   2.034   3.809  16.735 -0.7482  0.0200 -0.2150
  758MPD2    H711260   2.120   3.799  16.682 -0.8382  0.7442 -0.4861
  759MPD2     C11261   1.571   1.878  10.578  0.0138 -0.0830 -0.2953
  759MPD2    C111262   1.439   1.899  10.598 -0.3949  0.7178  0.3181
  759MPD2    C211263   1.392   2.023  10.559  0.2111  0.2734 -0.0499
  759MPD2    C311264   1.474   2.126  10.510 -0.1804 -0.1166  0.2476
  759MPD2    C411265   1.607   2.102  10.494 -0.3663  0.3952  0.7129
  759MPD2    C511266   1.651   1.982  10.536  0.1876 -0.0040 -0.4384
  759MPD2     H11267   1.288   2.049  10.574  0.2746  0.4251  0.1308
  759MPD2    H111268   1.669   2.177  10.445 -0.1322 -1.3384 -1.6637
  759MPD2    H211269   1.605   1.783  10.617 -0.5055  1.2153  3.2319
  759MPD2    H311270   1.758   1.964  10.528  0.1598 -1.4233  2.8031
  759MPD2     N11271   1.413   2.248  10.484 -0.3701  0.5295 -0.3146
  759MPD2    H511272   1.315   2.251  10.512 -0.1885  0.6425  0.3119
  759MPD2    N111273   1.360   1.801  10.667 -0.8037 -0.4368  0.2491
  759MPD2    H711274   1.413   1.727  10.713  0.7982  1.2060  1.0521
  760MPD2     C11275   0.503   3.833  12.568 -0.1874  1.2987 -0.5070
  760MPD2    C111276   0.566   3.928  12.494 -0.4998  0.6751  0.7434
  760MPD2    C211277   0.702   3.942  12.499 -0.2606  0.2481  0.3767
  760MPD2    C311278   0.779   3.858  12.572 -0.3958  0.3393  0.0030
  760MPD2    C411279   0.723   3.755  12.647 -0.4348 -0.2038 -0.0076
  760MPD2    C511280   0.582   3.743  12.642  0.9262  0.3319  0.4262
  760MPD2     H11281   0.735   4.014  12.425 -1.3632  0.0622 -0.3119
  760MPD2    H111282   0.784   3.686  12.704  0.4480 -0.0780 -0.8152
  760MPD2    H211283   0.397   3.813  12.564  0.2290 -0.6324 -1.4655
  760MPD2    H311284   0.532   3.662  12.693 -0.8964  1.4662  0.4521
  760MPD2     N11285   0.920   3.866  12.574  0.1103  0.2955 -0.2933
  760MPD2    H511286   0.975   3.798  12.625 -2.6647 -1.9150 -0.2306
  760MPD2    N111287   0.495   4.019  12.415 -0.5286  0.3918  0.3803
  760MPD2    H711288   0.552   4.096  12.382 -0.2794 -0.6609 -1.6638
  761MPD2     C11289   1.963   3.874  11.448 -0.2374 -0.2720 -0.9935
  761MPD2    C111290   2.038   3.821  11.342  0.0113 -0.4327  0.3222
  761MPD2    C211291   2.164   3.879  11.314  0.1944 -0.8434  0.4147
  761MPD2    C311292   2.207   3.989  11.382 -0.2512  0.7037 -0.3043
  761MPD2    C411293   2.130   4.043  11.482 -0.0309 -0.3838  0.0889
  761MPD2    C511294   2.008   3.986  11.516 -0.2458 -0.0958 -0.5233
  761MPD2     H11295   2.237   3.818  11.262 -0.6035 -1.9939  0.6373
  761MPD2    H111296   2.168   4.120  11.548  0.8716 -0.9560  0.2404
  761MPD2    H211297   1.867   3.837  11.481  0.8879  0.7586  3.5215
  761MPD2    H311298   1.942   4.018  11.597  1.3844  0.2621  0.6767
  761MPD2     N11299   2.330   4.057  11.350 -0.3780 -0.7736 -0.3589
  761MPD2    H511300   2.352   4.134  11.413 -0.9798 -0.9248  0.0366
  761MPD2    N111301   1.996   3.698  11.284  0.0249  0.2465  0.1541
  761MPD2    H711302   1.914   3.655  11.325 -0.1794 -0.8638 -1.4193
  762MPD2     C11303   2.023   2.931  10.770  0.1527 -0.6971 -0.1001
  762MPD2    C111304   2.090   3.050  10.768 -0.6353 -0.5518 -0.1913
  762MPD2    C211305   2.201   3.072  10.691 -0.6931  1.0400 -0.1388
  762MPD2    C311306   2.255   2.962  10.623  0.4675  0.3664 -0.1197
  762MPD2    C411307   2.190   2.844  10.618  0.3113  0.7630 -0.1023
  762MPD2    C511308   2.079   2.829  10.699 -1.1452  0.5712  0.2339
  762MPD2     H11309   2.252   3.167  10.690 -1.4717  1.4545 -0.5368
  762MPD2    H111310   2.229   2.751  10.579  0.3135  0.8659 -0.3486
  762MPD2    H211311   1.931   2.910  10.824  0.3837 -0.7771  0.2643
  762MPD2    H311312   2.032   2.732  10.703 -3.8233  1.7425 -2.6895
  762MPD2     N11313   2.374   2.975  10.549  0.3539 -1.0676  0.5218
  762MPD2    H511314   2.414   3.068  10.540 -2.1267 -0.3505 -2.8461
  762MPD2    N111315   2.028   3.150  10.854 -0.5585 -0.1307  0.0785
  762MPD2    H711316   1.945   3.114  10.899  0.0230 -1.4035  0.1232
  763MPD2     C11317   2.869   3.526  16.189  0.2130  0.2272 -0.0646
  763MPD2    C111318   2.983   3.470  16.133 -0.0165 -0.3390  0.5099
  763MPD2    C211319   3.104   3.523  16.161  0.5038 -0.1675 -0.5677
  763MPD2    C311320   3.113   3.636  16.243 -0.2605  0.6232  0.4810
  763MPD2    C411321   2.995   3.688  16.299  0.1165 -0.3781  0.3830
  763MPD2    C511322   2.874   3.629  16.275 -0.1389  0.3382  0.0989
  763MPD2     H11323   3.191   3.478  16.116  0.8043  0.9840 -1.1227
  763MPD2    H111324   2.999   3.776  16.363  0.0480 -0.0405 -0.0754
  763MPD2    H211325   2.770   3.487  16.166  0.0538  0.6589 -0.1054
  763MPD2    H311326   2.785   3.669  16.321  1.5666  0.7491  3.0818
  763MPD2     N11327   3.236   3.695  16.284  0.5049 -0.3287  0.5126
  763MPD2    H511328   3.226   3.770  16.353  2.1846  0.3017  0.0662
  763MPD2    N111329   2.983   3.365  16.039 -1.0546 -0.3648  0.4052
  763MPD2    H711330   3.072   3.339  15.998 -1.3721 -0.0371 -0.4899
  764MPD2     C11331   0.881   0.524   0.132 -0.0061  0.4909  0.8204
  764MPD2    C111332   0.760   0.480   0.084 -0.2064 -0.7713 -0.1895
  764MPD2    C211333   0.691   0.386   0.156  0.3574 -0.0751 -0.1524
  764MPD2    C311334   0.735   0.353   0.284 -0.2043 -0.7004 -0.3065
  764MPD2    C411335   0.860   0.400   0.329 -0.3804  0.1104  0.2948
  764MPD2    C511336   0.933   0.491   0.253 -0.7572 -0.1372 -0.4051
  764MPD2     H11337   0.603   0.340   0.113 -0.3713 -0.5978  1.8865
  764MPD2    H111338   0.892   0.373   0.429 -2.0311  0.3965  0.8956
  764MPD2    H211339   0.939   0.585   0.064  2.1102 -1.5322  0.7894
  764MPD2    H311340   1.030   0.531   0.278 -0.2081 -0.6490 -1.6973
  764MPD2     N11341   0.653   0.257   0.346  0.5971  0.4887  0.1857
  764MPD2    H511342   0.563   0.256   0.300  0.8123  0.5796 -0.2386
  764MPD2    N111343   0.720   0.519  17.697 -0.1790  0.9497  0.1148
  764MPD2    H711344   0.641   0.465  17.665 -0.4002  0.9088  0.7383
  765MPD2     C11345   1.201   3.064  16.441 -0.6645  0.0530  0.6296
  765MPD2    C111346   1.273   3.179  16.426  0.6618 -0.0685  0.2347
  765MPD2    C211347   1.414   3.168  16.431 -0.4299 -0.3175 -0.4625
  765MPD2    C311348   1.479   3.043  16.447 -0.2494  0.1274 -0.6153
  765MPD2    C411349   1.400   2.925  16.467  0.0246 -0.0746  0.7873
  765MPD2    C511350   1.258   2.938  16.464 -0.3396 -0.2044  0.2848
  765MPD2     H11351   1.471   3.257  16.410  1.1136 -1.7529 -2.3595
  765MPD2    H111352   1.450   2.831  16.485 -1.1656 -0.6670  1.0232
  765MPD2    H211353   1.094   3.077  16.434 -0.3740  2.2277  0.4177
  765MPD2    H311354   1.191   2.854  16.481 -1.2522  0.5759  0.5988
  765MPD2     N11355   1.617   3.030  16.418  0.3208 -0.4821 -0.3317
  765MPD2    H511356   1.671   3.115  16.410 -0.9653  0.0604 -3.2425
  765MPD2    N111357   1.202   3.307  16.402  0.7808 -0.3525  1.0164
  765MPD2    H711358   1.102   3.291  16.397  0.4947  0.7063  3.4593
  766MPD2     C11359   0.728   3.446  15.829  0.4194 -0.1919 -0.2868
  766MPD2    C111360   0.866   3.479  15.826 -0.1214  0.1707  0.2919
  766MPD2    C211361   0.927   3.440  15.711  0.2289  0.1802  0.8490
  766MPD2    C311362   0.861   3.378  15.607 -0.3377  0.1166  0.6268
  766MPD2    C411363   0.728   3.353  15.606 -0.4648  0.6112  0.5572
  766MPD2    C511364   0.665   3.395  15.721 -0.4283  0.5415  0.4179
  766MPD2     H11365   1.033   3.460  15.702  0.1644  0.5440  0.8736
  766MPD2    H111366   0.667   3.308  15.529  1.0415 -1.9822  0.9042
  766MPD2    H211367   0.666   3.469  15.915 -1.4264  2.4048 -2.3076
  766MPD2    H311368   0.557   3.386  15.730 -0.8231  1.8089 -2.8413
  766MPD2     N11369   0.942   3.354  15.489  0.3162 -0.1354 -0.0334
  766MPD2    H511370   0.899   3.291  15.422 -0.3389  0.8921 -0.5854
  766MPD2    N111371   0.945   3.534  15.934 -0.5846  0.0810 -0.4357
  766MPD2    H711372   1.035   3.568  15.901 -0.5704  1.6597  1.2320
  767MPD2     C11373   0.612   3.625  15.435 -0.0120 -0.7294  1.0901
  767MPD2    C111374   0.730   3.624  15.366  0.6900  0.0865 -0.0253
  767MPD2    C211375   0.735   3.598  15.233  0.4105  0.3080 -0.1442
  767MPD2    C311376   0.625   3.560  15.167  0.0891  0.0141  0.0345
  767MPD2    C411377   0.503   3.556  15.240 -0.3715  0.0463 -0.2018
  767MPD2    C511378   0.500   3.589  15.377 -0.5013  0.2127  0.1809
  767MPD2     H11379   0.819   3.599  15.165  1.7037 -0.5414  1.4524
  767MPD2    H111380   0.413   3.521  15.190  0.4325  0.8543 -2.2029
  767MPD2    H211381   0.613   3.653  15.540  0.4353  0.0855  0.8705
  767MPD2    H311382   0.402   3.590  15.425 -0.9724 -0.7830 -0.7556
  767MPD2     N11383   0.637   3.522  15.029 -0.3554 -0.5699 -0.3470
  767MPD2    H511384   0.730   3.495  14.997  1.4236  2.2627  2.4194
  767MPD2    N111385   0.845   3.683  15.431  0.3662  0.2816  0.4355
  767MPD2    H711386   0.826   3.719  15.524 -0.6234  0.0582  0.3096
  768MPD2     C11387   2.545   2.144  10.709 -0.4118 -0.4979 -0.3961
  768MPD2    C111388   2.461   2.047  10.765 -0.4470  0.6163 -0.1653
  768MPD2    C211389   2.495   1.995  10.885 -0.5876 -0.4360  0.3356
  768MPD2    C311390   2.613   2.026  10.940  0.3330  0.6008 -0.3536
  768MPD2    C411391   2.707   2.104  10.873  0.0741 -0.7469 -0.3714
  768MPD2    C511392   2.668   2.167  10.759  0.8151 -1.0932  0.0476
  768MPD2     H11393   2.433   1.921  10.935  0.8092 -1.5491  0.4090
  768MPD2    H111394   2.801   2.138  10.914  0.9572 -2.7919 -0.6783
  768MPD2    H211395   2.501   2.201  10.628 -0.1996 -0.6111 -0.5923
  768MPD2    H311396   2.735   2.236  10.709 -0.7893  0.8022  0.4950
  768MPD2     N11397   2.656   1.994  11.071  0.0684 -0.0583 -0.6590
  768MPD2    H511398   2.743   2.032  11.105 -0.4759  2.0718 -1.6693
  768MPD2    N111399   2.329   2.015  10.724 -0.1847  0.7445  0.2923
  768MPD2    H711400   2.284   1.943  10.781 -1.5357  3.4000  2.6124
  769MPD2     C11401   2.490   4.720  14.722  0.2172  0.7228 -0.3290
  769MPD2    C111402   2.536   4.649  14.827  0.1863  0.0440 -0.5732
  769MPD2    C211403   2.585   4.726  14.937  0.3326 -0.0772 -0.7303
  769MPD2    C311404   2.599   0.124  14.935 -0.6033 -0.2005  0.0194
  769MPD2    C411405   2.561   0.191  14.824 -0.0970 -0.5512 -0.3208
  769MPD2    C511406   2.506   0.120  14.718  0.5250  0.7246  0.1972
  769MPD2     H11407   2.621   4.670  15.022  0.1351  2.7075  1.2097
  769MPD2    H111408   2.566   0.299  14.826 -1.7662 -0.4654 -0.8047
  769MPD2    H211409   2.446   4.665  14.639 -0.5672  1.6689 -0.5394
  769MPD2    H311410   2.488   0.176  14.626 -2.1912 -0.1608  0.1743
  769MPD2     N11411   2.657   0.192  15.050  0.2232 -0.1938 -0.6316
  769MPD2    H511412   2.683   0.131  15.126  2.2559 -0.1244 -1.2879
  769MPD2    N111413   2.519   4.509  14.819  0.0344 -0.2002 -0.0709
  769MPD2    H711414   2.500   4.472  14.726 -0.7862  0.0584 -0.0096
  770MPD2     C11415   1.967   3.889  15.305 -0.7489 -0.3764  0.4527
  770MPD2    C111416   2.101   3.894  15.347  0.3373  0.8297 -0.1559
  770MPD2    C211417   2.203   3.931  15.259 -0.2016  0.1183 -0.1698
  770MPD2    C311418   2.165   3.955  15.129  0.5776  0.1415  0.0577
  770MPD2    C411419   2.037   3.942  15.083  0.2585 -1.0354 -0.6565
  770MPD2    C511420   1.939   3.913  15.172  0.3421 -0.8508 -0.3433
  770MPD2     H11421   2.304   3.948  15.293  0.2194  0.6678 -1.6999
  770MPD2    H111422   1.999   3.978  14.988  2.6271 -1.0011 -1.5857
  770MPD2    H211423   1.885   3.870  15.373 -1.5046 -0.6989 -0.5435
  770MPD2    H311424   1.833   3.916  15.148  0.3639  0.8916 -0.2625
  770MPD2     N11425   2.265   4.002  15.040  0.2549 -0.7138 -0.3167
  770MPD2    H511426   2.362   4.005  15.072  0.0309  0.3659  0.2586
  770MPD2    N111427   2.114   3.863  15.480  0.3426  0.2900 -0.3149
  770MPD2    H711428   2.032   3.856  15.540  0.7624 -0.3370  0.1885
  771MPD2     C11429   3.569   2.604  13.953 -0.2017  0.1896 -0.0963
  771MPD2    C111430   3.563   2.625  13.817  0.3142  0.1133 -0.8889
  771MPD2    C211431   3.484   2.542  13.741 -0.0345 -0.0474  0.6516
  771MPD2    C311432   3.388   2.458  13.795  0.6957  0.6003 -0.6729
  771MPD2    C411433   3.387   2.445  13.932 -0.2300  0.2673 -0.2935
  771MPD2    C511434   3.488   2.510  14.010 -0.4954  0.0583 -0.1629
  771MPD2     H11435   3.480   2.559  13.634 -2.7961 -0.8094  0.6256
  771MPD2    H111436   3.304   2.401  13.987  0.6509  0.0212  0.8525
  771MPD2    H211437   3.644   2.656  14.011 -0.8317  0.8353  0.1391
  771MPD2    H311438   3.485   2.491  14.116 -0.9372 -0.6402 -0.3026
  771MPD2     N11439   3.306   2.397  13.691  0.1247  0.4979  0.2530
  771MPD2    H511440   3.330   2.419  13.595  2.7898 -5.3504 -0.4672
  771MPD2    N111441   3.652   2.711  13.749 -0.3640  0.2234 -0.3342
  771MPD2    H711442   3.653   2.714  13.648  0.1019 -0.3748 -0.3420
  772MPD2     C11443   3.602   3.515  13.721  0.1111 -0.0113 -0.8831
  772MPD2    C111444   3.551   3.391  13.739 -0.6518 -0.5810  0.2461
  772MPD2    C211445   3.416   3.378  13.771  0.1621  1.0571 -0.0320
  772MPD2    C311446   3.327   3.483  13.805  0.1370 -1.3229 -0.2514
  772MPD2    C411447   3.386   3.606  13.785  0.3864  0.4725  0.2507
  772MPD2    C511448   3.513   3.618  13.743 -0.3167 -0.1199 -1.0143
  772MPD2     H11449   3.380   3.277  13.786  0.5465  0.7978 -0.9003
  772MPD2    H111450   3.332   3.699  13.796 -0.4662 -0.1943  1.6893
  772MPD2    H211451   3.702   3.540  13.685  0.0683  0.3628 -0.7510
  772MPD2    H311452   3.550   3.718  13.725 -0.1384 -0.2627 -1.4431
  772MPD2     N11453   3.190   3.478  13.849  0.2071 -0.2639 -0.0121
  772MPD2    H511454   3.142   3.568  13.854 -0.1518 -0.3667 -1.6770
  772MPD2    N111455   3.625   3.272  13.714  0.2726  0.1366 -0.0534
  772MPD2    H711456   3.583   3.180  13.720 -0.3864  0.5914  2.1027
  773MPD2     C11457   1.932   3.865   0.090  0.3457  0.6492  0.1040
  773MPD2    C111458   1.855   3.752   0.057  0.1939  0.6092 -0.3299
  773MPD2    C211459   1.916   3.633   0.058 -0.4067 -0.4258 -0.0972
  773MPD2    C311460   2.057   3.618   0.058  0.6219 -0.3330 -0.3205
  773MPD2    C411461   2.131   3.732   0.094  0.0277  0.0923  0.2304
  773MPD2    C511462   2.069   3.852   0.112 -0.1762 -0.3770  0.9236
  773MPD2     H11463   1.854   3.552   0.023  0.2478 -0.8507 -0.2613
  773MPD2    H111464   2.239   3.734   0.089 -0.0275 -0.3608 -1.3040
  773MPD2    H211465   1.897   3.967   0.096 -0.9732  0.1296  1.1895
  773MPD2    H311466   2.117   3.944   0.143 -1.1634  0.4105  0.1271
  773MPD2     N11467   2.108   3.482   0.051  0.2091 -0.1915 -0.0706
  773MPD2    H511468   2.034   3.414   0.066 -0.3828  0.3156 -0.7267
  773MPD2    N111469   1.721   3.753   0.028 -0.2686 -0.3782  0.1958
  773MPD2    H711470   1.684   3.666  17.737 -0.4956  1.0289 -2.9351
  774MPD2     C11471   1.937   2.921  13.608 -0.2166  0.3094  0.2309
  774MPD2    C111472   1.963   2.981  13.725 -0.1958  0.0850 -0.5058
  774MPD2    C211473   1.986   3.117  13.717 -0.0798 -0.7095  0.0519
  774MPD2    C311474   1.995   3.183  13.596 -0.7039 -0.0718  0.3953
  774MPD2    C411475   1.965   3.114  13.475 -0.6768  0.3290 -0.1795
  774MPD2    C511476   1.933   2.983  13.488  0.5297  0.0793  0.2424
  774MPD2     H11477   2.006   3.172  13.808  0.0156 -0.0916 -0.3443
  774MPD2    H111478   1.972   3.167  13.381 -0.7818  1.6916  0.5791
  774MPD2    H211479   1.922   2.814  13.603  1.2217  0.1720 -1.4672
  774MPD2    H311480   1.917   2.921  13.401 -1.5931 -0.7670  1.2491
  774MPD2     N11481   2.025   3.322  13.594  0.3362 -0.3959 -0.1706
  774MPD2    H511482   2.028   3.375  13.680 -2.0365 -0.4533 -0.0625
  774MPD2    N111483   1.980   2.915  13.853 -0.1942  0.0226  0.0688
  774MPD2    H711484   2.030   2.965  13.926 -0.6615  0.8785 -0.1946
  775MPD2     C11485   3.445   0.143  15.642 -0.2474 -0.7856 -0.7372
  775MPD2    C111486   3.401   0.280  15.627  0.0980 -0.0833 -0.6219
  775MPD2    C211487   3.488   0.383  15.619 -0.0742  0.0289  0.1571
  775MPD2    C311488   3.622   0.357  15.647  0.6118 -0.4599 -0.4471
  775MPD2    C411489   3.668   0.227  15.661  0.7411 -0.3085  0.4767
  775MPD2    C511490   3.576   0.122  15.656 -0.3158 -0.1879 -0.0544
  775MPD2     H11491   3.457   0.487  15.612 -2.0229 -0.6937 -1.8322
  775MPD2    H111492   3.773   0.206  15.679  0.6094 -2.4807 -1.4454
  775MPD2    H211493   3.372   0.064  15.635 -1.5811  0.3734 -0.0856
  775MPD2    H311494   3.607   0.023  15.687 -1.6733 -0.8126 -0.7241
  775MPD2     N11495   3.715   0.459  15.638  0.3612 -0.5206  0.4385
  775MPD2    H511496   3.810   0.435  15.615  0.8894  2.1725 -0.1696
  775MPD2    N111497   3.259   0.295  15.621 -0.3874  0.4415  0.2099
  775MPD2    H711498   3.212   0.205  15.618 -0.5630  0.5388  0.0551
  776MPD2     C11499   1.601   0.366  11.939  0.4468 -0.1391 -0.7795
  776MPD2    C111500   1.736   0.387  11.917 -0.5656 -0.2022  0.3032
  776MPD2    C211501   1.769   0.524  11.888  0.3809 -0.4331  0.1614
  776MPD2    C311502   1.680   0.625  11.875  0.1183 -0.7007 -0.7456
  776MPD2    C411503   1.544   0.597  11.888  0.2496 -0.2918 -0.4343
  776MPD2    C511504   1.513   0.473  11.942 -0.1204 -0.2747  1.0490
  776MPD2     H11505   1.873   0.553  11.879  0.5671 -1.6423 -1.6458
  776MPD2    H111506   1.456   0.660  11.879 -0.5415 -1.4592 -1.0345
  776MPD2    H211507   1.564   0.273  11.980  2.3106 -0.6813 -0.3320
  776MPD2    H311508   1.407   0.455  11.957 -0.1199 -0.4869  0.7997
  776MPD2     N11509   1.716   0.758  11.839  0.3629  0.2568 -0.2424
  776MPD2    H511510   1.815   0.782  11.848  0.4513  0.0632 -0.7086
  776MPD2    N111511   1.825   0.276  11.936  0.2094  0.6324  0.4556
  776MPD2    H711512   1.791   0.182  11.952  1.2351  0.4107  1.3441
  777MPD2     C11513   2.483   2.435   0.992 -0.2189  0.0625 -0.1757
  777MPD2    C111514   2.351   2.406   1.027  1.0450 -0.0189  0.0371
  777MPD2    C211515   2.262   2.360   0.935 -0.4303  0.0091  0.5178
  777MPD2    C311516   2.292   2.335   0.806 -0.0876 -0.9410 -0.1335
  777MPD2    C411517   2.421   2.383   0.766  0.2796  0.3192  0.0794
  777MPD2    C511518   2.514   2.416   0.863  0.2453 -0.7045 -0.1190
  777MPD2     H11519   2.162   2.336   0.970 -1.0022 -0.6705 -1.5666
  777MPD2    H111520   2.456   2.382   0.663  0.5389  2.5649  0.1482
  777MPD2    H211521   2.557   2.480   1.057 -0.4048  1.1393 -0.7004
  777MPD2    H311522   2.614   2.447   0.833  0.7073 -2.4728 -0.3801
  777MPD2     N11523   2.198   2.284   0.710 -0.5563  0.2908  0.1977
  777MPD2    H511524   2.099   2.283   0.730 -0.8993  1.0236 -1.4208
  777MPD2    N111525   2.306   2.435   1.159  0.5573  0.0274 -0.5918
  777MPD2    H711526   2.370   2.472   1.229  1.3011  2.0019 -2.3255
  778MPD2     C11527   3.152   2.569  15.034  0.2491 -0.4250 -0.0680
  778MPD2    C111528   3.119   2.527  14.906 -0.0911 -0.0452 -0.0675
  778MPD2    C211529   3.160   2.599  14.795 -0.4496  0.3042  0.1877
  778MPD2    C311530   3.229   2.715  14.809  0.0277  0.6887 -0.1701
  778MPD2    C411531   3.249   2.761  14.935  0.5648 -0.1023  0.3341
  778MPD2    C511532   3.218   2.688  15.049  0.5495 -0.9734 -0.7199
  778MPD2     H11533   3.131   2.571  14.695 -1.3406  1.0913  0.2181
  778MPD2    H111534   3.290   2.860  14.951 -0.8332  0.6985 -0.9613
  778MPD2    H211535   3.129   2.517  15.126 -0.8206  0.5964  0.2391
  778MPD2    H311536   3.240   2.738  15.143  2.0177 -0.1488 -1.4825
  778MPD2     N11537   3.259   2.785  14.687 -0.8762  0.7036 -0.3403
  778MPD2    H511538   3.253   2.729  14.602 -2.1192 -2.2278  1.6704
  778MPD2    N111539   3.040   2.410  14.880 -0.1562  0.3886  0.6657
  778MPD2    H711540   3.021   2.389  14.783  1.3758  1.6315  0.0984
  779MPD2     C11541   3.053   1.455  14.038 -0.6010 -0.4732  0.6579
  779MPD2    C111542   3.139   1.480  14.144 -0.5639  0.3190  0.1959
  779MPD2    C211543   3.146   1.606  14.196  0.0107  0.2178 -0.1491
  779MPD2    C311544   3.092   1.712  14.130 -0.0043  0.0529  0.2945
  779MPD2    C411545   3.013   1.684  14.016  0.2044 -0.5739  0.2445
  779MPD2    C511546   2.987   1.553  13.982  0.3389  0.0155  0.2071
  779MPD2     H11547   3.209   1.629  14.280 -0.7207 -2.3414  1.1072
  779MPD2    H111548   2.968   1.757  13.950 -0.2349 -1.3213 -0.2900
  779MPD2    H211549   3.021   1.357  14.003 -1.6737 -0.1704  0.8248
  779MPD2    H311550   2.921   1.530  13.899  0.4048  0.3147  0.0680
  779MPD2     N11551   3.121   1.839  14.177  0.1089 -0.0629  0.3637
  779MPD2    H511552   3.175   1.850  14.262 -1.0384  1.6842  0.8707
  779MPD2    N111553   3.195   1.365  14.208  0.1716  0.2493  0.5700
  779MPD2    H711554   3.233   1.376  14.301 -1.4729 -0.3216  1.3054
  780MPD2     C11555   1.775   1.380  17.678  0.1643  0.0394 -0.0320
  780MPD2    C111556   1.848   1.264  17.661  0.3831 -0.5623 -0.7976
  780MPD2    C211557   1.987   1.274  17.644  0.4025  0.3717  0.8880
  780MPD2    C311558   2.050   1.399  17.670  0.4071  0.2247  0.0639
  780MPD2    C411559   1.967   1.509  17.700 -0.8470 -0.5148  0.0457
  780MPD2    C511560   1.830   1.497  17.687 -0.3701  0.1920 -0.0415
  780MPD2     H11561   2.041   1.180  17.639 -0.1081  0.0292  1.7960
  780MPD2    H111562   2.012   1.607  17.710  1.9290 -1.9786  1.9257
  780MPD2    H211563   1.668   1.381  17.661  0.0627  0.8903  0.6255
  780MPD2    H311564   1.773   1.589  17.696 -0.0375  0.5993 -2.0592
  780MPD2     N11565   2.190   1.401  17.665  0.0522 -0.5818  0.6051
  780MPD2    H511566   2.233   1.321  17.619 -1.6157 -1.6230  0.8590
  780MPD2    N111567   1.786   1.137  17.639 -0.5100  0.0917 -0.1641
  780MPD2    H711568   1.836   1.050  17.620  0.5997  0.3372  1.7038
  781MPD2     C11569   0.637   3.543  12.332  0.3200 -0.0816 -0.8288
  781MPD2    C111570   0.560   3.450  12.258  0.2129  0.5937 -0.2401
  781MPD2    C211571   0.576   3.437  12.120 -0.8094 -0.0383  0.6775
  781MPD2    C311572   0.664   3.516  12.049  0.5276  0.2559 -0.5266
  781MPD2    C411573   0.746   3.594  12.128 -0.3554 -0.9344 -0.8445
  781MPD2    C511574   0.736   3.613  12.268 -0.2170  0.3100  0.0234
  781MPD2     H11575   0.506   3.376  12.063 -0.5383 -0.7964  1.1590
  781MPD2    H111576   0.807   3.664  12.071 -0.0896  0.1699  0.8011
  781MPD2    H211577   0.609   3.568  12.434 -0.6917 -1.6798 -0.7111
  781MPD2    H311578   0.795   3.688  12.319 -1.2721  1.0010  0.2270
  781MPD2     N11579   0.697   3.502  11.914  0.1894 -0.1109  0.2306
  781MPD2    H511580   0.786   3.543  11.890  1.1021 -2.4737 -0.4264
  781MPD2    N111581   0.460   3.370  12.320  0.7172  0.4329 -0.1653
  781MPD2    H711582   0.410   3.305  12.261  0.8473 -0.4573  0.7027
  782MPD2     C11583   2.586   0.109  10.669 -0.1496 -0.1273  0.1856
  782MPD2    C111584   2.680   0.061  10.578 -0.2557  0.4182 -0.6771
  782MPD2    C211585   2.814   0.062  10.615 -0.1539 -0.5414 -0.1942
  782MPD2    C311586   2.848   0.097  10.747  0.4559  0.1229 -0.6521
  782MPD2    C411587   2.751   0.142  10.840 -0.4388 -0.4887  0.7569
  782MPD2    C511588   2.623   0.158  10.796  0.4305 -1.0704 -0.2521
  782MPD2     H11589   2.889   0.016  10.552  0.8030 -0.1612  0.6487
  782MPD2    H111590   2.770   0.160  10.945  0.6095 -0.8184  0.6194
  782MPD2    H211591   2.481   0.103  10.643  0.3994  1.2890 -2.3266
  782MPD2    H311592   2.544   0.170  10.870 -1.2848  1.9016 -2.5549
  782MPD2     N11593   2.989   0.081  10.791  0.0429  0.1263 -0.2441
  782MPD2    H511594   3.045   0.030  10.724 -0.9127  0.3752 -1.2356
  782MPD2    N111595   2.632   0.003  10.466 -0.0863  0.3329  0.6636
  782MPD2    H711596   2.533   4.718  10.465 -0.7282  3.2680  0.5332
  783MPD2     C11597   2.796   3.986  10.687 -0.2460 -0.4314 -0.1780
  783MPD2    C111598   2.723   4.094  10.723  0.0672 -0.4444 -0.4532
  783MPD2    C211599   2.680   4.189  10.629  0.1851  0.4082 -0.4733
  783MPD2    C311600   2.715   4.167  10.490 -0.6454  0.0287  0.4324
  783MPD2    C411601   2.779   4.057  10.447  0.3402 -0.2663  1.1431
  783MPD2    C511602   2.821   3.972  10.553  0.1244 -0.3217  0.1213
  783MPD2     H11603   2.617   4.275  10.649 -0.3216  0.3376 -1.7760
  783MPD2    H111604   2.827   4.044  10.351 -1.1239  0.6111  0.2923
  783MPD2    H211605   2.838   3.904  10.743 -0.7293  1.2078  2.5826
  783MPD2    H311606   2.899   3.901  10.526 -1.1024 -1.8963  0.7224
  783MPD2     N11607   2.676   4.272  10.409  0.0904  0.3588  0.1184
  783MPD2    H511608   2.632   4.346  10.463  0.0599 -0.6148  1.4294
  783MPD2    N111609   2.699   4.113  10.862 -0.1158  0.0543  0.0210
  783MPD2    H711610   2.728   4.037  10.923  2.0365 -0.2374 -1.3636
  784MPD2     C11611   4.595   3.915   0.764  0.2604  0.3187  0.2472
  784MPD2    C111612   4.609   4.049   0.790 -0.0257  0.3233  0.0332
  784MPD2    C211613   4.564   4.137   0.697  0.9130 -0.7316 -0.9391
  784MPD2    C311614   4.503   4.098   0.588  0.0773  0.7233  0.7500
  784MPD2    C411615   4.485   3.967   0.561  0.2525 -0.1704  0.1794
  784MPD2    C511616   4.531   3.873   0.650 -0.8402 -1.0782  0.7497
  784MPD2     H11617   4.569   4.244   0.714 -2.2326 -0.8766  0.8905
  784MPD2    H111618   4.442   3.937   0.466 -1.5883 -0.1395  1.0130
  784MPD2    H211619   4.640   3.832   0.817  1.3948  2.1809  2.1668
  784MPD2    H311620   4.516   3.768   0.630 -1.1137 -0.6920 -1.0803
  784MPD2     N11621   4.467   4.197   0.492 -0.0095 -0.1758 -0.5733
  784MPD2    H511622   4.493   4.292   0.519 -1.2043  0.4427 -1.6011
  784MPD2    N111623   4.656   4.104   0.911 -0.2232 -0.0309  0.4652
  784MPD2    H711624   4.653   4.203   0.931 -1.2999  0.5949 -2.8302
  785MPD2     C11625   0.878   2.910  10.920 -0.6572 -0.0317  0.4658
  785MPD2    C111626   0.836   3.036  10.896 -0.0938 -0.3077 -0.4530
  785MPD2    C211627   0.736   3.047  10.796 -0.1354 -0.1697  0.1440
  785MPD2    C311628   0.668   2.937  10.744  0.5094  0.3677  0.5451
  785MPD2    C411629   0.701   2.813  10.797 -0.1047  0.4497 -0.4408
  785MPD2    C511630   0.810   2.800  10.879 -0.0689 -0.7426 -0.1349
  785MPD2     H11631   0.714   3.142  10.748 -2.0423 -0.6212  0.1172
  785MPD2    H111632   0.647   2.727  10.759  1.0736  0.3255 -1.8297
  785MPD2    H211633   0.961   2.903  10.989 -0.2236  0.0448 -0.0497
  785MPD2    H311634   0.837   2.700  10.912  0.5188 -0.8236 -0.8611
  785MPD2     N11635   0.567   2.964  10.648 -0.4279 -0.4143 -0.0551
  785MPD2    H511636   0.541   3.062  10.641 -0.0186 -0.1571  2.0140
  785MPD2    N111637   0.898   3.149  10.952  0.7496  0.4242 -0.0723
  785MPD2    H711638   0.981   3.131  11.007 -1.0844 -2.5821  1.6926
  786MPD2     C11639   3.555   0.873  14.642 -0.5037  0.2505  0.5417
  786MPD2    C111640   3.679   0.841  14.591 -0.0870 -0.6906  0.8537
  786MPD2    C211641   3.791   0.858  14.673  0.2570  0.0070  0.1875
  786MPD2    C311642   3.781   0.916  14.800 -0.0429 -0.0822 -0.2978
  786MPD2    C411643   3.651   0.938  14.846 -0.5418  0.1439  0.1232
  786MPD2    C511644   3.539   0.922  14.768 -0.4230 -0.6994  0.2853
  786MPD2     H11645   3.883   0.807  14.644 -0.5329 -1.1532 -0.2688
  786MPD2    H111646   3.639   0.971  14.949  0.2700  2.9894 -0.6790
  786MPD2    H211647   3.464   0.847  14.590  0.6322 -0.9401 -0.8759
  786MPD2    H311648   3.439   0.940  14.806 -0.3847  0.4622 -0.1562
  786MPD2     N11649   3.890   0.938  14.895 -0.2419  0.5738  0.0574
  786MPD2    H511650   3.862   0.959  14.990 -2.9000  1.1270 -0.8542
  786MPD2    N111651   3.703   0.762  14.472  0.2376 -0.0776  0.0920
  786MPD2    H711652   3.799   0.733  14.458 -0.2320 -1.1899 -0.8366
  787MPD2     C11653   4.193   0.350  14.451  0.7009 -0.0801 -0.3334
  787MPD2    C111654   4.128   0.353  14.336 -0.0693 -0.4771  0.1049
  787MPD2    C211655   4.209   0.307  14.229 -0.0392  0.2617  0.5798
  787MPD2    C311656   4.337   0.253  14.238 -0.6424 -0.3594  0.7177
  787MPD2    C411657   4.393   0.252  14.364 -0.5892  0.1346 -0.2450
  787MPD2    C511658   4.325   0.305  14.469 -0.4150  0.4193 -0.7195
  787MPD2     H11659   4.169   0.297  14.129  1.7365  0.9063 -0.1979
  787MPD2    H111660   4.490   0.205  14.377 -1.0992 -0.4166  1.5338
  787MPD2    H211661   4.132   0.376  14.537  1.3041  1.6474 -0.4216
  787MPD2    H311662   4.367   0.312  14.568  2.0748  0.6844 -1.8009
  787MPD2     N11663   4.402   0.209  14.122  0.1550 -0.4081 -0.9974
  787MPD2    H511664   4.359   0.223  14.031 -1.4921 -1.3032 -0.3771
  787MPD2    N111665   3.991   0.396  14.332  0.5272  0.4477  0.0154
  787MPD2    H711666   3.944   0.416  14.420  0.4271 -0.5626  0.1969
  788MPD2     C11667   0.826   3.429   1.225 -0.2371  0.3484 -0.5846
  788MPD2    C111668   0.879   3.463   1.100  0.6976  0.2964  0.0660
  788MPD2    C211669   0.832   3.572   1.031  0.1686 -0.4425  0.0804
  788MPD2    C311670   0.725   3.647   1.074  0.0771  0.5140  0.2554
  788MPD2    C411671   0.668   3.605   1.189 -0.2002  0.4486 -0.2503
  788MPD2    C511672   0.718   3.497   1.266 -0.9841  0.1000  0.5812
  788MPD2     H11673   0.869   3.575   0.929 -0.7756 -1.5257 -0.2847
  788MPD2    H111674   0.587   3.667   1.226 -0.6927  0.9505 -2.1402
  788MPD2    H211675   0.861   3.352   1.292 -1.3567  0.7844  0.4844
  788MPD2    H311676   0.680   3.456   1.359  1.4459 -2.4410  0.4603
  788MPD2     N11677   0.665   3.762   1.012  0.4202  0.4174  0.0909
  788MPD2    H511678   0.580   3.799   1.054  1.2248  2.0763  0.2365
  788MPD2    N111679   0.980   3.387   1.050 -0.2873 -0.2351 -0.0752
  788MPD2    H711680   1.032   3.421   0.969 -0.0516 -1.7492 -0.5534
  789MPD2     C11681   1.082   2.966  17.136 -0.6143 -0.3079  0.7226
  789MPD2    C111682   0.964   2.962  17.065 -0.0828  0.1240 -0.2656
  789MPD2    C211683   0.904   3.085  17.032  0.3891  0.2520 -0.1356
  789MPD2    C311684   0.965   3.205  17.076  0.0318  0.2249  0.4277
  789MPD2    C411685   1.071   3.207  17.158  0.3728 -0.8272 -0.2142
  789MPD2    C511686   1.134   3.085  17.189 -0.2779  0.6243 -0.6143
  789MPD2     H11687   0.813   3.088  16.973 -0.3504 -2.1572  0.9010
  789MPD2    H111688   1.112   3.302  17.191  0.4660 -1.2480  0.9074
  789MPD2    H211689   1.132   2.872  17.156 -0.5339 -0.0609  1.6890
  789MPD2    H311690   1.221   3.079  17.253 -0.4465  0.9351 -0.3547
  789MPD2     N11691   0.916   3.333  17.051  1.1089  0.7701  0.2268
  789MPD2    H511692   0.944   3.407  17.115 -0.3629  0.1463  1.6118
  789MPD2    N111693   0.896   2.847  17.018 -0.0959  0.0198  0.3083
  789MPD2    H711694   0.808   2.862  16.969 -1.1603 -1.4578  1.7484
  790MPD2     C11695   2.923   4.529  13.562  0.2614 -0.3507 -0.0779
  790MPD2    C111696   2.825   4.616  13.603  0.3728 -0.2308 -0.0646
  790MPD2    C211697   2.733   4.660  13.504  0.5399 -0.2158  0.2417
  790MPD2    C311698   2.764   4.635  13.374  0.1428 -0.0028  0.5272
  790MPD2    C411699   2.870   4.566  13.327  0.6361  0.6570 -0.3205
  790MPD2    C511700   2.948   4.518  13.425 -0.2582 -0.4789  0.8200
  790MPD2     H11701   2.642   4.711  13.532 -0.4322 -1.3934 -0.7745
  790MPD2    H111702   2.882   4.536  13.223  0.2342 -0.5088 -0.0225
  790MPD2    H211703   2.994   4.489  13.633  0.4975 -1.3526 -0.8686
  790MPD2    H311704   3.033   4.458  13.395  0.3711  2.2113 -2.8322
  790MPD2     N11705   2.669   4.689  13.282 -0.3726  0.4188 -0.6356
  790MPD2    H511706   2.582   4.726  13.320 -1.0974 -1.0801 -0.8321
  790MPD2    N111707   2.829   4.642  13.744 -0.2474 -0.3931 -0.2012
  790MPD2    H711708   2.917   4.625  13.790 -1.2226 -1.2785  1.3388
  791MPD2     C11709   1.992   4.668  12.720 -0.0065  0.9948 -0.8225
  791MPD2    C111710   2.035   4.680  12.852  0.5395 -0.0468 -0.3347
  791MPD2    C211711   1.950   4.724  12.946 -0.1986 -0.0222 -0.3951
  791MPD2    C311712   1.813   0.004  12.915  0.3109 -0.0181 -0.3655
  791MPD2    C411713   1.780   0.000  12.783 -0.3982 -0.6344 -0.7151
  791MPD2    C511714   1.873   4.716  12.684  0.6053 -0.9512 -0.4727
  791MPD2     H11715   1.991   4.721  13.046 -2.2981  0.3981  0.4783
  791MPD2    H111716   1.678   0.020  12.751 -1.2975 -1.2523  1.7580
  791MPD2    H211717   2.061   4.633  12.644  0.2095 -0.2463 -0.0545
  791MPD2    H311718   1.844   4.724  12.580 -1.8499  0.3255  0.3046
  791MPD2     N11719   1.726   0.017  13.022 -0.2329  0.7587 -0.7129
  791MPD2    H511720   1.766   0.008  13.114 -2.5432  1.6282  0.3971
  791MPD2    N111721   2.169   4.648  12.877 -0.4102  0.0627  0.3450
  791MPD2    H711722   2.226   4.610  12.802 -1.7726 -2.7444  0.7226
  792MPD2     C11723   2.988   0.819  11.323  0.4125  0.1382 -0.3543
  792MPD2    C111724   2.923   0.846  11.201 -0.1437  0.8079 -0.4209
  792MPD2    C211725   2.785   0.819  11.182  0.2674 -0.6466  0.1321
  792MPD2    C311726   2.719   0.759  11.285  0.5108  0.0508  0.3685
  792MPD2    C411727   2.785   0.736  11.399 -0.4546 -0.3473  0.0037
  792MPD2    C511728   2.912   0.763  11.422  0.1498 -0.1608  0.0709
  792MPD2     H11729   2.731   0.842  11.091  0.8526 -1.7339 -0.4915
  792MPD2    H111730   2.727   0.696  11.482  0.3782 -0.4568  0.5322
  792MPD2    H211731   3.093   0.845  11.337 -0.2381  3.4125 -1.5807
  792MPD2    H311732   2.953   0.752  11.522  1.6765 -0.5003 -0.5867
  792MPD2     N11733   2.574   0.725  11.281 -0.5274 -0.8408 -0.3684
  792MPD2    H511734   2.526   0.689  11.363  1.1256 -0.9944  0.5149
  792MPD2    N111735   3.012   0.889  11.093 -0.6700  0.6641 -0.6786
  792MPD2    H711736   3.103   0.922  11.126 -1.1669  1.0452  0.3045
  793MPD2     C11737   2.351   0.354  10.501 -0.6493 -0.4139  0.0019
  793MPD2    C111738   2.449   0.413  10.565  0.0172  0.1288  0.0011
  793MPD2    C211739   2.431   0.466  10.691 -0.2220  0.0019  0.1400
  793MPD2    C311740   2.303   0.464  10.745 -0.7980 -0.4462  0.4451
  793MPD2    C411741   2.202   0.396  10.681 -0.5677 -0.2711  1.0756
  793MPD2    C511742   2.232   0.339  10.560 -0.2257  0.8294 -0.5654
  793MPD2     H11743   2.509   0.522  10.741 -0.2193  0.2826 -0.1823
  793MPD2    H111744   2.098   0.394  10.710  0.0930 -0.3387  3.4926
  793MPD2    H211745   2.362   0.303  10.407  2.0072  1.3193 -0.6109
  793MPD2    H311746   2.156   0.289  10.501 -0.5542  0.6786 -0.0140
  793MPD2     N11747   2.279   0.532  10.866 -0.0633 -0.3934 -0.0896
  793MPD2    H511748   2.359   0.581  10.904  0.7233  0.5925 -2.9549
  793MPD2    N111749   2.582   0.428  10.515  0.3307 -0.4433  0.5260
  793MPD2    H711750   2.642   0.489  10.570 -0.2019  0.4124  0.1620
  794MPD2     C11751   1.169   4.337  17.698 -0.8489  0.3294 -0.5742
  794MPD2    C111752   1.217   4.254  17.606 -0.1490 -0.4857 -0.2200
  794MPD2    C211753   1.225   4.295  17.476 -0.3094  0.1129  0.8465
  794MPD2    C311754   1.207   4.428  17.443 -0.5493 -0.2683  0.2785
  794MPD2    C411755   1.166   4.516  17.546 -0.4075  0.2274  0.8462
  794MPD2    C511756   1.142   4.471  17.671  0.4637 -0.1454  0.1276
  794MPD2     H11757   1.252   4.225  17.397 -1.6118  1.4590 -0.7835
  794MPD2    H111758   1.139   4.617  17.516 -0.8127 -0.3576 -0.7644
  794MPD2    H211759   1.153   4.298   0.052 -1.4432 -0.0174 -0.8022
  794MPD2    H311760   1.097   4.538  17.743 -2.1969  1.2062 -2.8175
  794MPD2     N11761   1.221   4.487  17.314 -0.7120 -0.6559 -0.5009
  794MPD2    H511762   1.205   4.588  17.315 -1.8163 -0.8264 -0.3755
  794MPD2    N111763   1.232   4.117  17.626 -0.7333 -0.2230  0.4294
  794MPD2    H711764   1.243   4.072  17.536  1.6893  0.5028  0.3626
  795MPD2     C11765   4.660   1.989  13.632  0.9890 -0.3424  0.3869
  795MPD2    C111766   4.709   1.929  13.517 -0.1742 -0.9537 -0.1333
  795MPD2    C211767   0.061   1.827  13.530 -0.3156 -0.5784 -0.4065
  795MPD2    C311768   0.088   1.768  13.650 -0.9207  0.3150  0.8354
  795MPD2    C411769   0.043   1.823  13.770 -0.2527  0.4845  0.7876
  795MPD2    C511770   4.694   1.927  13.755  0.6566  0.2435 -0.2853
  795MPD2     H11771   0.091   1.782  13.436 -2.0254 -0.8003 -0.8452
  795MPD2    H111772   0.057   1.782  13.870  4.5521 -2.6797 -1.2195
  795MPD2    H211773   4.590   2.072  13.629  0.7699 -0.5186  0.6649
  795MPD2    H311774   4.650   1.966  13.846 -0.1400 -0.9888 -0.1531
  795MPD2     N11775   0.170   1.649  13.646  0.0101  0.2498 -0.2625
  795MPD2    H511776   0.221   1.628  13.561 -1.9084  0.5820 -1.5077
  795MPD2    N111777   4.665   1.960  13.390  0.4853 -0.3190  0.0242
  795MPD2    H711778   4.695   1.898  13.315  0.6705  1.2065 -1.1671
  796MPD2     C11779   3.358   2.824  16.227  0.5240 -0.3208  0.0471
  796MPD2    C111780   3.478   2.843  16.174 -0.1794  0.2876 -0.1889
  796MPD2    C211781   3.498   2.953  16.093 -0.2101  0.0256  0.3364
  796MPD2    C311782   3.392   3.037  16.067 -0.3626 -0.0527  0.2266
  796MPD2    C411783   3.272   3.021  16.124 -0.0853  0.2848  0.2262
  796MPD2    C511784   3.260   2.911  16.202  0.1847  0.1344  0.4684
  796MPD2     H11785   3.593   2.962  16.043 -0.3276 -2.2410 -0.2951
  796MPD2    H111786   3.185   3.084  16.107  0.7283  0.8711 -1.7686
  796MPD2    H211787   3.336   2.744  16.296 -1.7437 -0.0563 -0.3610
  796MPD2    H311788   3.161   2.886  16.237 -0.0467  3.0172  1.8472
  796MPD2     N11789   3.428   3.144  15.973  0.1010  0.6665  0.0578
  796MPD2    H511790   3.524   3.146  15.940 -0.2743  2.0474 -0.9780
  796MPD2    N111791   3.588   2.768  16.218  0.3223  0.1204 -0.7435
  796MPD2    H711792   3.677   2.802  16.184  1.7112 -0.7030  2.1098
  797MPD2     C11793   4.478   2.439  17.486  0.1240  0.0105  0.2414
  797MPD2    C111794   4.526   2.558  17.529 -0.2501  0.2856 -0.1011
  797MPD2    C211795   4.445   2.667  17.510  0.0623  0.2118  0.4066
  797MPD2    C311796   4.324   2.660  17.453 -0.0187 -0.0096 -0.5104
  797MPD2    C411797   4.278   2.532  17.411  0.3055  0.4763  0.6252
  797MPD2    C511798   4.356   2.423  17.427  0.7507  0.1556  0.0499
  797MPD2     H11799   4.484   2.763  17.541  0.6289 -0.0508  0.5172
  797MPD2    H111800   4.187   2.513  17.355 -0.3102  0.7466  1.5135
  797MPD2    H211801   4.542   2.354  17.506 -1.3898 -0.8567  1.4123
  797MPD2    H311802   4.318   2.323  17.415 -1.0150  0.5471  2.4116
  797MPD2     N11803   4.249   2.782  17.440 -0.0462 -0.9589  0.1797
  797MPD2    H511804   4.297   2.867  17.467  1.4981 -2.3389  1.8093
  797MPD2    N111805   4.653   2.584  17.593  0.6017 -0.0571 -0.8472
  797MPD2    H711806   4.672   2.676  17.630  0.7333 -0.6214  0.4861
  798MPD2     C11807   4.686   3.333  17.487  0.0445  0.0088 -0.3874
  798MPD2    C111808   4.609   3.218  17.476 -0.4773 -0.9455 -0.2660
  798MPD2    C211809   4.675   3.096  17.501  0.4207 -0.3310  0.6409
  798MPD2    C311810   0.069   3.092  17.542 -0.3293  0.2023 -0.1961
  798MPD2    C411811   0.139   3.211  17.565 -0.0522 -0.1287 -0.0888
  798MPD2    C511812   0.082   3.329  17.528  1.3379 -0.4166  0.6998
  798MPD2     H11813   4.620   3.006  17.476 -0.1705  0.8182 -2.2326
  798MPD2    H111814   0.239   3.211  17.608 -0.1936  2.1483  0.2340
  798MPD2    H211815   4.637   3.429  17.474  0.5749  0.4085  0.6369
  798MPD2    H311816   0.137   3.421  17.538  1.8225 -0.8214  1.8164
  798MPD2     N11817   0.118   2.969  17.573  0.0398  0.1368 -0.3341
  798MPD2    H511818   0.056   2.889  17.564 -0.2153  0.4620 -1.3248
  798MPD2    N111819   4.474   3.225  17.440 -0.1549  0.3118  0.3218
  798MPD2    H711820   4.435   3.312  17.406  0.3193  0.2273 -0.4323
  799MPD2     C11821   3.976   4.576  14.265 -0.5229  0.4749  0.1386
  799MPD2    C111822   3.922   4.475  14.189 -0.2848  0.4734  0.2660
  799MPD2    C211823   3.849   4.503  14.072  0.4760 -0.1520 -0.4971
  799MPD2    C311824   3.852   4.635  14.025  0.2460  0.1884 -0.4535
  799MPD2    C411825   3.916   4.727  14.104 -0.3948 -0.3030  0.8287
  799MPD2    C511826   3.977   4.704  14.224  0.2968 -0.4522 -0.3279
  799MPD2     H11827   3.802   4.421  14.020  0.6473 -1.0897  0.8190
  799MPD2    H111828   3.902   0.091  14.067  1.7033 -1.0416 -2.0393
  799MPD2    H211829   4.015   4.565  14.365 -2.3517  1.0903  0.9204
  799MPD2    H311830   4.032   0.044  14.278 -1.9522 -0.3615  1.8385
  799MPD2     N11831   3.805   4.673  13.896  0.0376  0.1062  0.3286
  799MPD2    H511832   3.823   0.029  13.859  2.1355  0.1723  1.5249
  799MPD2    N111833   3.922   4.342  14.231  0.5325  0.3571 -0.0246
  799MPD2    H711834   3.866   4.271  14.186 -0.0105  0.2970  0.7437
  800MPD2     C11835   4.549   1.292  14.705 -0.1237 -0.1403 -0.4229
  800MPD2    C111836   4.676   1.262  14.655 -0.2580  0.1164 -0.0025
  800MPD2    C211837   4.699   1.144  14.586  0.2848  0.1076 -0.3462
  800MPD2    C311838   4.592   1.066  14.545 -0.5906 -0.0596  0.1000
  800MPD2    C411839   4.469   1.102  14.587  0.4665  0.3093 -0.5283
  800MPD2    C511840   4.448   1.207  14.665 -0.2184  0.0741 -0.6104
  800MPD2     H11841   0.058   1.134  14.536  1.0893  0.6311  1.1000
  800MPD2    H111842   4.387   1.035  14.562 -0.1590  1.4293 -1.5014
  800MPD2    H211843   4.522   1.374  14.770 -0.7984  0.1979 -1.1330
  800MPD2    H311844   4.346   1.216  14.702 -0.4042  0.9162 -1.3228
  800MPD2     N11845   4.598   0.960  14.459 -0.5098 -0.7545 -0.1533
  800MPD2    H511846   4.513   0.914  14.429 -0.6541 -1.7637  1.7996
  800MPD2    N111847   0.036   1.356  14.679  0.0426 -0.3204 -0.1409
  800MPD2    H711848   0.008   1.446  14.718 -3.8185 -1.6014  0.1282
  801MPD2     C11849   0.058   2.039  14.488 -0.4392 -0.0054 -0.0270
  801MPD2    C111850   0.014   1.906  14.496  0.7933 -0.3518 -0.8522
  801MPD2    C211851   4.620   1.878  14.481  0.5960 -0.0822  0.1477
  801MPD2    C311852   4.521   1.978  14.471 -0.9231 -0.0111  0.1191
  801MPD2    C411853   4.564   2.107  14.470  0.3013 -0.2451  0.5994
  801MPD2    C511854   4.699   2.138  14.469  0.5751  0.7596 -0.7619
  801MPD2     H11855   4.587   1.775  14.488 -0.5750  0.2002 -1.0725
  801MPD2    H111856   4.488   2.185  14.477 -0.1303 -0.4015 -2.1709
  801MPD2    H211857   0.160   2.069  14.512 -0.4593 -1.6440  2.0769
  801MPD2    H311858   4.726   2.242  14.452  0.2689  0.7132 -1.5593
  801MPD2     N11859   4.391   1.934  14.479  0.4735 -0.2717  0.6201
  801MPD2    H511860   4.372   1.835  14.475 -0.7314 -0.0698  1.2509
  801MPD2    N111861   0.096   1.799  14.530  0.1134 -0.2318  0.4110
  801MPD2    H711862   0.039   1.715  14.544 -1.8932  1.0266 -0.2183
  802MPD2     C11863   3.687   0.880  17.400 -0.3354  0.1284  0.7335
  802MPD2    C111864   3.710   1.013  17.405 -1.0060 -0.1053 -0.0141
  802MPD2    C211865   3.758   1.073  17.290 -0.5186 -0.8941  0.3160
  802MPD2    C311866   3.780   1.005  17.168 -0.7279 -0.8059 -0.3493
  802MPD2    C411867   3.764   0.869  17.169 -0.3239 -0.0694  0.1447
  802MPD2    C511868   3.730   0.811  17.291 -0.1310  0.7801 -0.3698
  802MPD2     H11869   3.778   1.180  17.290 -1.1962 -0.7625 -0.4079
  802MPD2    H111870   3.772   0.802  17.085  4.4149 -0.7209  1.1084
  802MPD2    H211871   3.673   0.816  17.486 -1.4562 -0.2914  0.2344
  802MPD2    H311872   3.737   0.703  17.299  2.7417  1.0613  0.9367
  802MPD2     N11873   3.807   1.078  17.047 -0.5155  0.1555  0.7559
  802MPD2    H511874   3.820   1.176  17.070  3.1063 -0.2396  0.3140
  802MPD2    N111875   3.696   1.089  17.521  0.1121 -0.0489  0.2177
  802MPD2    H711876   3.722   1.187  17.520 -0.7181  0.2000  4.2773
  803MPD2     C11877   0.090   4.528  12.401 -0.5315 -0.2054  0.0124
  803MPD2    C111878   0.165   4.641  12.418  0.6462  0.0890  0.0762
  803MPD2    C211879   0.186   4.694  12.540  0.1938 -0.5476 -0.4797
  803MPD2    C311880   0.145   4.631  12.657  0.0924  0.4997 -0.1991
  803MPD2    C411881   0.089   4.506  12.643  0.8174  0.3652 -0.6201
  803MPD2    C511882   0.054   4.460  12.515  0.6121  0.1717  0.2679
  803MPD2     H11883   0.232   0.055  12.536  0.0435 -0.2970  3.9034
  803MPD2    H111884   0.064   4.446  12.729  0.5741 -1.5354 -2.0059
  803MPD2    H211885   0.067   4.493  12.301  2.2409  0.5740 -0.8776
  803MPD2    H311886   0.000   4.367  12.498  1.4195 -0.2497  0.0323
  803MPD2     N11887   0.172   4.680  12.786 -0.1078  0.5074  0.3452
  803MPD2    H511888   0.138   4.623  12.862 -3.4312 -0.5383 -1.9517
  803MPD2    N111889   0.221   4.708  12.312  0.6913 -0.4464 -0.5467
  803MPD2    H711890   0.281   0.050  12.333 -2.2089  1.4311  0.7390
  804MPD2     C11891   4.396   1.548  16.727  0.1137 -0.2979 -0.1618
  804MPD2    C111892   4.405   1.480  16.848 -0.4450 -0.4106  0.1234
  804MPD2    C211893   4.453   1.543  16.964  0.2392  0.6763  0.0688
  804MPD2    C311894   4.495   1.673  16.956  0.2831 -0.5369  0.1461
  804MPD2    C411895   4.486   1.740  16.833  0.0640 -0.0026  0.0657
  804MPD2    C511896   4.439   1.680  16.720  0.5519 -0.2587  0.1876
  804MPD2     H11897   4.449   1.487  17.057 -1.4468  2.5103  1.0918
  804MPD2    H111898   4.506   1.846  16.834  1.8018 -0.3347  0.3513
  804MPD2    H211899   4.359   1.508  16.633  1.1371 -0.1641 -0.6231
  804MPD2    H311900   4.409   1.736  16.632 -1.7444  1.7421  2.1953
  804MPD2     N11901   4.571   1.727  17.066  0.2864  0.6148 -0.3213
  804MPD2    H511902   4.552   1.682  17.155 -0.8995 -1.1698 -1.4645
  804MPD2    N111903   4.357   1.341  16.862  0.0944 -0.6700  0.7162
  804MPD2    H711904   4.348   1.312  16.959  2.6538  1.8830  1.7164
  805MPD2     C11905   3.693   0.246  15.088 -0.0792 -0.2781 -0.0349
  805MPD2    C111906   3.818   0.200  15.049  0.4728  0.0793  0.4610
  805MPD2    C211907   3.929   0.231  15.120  0.1048 -0.7720 -0.5259
  805MPD2    C311908   3.923   0.291  15.241 -0.8292  0.0265  0.4645
  805MPD2    C411909   3.794   0.324  15.286  0.3636  0.2188  0.3011
  805MPD2    C511910   3.683   0.310  15.209 -0.3396 -0.1263 -0.0231
  805MPD2     H11911   4.027   0.202  15.082  0.9700  2.5292 -0.7641
  805MPD2    H111912   3.774   0.382  15.375  2.4126  1.0333  0.2325
  805MPD2    H211913   3.607   0.239  15.023 -0.6705 -0.1469  0.7407
  805MPD2    H311914   3.592   0.350  15.252 -0.3580  0.8991 -1.0343
  805MPD2     N11915   4.037   0.304  15.320  0.0277  0.0107 -0.1113
  805MPD2    H511916   4.125   0.280  15.275  1.4272  0.5216  2.3408
  805MPD2    N111917   3.828   0.125  14.927  0.3780 -0.1950  0.1862
  805MPD2    H711918   3.925   0.099  14.908  0.2109 -1.2531  0.7565
  806MPD2     C11919   4.018   3.665   0.925  0.6107 -0.3837 -0.3317
  806MPD2    C111920   4.059   3.782   0.872  0.0547  0.6190  0.1149
  806MPD2    C211921   4.099   3.788   0.741 -0.0126 -0.0337  0.5426
  806MPD2    C311922   4.089   3.671   0.662  0.7818 -0.2816 -0.1711
  806MPD2    C411923   4.034   3.555   0.717 -0.3765 -0.1099 -0.5334
  806MPD2    C511924   4.005   3.557   0.847  0.0007  0.1801 -0.6043
  806MPD2     H11925   4.142   3.874   0.692 -1.1032 -0.6985 -1.5872
  806MPD2    H111926   4.024   3.461   0.664  0.6253  0.2988 -1.4633
  806MPD2    H211927   3.990   3.652   1.029  1.0106 -0.3645 -0.2231
  806MPD2    H311928   3.980   3.463   0.896  2.9890 -0.1901  0.2478
  806MPD2     N11929   4.138   3.683   0.530  0.0765  0.2568 -0.2183
  806MPD2    H511930   4.156   3.781   0.509 -0.2869  0.4182  0.2115
  806MPD2    N111931   4.074   3.885   0.962 -0.1025  0.0706  0.0487
  806MPD2    H711932   4.038   3.870   1.056  2.3079 -1.0076  0.7949
  807MPD2     C11933   3.898   3.902   1.699  0.1049 -0.1046 -0.1907
  807MPD2    C111934   3.906   3.861   1.569 -0.1259  0.5177  0.7186
  807MPD2    C211935   3.886   3.724   1.539  0.0128  0.8464  0.1184
  807MPD2    C311936   3.858   3.636   1.642 -0.1596  0.2505 -0.0272
  807MPD2    C411937   3.840   3.678   1.772 -0.3334  0.1177  0.2682
  807MPD2    C511938   3.861   3.813   1.791  0.1564  0.3407 -0.2487
  807MPD2     H11939   3.899   3.691   1.437 -0.0396  0.1865  0.3288
  807MPD2    H111940   3.812   3.611   1.853  1.1538 -2.2822 -1.2141
  807MPD2    H211941   3.932   3.998   1.734  1.9945 -0.5685 -0.7615
  807MPD2    H311942   3.841   3.839   1.895 -3.3734 -2.2161 -0.2546
  807MPD2     N11943   3.858   3.503   1.596  0.8801 -0.1553  0.3998
  807MPD2    H511944   3.875   3.487   1.497 -0.6834 -1.0736  0.2887
  807MPD2    N111945   3.965   3.949   1.475 -0.1790  0.0675 -0.0817
  807MPD2    H711946   4.006   4.032   1.516 -1.0332  0.5148 -0.1541
  808MPD2     C11947   0.246   0.348   9.858 -0.0355 -0.3301  0.1275
  808MPD2    C111948   0.292   0.395   9.981  0.0657 -0.0813  0.2332
  808MPD2    C211949   0.344   0.522   9.987  0.4105 -0.4490  1.0880
  808MPD2    C311950   0.331   0.603   9.875  0.4355  0.2878 -0.0698
  808MPD2    C411951   0.274   0.556   9.758 -0.0251  0.2999 -0.6068
  808MPD2    C511952   0.236   0.425   9.752 -0.3268 -0.1705 -0.2414
  808MPD2     H11953   0.396   0.554  10.077  2.1911 -1.9270  0.5875
  808MPD2    H111954   0.276   0.619   9.670  0.8747  1.5554  0.3115
  808MPD2    H211955   0.199   0.252   9.841 -0.8925  0.0285  0.4587
  808MPD2    H311956   0.188   0.384   9.664  3.2773 -2.2165 -1.2704
  808MPD2     N11957   0.393   0.732   9.868  0.7196  0.7499  0.4019
  808MPD2    H511958   0.391   0.779   9.779 -1.7763  0.4722  0.3226
  808MPD2    N111959   0.307   0.316  10.093 -0.0799 -0.2917  0.2947
  808MPD2    H711960   0.335   0.361  10.179 -1.4333  1.1806 -0.0383
  809MPD2     C11961   0.894   0.885   9.190 -0.2283 -0.4023  0.0180
  809MPD2    C111962   0.982   0.902   9.293 -0.0285  0.0244 -0.0238
  809MPD2    C211963   0.932   0.911   9.418 -0.7087 -0.6771 -0.0176
  809MPD2    C311964   0.795   0.914   9.437  0.1327  0.0261  0.1367
  809MPD2    C411965   0.710   0.889   9.325 -0.0582  0.0691  0.4577
  809MPD2    C511966   0.760   0.880   9.200 -0.1215  0.4881  0.8102
  809MPD2     H11967   1.001   0.913   9.501  0.5880  2.5207 -1.1522
  809MPD2    H111968   0.603   0.897   9.342  0.0195  0.6823  0.6719
  809MPD2    H211969   0.937   0.868   9.092  0.6161 -1.4005  0.5686
  809MPD2    H311970   0.683   0.873   9.123  3.0935 -1.4719 -2.2103
  809MPD2     N11971   0.727   0.933   9.558  0.1040 -0.5015  0.2633
  809MPD2    H511972   0.629   0.907   9.552 -0.6399  2.0092  1.2372
  809MPD2    N111973   1.124   0.911   9.283  0.3372 -0.4500 -0.2236
  809MPD2    H711974   1.176   0.914   9.370  1.0016 -0.5336 -0.6230
  810MPD2     C11975   4.209   4.672  10.561  0.2270 -0.0311 -0.4385
  810MPD2    C111976   4.313   0.018  10.513 -0.0237 -0.4903 -0.5517
  810MPD2    C211977   4.376   0.111  10.598  0.3140 -0.1594 -0.5148
  810MPD2    C311978   4.330   0.124  10.735  0.3475  0.1164 -0.4168
  810MPD2    C411979   4.224   0.044  10.773  0.3218 -0.5357 -0.0713
  810MPD2    C511980   4.163   4.697  10.682  0.9255  0.4514 -0.3241
  810MPD2     H11981   4.450   0.183  10.564 -1.1267  0.4980 -2.2158
  810MPD2    H111982   4.173   0.052  10.868  0.1089 -2.9677  0.0101
  810MPD2    H211983   4.154   4.604  10.496  0.1002 -0.9122  0.5900
  810MPD2    H311984   4.074   4.649  10.719  3.0962 -1.7694  2.0550
  810MPD2     N11985   4.376   0.228  10.822  0.0172  0.0992 -0.5016
  810MPD2    H511986   4.318   0.262  10.898 -0.5580 -1.9325 -0.0230
  810MPD2    N111987   4.332   0.016  10.372 -0.1146  0.1486  0.3877
  810MPD2    H711988   4.279   4.686  10.318 -0.3063  0.1823  0.5321
  811MPD2     C11989   4.100   0.503   9.682 -0.1124  0.5547 -0.2519
  811MPD2    C111990   4.200   0.507   9.772 -0.2830 -0.6033  0.8170
  811MPD2    C211991   4.242   0.625   9.818  0.8648 -0.1118  0.3823
  811MPD2    C311992   4.177   0.742   9.787  0.0114  0.2949  0.7713
  811MPD2    C411993   4.075   0.736   9.697  0.4141  0.0040 -0.0964
  811MPD2    C511994   4.032   0.616   9.651  0.5215  0.1535 -0.7234
  811MPD2     H11995   4.338   0.636   9.869  0.1914 -0.7417  1.7900
  811MPD2    H111996   4.020   0.825   9.669 -0.5914 -1.3073 -2.2772
  811MPD2    H211997   4.072   0.409   9.636  0.0667 -0.2396  1.2728
  811MPD2    H311998   3.954   0.622   9.576 -0.9760 -1.0125  0.7383
  811MPD2     N11999   4.222   0.860   9.842  0.1277 -0.4660 -0.1958
  811MPD2    H512000   4.303   0.850   9.904  0.4686 -2.0241 -0.9047
  811MPD2    N112001   4.249   0.379   9.812 -0.2308 -0.1642  0.1734
  811MPD2    H712002   4.193   0.304   9.773 -0.9934  0.6125 -0.2396
  812MPD2     C12003   2.378   0.131  12.032 -0.1054  0.2628  0.4056
  812MPD2    C112004   2.509   0.153  12.047 -0.1818  0.6579 -0.9299
  812MPD2    C212005   2.581   0.072  12.133  0.3276 -0.1771 -0.7073
  812MPD2    C312006   2.522   4.703  12.205  0.2985 -0.1228  0.3086
  812MPD2    C412007   2.383   4.705  12.204  0.4170  0.5870  0.1997
  812MPD2    C512008   2.310   0.048  12.121  0.5813 -0.3689 -0.5821
  812MPD2     H12009   2.688   0.080  12.154 -0.2480 -0.0361  2.1742
  812MPD2    H112010   2.331   4.627  12.259 -0.8390 -1.1549 -3.4840
  812MPD2    H212011   2.310   0.185  11.967 -3.8871 -2.1808  2.3722
  812MPD2    H312012   2.202   0.040  12.127  0.5017  0.3288 -1.1183
  812MPD2     N12013   2.601   4.621  12.281 -0.9808  0.5998  0.0628
  812MPD2    H512014   2.700   4.620  12.258 -1.4734 -1.2955 -1.9180
  812MPD2    N112015   2.557   0.268  11.974 -0.1940 -0.8202 -0.5995
  812MPD2    H712016   2.485   0.313  11.918  0.4323  1.8413  0.7067
  813MPD2     C12017   2.687   1.696  12.884 -0.2279 -0.8763  0.3283
  813MPD2    C112018   2.617   1.818  12.852 -0.0436  0.2439 -0.8695
  813MPD2    C212019   2.493   1.830  12.910  0.4993  0.0185  0.3253
  813MPD2    C312020   2.433   1.728  12.984 -0.3162 -0.2063 -0.7137
  813MPD2    C412021   2.499   1.612  13.015 -0.2293 -0.1827 -0.0773
  813MPD2    C512022   2.629   1.599  12.970  0.0424 -0.2604 -0.0725
  813MPD2     H12023   2.441   1.921  12.883  0.8740  0.5509  1.3877
  813MPD2    H112024   2.450   1.529  13.066  0.6505  0.3538  1.6580
  813MPD2    H212025   2.779   1.678  12.830 -0.8793 -1.0568 -0.7311
  813MPD2    H312026   2.680   1.506  12.989  0.2781  0.0388  0.7446
  813MPD2     N12027   2.306   1.758  13.027  0.6351 -0.2804 -0.4082
  813MPD2    H512028   2.262   1.846  13.001 -2.4522 -1.4176  0.8820
  813MPD2    N112029   2.687   1.912  12.777 -0.3165 -0.2881  0.1133
  813MPD2    H712030   2.788   1.904  12.767 -0.1027  2.1736  0.1696
  814MPD2     C12031   2.490   3.333  12.982 -0.1011 -0.0644 -0.7628
  814MPD2    C112032   2.593   3.350  12.893 -0.4612 -0.2947  0.3129
  814MPD2    C212033   2.652   3.481  12.882  0.5016 -0.0407  0.1717
  814MPD2    C312034   2.610   3.589  12.968  0.2411 -0.6177 -0.5554
  814MPD2    C412035   2.506   3.560  13.056  0.2894  0.0489 -0.3418
  814MPD2    C512036   2.448   3.439  13.057 -0.1417 -1.1286  0.3329
  814MPD2     H12037   2.741   3.501  12.823  1.3486 -2.5019  0.6247
  814MPD2    H112038   2.469   3.632  13.128  2.2103  0.2620  0.4207
  814MPD2    H212039   2.448   3.235  13.000 -4.3479  1.6337 -1.4047
  814MPD2    H312040   2.358   3.420  13.115 -0.1933 -0.1321  0.5793
  814MPD2     N12041   2.670   3.712  12.975  0.0946  0.2300  0.1188
  814MPD2    H512042   2.645   3.767  13.056 -2.7171  0.3283 -0.8122
  814MPD2    N112043   2.654   3.256  12.809  0.4788 -0.3980  0.3955
  814MPD2    H712044   2.741   3.287  12.768  1.9704 -0.4573  3.5774
  815MPD2     C12045   3.667   1.909  11.708 -0.0940 -0.5319 -0.5502
  815MPD2    C112046   3.667   1.777  11.672  0.2517  0.0623  0.0573
  815MPD2    C212047   3.607   1.686  11.759 -0.3023 -0.9622  0.0175
  815MPD2    C312048   3.528   1.730  11.861 -0.2395  0.3916 -0.2811
  815MPD2    C412049   3.522   1.863  11.894 -0.3652  0.2368  0.2580
  815MPD2    C512050   3.598   1.948  11.822  0.4451 -0.0164 -0.0186
  815MPD2     H12051   3.597   1.583  11.727 -0.8234 -0.4999 -1.3152
  815MPD2    H112052   3.465   1.898  11.979 -1.2018  2.6888 -1.3113
  815MPD2    H212053   3.718   1.985  11.651 -1.3395  0.0909 -0.8370
  815MPD2    H312054   3.592   2.054  11.848  3.1400 -0.0343  0.7058
  815MPD2     N12055   3.463   1.630  11.937  0.8112 -0.8881  0.4805
  815MPD2    H512056   3.486   1.533  11.920 -2.7898 -1.8239  0.9922
  815MPD2    N112057   3.747   1.755  11.561 -0.1865  0.6341  0.3527
  815MPD2    H712058   3.778   1.832  11.502  0.0343  0.2193 -0.0749
  816MPD2     C12059   3.286   1.096  17.112 -0.5582 -0.1769 -0.3602
  816MPD2    C112060   3.230   1.139  16.998 -0.3027 -0.5260 -0.6020
  816MPD2    C212061   3.284   1.107  16.876 -0.3456  0.4048 -0.4291
  816MPD2    C312062   3.391   1.016  16.874 -0.4656  0.3852  0.6296
  816MPD2    C412063   3.440   0.973  16.997  0.3362 -0.5608 -0.2391
  816MPD2    C512064   3.390   1.010  17.115 -0.0294  0.1433 -0.0299
  816MPD2     H12065   3.260   1.151  16.780  0.4116  0.1523 -0.7419
  816MPD2    H112066   3.524   0.904  16.997  1.9473  1.3562  2.7687
  816MPD2    H212067   3.254   1.136  17.208  0.5835  0.0469 -0.0769
  816MPD2    H312068   3.437   0.968  17.203  0.1225  1.1454  0.3720
  816MPD2     N12069   3.450   0.970  16.753 -0.9054  0.4650  0.2866
  816MPD2    H512070   3.416   1.010  16.666 -0.8012  0.6677  0.3397
  816MPD2    N112071   3.126   1.227  17.017 -0.4415 -0.1216 -0.1242
  816MPD2    H712072   3.107   1.238  17.116  0.6306 -0.4306  0.1119
  817MPD2     C12073   3.637   3.254   9.909  0.7213 -0.3300  0.4703
  817MPD2    C112074   3.605   3.174   9.800  0.1486  0.7769  0.4661
  817MPD2    C212075   3.567   3.240   9.683  0.5742  0.7765  0.3510
  817MPD2    C312076   3.572   3.377   9.670  0.0607  0.3536 -0.8809
  817MPD2    C412077   3.627   3.452   9.774 -0.0418 -0.2204  0.1937
  817MPD2    C512078   3.658   3.390   9.891 -0.3339  0.4713 -0.6301
  817MPD2     H12079   3.543   3.188   9.592  3.8386  0.5265 -0.3866
  817MPD2    H112080   3.639   3.559   9.781 -0.6829 -0.1682  0.4621
  817MPD2    H212081   3.679   3.224  10.005 -0.7799  0.1004  1.2676
  817MPD2    H312082   3.707   3.443   9.972 -1.8627  2.2946 -0.8801
  817MPD2     N12083   3.522   3.434   9.552  0.6459  0.7998 -0.3860
  817MPD2    H512084   3.480   3.376   9.480  2.3087 -0.7979 -0.0561
  817MPD2    N112085   3.599   3.034   9.790 -0.1225 -0.0896  0.2267
  817MPD2    H712086   3.585   2.991   9.699 -0.1332  0.5887 -0.0898
  818MPD2     C12087   2.401   2.840  10.158  0.6827  0.2903  0.0740
  818MPD2    C112088   2.272   2.782  10.174  0.4967  0.0637 -0.4253
  818MPD2    C212089   2.257   2.645  10.157  0.1493  0.8563 -0.4200
  818MPD2    C312090   2.365   2.561  10.141 -0.5944 -0.8770 -0.3860
  818MPD2    C412091   2.490   2.616  10.143 -0.0911  0.0896 -0.3351
  818MPD2    C512092   2.506   2.752  10.139  0.8418  0.2359  0.3643
  818MPD2     H12093   2.156   2.604  10.157  1.1604 -1.6585  1.4922
  818MPD2    H112094   2.579   2.559  10.117  0.8395  1.8839 -1.1037
  818MPD2    H212095   2.420   2.946  10.164  0.4377  0.3144  0.4138
  818MPD2    H312096   2.603   2.794  10.117 -0.0691  1.5325 -1.1482
  818MPD2     N12097   2.363   2.421  10.129 -0.1664  0.1271 -1.0231
  818MPD2    H512098   2.443   2.359  10.138 -0.4754 -0.0028  1.0114
  818MPD2    N112099   2.160   2.864  10.205  0.3361  0.4193 -1.1423
  818MPD2    H712100   2.079   2.814  10.239  0.7557  1.2202  1.0511
  819MPD2     C12101   0.149   3.944  15.318  0.2826  0.8662  0.4707
  819MPD2    C112102   0.050   3.928  15.410 -0.1506 -0.0843 -0.2273
  819MPD2    C212103   0.088   3.873  15.534  0.5335 -0.0904 -0.7485
  819MPD2    C312104   0.219   3.843  15.556  0.1080  0.4245  0.1157
  819MPD2    C412105   0.317   3.865  15.456  0.0469  0.7768 -0.3711
  819MPD2    C512106   0.279   3.911  15.339 -0.6038  0.7365  0.7978
  819MPD2     H12107   0.025   3.874  15.622  1.0327  0.6120 -0.4074
  819MPD2    H112108   0.424   3.859  15.475 -0.0634 -0.6437 -0.1955
  819MPD2    H212109   0.127   4.004  15.230 -1.0372 -1.0395 -0.5099
  819MPD2    H312110   0.352   3.955  15.272 -2.2474  0.5638 -1.1033
  819MPD2     N12111   0.273   3.799  15.674  0.7368  0.1823  0.5397
  819MPD2    H512112   0.374   3.800  15.685  0.7054  0.8251  0.7345
  819MPD2    N112113   4.663   3.980  15.368  0.7514 -0.2668 -0.2334
  819MPD2    H712114   4.646   3.999  15.270  2.3753  5.0663  0.5228
  820MPD2     C12115   4.330   4.283  14.640  0.1957  0.0855  0.2855
  820MPD2    C112116   4.241   4.337  14.730 -1.3261  0.0172 -0.2561
  820MPD2    C212117   4.263   4.330  14.865 -0.2053  0.4508  0.6985
  820MPD2    C312118   4.368   4.256  14.914 -0.1321  0.3944 -0.1552
  820MPD2    C412119   4.457   4.205  14.821  0.2708 -0.9201  0.0238
  820MPD2    C512120   4.441   4.218  14.685 -0.6936  0.4341 -0.3694
  820MPD2     H12121   4.182   4.370  14.925  0.2817  0.2125  1.5070
  820MPD2    H112122   4.542   4.145  14.852  2.6351  0.4354 -3.9557
  820MPD2    H212123   4.319   4.284  14.532 -0.5970  1.3197  0.3832
  820MPD2    H312124   4.512   4.173  14.617  0.7695 -1.2559  2.2429
  820MPD2     N12125   4.378   4.227  15.051  0.3172  1.2261  0.2743
  820MPD2    H512126   4.461   4.175  15.079 -0.2073  0.6562  0.7565
  820MPD2    N112127   4.126   4.413  14.678 -0.0466  0.5056 -0.3413
  820MPD2    H712128   4.107   4.403  14.579  0.7991 -0.9779 -0.3573
  821MPD2     C12129   4.637   1.054  13.702  0.6764  0.2238 -0.6332
  821MPD2    C112130   4.725   0.967  13.758 -0.1573  0.6150  0.0915
  821MPD2    C212131   0.109   0.941  13.689 -0.0059 -0.1386 -0.0241
  821MPD2    C312132   0.134   1.001  13.570  0.3202  0.1091  1.0568
  821MPD2    C412133   0.042   1.085  13.518 -0.4825  0.4278  0.1936
  821MPD2    C512134   4.666   1.119  13.585 -0.2545  0.1527  0.0700
  821MPD2     H12135   0.189   0.893  13.745 -1.5319  0.0624  2.3116
  821MPD2    H112136   0.058   1.135  13.424 -4.6355  0.7988 -0.3127
  821MPD2    H212137   4.541   1.079  13.747  1.3156  0.4533  0.5853
  821MPD2    H312138   4.584   1.175  13.543 -2.3291 -1.5553  1.8364
  821MPD2     N12139   0.257   0.988  13.498 -0.1100  0.0825  0.6315
  821MPD2    H512140   0.257   1.031  13.406 -1.3880  2.1999  1.6342
  821MPD2    N112141   4.710   0.891  13.873 -0.4376  0.2179 -0.2042
  821MPD2    H712142   0.049   0.830  13.901 -0.5246  0.5023  0.6716
  822MPD2     C12143   0.431   0.909  15.626 -0.3124 -0.1253  0.3659
  822MPD2    C112144   0.414   0.850  15.751  0.7062 -0.2355 -0.0237
  822MPD2    C212145   0.327   0.911  15.842  0.4293 -0.2623 -0.1631
  822MPD2    C312146   0.246   1.015  15.800  0.7332  0.9035  0.4952
  822MPD2    C412147   0.258   1.065  15.668  0.3018  0.4221 -0.1921
  822MPD2    C512148   0.355   1.012  15.584 -0.8076  0.1785 -0.5672
  822MPD2     H12149   0.325   0.877  15.945  1.8226  0.6954  0.1771
  822MPD2    H112150   0.214   1.159  15.637  1.4490  0.8617 -0.5224
  822MPD2    H212151   0.519   0.880  15.570 -0.7721 -1.9478  0.5845
  822MPD2    H312152   0.379   1.067  15.494 -0.9956 -0.8768 -1.2649
  822MPD2     N12153   0.161   1.077  15.895 -0.3902  0.3683 -0.3623
  822MPD2    H512154   0.172   1.036  15.987 -1.8989  0.5406 -0.1023
  822MPD2    N112155   0.495   0.747  15.795  0.7021 -0.0358 -0.1846
  822MPD2    H712156   0.481   0.725  15.894 -1.3932  1.6890 -0.1019
  823MPD2     C12157   4.600   0.973  16.628 -0.1693  0.1790  0.4859
  823MPD2    C112158   4.653   0.927  16.509 -0.1269 -0.9994  0.1284
  823MPD2    C212159   4.683   0.789  16.495  0.0781 -1.1317  0.1880
  823MPD2    C312160   4.649   0.696  16.591 -0.0021  0.9577  0.4709
  823MPD2    C412161   4.597   0.745  16.711 -0.6789  0.1641  0.1880
  823MPD2    C512162   4.564   0.884  16.728 -0.2050  0.4430  0.3614
  823MPD2     H12163   4.725   0.769  16.397  1.7407 -1.0688  0.8823
  823MPD2    H112164   4.583   0.668  16.787 -0.3618  2.0435  2.1688
  823MPD2    H212165   4.583   1.079  16.642 -0.2679 -0.0442  2.0051
  823MPD2    H312166   4.521   0.912  16.823 -0.4073  0.9216  0.1257
  823MPD2     N12167   4.667   0.556  16.572 -0.3817 -0.4828 -0.3273
  823MPD2    H512168   4.625   0.498  16.645 -0.0677  0.5997  0.7176
  823MPD2    N112169   4.676   1.029  16.414  0.1634 -0.0399 -0.1676
  823MPD2    H712170   4.660   1.124  16.444 -2.1114  0.0055 -1.5792
  824MPD2     C12171   0.757   4.665  15.674 -0.0437 -0.4355  0.0579
  824MPD2    C112172   0.856   0.015  15.724  0.3063 -0.1935  0.0432
  824MPD2    C212173   0.982   4.711  15.727 -0.0420 -0.2585  0.0462
  824MPD2    C312174   1.014   4.579  15.691  0.5541  0.2861  0.3301
  824MPD2    C412175   0.916   4.491  15.654 -0.1906 -0.1270 -0.4680
  824MPD2    C512176   0.789   4.538  15.646 -0.2161  0.2534 -0.8024
  824MPD2     H12177   1.056   0.051  15.745 -1.1652  1.3986 -2.5529
  824MPD2    H112178   0.925   4.388  15.623 -0.5231 -0.2404 -0.1876
  824MPD2    H212179   0.654   4.698  15.672  0.7535  2.1144  0.6394
  824MPD2    H312180   0.708   4.471  15.619 -0.3467  0.7518 -1.6552
  824MPD2     N12181   1.156   4.546  15.680 -0.8889 -0.5405  0.1576
  824MPD2    H512182   1.219   4.610  15.726  0.3420 -2.5684  1.2491
  824MPD2    N112183   0.832   0.142  15.778  0.5444  0.9839 -0.0831
  824MPD2    H712184   0.907   0.183  15.833  1.5130 -1.9445  0.7625
  825MPD2     C12185   1.943   4.557  15.348  0.2250  0.4432 -0.3793
  825MPD2    C112186   1.840   4.631  15.393 -0.3730  1.0501 -0.3996
  825MPD2    C212187   1.846   0.030  15.369 -0.9358 -0.1172  0.2615
  825MPD2    C312188   1.951   0.092  15.310  0.2031  0.0962  0.5187
  825MPD2    C412189   2.060   0.013  15.277  0.0832  0.8917 -0.3450
  825MPD2    C512190   2.047   4.618  15.285 -0.1669 -0.4576  0.2559
  825MPD2     H12191   1.761   0.088  15.404 -0.6001  1.4969 -1.6201
  825MPD2    H112192   2.147   0.055  15.228 -0.4641 -0.1112 -2.1841
  825MPD2    H212193   1.944   4.450  15.366  0.4755  0.1795 -1.8959
  825MPD2    H312194   2.131   4.556  15.259 -0.3481 -0.8210  0.5288
  825MPD2     N12195   1.952   0.229  15.292  0.2554 -0.4398 -0.3647
  825MPD2    H512196   2.012   0.279  15.226 -0.7205 -0.5087 -1.2939
  825MPD2    N112197   1.733   4.570  15.461 -0.1187 -0.2819 -0.1027
  825MPD2    H712198   1.732   4.469  15.472 -0.0221 -0.2632  0.0695
  826MPD2     C12199   1.434   0.074  14.107  0.7102 -0.3434  0.0315
  826MPD2    C112200   1.403   0.099  13.978 -0.0847 -0.3220  0.4628
  826MPD2    C212201   1.306   0.186  13.947 -0.2061 -0.5653  0.2019
  826MPD2    C312202   1.251   0.267  14.050 -0.1789 -0.2381 -0.0522
  826MPD2    C412203   1.291   0.252  14.176 -0.1984 -0.1226 -0.0994
  826MPD2    C512204   1.377   0.149  14.206 -0.1395 -0.5920  0.6194
  826MPD2     H12205   1.269   0.203  13.846  1.3180 -1.2227 -0.4676
  826MPD2    H112206   1.254   0.321  14.250  1.3632  1.2322 -0.5668
  826MPD2    H212207   1.519   0.012  14.133  0.7155 -0.4730 -0.2911
  826MPD2    H312208   1.403   0.127  14.309  1.5905 -0.0027  0.3181
  826MPD2     N12209   1.156   0.378  14.027  0.4639 -0.3021  0.0550
  826MPD2    H512210   1.125   0.427  14.110  2.9434 -0.6362  1.1899
  826MPD2    N112211   1.475   0.025  13.888  0.4049  0.0987 -0.2361
  826MPD2    H712212   1.553   4.706  13.922  0.0032 -1.4238 -1.8206
  827MPD2     C12213   2.655   1.808   9.994 -0.4035  0.1690  0.7176
  827MPD2    C112214   2.607   1.699  10.048 -0.0438 -0.2344  0.1594
  827MPD2    C212215   2.485   1.648  10.001  0.7127  0.7839  0.4006
  827MPD2    C312216   2.418   1.714   9.901 -0.4532 -0.1341 -0.5585
  827MPD2    C412217   2.476   1.824   9.845 -0.3618  0.1732  0.0365
  827MPD2    C512218   2.602   1.863   9.885  0.2446 -0.3064  0.9578
  827MPD2     H12219   2.449   1.559  10.050 -0.2523  1.0763  0.2161
  827MPD2    H112220   2.432   1.878   9.762 -1.7648  0.1731  0.7868
  827MPD2    H212221   2.746   1.848  10.037  0.9949 -0.7864 -1.3575
  827MPD2    H312222   2.659   1.940   9.834  0.3283 -0.0929  1.3745
  827MPD2     N12223   2.298   1.652   9.854 -0.1972  0.1126 -0.5263
  827MPD2    H512224   2.267   1.571   9.907 -0.3290  0.6131  0.1571
  827MPD2    N112225   2.675   1.645  10.154  0.7093  0.5184  0.1872
  827MPD2    H712226   2.761   1.696  10.173  2.1789 -1.5789 -0.8443
  828MPD2     C12227   0.626   1.057  12.558  0.1599  0.2955 -0.1331
  828MPD2    C112228   0.531   1.100  12.473  0.3192  0.7648  0.2484
  828MPD2    C212229   0.571   1.119  12.340 -0.0713  0.0876  0.5672
  828MPD2    C312230   0.698   1.088  12.290 -0.4451  0.2379 -0.5772
  828MPD2    C412231   0.780   1.035  12.381  0.3021  0.5270  0.0891
  828MPD2    C512232   0.750   1.026  12.516  0.0513 -0.3581  0.0211
  828MPD2     H12233   0.496   1.154  12.271  0.5870 -0.2080 -0.3006
  828MPD2    H112234   0.880   1.000  12.358 -0.5119 -0.3668 -2.0659
  828MPD2    H212235   0.604   1.048  12.664 -0.0844 -1.4644 -0.3425
  828MPD2    H312236   0.816   0.989  12.593 -0.8212  0.4293  1.1325
  828MPD2     N12237   0.735   1.104  12.149 -0.3990  0.0102  0.6318
  828MPD2    H512238   0.827   1.070  12.120 -0.5288 -0.0368  0.2684
  828MPD2    N112239   0.398   1.135  12.516 -0.6845 -0.6615  0.3370
  828MPD2    H712240   0.335   1.185  12.454 -0.5188 -2.1511 -1.0195
  829MPD2     C12241   4.550   1.554  12.038 -0.0746  0.7055 -0.5199
  829MPD2    C112242   4.470   1.509  12.143 -0.5208  0.3060 -0.0648
  829MPD2    C212243   4.525   1.438  12.250 -0.5424  0.2343  0.2604
  829MPD2    C312244   4.665   1.425  12.259 -0.4895 -0.0290 -0.1911
  829MPD2    C412245   0.009   1.476  12.157  0.2583 -0.1919 -0.1638
  829MPD2    C512246   4.685   1.535  12.044 -0.2709 -0.0333 -0.0422
  829MPD2     H12247   4.455   1.404  12.326  0.6068 -4.4620 -0.7848
  829MPD2    H112248   0.116   1.473  12.168  0.2261 -0.2315  0.1397
  829MPD2    H212249   4.509   1.601  11.950 -2.4417  0.8023  0.6239
  829MPD2    H312250   0.010   1.582  11.969  0.4538  0.3749  0.7999
  829MPD2     N12251   4.725   1.370  12.376 -0.0789  0.1436 -0.6583
  829MPD2    H512252   0.090   1.369  12.377 -0.0947 -0.9035  0.5404
  829MPD2    N112253   4.329   1.532  12.130  0.1651 -0.6048  0.2887
  829MPD2    H712254   4.304   1.584  12.046 -1.1796 -1.2545  0.2811
  830MPD2     C12255   0.899   3.977  15.944  0.0912  0.3798  0.1726
  830MPD2    C112256   0.796   3.949  15.864 -0.1759  0.5148  0.0943
  830MPD2    C212257   0.788   3.986  15.734 -0.3003 -0.3839  0.2108
  830MPD2    C312258   0.890   4.057  15.676 -0.0154 -0.1976 -0.0392
  830MPD2    C412259   0.994   4.082  15.757 -0.4490 -0.5291  0.1645
  830MPD2    C512260   0.999   4.051  15.892  0.2639  0.5255 -1.1266
  830MPD2     H12261   0.699   3.955  15.680  0.3393 -1.1536 -0.4052
  830MPD2    H112262   1.070   4.144  15.709 -1.1211  0.1481 -0.0139
  830MPD2    H212263   0.909   3.957  16.050 -1.0036  1.0988  0.4053
  830MPD2    H312264   1.092   4.069  15.944 -1.2236  1.5832  1.1378
  830MPD2     N12265   0.892   4.099  15.540  0.0497 -0.0334  0.1215
  830MPD2    H512266   0.965   4.165  15.512 -1.8803  1.3621 -1.5902
  830MPD2    N112267   0.698   3.863  15.931  0.2032  0.3299 -0.3772
  830MPD2    H712268   0.705   3.838  16.029  0.2905 -0.1340 -0.5037
  831MPD2     C12269   0.477   0.877  16.427 -0.0521 -0.5707  0.2174
  831MPD2    C112270   0.498   0.882  16.290 -0.1205 -0.0778 -0.1362
  831MPD2    C212271   0.412   0.810  16.213  1.1408 -0.3433 -0.9274
  831MPD2    C312272   0.312   0.742  16.272 -0.4904  0.1416  0.1741
  831MPD2    C412273   0.286   0.745  16.410  0.0898  0.5799  0.0794
  831MPD2    C512274   0.364   0.821  16.483 -0.1297  0.4557  0.1252
  831MPD2     H12275   0.423   0.814  16.106 -1.0295 -1.0589 -1.1681
  831MPD2    H112276   0.200   0.707  16.463 -0.0095  0.9851  0.2085
  831MPD2    H212277   0.547   0.926  16.495 -0.1671 -0.3939  0.2079
  831MPD2    H312278   0.343   0.837  16.588 -2.4627  1.8292 -0.5415
  831MPD2     N12279   0.222   0.664  16.195  0.2025 -0.3162  0.8049
  831MPD2    H512280   0.132   0.645  16.238 -0.5477  0.7415 -0.3200
  831MPD2    N112281   0.606   0.961  16.240 -0.0452 -0.2075  0.1939
  831MPD2    H712282   0.677   0.983  16.309 -0.8268  1.0326  0.6024
  832MPD2     C12283   3.489   2.178  17.177 -0.1864 -0.2540 -0.1612
  832MPD2    C112284   3.480   2.309  17.146  0.1256  0.2115  0.2839
  832MPD2    C212285   3.404   2.349  17.036 -0.0542  0.1060 -0.3358
  832MPD2    C312286   3.319   2.253  16.984  0.1685 -0.6844 -0.0560
  832MPD2    C412287   3.331   2.121  17.014  0.9288 -0.1160  0.4338
  832MPD2    C512288   3.420   2.086  17.106  0.7293 -0.4265 -0.2019
  832MPD2     H12289   3.395   2.455  17.015  0.1316  0.2877  0.5275
  832MPD2    H112290   3.275   2.041  16.967  1.5110 -0.5320  0.4497
  832MPD2    H212291   3.560   2.143  17.251  2.2250 -0.4133 -2.5586
  832MPD2    H312292   3.438   1.980  17.118 -1.3603 -0.7790 -0.1627
  832MPD2     N12293   3.211   2.289  16.904  0.7311 -0.2553  0.2382
  832MPD2    H512294   3.164   2.207  16.865  0.9842 -0.6506  0.7682
  832MPD2    N112295   3.540   2.406  17.227  0.3128 -0.0157  0.8479
  832MPD2    H712296   3.539   2.501  17.192  0.0411 -0.4438 -0.3301
  833MPD2     C12297   1.476   3.870  12.831  0.9095  0.3621 -0.3219
  833MPD2    C112298   1.415   3.975  12.766  0.8539  0.6239 -0.0540
  833MPD2    C212299   1.481   4.024  12.664 -0.1279  0.0851 -1.0903
  833MPD2    C312300   1.601   3.978  12.613 -0.2114 -1.3996  0.2756
  833MPD2    C412301   1.657   3.875  12.676  0.9047  0.3215  0.0124
  833MPD2    C512302   1.595   3.827  12.788  0.6894  0.1139  0.2308
  833MPD2     H12303   1.435   4.111  12.617 -2.4938  0.3623  1.7111
  833MPD2    H112304   1.755   3.849  12.636  1.6248  1.5873  0.9517
  833MPD2    H212305   1.436   3.832  12.924 -0.3879  0.1913 -0.9379
  833MPD2    H312306   1.642   3.754  12.854  0.5556 -1.0871 -0.9935
  833MPD2     N12307   1.662   4.025  12.493  0.4435 -0.7309 -0.3323
  833MPD2    H512308   1.745   3.976  12.459  1.1803 -0.7696  1.5085
  833MPD2    N112309   1.309   4.049  12.819 -0.0135  0.1265 -0.0971
  833MPD2    H712310   1.279   4.130  12.766  0.4369 -0.7463 -1.6903
  834MPD2     C12311   1.580   3.455  11.800  0.1894 -0.7379 -0.5851
  834MPD2    C112312   1.549   3.559  11.720 -0.1275  0.3266 -0.5752
  834MPD2    C212313   1.567   3.695  11.762  0.5271 -0.4192 -0.2929
  834MPD2    C312314   1.618   3.707  11.896 -0.0776  0.0144  0.2694
  834MPD2    C412315   1.650   3.596  11.978 -0.1248  0.0701 -0.8351
  834MPD2    C512316   1.627   3.471  11.926 -0.2279 -0.1861 -0.3030
  834MPD2     H12317   1.553   3.782  11.699 -1.7887 -0.3019  0.4000
  834MPD2    H112318   1.681   3.604  12.081 -2.2592  0.6080 -0.2483
  834MPD2    H212319   1.556   3.354  11.769 -0.9556 -0.1241 -1.6794
  834MPD2    H312320   1.632   3.383  11.988 -1.4246 -0.5852 -0.7791
  834MPD2     N12321   1.618   3.844  11.955  0.3941 -0.2689  0.5422
  834MPD2    H512322   1.592   3.925  11.900 -3.3314 -1.0760  1.1138
  834MPD2    N112323   1.501   3.530  11.587 -0.1495  0.0671  0.6138
  834MPD2    H712324   1.457   3.440  11.570 -3.6358  1.6929  0.9215
  835MPD2     C12325   1.628   1.600  11.235  0.6616  0.5152 -0.4239
  835MPD2    C112326   1.517   1.611  11.319  0.2130 -0.7725  0.5717
  835MPD2    C212327   1.548   1.636  11.455  0.7499  0.6556  1.4244
  835MPD2    C312328   1.674   1.651  11.503  0.2488 -0.3835 -0.1182
  835MPD2    C412329   1.777   1.639  11.421  0.2018  0.3123  0.1892
  835MPD2    C512330   1.748   1.619  11.290  0.8088 -0.0008  0.5462
  835MPD2     H12331   1.464   1.643  11.523 -0.6321 -1.0447 -0.1003
  835MPD2    H112332   1.876   1.666  11.454  0.2508 -1.1902  1.3071
  835MPD2    H212333   1.625   1.580  11.129 -0.6018  0.3172 -0.3586
  835MPD2    H312334   1.834   1.624  11.224  0.2957 -2.0798 -0.2805
  835MPD2     N12335   1.704   1.665  11.642  0.3273  0.4778 -0.0492
  835MPD2    H512336   1.802   1.655  11.667  0.5326  4.3617  0.6670
  835MPD2    N112337   1.377   1.604  11.278 -0.5288 -0.3123  0.2460
  835MPD2    H712338   1.307   1.608  11.352  1.2104 -0.7354  1.9177
  836MPD2     C12339   1.031   1.702  11.848 -0.3149 -0.0039 -0.9499
  836MPD2    C112340   1.092   1.633  11.953  0.4586 -0.1604  0.6110
  836MPD2    C212341   1.021   1.576  12.053 -0.0196 -0.1151  0.5919
  836MPD2    C312342   0.884   1.589  12.049  0.1834 -0.1469 -0.4449
  836MPD2    C412343   0.822   1.652  11.946  0.0046 -0.1089  0.5704
  836MPD2    C512344   0.896   1.708  11.840  0.2751 -0.1769 -0.1793
  836MPD2     H12345   1.079   1.530  12.132 -0.0915  1.5525  1.6025
  836MPD2    H112346   0.717   1.675  11.931 -0.2552 -0.1308  2.3533
  836MPD2    H212347   1.091   1.753  11.774  0.0347 -1.0974 -1.4205
  836MPD2    H312348   0.858   1.766  11.756  0.9735 -1.0371 -1.0955
  836MPD2     N12349   0.801   1.539  12.152  0.2991 -0.2832  0.1598
  836MPD2    H512350   0.706   1.574  12.148  0.0232 -1.3879 -3.5403
  836MPD2    N112351   1.233   1.640  11.955 -0.3656 -0.0011  0.1243
  836MPD2    H712352   1.272   1.698  11.882 -3.6329 -2.2620 -3.4617
  837MPD2     C12353   4.698   1.222  10.353  0.1086  0.1502  0.2710
  837MPD2    C112354   4.685   1.291  10.232 -0.6943 -1.0804 -0.3916
  837MPD2    C212355   4.725   1.416  10.226  0.0621 -0.2869  0.6713
  837MPD2    C312356   0.032   1.482  10.334  0.7875 -0.2475  0.3660
  837MPD2    C412357   0.053   1.423  10.455 -0.0124  0.7564  0.4947
  837MPD2    C512358   0.002   1.292  10.468 -0.0539 -0.7556  0.6097
  837MPD2     H12359   4.719   1.476  10.136 -1.2002 -1.2927  0.0824
  837MPD2    H112360   0.081   1.470  10.549 -2.3540  0.7685  1.1772
  837MPD2    H212361   4.665   1.120  10.374  1.2331 -0.2273  0.1844
  837MPD2    H312362   0.019   1.248  10.566  0.4831  1.5749  1.5398
  837MPD2     N12363   0.063   1.620  10.318 -0.1009 -0.6712 -0.4357
  837MPD2    H512364   0.058   1.656  10.223 -1.2527  0.6355  0.1180
  837MPD2    N112365   4.605   1.251  10.124  0.1528 -0.5763 -0.5312
  837MPD2    H712366   4.603   1.314  10.044  0.7062 -0.1949 -0.2457
  838MPD2     C12367   2.494   3.595  11.295 -0.1215  0.4589 -0.3114
  838MPD2    C112368   2.505   3.687  11.399  0.3315  0.6630  0.8845
  838MPD2    C212369   2.406   3.698  11.492 -0.1001  0.7262  0.2606
  838MPD2    C312370   2.291   3.621  11.488 -0.1042  0.6229 -0.5923
  838MPD2    C412371   2.289   3.516  11.395  0.2865  0.1998 -0.2739
  838MPD2    C512372   2.385   3.510  11.295  0.5519  0.5577  0.0078
  838MPD2     H12373   2.399   3.773  11.571  1.6361  0.4528  0.6736
  838MPD2    H112374   2.202   3.451  11.392 -0.6096  1.5820 -4.8589
  838MPD2    H212375   2.573   3.574  11.223  0.8449 -0.2625  0.9617
  838MPD2    H312376   2.362   3.438  11.217  1.5363  1.8853 -1.5074
  838MPD2     N12377   2.191   3.651  11.591 -0.1757 -0.2333 -0.2587
  838MPD2    H512378   2.210   3.736  11.643  3.0735 -1.1501  0.0507
  838MPD2    N112379   2.624   3.761  11.427 -1.1420  0.5154 -0.2039
  838MPD2    H712380   2.629   3.813  11.514 -1.5923 -1.5866  1.0991
  839MPD2     C12381   2.694   3.635  12.224 -0.7135 -0.4816 -0.2070
  839MPD2    C112382   2.680   3.540  12.119  0.4623  0.0766  0.4997
  839MPD2    C212383   2.747   3.565  12.000  0.0684 -0.2868  0.2240
  839MPD2    C312384   2.811   3.691  11.984  0.2955 -0.3061  0.0146
  839MPD2    C412385   2.832   3.779  12.088  0.0506  0.0281 -0.0424
  839MPD2    C512386   2.766   3.749  12.209 -0.4183 -0.0852 -0.8545
  839MPD2     H12387   2.740   3.481  11.931 -1.4298 -0.8183  1.0125
  839MPD2    H112388   2.867   3.881  12.072 -2.0470  0.8132  0.3149
  839MPD2    H212389   2.654   3.619  12.324 -0.6192  1.6467  0.1653
  839MPD2    H312390   2.774   3.818  12.292  1.7747 -0.7004 -0.5342
  839MPD2     N12391   2.841   3.722  11.848  0.3777  0.9824 -0.6157
  839MPD2    H512392   2.813   3.649  11.783  0.7844 -0.3266  0.6792
  839MPD2    N112393   2.602   3.421  12.136 -0.3321 -0.3531  0.2060
  839MPD2    H712394   2.581   3.371  12.050  0.9324 -1.3586  0.4777
  840MPD2     C12395   3.247   1.827  10.234 -0.1792 -0.2174 -0.3664
  840MPD2    C112396   3.184   1.823  10.362  0.4733 -0.3404  0.8338
  840MPD2    C212397   3.209   1.912  10.457 -0.4891 -0.7625 -1.1012
  840MPD2    C312398   3.299   2.004  10.443 -0.3341 -0.1408 -0.4913
  840MPD2    C412399   3.377   1.995  10.333  0.4438 -0.4103 -0.1326
  840MPD2    C512400   3.357   1.906  10.234 -0.8742  0.5744 -0.8428
  840MPD2     H12401   3.153   1.905  10.550  1.2917  1.4727  0.1534
  840MPD2    H112402   3.466   2.054  10.312 -0.4423  0.6670 -0.8586
  840MPD2    H212403   3.220   1.768  10.147 -1.1543 -1.7117  0.9485
  840MPD2    H312404   3.411   1.920  10.141 -2.2614  1.0954 -1.5590
  840MPD2     N12405   3.341   2.107  10.535 -0.3665 -0.1281  0.8655
  840MPD2    H512406   3.409   2.171  10.495  0.2537 -1.1064  0.3154
  840MPD2    N112407   3.085   1.723  10.377 -0.2720  0.4733  0.4357
  840MPD2    H712408   3.053   1.688  10.288  1.8978  0.7303 -0.4681
  841MPD2     C12409   1.989   1.113  15.012  0.7021  0.5769  0.1956
  841MPD2    C112410   2.077   1.083  14.905  0.4098 -0.1460 -0.2684
  841MPD2    C212411   2.077   1.159  14.790  0.2863 -0.5625  0.7434
  841MPD2    C312412   1.998   1.274  14.788 -0.5128  0.1535 -0.4499
  841MPD2    C412413   1.914   1.307  14.892 -0.3850 -0.1498 -0.2671
  841MPD2    C512414   1.908   1.223  15.009  0.4908 -0.7399  0.1950
  841MPD2     H12415   2.137   1.141  14.701 -1.8529  1.8339 -1.1728
  841MPD2    H112416   1.847   1.390  14.877 -0.9028 -0.5695 -0.2774
  841MPD2    H212417   1.960   1.050  15.094 -0.4478  1.1472  0.2309
  841MPD2    H312418   1.843   1.250  15.092 -0.0948 -1.7116  0.0444
  841MPD2     N12419   2.016   1.355  14.669 -0.1386 -0.0652 -0.7248
  841MPD2    H512420   2.073   1.309  14.599  2.2255 -0.5276  1.5251
  841MPD2    N112421   2.167   0.971  14.901  0.2567 -0.6585 -0.2552
  841MPD2    H712422   2.218   0.952  14.816 -2.5073 -2.7395 -1.4596
  842MPD2     C12423   2.806   2.798  16.794  0.8168 -0.5757 -0.2155
  842MPD2    C112424   2.717   2.693  16.796  0.0360  0.1273  0.5154
  842MPD2    C212425   2.729   2.583  16.879  0.3582 -0.4009 -0.0390
  842MPD2    C312426   2.835   2.594  16.973 -0.2963 -0.1488  0.1606
  842MPD2    C412427   2.935   2.692  16.963  0.3745  0.3044  0.0097
  842MPD2    C512428   2.920   2.790  16.870 -0.0011  0.3592 -0.5147
  842MPD2     H12429   2.654   2.505  16.884  1.5940 -1.5315  1.0862
  842MPD2    H112430   3.019   2.705  17.029  0.8090  1.9732 -0.8711
  842MPD2    H212431   2.791   2.874  16.719  0.2109 -0.8958 -0.4178
  842MPD2    H312432   2.999   2.864  16.863  0.9069 -0.4806  0.7819
  842MPD2     N12433   2.839   2.505  17.083  0.1216  0.7081 -0.9506
  842MPD2    H512434   2.923   2.514  17.139 -0.5292  2.3479 -0.2056
  842MPD2    N112435   2.602   2.718  16.712  0.3685 -0.5064 -0.2031
  842MPD2    H712436   2.593   2.808  16.668  1.0823 -0.7546 -0.8467
  843MPD2     C12437   4.421   2.674   0.105  0.5383  0.1910 -0.3255
  843MPD2    C112438   4.541   2.622   0.156  0.1701  0.7123  0.0962
  843MPD2    C212439   4.645   2.715   0.166 -0.5454 -0.4665 -0.2539
  843MPD2    C312440   4.637   2.843   0.132 -0.1140  0.3853 -0.1258
  843MPD2    C412441   4.512   2.896   0.096 -0.0138  0.1291  0.2578
  843MPD2    C512442   4.411   2.812   0.081 -0.4993 -0.4561 -0.2496
  843MPD2     H12443   0.005   2.677   0.197 -0.5834  0.9440  1.6135
  843MPD2    H112444   4.500   3.003   0.085  0.8942  0.1476 -0.6300
  843MPD2    H212445   4.334   2.612   0.085  0.5196 -0.3833  1.5490
  843MPD2    H312446   4.316   2.849   0.044  1.3209  2.4920 -1.9206
  843MPD2     N12447   0.001   2.934   0.157 -0.2611 -0.0776  0.5940
  843MPD2    H512448   4.714   3.028   0.127 -1.1069  0.5892  3.3528
  843MPD2    N112449   4.558   2.485   0.190  0.2459  0.0122  0.0852
  843MPD2    H712450   4.475   2.432   0.168 -0.5480  0.5081  1.9393
  844MPD2     C12451   2.833   1.963  16.231  0.6203  0.6748 -0.0546
  844MPD2    C112452   2.943   1.876  16.249  0.3834 -0.6931 -0.5433
  844MPD2    C212453   3.060   1.924  16.310  0.9521  0.2698  0.1418
  844MPD2    C312454   3.074   2.052  16.366 -0.2047  0.5354  0.4056
  844MPD2    C412455   2.971   2.139  16.339  0.3934  0.4484  0.4808
  844MPD2    C512456   2.851   2.093  16.277  0.5889  0.6017  0.1510
  844MPD2     H12457   3.140   1.851  16.317 -1.6815 -2.5683  0.8839
  844MPD2    H112458   2.972   2.244  16.364 -3.5948  0.7160 -0.4908
  844MPD2    H212459   2.744   1.928  16.181  1.5092 -0.4461 -0.8467
  844MPD2    H312460   2.768   2.161  16.264 -0.8905 -0.8976  1.7959
  844MPD2     N12461   3.200   2.088  16.420  0.1752 -0.5947  0.3967
  844MPD2    H512462   3.275   2.020  16.410 -0.1424 -0.3775 -3.5882
  844MPD2    N112463   2.925   1.747  16.196 -0.3130 -0.7008  0.5886
  844MPD2    H712464   2.835   1.723  16.156 -0.4874  1.0939 -0.0967
  845MPD2     C12465   3.323   2.957  16.837 -0.1364 -0.6723 -0.2170
  845MPD2    C112466   3.355   2.851  16.918 -0.2485 -0.0004 -0.0047
  845MPD2    C212467   3.411   2.736  16.862 -0.1332  0.2245  0.2674
  845MPD2    C312468   3.431   2.725  16.723  0.1800 -0.7661 -0.0783
  845MPD2    C412469   3.393   2.826  16.641 -0.0241  0.0406 -0.0248
  845MPD2    C512470   3.336   2.941  16.702 -0.1973 -0.1612  0.4666
  845MPD2     H12471   3.438   2.648  16.918  1.1493  1.1781  1.1536
  845MPD2    H112472   3.408   2.819  16.534 -1.1779  0.7215 -0.2234
  845MPD2    H212473   3.278   3.048  16.874  1.9076  0.0517  0.4875
  845MPD2    H312474   3.305   3.023  16.639  3.4303  0.3677 -0.6195
  845MPD2     N12475   3.470   2.609  16.659  0.1532  0.3437  0.0978
  845MPD2    H512476   3.446   2.605  16.560  1.6489  0.0764 -0.2596
  845MPD2    N112477   3.341   2.869  17.060 -0.1224  0.0784  0.3134
  845MPD2    H712478   3.298   2.955  17.091  0.4574  1.8013 -3.7770
  846MPD2     C12479   0.631   3.327  14.209 -0.7018  0.1432  0.0909
  846MPD2    C112480   0.526   3.264  14.147  0.3625 -0.1209 -0.3915
  846MPD2    C212481   0.420   3.208  14.213  0.1227  0.6121 -0.2557
  846MPD2    C312482   0.408   3.207  14.350 -0.9217 -0.2553 -0.1033
  846MPD2    C412483   0.517   3.253  14.418  0.4524  0.1612  0.4424
  846MPD2    C512484   0.619   3.312  14.343  0.4307  0.3839 -0.3899
  846MPD2     H12485   0.335   3.176  14.153  0.1870 -1.0948  0.5732
  846MPD2    H112486   0.534   3.249  14.525 -2.5563  0.6695  0.9287
  846MPD2    H212487   0.720   3.357  14.155  1.4221 -0.8747  3.0245
  846MPD2    H312488   0.706   3.337  14.403 -0.5156  0.2274  1.0369
  846MPD2     N12489   0.283   3.182  14.411  0.0787 -0.1500  0.3684
  846MPD2    H512490   0.215   3.144  14.347 -0.1366  0.6333  0.1413
  846MPD2    N112491   0.538   3.252  14.005 -0.4751 -0.5407 -0.7899
  846MPD2    H712492   0.617   3.300  13.963 -0.1396 -1.0890 -0.7821
  847MPD2     C12493   0.074   4.107  14.075 -0.5487  0.2768 -0.6263
  847MPD2    C112494   0.167   4.064  14.162  0.2518  0.1443  0.1435
  847MPD2    C212495   0.133   3.974  14.258 -0.6929 -0.1769 -0.1665
  847MPD2    C312496   0.003   3.926  14.270  0.3731 -0.8955  0.7894
  847MPD2    C412497   4.651   3.964  14.170 -0.3812 -0.3000 -0.4467
  847MPD2    C512498   4.698   4.042  14.067  0.0946  0.1000  0.0779
  847MPD2     H12499   0.210   3.959  14.334 -0.2226 -0.4533 -0.6922
  847MPD2    H112500   4.547   3.937  14.184  0.0562 -2.6956 -1.8576
  847MPD2    H212501   0.094   4.185  14.002  0.9051  0.3404 -0.1581
  847MPD2    H312502   4.624   4.075  13.995 -1.5702 -1.6789  0.9495
  847MPD2     N12503   4.704   3.874  14.398 -0.3443  0.1754  0.0546
  847MPD2    H512504   0.042   3.855  14.463 -1.1299  0.6966  1.1204
  847MPD2    N112505   0.301   4.100  14.165  0.2239 -0.0523  0.2487
  847MPD2    H712506   0.351   4.035  14.226  2.4498  0.1169 -1.4090
  848MPD2     C12507   2.861   2.775  16.308  0.3997 -0.3833 -0.4128
  848MPD2    C112508   2.914   2.786  16.435 -0.7892 -0.6686 -0.0404
  848MPD2    C212509   2.950   2.912  16.479  0.7206 -0.1131 -0.1091
  848MPD2    C312510   2.949   3.021  16.394  0.5500  0.1441 -0.4267
  848MPD2    C412511   2.895   3.008  16.270 -0.3039 -0.0508 -0.0528
  848MPD2    C512512   2.841   2.887  16.227  0.2309  0.0152  0.0313
  848MPD2     H12513   2.995   2.926  16.577  0.0769 -1.3610  0.3710
  848MPD2    H112514   2.895   3.092  16.202  1.5659  0.2242  0.2771
  848MPD2    H212515   2.841   2.686  16.250  0.2641 -1.1444  0.7936
  848MPD2    H312516   2.805   2.866  16.127  1.1070  0.3956 -0.3711
  848MPD2     N12517   2.963   3.160  16.435 -0.6904  0.2281 -0.6089
  848MPD2    H512518   2.948   3.233  16.366 -0.8205  0.8340  0.0625
  848MPD2    N112519   2.933   2.676  16.518 -0.2541 -0.5050  0.2092
  848MPD2    H712520   2.961   2.698  16.614 -0.0107  0.9355 -0.1854
  849MPD2     C12521   2.301   1.831  13.521  0.5571 -0.1422 -0.3566
  849MPD2    C112522   2.319   1.701  13.566 -0.0686 -0.1496 -0.0710
  849MPD2    C212523   2.344   1.672  13.698 -0.1934  0.0664 -0.1211
  849MPD2    C312524   2.344   1.769  13.792 -0.1464  1.1639  0.3515
  849MPD2    C412525   2.324   1.903  13.749  0.1752  0.4440 -0.2722
  849MPD2    C512526   2.306   1.935  13.616  0.9719 -0.0532 -0.4414
  849MPD2     H12527   2.366   1.570  13.728  0.9851  0.3423 -0.0409
  849MPD2    H112528   2.331   1.971  13.833 -0.0158 -0.3628  0.4082
  849MPD2    H212529   2.295   1.859  13.417  1.9297  1.0373 -0.1225
  849MPD2    H312530   2.293   2.040  13.594 -1.1006 -0.4587 -1.0912
  849MPD2     N12531   2.366   1.738  13.928  0.6629  0.2082  0.8875
  849MPD2    H512532   2.371   1.819  13.989  1.9451  0.3778  0.5624
  849MPD2    N112533   2.333   1.597  13.472  0.3586  0.1445  0.3577
  849MPD2    H712534   2.338   1.617  13.372 -0.1323 -0.4822  0.2067
  850MPD2     C12535   0.572   0.180  14.576 -0.5802  0.7561  0.7209
  850MPD2    C112536   0.524   0.267  14.672  0.9015 -0.3012 -0.0209
  850MPD2    C212537   0.617   0.317  14.760  0.0578  0.1226  0.3453
  850MPD2    C312538   0.749   0.264  14.757 -0.4012 -0.0626  0.6887
  850MPD2    C412539   0.794   0.179  14.655  0.0041 -0.4517  0.2496
  850MPD2    C512540   0.700   0.140  14.562  0.3207  0.3761 -0.0127
  850MPD2     H12541   0.594   0.398  14.829 -0.0560  0.0952  0.3401
  850MPD2    H112542   0.894   0.138  14.651  0.7364  1.3112  0.6733
  850MPD2    H212543   0.501   0.146  14.501 -0.5681 -1.2967  1.6302
  850MPD2    H312544   0.730   0.080  14.477 -0.7697 -0.8127  0.4500
  850MPD2     N12545   0.846   0.299  14.854  0.2136  0.0611 -0.5314
  850MPD2    H512546   0.938   0.255  14.853  0.5237  0.7319 -1.1613
  850MPD2    N112547   0.386   0.299  14.652  0.4099 -0.0704 -0.3965
  850MPD2    H712548   0.343   0.257  14.570  1.2500 -0.3700 -0.6927
  851MPD2     C12549   0.780   0.146  15.379  0.3258  0.4475 -0.2531
  851MPD2    C112550   0.680   0.094  15.290 -0.0646 -0.4059 -0.3273
  851MPD2    C212551   0.702   4.697  15.254  0.5698  0.5098  0.0167
  851MPD2    C312552   0.813   4.624  15.287 -0.5101  0.3236 -0.1849
  851MPD2    C412553   0.910   4.689  15.359  0.3922 -0.0630  0.3046
  851MPD2    C512554   0.902   0.078  15.405 -0.3227  0.1770 -1.3268
  851MPD2     H12555   0.627   4.644  15.196 -0.0884 -1.1668  2.3916
  851MPD2    H112556   0.996   4.627  15.386  1.3395  0.5728 -1.2856
  851MPD2    H212557   0.772   0.245  15.423 -0.3486  0.8943 -1.3953
  851MPD2    H312558   0.981   0.122  15.464  0.2044  0.5765 -2.3441
  851MPD2     N12559   0.817   4.493  15.232 -1.0298  0.4241 -0.0334
  851MPD2    H512560   0.733   4.456  15.189 -0.1667 -1.6317  0.0314
  851MPD2    N112561   0.577   0.176  15.235 -0.0578 -0.0708  0.9896
  851MPD2    H712562   0.568   0.272  15.266 -0.0302  1.0681 -2.5471
  852MPD2     C12563   0.813   3.059   9.948  0.5078 -1.0663 -0.1210
  852MPD2    C112564   0.816   3.130  10.070 -0.2936  0.0025  0.1476
  852MPD2    C212565   0.922   3.208  10.100  0.6230 -0.3643 -0.1258
  852MPD2    C312566   1.028   3.215  10.015 -0.6708 -0.2635 -0.2020
  852MPD2    C412567   1.029   3.144   9.896 -0.3950 -0.4201 -0.0620
  852MPD2    C512568   0.924   3.065   9.864 -0.3183  0.2872 -0.1794
  852MPD2     H12569   0.921   3.265  10.193  0.4424  0.7613 -0.8188
  852MPD2    H112570   1.112   3.158   9.828  0.3758 -2.4639  0.4808
  852MPD2    H212571   0.732   2.994   9.919 -0.5767 -0.2831  1.1728
  852MPD2    H312572   0.922   3.012   9.769 -1.7280  1.0438 -0.5737
  852MPD2     N12573   1.124   3.318  10.047 -0.2427 -0.0162  0.0642
  852MPD2    H512574   1.120   3.359  10.140  1.2336 -0.4393  0.3122
  852MPD2    N112575   0.700   3.119  10.153  0.0666  0.6666 -0.6655
  852MPD2    H712576   0.691   3.185  10.230 -1.7830 -1.4341  0.9073
  853MPD2     C12577   1.913   2.285  12.374 -0.3855 -0.3570 -0.2756
  853MPD2    C112578   1.899   2.424  12.360 -0.5040 -1.6015 -0.2700
  853MPD2    C212579   1.902   2.474  12.234  0.4040 -0.0550  0.3155
  853MPD2    C312580   1.927   2.381  12.127  0.3084  0.1676  0.1327
  853MPD2    C412581   1.939   2.245  12.143 -0.6178  0.5217 -0.1672
  853MPD2    C512582   1.928   2.203  12.273 -0.7404 -0.8455  0.2007
  853MPD2     H12583   1.898   2.580  12.216  0.3898 -0.5561 -2.6548
  853MPD2    H112584   1.958   2.171  12.066 -0.0607 -0.8221  1.2442
  853MPD2    H212585   1.911   2.234  12.470  0.1830 -0.3709 -0.2719
  853MPD2    H312586   1.939   2.098  12.297  0.2232 -0.7424  0.2036
  853MPD2     N12587   1.948   2.437  11.997 -0.2231  0.2728  0.4299
  853MPD2    H512588   1.986   2.378  11.923 -0.4430 -0.2424  0.7287
  853MPD2    N112589   1.889   2.498  12.479 -0.4077  0.5541 -0.2899
  853MPD2    H712590   1.882   2.454  12.570  0.9917 -0.0646 -0.4732
  854MPD2     C12591   3.673   2.918  12.710 -0.5302 -0.5371 -0.4209
  854MPD2    C112592   3.754   2.891  12.606 -0.1519  0.1311  0.6147
  854MPD2    C212593   3.874   2.822  12.626 -0.0965  0.3380  0.3259
  854MPD2    C312594   3.917   2.795  12.753  0.3137 -0.7643 -0.0482
  854MPD2    C412595   3.837   2.833  12.864 -0.1785  0.0597  0.4197
  854MPD2    C512596   3.715   2.893  12.836  0.7342 -0.1399  0.2992
  854MPD2     H12597   3.938   2.788  12.545 -1.9925  0.7920 -1.3683
  854MPD2    H112598   3.867   2.818  12.967 -0.7887  0.2519  0.6219
  854MPD2    H212599   3.574   2.963  12.700 -0.8060 -1.0611 -0.0513
  854MPD2    H312600   3.647   2.930  12.911 -0.0895  2.7624 -1.8501
  854MPD2     N12601   4.035   2.718  12.769  0.1197 -0.0698  0.3896
  854MPD2    H512602   4.050   2.695  12.866 -2.2458  0.2851  0.8447
  854MPD2    N112603   3.716   2.949  12.476  0.1258  0.3046 -0.0126
  854MPD2    H712604   3.625   2.994  12.481 -0.1665 -0.2521 -0.2848
  855MPD2     C12605   4.499   2.869  13.475  0.4805 -0.2142 -0.0026
  855MPD2    C112606   4.505   2.732  13.467 -0.2539 -0.2783  0.1332
  855MPD2    C212607   4.488   2.667  13.342  0.0718 -0.4090 -0.1802
  855MPD2    C312608   4.451   2.746  13.232  0.2236 -0.0819  0.8150
  855MPD2    C412609   4.444   2.884  13.236  0.2669 -0.6166  0.8102
  855MPD2    C512610   4.462   2.940  13.362  0.6594  0.2065  0.5900
  855MPD2     H12611   4.479   2.559  13.342 -0.5864 -0.3518 -0.2225
  855MPD2    H112612   4.420   2.940  13.147  1.7724 -2.0811 -0.5243
  855MPD2    H212613   4.506   2.922  13.570  0.6533 -1.4472  0.6813
  855MPD2    H312614   4.459   3.047  13.375  2.4887  0.1061  1.7365
  855MPD2     N12615   4.417   2.688  13.103  0.6757  0.2849 -0.0824
  855MPD2    H512616   4.385   2.755  13.033 -4.3383 -2.3170 -0.3101
  855MPD2    N112617   4.531   2.645  13.574  0.1224 -0.5846 -0.4146
  855MPD2    H712618   4.525   2.546  13.556  2.0814 -0.6515 -0.7789
  856MPD2     C12619   1.367   3.487  13.953  0.0771 -0.3452  0.2479
  856MPD2    C112620   1.390   3.600  14.016  0.4325 -0.1430  0.0007
  856MPD2    C212621   1.305   3.700  14.000 -0.6938 -0.0784 -0.1915
  856MPD2    C312622   1.198   3.698  13.907 -0.4230 -0.0797  0.0819
  856MPD2    C412623   1.180   3.587  13.829 -0.6128  0.3381  0.3089
  856MPD2    C512624   1.269   3.482  13.852  0.0703  0.2590 -0.8179
  856MPD2     H12625   1.323   3.785  14.065 -2.6421  0.6289 -0.5670
  856MPD2    H112626   1.099   3.563  13.761  1.7529 -0.2347 -2.2996
  856MPD2    H212627   1.443   3.410  13.959  0.5183  0.0003 -0.9738
  856MPD2    H312628   1.263   3.392  13.792 -0.5822 -0.3477  0.1624
  856MPD2     N12629   1.122   3.812  13.885  0.1712 -0.1174 -1.1182
  856MPD2    H512630   1.040   3.798  13.826 -2.2431 -1.2315  2.5398
  856MPD2    N112631   1.505   3.622  14.093 -0.4455  0.4224  0.3384
  856MPD2    H712632   1.521   3.712  14.137 -0.8207  0.3856  0.5461
  857MPD2     C12633   3.311   0.565  13.013  0.2325  0.6564 -0.9140
  857MPD2    C112634   3.404   0.594  12.921  0.0022 -0.0778 -0.5369
  857MPD2    C212635   3.451   0.720  12.908  0.3578  0.0676  0.2439
  857MPD2    C312636   3.416   0.822  13.001  0.3915 -0.0466  0.4984
  857MPD2    C412637   3.331   0.792  13.102  0.4101  0.7510 -0.0022
  857MPD2    C512638   3.275   0.665  13.108 -0.3353 -0.5270 -0.0626
  857MPD2     H12639   3.521   0.751  12.831  0.9812 -0.5002  0.5837
  857MPD2    H112640   3.289   0.863  13.173  1.7041 -0.4361  1.9476
  857MPD2    H212641   3.272   0.465  13.031 -0.3524  0.9288 -0.6605
  857MPD2    H312642   3.200   0.647  13.184 -0.4455 -0.4361 -0.1491
  857MPD2     N12643   3.477   0.951  12.982  0.0519  0.3718 -0.3071
  857MPD2    H512644   3.544   0.956  12.906  0.6820 -0.4682  0.1911
  857MPD2    N112645   3.436   0.497  12.826  0.5171 -0.0151 -1.0057
  857MPD2    H712646   3.360   0.432  12.807 -0.0391 -0.4127  2.4982
  858MPD2     C12647   3.258   4.271  16.519 -0.3634 -0.0745 -0.3134
  858MPD2    C112648   3.387   4.262  16.477 -0.2251 -0.0523 -0.0357
  858MPD2    C212649   3.470   4.374  16.472  0.4133 -0.6579  0.2417
  858MPD2    C312650   3.410   4.501  16.497 -0.2581 -0.3530  0.0869
  858MPD2    C412651   3.286   4.507  16.545 -0.2921  0.1477 -0.1276
  858MPD2    C512652   3.215   4.394  16.573 -0.4746 -0.3989  0.0333
  858MPD2     H12653   3.571   4.359  16.437  0.6208  1.2719  0.0308
  858MPD2    H112654   3.237   4.599  16.575 -0.1791  0.6950 -1.6581
  858MPD2    H212655   3.197   4.183  16.534 -0.9267 -0.2151 -3.5192
  858MPD2    H312656   3.116   4.403  16.615 -0.6765  1.1427 -0.7791
  858MPD2     N12657   3.482   4.623  16.491  0.4272  0.6011 -0.1057
  858MPD2    H512658   3.425   4.704  16.512 -0.1737  0.3789 -0.8670
  858MPD2    N112659   3.427   4.130  16.443  0.0237  0.2836 -0.3647
  858MPD2    H712660   3.354   4.060  16.438  1.3876 -1.3007  1.9066
  859MPD2     C12661   2.618   1.836  15.162  0.2406 -0.0374  0.4112
  859MPD2    C112662   2.543   1.804  15.049 -0.4011  0.0285  0.3092
  859MPD2    C212663   2.572   1.680  14.988 -0.0865 -0.4174  0.4253
  859MPD2    C312664   2.671   1.601  15.050 -0.1827 -0.7180  0.8162
  859MPD2    C412665   2.751   1.648  15.149 -0.5674 -0.2554 -0.1062
  859MPD2    C512666   2.721   1.764  15.212 -0.0791 -0.0237 -0.0504
  859MPD2     H12667   2.506   1.652  14.907  1.1211  0.6517 -0.9242
  859MPD2    H112668   2.841   1.594  15.175  0.0790 -0.8504 -3.6335
  859MPD2    H212669   2.594   1.930  15.209  0.3656 -0.9934  2.3701
  859MPD2    H312670   2.779   1.810  15.292  0.1505 -1.4775  0.6305
  859MPD2     N12671   2.701   1.479  14.998  0.6816 -0.3313 -0.6251
  859MPD2    H512672   2.778   1.430  15.043 -0.2986  0.7413  2.1675
  859MPD2    N112673   2.441   1.896  15.003 -0.5621  0.3488 -0.3764
  859MPD2    H712674   2.419   1.975  15.063  0.1044 -0.3611  0.8004
  860MPD2     C12675   0.827   2.609  11.612  0.0414 -0.0531  0.0051
  860MPD2    C112676   0.755   2.719  11.658  0.1003 -0.4004  0.5929
  860MPD2    C212677   0.620   2.699  11.698  0.3211 -0.1260 -0.3827
  860MPD2    C312678   0.563   2.572  11.698 -0.0341  0.1757  0.3485
  860MPD2    C412679   0.634   2.465  11.652  0.3524 -0.0001 -0.0630
  860MPD2    C512680   0.762   2.489  11.604  0.4437 -0.8533  0.4664
  860MPD2     H12681   0.564   2.788  11.723 -0.2031  0.1753 -2.6969
  860MPD2    H112682   0.603   2.362  11.665  2.3046 -0.8451 -2.0466
  860MPD2    H212683   0.926   2.619  11.568 -0.7893  1.5716 -1.4894
  860MPD2    H312684   0.816   2.401  11.572 -0.0437 -0.7142 -0.7603
  860MPD2     N12685   0.432   2.558  11.755 -0.1903  0.1048  0.5648
  860MPD2    H512686   0.395   2.643  11.797  0.2667  0.7502 -0.3310
  860MPD2    N112687   0.815   2.847  11.660  0.2947 -0.0334  0.3402
  860MPD2    H712688   0.752   2.925  11.677  3.0844  1.9721  1.4986
  861MPD2     C12689   4.189   0.381  11.139  0.7617  0.2098 -0.4601
  861MPD2    C112690   4.259   0.506  11.133  0.3226  0.1107  0.5112
  861MPD2    C212691   4.244   0.591  11.022 -0.4079 -0.0031 -0.2735
  861MPD2    C312692   4.148   0.554  10.923  0.9450  0.2060  0.6003
  861MPD2    C412693   4.081   0.429  10.937  0.1264  0.6081 -0.1363
  861MPD2    C512694   4.098   0.346  11.046 -0.0742 -0.2786  0.5526
  861MPD2     H12695   4.279   0.693  11.023  0.5369 -0.3378  1.1818
  861MPD2    H112696   4.022   0.381  10.860  2.0257 -2.0021  0.0430
  861MPD2    H212697   4.201   0.302  11.213 -0.1905  1.1962  0.7528
  861MPD2    H312698   4.040   0.254  11.049 -0.1902 -0.2076  0.4909
  861MPD2     N12699   4.101   0.632  10.814  0.2535  0.5520 -0.6279
  861MPD2    H512700   4.024   0.599  10.757 -0.0526  0.7061 -0.2975
  861MPD2    N112701   4.346   0.542  11.235  0.5476 -0.4189  0.4068
  861MPD2    H712702   4.405   0.623  11.215 -0.7274  0.7711  1.4698
  862MPD2     C12703   3.718   0.467  10.276 -0.5488 -0.0065  0.2449
  862MPD2    C112704   3.815   0.470  10.372 -0.1226 -0.3276 -0.7532
  862MPD2    C212705   3.830   0.367  10.463 -0.2533 -0.6022  0.6033
  862MPD2    C312706   3.736   0.261  10.468  0.1277  0.5878  0.1952
  862MPD2    C412707   3.632   0.262  10.375 -0.2163  0.4374 -0.1292
  862MPD2    C512708   3.626   0.361  10.279  0.2528  0.1034 -0.3998
  862MPD2     H12709   3.901   0.368  10.545  1.6933  0.6478 -1.1152
  862MPD2    H112710   3.550   0.192  10.387 -0.5243  1.0403  1.3752
  862MPD2    H212711   3.697   0.540  10.198  1.4484 -0.8067 -1.0118
  862MPD2    H312712   3.542   0.362  10.211  1.2572 -0.9298 -1.6397
  862MPD2     N12713   3.730   0.181  10.578 -0.3821  0.1757 -0.6472
  862MPD2    H512714   3.643   0.132  10.596 -0.4913  0.6937  0.2206
  862MPD2    N112715   3.906   0.573  10.395 -0.0738 -0.0022  0.3118
  862MPD2    H712716   3.992   0.546  10.442  0.6621  2.3195  0.2595
  863MPD2     C12717   1.535   4.089  17.401 -0.4971  0.0819 -0.0549
  863MPD2    C112718   1.559   3.988  17.320  0.1082 -0.1592  0.6133
  863MPD2    C212719   1.669   3.907  17.345 -0.6164  0.4415 -0.7771
  863MPD2    C312720   1.766   3.956  17.437 -0.3299  0.4325  0.1854
  863MPD2    C412721   1.739   4.064  17.517 -0.1091  0.1990  0.2149
  863MPD2    C512722   1.623   4.130  17.497 -0.0626  0.5646 -0.0831
  863MPD2     H12723   1.685   3.810  17.300 -0.6724  0.8337 -1.6467
  863MPD2    H112724   1.806   4.083  17.600  1.3521 -0.1125 -0.8805
  863MPD2    H212725   1.440   4.140  17.395 -1.2482 -1.3534 -0.2928
  863MPD2    H312726   1.608   4.216  17.562 -0.5953  0.7508 -0.4620
  863MPD2     N12727   1.889   3.890  17.446 -0.0216  0.2116  0.2070
  863MPD2    H512728   1.896   3.811  17.383 -1.1886 -1.5646  2.3352
  863MPD2    N112729   1.459   3.962  17.225  0.5547  0.1240  0.1279
  863MPD2    H712730   1.382   4.028  17.222 -1.0518 -1.7673 -0.3943
  864MPD2     C12731   2.222   0.219  16.684  0.5090 -0.3756  0.3972
  864MPD2    C112732   2.324   0.160  16.608  0.2718  0.0726 -0.5038
  864MPD2    C212733   2.449   0.222  16.597  0.4794 -0.7018  0.0737
  864MPD2    C312734   2.468   0.340  16.658 -0.4912 -0.7457  0.4115
  864MPD2    C412735   2.362   0.393  16.736 -0.7633 -0.4003 -0.2708
  864MPD2    C512736   2.242   0.339  16.753 -0.4229 -1.5185 -0.7867
  864MPD2     H12737   2.537   0.179  16.549  0.1347 -1.8048  0.4423
  864MPD2    H112738   2.374   0.488  16.787 -1.3861 -0.4691 -0.0009
  864MPD2    H212739   2.124   0.173  16.677  0.1332  0.2278  1.7485
  864MPD2    H312740   2.167   0.390  16.812  1.1606 -0.5724  0.3924
  864MPD2     N12741   2.581   0.430  16.651 -0.2014  0.1826  0.2298
  864MPD2    H512742   2.570   0.522  16.693 -2.6957 -1.0321  2.2319
  864MPD2    N112743   2.293   0.051  16.518  0.6115  0.4149  0.1113
  864MPD2    H712744   2.197   0.018  16.520  0.9971 -0.6306  1.2838
  865MPD2     C12745   2.782   0.925  15.859  0.3115  0.1964 -0.2504
  865MPD2    C112746   2.788   0.792  15.885 -0.4844 -0.0871  0.3313
  865MPD2    C212747   2.758   0.749  16.010 -0.1787  0.0557 -0.0610
  865MPD2    C312748   2.751   0.836  16.120  0.3276  0.0692 -0.1123
  865MPD2    C412749   2.759   0.972  16.095 -0.6714  0.1801  0.5198
  865MPD2    C512750   2.766   1.014  15.963 -0.2826  0.4538 -0.3146
  865MPD2     H12751   2.755   0.641  16.019  0.1201  0.0022 -0.6193
  865MPD2    H112752   2.752   1.049  16.171 -1.1084  0.7189 -0.0600
  865MPD2    H212753   2.799   0.965  15.759 -0.0059  0.0805 -0.3544
  865MPD2    H312754   2.765   1.120  15.941  0.9002  0.5101 -0.1319
  865MPD2     N12755   2.757   0.791  16.252  0.2452  0.4755  0.1690
  865MPD2    H512756   2.774   0.861  16.323 -0.0191  0.3718  0.3349
  865MPD2    N112757   2.826   0.700  15.783 -0.4255 -0.4845  0.3651
  865MPD2    H712758   2.891   0.726  15.709 -2.3131 -1.5562 -1.6483
  866MPD2     C12759   0.271   0.902  11.113  0.5878 -0.2368 -0.6663
  866MPD2    C112760   0.198   0.821  11.192 -0.4658 -0.3798 -0.3408
  866MPD2    C212761   0.057   0.839  11.189 -0.0860 -0.0152  0.5138
  866MPD2    C312762   4.732   0.931  11.103  0.1596 -0.3770 -0.3173
  866MPD2    C412763   0.079   1.014  11.031  0.5677  0.4882 -0.1961
  866MPD2    C512764   0.212   1.002  11.038  0.4534 -0.3260  0.3764
  866MPD2     H12765   0.002   0.770  11.252  0.6812  1.0481  2.3377
  866MPD2    H112766   0.036   1.096  10.975  2.8103  1.3351 -0.6736
  866MPD2    H212767   0.379   0.913  11.124  0.1367  0.8995  2.7053
  866MPD2    H312768   0.268   1.070  10.975 -0.7606  1.1138  0.8499
  866MPD2     N12769   4.595   0.959  11.102 -0.1371 -0.4965  0.1157
  866MPD2    H512770   4.560   1.018  11.028  1.5988  0.4006  0.0037
  866MPD2    N112771   0.274   0.724  11.264 -1.0637 -0.0194 -0.0410
  866MPD2    H712772   0.370   0.725  11.231 -0.6920  3.7146  1.2093
  867MPD2     C12773   0.789   0.112  16.807 -0.7984  0.1974 -0.0934
  867MPD2    C112774   0.884   0.145  16.892 -0.9924 -0.0222  0.3760
  867MPD2    C212775   0.866   0.238  16.994  0.3448 -0.5532  0.8184
  867MPD2    C312776   0.747   0.310  16.997  0.3820 -0.1686 -0.2599
  867MPD2    C412777   0.654   0.273  16.905 -0.4217  0.5047  0.4449
  867MPD2    C512778   0.672   0.176  16.815 -0.2035 -0.1142 -0.7857
  867MPD2     H12779   0.943   0.261  17.067  1.0308  0.3432 -0.1931
  867MPD2    H112780   0.558   0.321  16.919  0.4702  1.5554  2.8196
  867MPD2    H212781   0.799   0.032  16.734 -0.8036  0.6576 -0.5978
  867MPD2    H312782   0.588   0.143  16.755 -0.4669 -0.9209  0.0212
  867MPD2     N12783   0.714   0.414  17.087 -0.0029 -0.1987  0.0776
  867MPD2    H512784   0.628   0.466  17.078 -0.6671 -1.2927  0.0816
  867MPD2    N112785   1.000   0.063  16.882  0.1954 -0.0110  0.2895
  867MPD2    H712786   0.999   4.732  16.807 -1.9793  2.8856 -2.2990
  868MPD2     C12787   3.053   3.547  13.019 -0.2544  0.1633 -0.3282
  868MPD2    C112788   3.154   3.634  13.056 -0.1440 -0.1167  0.1523
  868MPD2    C212789   3.132   3.717  13.171 -0.0846 -0.4021 -0.6489
  868MPD2    C312790   3.011   3.706  13.246 -0.5621  0.0096 -0.0428
  868MPD2    C412791   2.917   3.620  13.201 -0.1162 -0.2019 -0.0137
  868MPD2    C512792   2.933   3.540  13.090  0.7596 -0.2302  0.5938
  868MPD2     H12793   3.208   3.786  13.204  0.0052 -0.6652 -0.3130
  868MPD2    H112794   2.816   3.612  13.240  1.0222 -1.5993  2.6346
  868MPD2    H212795   3.066   3.484  12.932  1.1943  1.7355 -1.2404
  868MPD2    H312796   2.848   3.483  13.056  1.0812  0.0337 -0.6485
  868MPD2     N12797   2.996   3.772  13.370 -0.1726  1.0677 -0.0896
  868MPD2    H512798   3.072   3.833  13.400  0.5865  0.3061 -0.4427
  868MPD2    N112799   3.277   3.632  12.985 -0.4534  0.6147  0.5959
  868MPD2    H712800   3.273   3.560  12.913 -1.3607 -0.3498  1.6207
  869MPD2     C12801   3.637   1.813   0.754  0.5342  0.0581  0.7441
  869MPD2    C112802   3.685   1.892   0.856 -0.3873  0.3845 -0.1648
  869MPD2    C212803   3.776   1.845   0.949 -0.2192 -0.0710  0.4091
  869MPD2    C312804   3.815   1.715   0.938 -0.2664 -0.1699 -0.5218
  869MPD2    C412805   3.765   1.638   0.835 -0.0769 -0.0269 -0.0419
  869MPD2    C512806   3.674   1.684   0.747 -0.2952  0.5488  0.5271
  869MPD2     H12807   3.787   1.908   1.037  0.5076  0.0409  0.2298
  869MPD2    H112808   3.776   1.530   0.836 -0.2783 -0.0294  2.3218
  869MPD2    H212809   3.565   1.872   0.698 -1.1452 -2.2033  0.5262
  869MPD2    H312810   3.630   1.614   0.677 -0.4115  0.4831  0.6651
  869MPD2     N12811   3.882   1.640   1.042  0.2101  0.1236 -0.5299
  869MPD2    H512812   3.885   1.539   1.028  2.5298 -0.1796  2.1193
  869MPD2    N112813   3.645   2.029   0.872  0.2587 -0.4986  0.7706
  869MPD2    H712814   3.568   2.065   0.816 -1.0062 -3.8660  0.3042
  870MPD2     C12815   3.611   0.889   1.140 -0.3085 -0.0802 -0.1893
  870MPD2    C112816   3.564   0.770   1.096 -0.6287 -0.1418  0.9378
  870MPD2    C212817   3.469   0.774   0.998 -0.3515  0.1481 -0.4546
  870MPD2    C312818   3.426   0.892   0.945 -0.5309 -0.1998 -0.2176
  870MPD2    C412819   3.482   1.009   0.990  0.2106  0.2721 -0.5550
  870MPD2    C512820   3.575   1.008   1.090  0.3528 -0.0375  0.2241
  870MPD2     H12821   3.422   0.680   0.973  1.3057 -1.4107  2.2193
  870MPD2    H112822   3.458   1.102   0.940  0.5564  0.2109 -0.8352
  870MPD2    H212823   3.688   0.894   1.216  0.2032 -1.2223 -0.6338
  870MPD2    H312824   3.618   1.102   1.124  1.0245  0.7299 -2.7631
  870MPD2     N12825   3.334   0.891   0.837  0.6491 -0.1531 -0.2903
  870MPD2    H512826   3.299   0.803   0.799 -2.4604  1.1133 -0.4147
  870MPD2    N112827   3.615   0.652   1.159 -0.3955 -0.5083 -0.3847
  870MPD2    H712828   3.676   0.657   1.240  0.7407  0.9998 -1.3268
  871MPD2     C12829   0.297   0.192  16.008 -0.5260 -0.2483 -0.3922
  871MPD2    C112830   0.278   0.102  16.107 -0.1678 -0.3088  0.5508
  871MPD2    C212831   0.333   4.709  16.105  1.2541  0.5208  0.3418
  871MPD2    C312832   0.390   4.669  15.986 -0.4580 -0.3477  0.4088
  871MPD2    C412833   0.410   0.025  15.875 -0.5911  1.1175 -0.0678
  871MPD2    C512834   0.368   0.152  15.893 -0.8535 -0.6692 -0.3603
  871MPD2     H12835   0.318   4.640  16.187  0.8045 -0.7217 -0.7888
  871MPD2    H112836   0.473   4.733  15.793 -0.0944  1.7465  0.0965
  871MPD2    H212837   0.235   0.281  16.000 -0.9809 -0.3946  1.6436
  871MPD2    H312838   0.375   0.230  15.818  3.1539 -0.6833  0.0097
  871MPD2     N12839   0.439   4.533  15.979  0.3249  0.0836  0.4671
  871MPD2    H512840   0.430   4.481  16.066 -1.6281 -1.1035 -0.4462
  871MPD2    N112841   0.201   0.140  16.216 -0.0982  0.7026  0.1721
  871MPD2    H712842   0.140   0.219  16.196 -2.2876 -0.9445  0.3032
  872MPD2     C12843   1.577   3.151  14.361 -0.1766 -0.1655  0.0551
  872MPD2    C112844   1.554   3.050  14.273 -0.1280  0.0795 -0.5147
  872MPD2    C212845   1.432   3.032  14.212 -0.2129 -0.8308  0.2035
  872MPD2    C312846   1.330   3.122  14.244 -0.2898 -0.1279 -0.2635
  872MPD2    C412847   1.358   3.232  14.315 -0.2031  0.5691  0.4854
  872MPD2    C512848   1.484   3.248  14.380  0.0650 -0.3167  0.1164
  872MPD2     H12849   1.407   2.959  14.136  1.3269 -1.4139  0.2595
  872MPD2    H112850   1.282   3.305  14.340 -1.1768  0.9034 -3.4631
  872MPD2    H212851   1.671   3.168  14.413 -0.1842 -0.4500  0.1652
  872MPD2    H312852   1.506   3.337  14.437 -0.9014  0.3943 -0.6342
  872MPD2     N12853   1.188   3.114  14.211  0.6698  0.2384  1.0271
  872MPD2    H512854   1.124   3.175  14.259  0.2637  1.3908 -0.9877
  872MPD2    N112855   1.657   2.949  14.250  0.1778 -0.2703  0.2140
  872MPD2    H712856   1.625   2.868  14.198 -2.5351 -0.0693  1.5725
  873MPD2     C12857   2.920   2.369   1.274 -0.3441  0.2331 -0.3434
  873MPD2    C112858   2.787   2.401   1.300 -0.0678  0.2942  1.0501
  873MPD2    C212859   2.694   2.297   1.266 -0.1573  0.1088  0.2262
  873MPD2    C312860   2.732   2.179   1.201 -0.1091 -0.7627  0.0590
  873MPD2    C412861   2.867   2.152   1.194 -0.0589  0.1369  0.1957
  873MPD2    C512862   2.958   2.247   1.228  0.5193 -0.1765 -0.3218
  873MPD2     H12863   2.587   2.313   1.268 -0.3083 -0.7937 -0.4015
  873MPD2    H112864   2.911   2.063   1.149 -0.7906  0.4900 -1.2429
  873MPD2    H212865   3.001   2.438   1.292 -0.4648  0.3426 -0.2207
  873MPD2    H312866   3.062   2.230   1.203  0.9985 -1.7702  2.7568
  873MPD2     N12867   2.637   2.092   1.154 -0.4304 -0.3844 -0.2834
  873MPD2    H512868   2.666   2.009   1.104  1.4909 -0.7771  1.5105
  873MPD2    N112869   2.747   2.526   1.362  0.5892  0.3738 -0.0125
  873MPD2    H712870   2.824   2.582   1.399  0.2740  0.2575  0.8287
  874MPD2     C12871   2.196   3.314  16.698  0.2959 -0.2730  0.5431
  874MPD2    C112872   2.274   3.227  16.631 -1.0287 -0.1553 -0.4689
  874MPD2    C212873   2.407   3.268  16.590  0.3325 -0.6298  0.0897
  874MPD2    C312874   2.455   3.394  16.618  0.1104  0.2171  0.5348
  874MPD2    C412875   2.375   3.471  16.698  0.1423  0.0911 -0.0345
  874MPD2    C512876   2.251   3.429  16.739  0.8669 -0.1121  0.3705
  874MPD2     H12877   2.478   3.208  16.534  1.0290 -0.0849  0.3985
  874MPD2    H112878   2.402   3.569  16.736 -1.7111  0.9045 -0.8131
  874MPD2    H212879   2.092   3.292  16.721 -0.4935  2.6502 -0.1789
  874MPD2    H312880   2.192   3.511  16.780  0.2209 -1.0085  1.2204
  874MPD2     N12881   2.588   3.415  16.582  0.6877 -0.1871 -0.6563
  874MPD2    H512882   2.637   3.335  16.542  1.9149 -0.2068  0.9055
  874MPD2    N112883   2.227   3.098  16.613  0.5819 -0.1560  0.6396
  874MPD2    H712884   2.142   3.069  16.660  0.8093  0.3578  1.3703
  875MPD2     C12885   3.198   1.044  14.863 -0.0072  0.1761 -0.1042
  875MPD2    C112886   3.243   1.130  14.773 -0.1247  0.3819  0.0596
  875MPD2    C212887   3.325   1.234  14.818 -0.4862 -0.6452 -0.0218
  875MPD2    C312888   3.326   1.266  14.957 -0.1621  0.4472 -0.5955
  875MPD2    C412889   3.241   1.196  15.042 -0.2786  0.7194 -0.2287
  875MPD2    C512890   3.177   1.085  14.992  0.0293  0.5642  0.0049
  875MPD2     H12891   3.378   1.288  14.740 -0.4307 -0.7536 -0.0593
  875MPD2    H112892   3.241   1.220  15.147  2.0538 -0.8840  0.1434
  875MPD2    H212893   3.162   0.944  14.842 -0.7194  0.5181 -0.5190
  875MPD2    H312894   3.126   1.017  15.058  0.0366  0.9847  0.4400
  875MPD2     N12895   3.407   1.371  15.008  0.2065 -0.0250  0.4087
  875MPD2    H512896   3.392   1.407  15.102 -0.4951 -0.0402  0.2991
  875MPD2    N112897   3.237   1.097  14.633  0.3771  0.1905 -0.1044
  875MPD2    H712898   3.292   1.153  14.568  0.6169 -1.7452 -1.5767
  876MPD2     C12899   2.690   2.593  15.929  0.2651 -0.9445 -0.7092
  876MPD2    C112900   2.575   2.575  15.856 -0.0917 -0.4600  0.2125
  876MPD2    C212901   2.515   2.451  15.861  0.0711  0.2262 -0.6063
  876MPD2    C312902   2.563   2.352  15.942  0.5305  0.6040  0.2548
  876MPD2    C412903   2.671   2.380  16.022  0.3222 -0.2148 -0.0472
  876MPD2    C512904   2.734   2.499  16.016 -0.5428 -0.6693 -0.0081
  876MPD2     H12905   2.429   2.425  15.801 -1.0653 -0.1780  1.2031
  876MPD2    H112906   2.719   2.304  16.083  0.2228  1.5305  2.2260
  876MPD2    H212907   2.750   2.684  15.932 -0.3574 -0.5742  0.6536
  876MPD2    H312908   2.830   2.500  16.066 -1.7476  1.7217  2.2503
  876MPD2     N12909   2.498   2.229  15.939  0.4161  0.1052  0.3482
  876MPD2    H512910   2.429   2.213  15.866 -2.2317  0.3223  2.8254
  876MPD2    N112911   2.540   2.680  15.768  0.1394 -0.1762  0.0237
  876MPD2    H712912   2.609   2.754  15.775 -0.7693  0.5513  1.3479
  877MPD2     C12913   2.894   2.898  15.188  0.2044 -0.2627 -0.8399
  877MPD2    C112914   2.762   2.888  15.140 -0.3681  0.0304  1.1707
  877MPD2    C212915   2.732   2.871  15.008  0.7044 -0.8599 -1.1090
  877MPD2    C312916   2.837   2.865  14.919 -0.4036 -0.5367 -0.0407
  877MPD2    C412917   2.966   2.887  14.957  0.1848  0.3694  0.6951
  877MPD2    C512918   2.992   2.896  15.094 -0.5154  0.2470 -0.4307
  877MPD2     H12919   2.630   2.862  14.973  0.5497  0.1280 -0.9046
  877MPD2    H112920   3.042   2.881  14.880  0.0684 -2.2072  0.7969
  877MPD2    H212921   2.928   2.912  15.290 -2.1405  4.8324 -0.7476
  877MPD2    H312922   3.094   2.914  15.125 -1.0107 -1.2626  2.1141
  877MPD2     N12923   2.824   2.842  14.779 -0.1461  0.3236 -0.3015
  877MPD2    H512924   2.906   2.840  14.719 -0.9202  0.0151 -1.3557
  877MPD2    N112925   2.654   2.896  15.232  0.0262  0.5685 -0.0971
  877MPD2    H712926   2.559   2.905  15.198 -1.0472  0.5563  2.8543
  878MPD2     C12927   3.058   1.788  13.076  0.1248 -0.1014 -0.4989
  878MPD2    C112928   2.943   1.851  13.109 -0.1253 -0.8720  0.5053
  878MPD2    C212929   2.847   1.773  13.165 -0.1740 -0.0212 -0.2724
  878MPD2    C312930   2.857   1.639  13.202 -0.4412  0.6397 -0.3184
  878MPD2    C412931   2.979   1.581  13.156  0.1118  0.2081  0.1400
  878MPD2    C512932   3.077   1.655  13.099  0.0723  0.8241 -0.3891
  878MPD2     H12933   2.750   1.811  13.193 -0.3757 -0.2525 -0.6486
  878MPD2    H112934   2.999   1.475  13.168 -0.8724 -0.4361 -3.8604
  878MPD2    H212935   3.136   1.833  13.014  0.6024  0.5618  0.5837
  878MPD2    H312936   3.160   1.599  13.057 -1.2423 -2.4110  1.2813
  878MPD2     N12937   2.752   1.566  13.268 -0.6827 -0.8123  0.8530
  878MPD2    H512938   2.671   1.626  13.280 -0.4345 -0.0663 -1.2586
  878MPD2    N112939   2.933   1.988  13.079 -0.1320  0.2412 -0.2004
  878MPD2    H712940   3.011   2.036  13.035  0.4738  0.5363  1.2236
  879MPD2     C12941   2.412   3.932   0.422  0.5080 -0.5477  0.2633
  879MPD2    C112942   2.452   3.812   0.477 -0.4051  0.2376 -0.5870
  879MPD2    C212943   2.501   3.709   0.392  0.0561  0.0773 -0.6069
  879MPD2    C312944   2.501   3.726   0.257 -0.3529 -0.7822 -0.4937
  879MPD2    C412945   2.457   3.842   0.202  0.4429  0.4806  0.6792
  879MPD2    C512946   2.406   3.941   0.289 -0.5853  0.2883  0.1602
  879MPD2     H12947   2.534   3.616   0.436  1.1058 -0.0137 -1.5527
  879MPD2    H112948   2.467   3.855   0.095 -2.4093 -1.5585  0.1777
  879MPD2    H212949   2.368   4.013   0.480  0.3791  0.0888 -0.7018
  879MPD2    H312950   2.359   4.034   0.257 -0.3686  0.3840  0.1181
  879MPD2     N12951   2.537   3.629   0.162 -0.2232  0.3521 -0.5542
  879MPD2    H512952   2.538   3.662   0.066 -1.4509  0.7808 -0.4139
  879MPD2    N112953   2.457   3.789   0.615  0.1456 -0.0597 -0.0502
  879MPD2    H712954   2.469   3.698   0.657  0.8773 -0.8539 -1.9853
  880MPD2     C12955   4.049   4.732  17.455 -0.3356 -0.2580 -0.3870
  880MPD2    C112956   4.070   0.036  17.580 -0.0466  0.5232  0.3225
  880MPD2    C212957   4.151   4.703  17.662 -0.1352  0.5747  0.4887
  880MPD2    C312958   4.203   4.578  17.617  0.8702  0.1723  0.3370
  880MPD2    C412959   4.165   4.521  17.501 -0.2335 -0.2447  0.3607
  880MPD2    C512960   4.091   4.604  17.422 -0.3110  0.1693 -0.0159
  880MPD2     H12961   4.174   4.736   0.016  1.1352 -0.4132  0.5229
  880MPD2    H112962   4.192   4.421  17.468  0.5303  0.4465 -1.0897
  880MPD2    H212963   3.991   0.053  17.384 -1.3871 -0.9156 -0.0727
  880MPD2    H312964   4.070   4.578  17.319  1.8552  0.7830 -0.6173
  880MPD2     N12965   4.283   4.516  17.713  0.4411 -0.0008 -0.1043
  880MPD2    H512966   4.297   4.559   0.058  0.8916 -2.9902  1.2538
  880MPD2    N112967   4.015   0.161  17.618  0.1905  0.1142 -0.3430
  880MPD2    H712968   3.971   0.211  17.541 -0.2640 -0.3255 -0.3703
  881MPD2     C12969   4.088   1.132  17.391  0.0758  0.4640  0.3619
  881MPD2    C112970   4.100   1.018  17.324  0.0067 -0.1494 -0.7542
  881MPD2    C212971   4.073   0.896  17.394 -0.5770  0.6372 -0.5092
  881MPD2    C312972   4.048   0.889  17.525  0.0222 -0.0593 -0.5261
  881MPD2    C412973   4.040   1.008  17.593  0.0701  0.0981  0.6960
  881MPD2    C512974   4.061   1.124  17.525  0.0457 -0.5464  0.1964
  881MPD2     H12975   4.083   0.806  17.335  0.2538  0.1369  0.3972
  881MPD2    H112976   4.022   1.014  17.700  1.7854  2.8897  0.8549
  881MPD2    H212977   4.130   1.226  17.355 -1.6224  1.1007  0.0264
  881MPD2    H312978   4.059   1.218  17.580 -1.2049  1.1518 -2.7036
  881MPD2     N12979   4.017   0.774  17.602  0.3530 -0.2609  0.1773
  881MPD2    H512980   3.992   0.793  17.699  0.2184 -1.6124  0.4058
  881MPD2    N112981   4.165   1.026  17.195  0.3454  0.2676 -0.3571
  881MPD2    H712982   4.199   1.116  17.165 -1.7388  1.3474  0.4996
  882MPD2     C12983   2.289   2.443  14.138  0.0614  0.4442  0.1906
  882MPD2    C112984   2.299   2.509  14.259 -0.6413 -0.5685  0.4454
  882MPD2    C212985   2.182   2.542  14.324 -0.3620 -0.5754 -0.3686
  882MPD2    C312986   2.057   2.511  14.277  0.8318  0.4305  0.2750
  882MPD2    C412987   2.049   2.458  14.150 -0.0559  0.3020 -0.2264
  882MPD2    C512988   2.164   2.422  14.083  0.2260  0.2721 -0.0557
  882MPD2     H12989   2.184   2.589  14.422  0.6073 -2.1243  0.3467
  882MPD2    H112990   1.956   2.433  14.100 -0.4845 -0.5854  1.0348
  882MPD2    H212991   2.381   2.415  14.087 -0.1678 -0.0840  0.0657
  882MPD2    H312992   2.154   2.355  13.998 -1.2267  0.4386 -0.0182
  882MPD2     N12993   1.936   2.529  14.346  0.4880  0.1320 -0.5481
  882MPD2    H512994   1.850   2.521  14.293  0.9208  1.1090 -1.4015
  882MPD2    N112995   2.427   2.546  14.309  0.7482  0.1740  0.5695
  882MPD2    H712996   2.501   2.501  14.257  0.6299  0.5695  0.0613
  883MPD2     C12997   4.240   3.387  16.151  0.0294  0.7930  0.7050
  883MPD2    C112998   4.372   3.346  16.130  0.9072 -0.2417 -0.2983
  883MPD2    C212999   4.454   3.305  16.232  0.4513  0.0373 -0.1328
  883MPD2    C313000   4.400   3.295  16.358  0.7172 -0.0790  0.0467
  883MPD2    C413001   4.276   3.338  16.387  0.3026  0.1560  0.1496
  883MPD2    C513002   4.197   3.386  16.286 -1.0651 -0.3973 -0.5788
  883MPD2     H13003   4.544   3.249  16.210  1.3117  0.8569  1.3546
  883MPD2    H113004   4.240   3.348  16.489 -0.3980  1.1961 -0.1997
  883MPD2    H213005   4.168   3.411  16.074  1.4403 -1.5223 -1.3140
  883MPD2    H313006   4.092   3.410  16.300 -1.7722 -1.9536 -3.1393
  883MPD2     N13007   4.482   3.244  16.456 -0.2743  0.1257 -0.4402
  883MPD2    H513008   4.580   3.246  16.429  0.7422 -1.2653  3.0107
  883MPD2    N113009   4.410   3.335  15.992  0.8381  0.4082  0.3065
  883MPD2    H713010   4.341   3.367  15.926  1.7068  1.4154 -0.1143
  884MPD2     C13011   1.672   3.577  15.987 -0.4112 -0.0722 -0.0904
  884MPD2    C113012   1.713   3.662  15.884 -0.3699  0.5745 -0.1961
  884MPD2    C213013   1.609   3.711  15.809 -0.1404  0.4143  0.0072
  884MPD2    C313014   1.478   3.688  15.833  0.3630  0.0905  0.3473
  884MPD2    C413015   1.446   3.613  15.946  0.4446 -0.2726  0.3627
  884MPD2    C513016   1.538   3.552  16.016 -0.1019 -0.0140  0.9896
  884MPD2     H13017   1.624   3.764  15.715 -0.2510  1.4171  0.5594
  884MPD2    H113018   1.345   3.589  15.980  1.0469 -0.7085  1.8457
  884MPD2    H213019   1.752   3.533  16.046  1.3389 -1.6053 -3.5876
  884MPD2    H313020   1.501   3.489  16.095 -2.1445  1.3610  1.1382
  884MPD2     N13021   1.380   3.736  15.744 -0.6553 -0.1701 -0.5851
  884MPD2    H513022   1.419   3.783  15.663 -0.0529  3.2656  1.6509
  884MPD2    N113023   1.845   3.691  15.840  0.2740  0.3616  0.1767
  884MPD2    H713024   1.855   3.746  15.755  1.3624 -0.7457 -0.4091
  885MPD2     C13025   4.349   3.187   0.248 -0.1641  0.3412 -0.2931
  885MPD2    C113026   4.422   3.292   0.296  0.5262  0.4575 -0.1433
  885MPD2    C213027   4.443   3.400   0.203 -0.3877  0.1085 -0.4942
  885MPD2    C313028   4.386   3.404   0.076  0.2762  0.1300 -0.8955
  885MPD2    C413029   4.318   3.291   0.032 -0.3233  0.1571  0.3640
  885MPD2    C513030   4.290   3.193   0.123 -0.0349  0.0041 -0.3118
  885MPD2     H13031   4.505   3.484   0.231  0.3573 -0.4890 -0.3383
  885MPD2    H113032   4.269   3.293  17.681 -0.9208  1.7113  0.6955
  885MPD2    H213033   4.333   3.099   0.309 -1.4446  0.1605 -0.8875
  885MPD2    H313034   4.230   3.106   0.098 -0.1118  0.1823 -0.7481
  885MPD2     N13035   4.424   3.511  17.733  0.1107 -0.2378 -0.2252
  885MPD2    H513036   4.493   3.578   0.018 -0.1292  0.0467 -0.3096
  885MPD2    N113037   4.479   3.283   0.428  0.8829 -0.9851  0.0814
  885MPD2    H713038   4.467   3.191   0.469 -1.3156 -0.4813  0.5825
  886MPD2     C13039   1.588   2.598  15.726  0.2028  0.2307  0.1656
  886MPD2    C113040   1.540   2.489  15.657 -0.5302 -0.0070 -0.2567
  886MPD2    C213041   1.504   2.506  15.521 -0.0834  0.2889 -0.3385
  886MPD2    C313042   1.535   2.625  15.455  0.3150 -0.5080 -0.2271
  886MPD2    C413043   1.579   2.734  15.526 -0.2471  0.7711  0.4429
  886MPD2    C513044   1.603   2.717  15.659  0.3220 -0.3737  0.1505
  886MPD2     H13045   1.460   2.427  15.461  1.5123 -0.0058 -1.1114
  886MPD2    H113046   1.619   2.824  15.481 -0.1130  0.4839 -0.0037
  886MPD2    H213047   1.599   2.587  15.833 -0.0699 -0.5708  0.1155
  886MPD2    H313048   1.640   2.803  15.713 -1.2719  0.3517  0.0729
  886MPD2     N13049   1.499   2.633  15.318 -0.1380  0.3694 -0.1540
  886MPD2    H513050   1.459   2.550  15.275  0.4435 -0.3234  0.6581
  886MPD2    N113051   1.509   2.364  15.712 -0.1609 -0.0806 -0.1594
  886MPD2    H713052   1.435   2.313  15.665 -3.0129  1.0902  3.0399
  887MPD2     C13053   1.906   2.243  16.328 -0.4210  0.0850 -0.3001
  887MPD2    C113054   1.845   2.299  16.218 -0.0833 -0.6320 -0.2373
  887MPD2    C213055   1.891   2.423  16.174 -0.2501 -0.1589  0.3130
  887MPD2    C313056   1.992   2.493  16.233  0.0753  0.2984 -0.0270
  887MPD2    C413057   2.056   2.439  16.338  0.9833 -0.0459  0.4460
  887MPD2    C513058   2.020   2.304  16.377 -0.1705  0.1312  0.3967
  887MPD2     H13059   1.852   2.466  16.083  1.0745 -0.7891 -0.5574
  887MPD2    H113060   2.144   2.478  16.388  1.4731 -1.0913  0.3903
  887MPD2    H213061   1.857   2.159  16.375 -0.1144  1.5380  2.6926
  887MPD2    H313062   2.064   2.273  16.472  1.9379 -0.3046 -0.7244
  887MPD2     N13063   2.002   2.629  16.194 -0.4718  0.0170 -0.5515
  887MPD2    H513064   1.924   2.676  16.151 -0.9235  0.8926  1.2616
  887MPD2    N113065   1.739   2.237  16.157 -0.1661  0.2263  0.1361
  887MPD2    H713066   1.693   2.284  16.079 -1.1916  2.7031  2.2243
  888MPD2     C13067   3.410   2.275  14.814 -0.0815 -0.0126 -0.0572
  888MPD2    C113068   3.435   2.326  14.939  0.3122 -0.2654 -0.2434
  888MPD2    C213069   3.490   2.453  14.950  0.3951 -0.1193  0.0238
  888MPD2    C313070   3.528   2.531  14.836 -0.6566  0.4537  0.1756
  888MPD2    C413071   3.511   2.470  14.713 -0.0220 -0.1270  0.1027
  888MPD2    C513072   3.438   2.345  14.708  0.1040 -0.3712 -0.1720
  888MPD2     H13073   3.504   2.490  15.051 -0.6789  0.2535  0.0283
  888MPD2    H113074   3.536   2.520  14.620 -3.7799 -2.1297 -2.0073
  888MPD2    H213075   3.375   2.175  14.791  1.6154 -0.7462  0.5480
  888MPD2    H313076   3.428   2.296  14.612 -1.3072  1.3994 -0.9293
  888MPD2     N13077   3.588   2.660  14.855  0.3734 -0.1886  0.1509
  888MPD2    H513078   3.613   2.693  14.947  3.1707 -2.6481  0.2583
  888MPD2    N113079   3.427   2.245  15.052 -0.0803  0.2780 -0.3874
  888MPD2    H713080   3.455   2.288  15.139  1.5096  0.7921 -1.1630
  889MPD2     C13081   3.539   1.869  12.920  0.1831  0.3526  0.7666
  889MPD2    C113082   3.470   1.776  13.000 -0.4792 -0.1838  0.3898
  889MPD2    C213083   3.426   1.822  13.124  0.6160  0.4994  0.3154
  889MPD2    C313084   3.395   1.954  13.148  0.5437 -0.6682  0.6540
  889MPD2    C413085   3.448   2.044  13.057 -0.0723  0.2666  0.2042
  889MPD2    C513086   3.517   2.002  12.945 -0.2472 -0.6598 -1.1122
  889MPD2     H13087   3.369   1.753  13.185  0.0339  2.4747  2.0003
  889MPD2    H113088   3.418   2.148  13.059  0.2328  0.3156  2.4569
  889MPD2    H213089   3.578   1.838  12.823 -0.5401 -1.0279  0.9262
  889MPD2    H313090   3.549   2.075  12.871  1.5906 -0.2649  0.0830
  889MPD2     N13091   3.307   1.993  13.253  0.2305  0.1650 -0.3104
  889MPD2    H513092   3.281   1.910  13.305 -0.3639 -0.2347 -1.2720
  889MPD2    N113093   3.505   1.640  12.975 -0.1415  0.5756  0.0467
  889MPD2    H713094   3.566   1.619  12.896 -3.1191 -2.6898 -1.3941
  890MPD2     C13095   3.158   3.743  15.118  0.5273 -0.7889 -0.5939
  890MPD2    C113096   3.036   3.748  15.053 -0.1635  0.0607  0.7599
  890MPD2    C213097   2.920   3.716  15.120  0.0970  0.3986  0.1188
  890MPD2    C313098   2.930   3.666  15.252 -0.1062 -0.4566 -0.1752
  890MPD2    C413099   3.053   3.654  15.317 -1.1397 -0.1631 -0.7608
  890MPD2    C513100   3.166   3.699  15.249  0.4043 -0.0317 -0.2216
  890MPD2     H13101   2.822   3.741  15.082 -0.3815 -1.9706 -0.2105
  890MPD2    H113102   3.076   3.631  15.420 -0.0998 -0.9326 -1.1696
  890MPD2    H213103   3.252   3.769  15.069  0.2201 -0.9551 -1.2742
  890MPD2    H313104   3.259   3.691  15.303  0.8108  0.5768 -0.8351
  890MPD2     N13105   2.809   3.647  15.323 -0.1539 -0.2558 -0.6964
  890MPD2    H513106   2.722   3.675  15.279 -0.7071 -0.2756  0.3682
  890MPD2    N113107   3.043   3.793  14.920  0.0126 -0.1258 -0.4594
  890MPD2    H713108   3.133   3.824  14.886 -0.3161  0.1062 -1.1294
  891MPD2     C13109   0.771   1.975  16.296  0.6071 -0.1684 -0.1000
  891MPD2    C113110   0.677   1.965  16.402  0.1429  0.6965  0.9384
  891MPD2    C213111   0.713   1.893  16.520 -0.1885  0.0322  0.2498
  891MPD2    C313112   0.836   1.824  16.518 -1.1330  0.3435  0.0672
  891MPD2    C413113   0.912   1.812  16.402  0.4126  0.1656 -0.1228
  891MPD2    C513114   0.871   1.880  16.295 -0.4956  0.4793 -0.5970
  891MPD2     H13115   0.642   1.880  16.601  1.7489  0.8419  2.0580
  891MPD2    H113116   1.005   1.757  16.394  0.5017  0.2433  0.3833
  891MPD2    H213117   0.746   2.025  16.203  1.0766 -1.8871 -1.1476
  891MPD2    H313118   0.930   1.868  16.205 -1.1154  0.9468 -1.0655
  891MPD2     N13119   0.874   1.757  16.635  0.2412 -0.6348 -0.0155
  891MPD2    H513120   0.815   1.775  16.716 -0.5688 -0.1387 -0.7117
  891MPD2    N113121   0.553   2.024  16.370 -0.0117  0.3472  0.7565
  891MPD2    H713122   0.556   2.072  16.280 -0.1061 -0.9471  0.0584
  892MPD2     C13123   1.675   3.098  15.133 -0.0251 -0.1224 -0.4664
  892MPD2    C113124   1.573   3.116  15.034 -0.2764  0.8747  0.7708
  892MPD2    C213125   1.580   3.045  14.919  0.5737  0.2262  0.1116
  892MPD2    C313126   1.687   2.960  14.903  0.4252 -0.0054 -0.0184
  892MPD2    C413127   1.798   2.955  14.989  0.3343  0.2729  0.7030
  892MPD2    C513128   1.782   3.023  15.109  0.5812 -1.0969 -0.7334
  892MPD2     H13129   1.505   3.052  14.842  0.9220 -1.9404 -0.4258
  892MPD2    H113130   1.880   2.885  14.977  0.8481  0.7558  1.3544
  892MPD2    H213131   1.670   3.142  15.232 -1.2413 -1.1547 -0.0586
  892MPD2    H313132   1.872   3.030  15.169 -1.2231 -1.6697  2.0314
  892MPD2     N13133   1.698   2.871  14.792  0.1268 -0.0862  0.3215
  892MPD2    H513134   1.779   2.809  14.786  1.5115  1.7112  0.2870
  892MPD2    N113135   1.459   3.190  15.060  0.8784  0.3407 -0.1770
  892MPD2    H713136   1.380   3.179  14.997  2.0510  0.5150 -1.6685
  893MPD2     C13137   2.240   1.439   0.635  0.5226 -0.1468 -0.1430
  893MPD2    C113138   2.292   1.524   0.725 -0.2935  0.3483 -0.4540
  893MPD2    C213139   2.213   1.574   0.829 -0.3979  0.3498  0.5544
  893MPD2    C313140   2.085   1.528   0.835  0.6974 -0.8904  0.2348
  893MPD2    C413141   2.042   1.430   0.752  0.0260  0.0087 -0.4379
  893MPD2    C513142   2.113   1.392   0.644 -0.8237 -0.3230  0.3509
  893MPD2     H13143   2.252   1.651   0.895 -0.6723  2.1182 -1.3451
  893MPD2    H113144   1.943   1.386   0.759  0.4202 -0.9252 -0.6914
  893MPD2    H213145   2.292   1.403   0.547  0.1171 -0.5763 -0.2103
  893MPD2    H313146   2.074   1.319   0.575  0.8322  2.6708 -3.7438
  893MPD2     N13147   1.987   1.577   0.931  0.2371 -0.0786  0.3965
  893MPD2    H513148   1.898   1.529   0.928 -1.4499  3.1111 -1.7224
  893MPD2    N113149   2.426   1.555   0.700  0.1056  0.2941  0.1310
  893MPD2    H713150   2.465   1.513   0.616  0.7311  0.8804  0.1212
  894MPD2     C13151   0.946   3.437   1.763  0.8531  0.0416 -0.0065
  894MPD2    C113152   0.823   3.479   1.709  0.2843 -1.0773 -0.0490
  894MPD2    C213153   0.820   3.581   1.617  0.4385  0.5246  0.1960
  894MPD2    C313154   0.937   3.642   1.571 -0.1651 -0.0608 -0.6429
  894MPD2    C413155   1.057   3.589   1.614  0.6640  0.4532  0.0015
  894MPD2    C513156   1.058   3.485   1.703 -0.6752 -0.2901 -0.7850
  894MPD2     H13157   0.724   3.603   1.572  0.1301 -0.4915  0.3540
  894MPD2    H113158   1.152   3.634   1.586  0.8211  0.2694  0.2485
  894MPD2    H213159   0.958   3.371   1.849 -2.0341  0.7881  0.9564
  894MPD2    H313160   1.151   3.438   1.733 -1.5028 -1.9578 -0.8440
  894MPD2     N13161   0.923   3.757   1.487  0.6724  0.3551 -0.0965
  894MPD2    H513162   0.828   3.784   1.464 -0.0125 -1.8572  0.1526
  894MPD2    N113163   0.693   3.438   1.750 -0.4043  0.0128 -0.2755
  894MPD2    H713164   0.611   3.493   1.724  0.9369  1.6022 -1.1305
  895MPD2     C13165   1.314   2.370  13.692 -0.4083 -0.6339  0.3012
  895MPD2    C113166   1.255   2.385  13.565 -0.2407 -0.8637  0.4061
  895MPD2    C213167   1.280   2.303  13.458 -0.1498  0.0992  0.4659
  895MPD2    C313168   1.337   2.182  13.495 -0.4085 -0.3657  0.1976
  895MPD2    C413169   1.400   2.166  13.616 -0.0407  0.0894 -0.0340
  895MPD2    C513170   1.394   2.260  13.710 -0.5911  0.2413  0.2065
  895MPD2     H13171   1.218   2.326  13.372 -1.5257 -1.5293  1.0170
  895MPD2    H113172   1.447   2.073  13.644 -0.9288 -1.2805 -3.0765
  895MPD2    H213173   1.295   2.431  13.780 -0.1322  0.0559 -0.1144
  895MPD2    H313174   1.434   2.237  13.808  1.3457 -0.9456 -0.8680
  895MPD2     N13175   1.318   2.069  13.414 -0.0965 -0.0525 -0.3971
  895MPD2    H513176   1.333   1.980  13.460  1.1812 -0.3438 -1.3692
  895MPD2    N113177   1.171   2.498  13.537  0.1767 -0.2471  0.4464
  895MPD2    H713178   1.155   2.527  13.441 -0.4236 -1.2231  0.2558
  896MPD2     C13179   2.577   0.397   0.778 -0.4926 -0.2266  0.0896
  896MPD2    C113180   2.600   0.297   0.685  0.0559 -0.1691  0.5981
  896MPD2    C213181   2.492   0.238   0.620  0.0746  0.6885 -0.1388
  896MPD2    C313182   2.368   0.271   0.652 -0.4116  0.1283 -0.2160
  896MPD2    C413183   2.351   0.370   0.749  0.1800  0.1133  0.4809
  896MPD2    C513184   2.451   0.434   0.804  0.4293 -0.5991  0.2250
  896MPD2     H13185   2.513   0.163   0.545 -4.2546 -0.8173  0.2018
  896MPD2    H113186   2.251   0.393   0.784 -0.7792 -1.1272 -1.4731
  896MPD2    H213187   2.665   0.431   0.833 -0.5441  0.3059 -0.1563
  896MPD2    H313188   2.438   0.509   0.881  0.6439  1.1219 -1.4171
  896MPD2     N13189   2.261   0.201   0.583  0.2847 -0.2774  0.1346
  896MPD2    H513190   2.281   0.124   0.520 -0.5158  0.3893 -0.9091
  896MPD2    N113191   2.736   0.257   0.670 -0.4025  0.5145 -0.3023
  896MPD2    H713192   2.798   0.290   0.743 -1.7564 -0.2505  1.1855
  897MPD2     C13193   0.051   1.381  10.927 -0.4839 -0.2172  0.1595
  897MPD2    C113194   0.071   1.505  10.860 -0.4661 -0.2078  0.1399
  897MPD2    C213195   4.729   1.610  10.888 -0.1183  0.1907 -0.1268
  897MPD2    C313196   4.619   1.591  10.969  0.2888 -0.0651  0.4194
  897MPD2    C413197   4.586   1.463  11.021  0.0112  0.3266  0.3231
  897MPD2    C513198   4.682   1.366  11.012 -1.0243 -0.2122  0.0823
  897MPD2     H13199   4.730   1.697  10.823 -0.0171 -0.0958 -0.5046
  897MPD2    H113200   4.497   1.435  11.076  0.7399 -2.1966  0.2111
  897MPD2    H213201   0.132   1.310  10.919 -0.4143 -0.0524 -0.5810
  897MPD2    H313202   4.676   1.268  11.058  1.2873 -0.1298  0.5342
  897MPD2     N13203   4.536   1.696  10.994  0.7028  0.6284 -0.8457
  897MPD2    H513204   4.538   1.773  10.928  0.9404  1.1953 -0.1771
  897MPD2    N113205   0.185   1.537  10.777 -0.2213 -0.2258 -0.1701
  897MPD2    H713206   0.196   1.634  10.747 -0.6579 -0.2312 -0.3437
  898MPD2     C13207   1.318   2.872  17.636  0.0091  0.1553 -0.1128
  898MPD2    C113208   1.295   2.918   0.021 -0.3234 -0.1992 -0.1516
  898MPD2    C213209   1.215   3.026   0.050 -0.2185  0.3141  0.3299
  898MPD2    C313210   1.142   3.083  17.690  0.1443 -0.2861 -0.2525
  898MPD2    C413211   1.171   3.033  17.559 -0.2232  0.1094 -0.3616
  898MPD2    C513212   1.254   2.930  17.535  0.0413 -0.0218 -0.1581
  898MPD2     H13213   1.212   3.066   0.151 -4.1647  1.3356 -0.2015
  898MPD2    H113214   1.126   3.088  17.477 -0.8748  2.5162  1.5898
  898MPD2    H213215   1.383   2.788  17.614  0.7155  0.6414  0.1303
  898MPD2    H313216   1.281   2.908  17.432  1.1795  2.2978 -0.3631
  898MPD2     N13217   1.053   3.194  17.713 -0.3834  0.2993  0.7324
  898MPD2    H513218   1.003   3.222  17.629 -0.5983 -2.1973  0.0210
  898MPD2    N113219   1.365   2.864   0.131 -0.5872 -0.2255  0.2533
  898MPD2    H713220   1.335   2.899   0.221 -2.4537 -1.5205  0.1222
  899MPD2     C13221   2.261   3.254  17.161 -0.2621  0.1069 -0.7171
  899MPD2    C113222   2.227   3.291  17.288 -0.0965  0.4011 -0.4792
  899MPD2    C213223   2.169   3.195  17.369 -0.6035 -0.1383  0.3615
  899MPD2    C313224   2.142   3.066  17.318 -0.2361  0.2975 -0.4370
  899MPD2    C413225   2.186   3.039  17.188  0.6498 -0.1532 -0.9561
  899MPD2    C513226   2.242   3.128  17.108 -0.1889 -0.3949 -0.2296
  899MPD2     H13227   2.132   3.231  17.464  2.7076  1.3787  1.0388
  899MPD2    H113228   2.164   2.940  17.148  1.1399 -1.6734  2.4747
  899MPD2    H213229   2.306   3.320  17.087 -0.5068  2.8711  1.6088
  899MPD2    H313230   2.265   3.110  17.003  2.0142 -1.0251  0.3520
  899MPD2     N13231   2.062   2.982  17.400  0.1231 -0.2880  0.2293
  899MPD2    H513232   2.029   3.044  17.474 -1.6718 -0.8196 -0.1197
  899MPD2    N113233   2.245   3.429  17.333  0.4165 -0.6772 -0.5503
  899MPD2    H713234   2.304   3.488  17.275 -0.9363  1.8399  0.6495
  900MPD2     C13235   1.836   4.427  12.506 -0.5830 -0.5305  0.2458
  900MPD2    C113236   1.744   4.427  12.612 -0.3051 -0.9211 -1.1107
  900MPD2    C213237   1.630   4.508  12.586  0.1700 -0.5266  0.2857
  900MPD2    C313238   1.607   4.575  12.469 -0.5845 -0.0990  0.2431
  900MPD2    C413239   1.716   4.579  12.377  0.0697  0.1883 -0.6844
  900MPD2    C513240   1.828   4.505  12.394  0.8091  0.1817 -1.0685
  900MPD2     H13241   1.550   4.505  12.659 -1.6209  4.8048 -1.5174
  900MPD2    H113242   1.730   4.643  12.291  0.3265  0.5407 -0.3805
  900MPD2    H213243   1.925   4.365  12.515  0.7921  1.0320 -2.7379
  900MPD2    H313244   1.911   4.498  12.325  1.5707  3.0006 -0.4319
  900MPD2     N13245   1.476   4.627  12.443 -0.0034 -0.2290 -0.0457
  900MPD2    H513246   1.407   4.623  12.517 -1.4355 -2.5014 -1.4980
  900MPD2    N113247   1.779   4.365  12.737 -0.5738  0.7621 -0.2587
  900MPD2    H713248   1.875   4.331  12.744 -0.6482  0.7430  0.6010
  901MPD2     C13249   1.826   3.460  13.236  0.0930 -0.2681 -0.3201
  901MPD2    C113250   1.895   3.498  13.125 -0.2688  0.3185 -0.5009
  901MPD2    C213251   1.876   3.622  13.067  0.2446  0.0078 -0.1341
  901MPD2    C313252   1.783   3.707  13.116  0.7742  0.9636 -0.7750
  901MPD2    C413253   1.715   3.675  13.227  0.2664  0.3336  0.4919
  901MPD2    C513254   1.739   3.552  13.285 -0.2682 -0.1302  0.2693
  901MPD2     H13255   1.928   3.649  12.975  1.6272  0.2485  0.7177
  901MPD2    H113256   1.634   3.739  13.259  0.6560  0.9330  0.2770
  901MPD2    H213257   1.857   3.373  13.292  0.8891  0.3719  0.2349
  901MPD2    H313258   1.678   3.532  13.373 -1.4222  2.3746  0.0248
  901MPD2     N13259   1.776   3.841  13.067  0.2671 -0.4607 -0.5562
  901MPD2    H513260   1.839   3.860  12.989  0.9880  2.5345  0.7666
  901MPD2    N113261   1.974   3.396  13.067 -0.1367  0.2113  0.1798
  901MPD2    H713262   1.957   3.314  13.124  2.0192  0.2021  0.8224
  902MPD2     C13263   1.191   2.511  13.032 -0.3629  0.5803  0.4225
  902MPD2    C113264   1.212   2.634  12.975 -0.4515  0.1995 -0.7614
  902MPD2    C213265   1.270   2.650  12.848  0.1307 -0.4412 -0.3587
  902MPD2    C313266   1.310   2.535  12.777 -0.8164 -0.5278 -0.1524
  902MPD2    C413267   1.275   2.411  12.825  0.2683 -0.1720  0.8471
  902MPD2    C513268   1.219   2.397  12.956  0.6179 -0.5146  0.5486
  902MPD2     H13269   1.264   2.749  12.803  3.8280 -0.7405 -1.4528
  902MPD2    H113270   1.302   2.323  12.767  0.5955  0.1073  0.5773
  902MPD2    H213271   1.140   2.498  13.127  0.7008 -0.3667  0.8647
  902MPD2    H313272   1.205   2.296  12.994  1.2441 -1.8548 -2.7331
  902MPD2     N13273   1.368   2.545  12.648  0.2440 -0.1669 -0.0327
  902MPD2    H513274   1.364   2.466  12.586 -2.9063 -0.3677  0.4196
  902MPD2    N113275   1.159   2.746  13.035 -0.0576 -0.1141 -0.3468
  902MPD2    H713276   1.150   2.828  12.975  1.0758 -1.3007 -2.1349
  903MPD2     C13277   1.705   2.951  11.904  0.1316 -0.0894  0.3389
  903MPD2    C113278   1.606   2.948  11.997  0.0199 -0.2160  0.2309
  903MPD2    C213279   1.491   3.030  11.980 -0.1307 -0.0398  0.6069
  903MPD2    C313280   1.473   3.083  11.856  0.3078 -0.8559  0.0994
  903MPD2    C413281   1.571   3.081  11.758  0.0068  0.7367 -0.0263
  903MPD2    C513282   1.686   3.012  11.781  0.0576  0.0321  0.5302
  903MPD2     H13283   1.408   3.027  12.049 -1.0271  2.3087 -0.3896
  903MPD2    H113284   1.549   3.115  11.658 -0.1919  0.4862 -0.0684
  903MPD2    H213285   1.794   2.890  11.916  0.3414  0.0881 -0.3332
  903MPD2    H313286   1.764   3.010  11.705  0.3945  3.2496  0.8195
  903MPD2     N13287   1.347   3.137  11.815 -0.7119 -0.0385 -0.0339
  903MPD2    H513288   1.272   3.129  11.883 -0.2685 -0.5065  0.3973
  903MPD2    N113289   1.628   2.870  12.116 -0.3895 -0.6350  0.0502
  903MPD2    H713290   1.704   2.803  12.113  0.8175  0.6832  1.5771
  904MPD2     C13291   0.603   1.406  13.989 -0.8140  0.2254  0.0022
  904MPD2    C113292   0.668   1.503  13.916  0.6159  0.1565  0.2411
  904MPD2    C213293   0.795   1.480  13.871 -0.4285 -0.3574 -0.1106
  904MPD2    C313294   0.863   1.360  13.903 -0.0024 -0.7034  0.2928
  904MPD2    C413295   0.797   1.266  13.980  0.0505 -0.3714 -0.0503
  904MPD2    C513296   0.673   1.291  14.025  0.2273 -1.1029  0.3276
  904MPD2     H13297   0.849   1.552  13.810  1.5531 -1.6586  0.1247
  904MPD2    H113298   0.843   1.170  14.004  1.6367  0.3773 -0.0815
  904MPD2    H213299   0.499   1.428  14.014 -0.9947 -1.0319  0.3826
  904MPD2    H313300   0.617   1.223  14.088 -1.8428 -0.7465 -1.1282
  904MPD2     N13301   0.999   1.355  13.866 -0.3789  0.8820 -0.3923
  904MPD2    H513302   1.033   1.442  13.825  0.4526  0.9162  0.3787
  904MPD2    N113303   0.611   1.629  13.889 -0.0726 -1.1440 -0.8474
  904MPD2    H713304   0.674   1.694  13.844 -0.8869 -0.2692 -0.7098
  905MPD2     C13305   0.481   2.208  13.300 -0.3445  0.5883  0.6822
  905MPD2    C113306   0.529   2.099  13.366  0.6989 -0.5597  0.1190
  905MPD2    C213307   0.648   2.041  13.314  0.3741 -0.3486  0.6408
  905MPD2    C313308   0.707   2.085  13.196 -0.0308 -0.1333 -0.0986
  905MPD2    C413309   0.651   2.193  13.133 -0.1172 -0.5523  0.9778
  905MPD2    C513310   0.540   2.251  13.185  0.6852  0.2976  0.3586
  905MPD2     H13311   0.707   1.975  13.376 -1.0541 -1.8314  0.4059
  905MPD2    H113312   0.689   2.235  13.041  0.9946 -1.6026  0.9497
  905MPD2    H213313   0.401   2.267  13.341 -2.6319 -2.1672  0.1722
  905MPD2    H313314   0.493   2.335  13.137  0.0735 -0.2395  0.0262
  905MPD2     N13315   0.831   2.029  13.149  1.2807  0.6603 -0.6240
  905MPD2    H513316   0.875   2.073  13.069  2.0228  0.5612 -0.2696
  905MPD2    N113317   0.471   2.064  13.487  0.1473 -0.3375  0.5963
  905MPD2    H713318   0.403   2.130  13.524  0.5140  1.0627 -1.2357
  906MPD2     C13319   3.382   2.164  11.392 -0.5639 -0.0199 -0.5506
  906MPD2    C113320   3.390   2.094  11.272 -0.8555 -0.0587  0.7099
  906MPD2    C213321   3.378   1.958  11.284 -0.5153  0.0207 -0.3460
  906MPD2    C313322   3.378   1.892  11.411 -0.3888  0.4232 -0.1260
  906MPD2    C413323   3.370   1.964  11.524 -0.4297 -0.6775 -0.4405
  906MPD2    C513324   3.366   2.096  11.516  0.1231  0.2703 -0.1577
  906MPD2     H13325   3.370   1.901  11.193 -1.2876  0.5080 -0.5873
  906MPD2    H113326   3.355   1.924  11.624 -1.6910  0.4932 -0.1528
  906MPD2    H213327   3.392   2.272  11.387  3.0852 -0.3020  0.9773
  906MPD2    H313328   3.370   2.151  11.610  0.7107  1.2195 -0.7386
  906MPD2     N13329   3.376   1.754  11.418  0.5038  0.2615 -0.1991
  906MPD2    H513330   3.364   1.724  11.514  0.7328 -0.9044 -0.5453
  906MPD2    N113331   3.415   2.148  11.144  0.2040 -0.8119 -0.1324
  906MPD2    H713332   3.430   2.083  11.067 -1.3669 -1.1292 -0.1530
  907MPD2     C13333   2.033   0.932  15.670  0.1043  0.3879 -0.6797
  907MPD2    C113334   2.043   0.799  15.657 -0.2908 -0.3506 -0.4975
  907MPD2    C213335   2.105   0.730  15.756 -0.0521 -0.2125 -0.4441
  907MPD2    C313336   2.155   0.782  15.876 -0.3187 -0.2573  0.7141
  907MPD2    C413337   2.137   0.915  15.886  0.1025  0.0976  0.3904
  907MPD2    C513338   2.078   0.990  15.785 -0.0091  0.2965  0.1234
  907MPD2     H13339   2.124   0.627  15.728  2.5300  0.2172 -0.1834
  907MPD2    H113340   2.176   0.972  15.970 -0.1672 -1.0163  1.2718
  907MPD2    H213341   1.977   0.996  15.602 -0.6301 -0.0312 -0.4656
  907MPD2    H313342   2.060   1.095  15.806 -1.0770  0.1336  0.0260
  907MPD2     N13343   2.245   0.703  15.959  0.4608  0.1421  0.0977
  907MPD2    H513344   2.270   0.607  15.938  1.1611  0.4011 -0.2227
  907MPD2    N113345   1.991   0.728  15.544  0.3123  0.4167 -0.4409
  907MPD2    H713346   2.010   0.628  15.535  0.1617  0.3110  0.4449
  908MPD2     C13347   0.290   1.244   9.870 -0.4615 -0.4701 -0.1490
  908MPD2    C113348   0.264   1.173   9.987  0.8080 -0.0397  0.1867
  908MPD2    C213349   0.290   1.229  10.114  0.1354 -0.0115  0.5436
  908MPD2    C313350   0.346   1.351  10.126  0.2201  0.4932  0.6797
  908MPD2    C413351   0.381   1.421  10.009 -0.6820 -0.0903 -0.2309
  908MPD2    C513352   0.359   1.361   9.886 -0.5720 -0.3700 -1.0550
  908MPD2     H13353   0.258   1.180  10.205 -0.8683 -0.0725  0.1483
  908MPD2    H113354   0.435   1.514  10.015  0.0563 -0.4604 -1.0159
  908MPD2    H213355   0.257   1.200   9.777 -0.5662 -0.3167 -0.1837
  908MPD2    H313356   0.403   1.405   9.797  1.2714 -2.5718 -1.2506
  908MPD2     N13357   0.385   1.388  10.258 -0.0118 -0.0185  0.1479
  908MPD2    H513358   0.384   1.316  10.330  3.4613 -1.0106 -0.7684
  908MPD2    N113359   0.207   1.043   9.971  0.0338  0.2140 -0.4531
  908MPD2    H713360   0.190   1.021   9.874 -1.4107  1.2338 -0.4349
  909MPD2     C13361   0.029   4.250  11.712 -0.6451 -0.4094  0.5820
  909MPD2    C113362   0.083   4.375  11.738 -0.1349 -0.4854 -0.2314
  909MPD2    C213363   0.041   4.442  11.853  0.1869 -0.8648  0.2752
  909MPD2    C313364   4.682   4.389  11.934  0.6587  0.3449  0.0815
  909MPD2    C413365   4.628   4.267  11.900 -0.1045  0.3557 -1.4084
  909MPD2    C513366   4.663   4.205  11.790 -0.1245 -0.3464  0.0110
  909MPD2     H13367   0.090   4.534  11.880  0.7605 -0.8842 -0.7127
  909MPD2    H113368   4.551   4.213  11.953  2.2851 -2.7302 -1.0930
  909MPD2    H213369   0.054   4.194  11.623  0.8136  1.8606 -0.4308
  909MPD2    H313370   4.609   4.114  11.770 -1.4059  0.0179  1.7649
  909MPD2     N13371   4.645   4.465  12.050 -0.9617  0.0948 -0.2237
  909MPD2    H513372   4.704   4.545  12.068 -1.1575  0.1929 -0.0076
  909MPD2    N113373   0.191   4.428  11.664  0.3388  0.8568  0.2591
  909MPD2    H713374   0.222   4.523  11.681 -1.0047  1.4774 -0.7423
  910MPD2     C13375   0.986   1.335  16.224  0.4887  0.4579  0.0806
  910MPD2    C113376   1.027   1.289  16.107  0.3998 -0.0210  0.0056
  910MPD2    C213377   0.991   1.366  15.997  0.5548  0.0416 -0.0516
  910MPD2    C313378   0.912   1.477  16.005  0.8510 -0.6862  0.1927
  910MPD2    C413379   0.895   1.526  16.128  0.5771 -0.1988 -0.0644
  910MPD2    C513380   0.923   1.453  16.234 -0.0681  0.6284  0.2225
  910MPD2     H13381   1.005   1.332  15.895 -1.4103 -0.2097 -0.2443
  910MPD2    H113382   0.841   1.620  16.135  1.0394 -0.0323  1.2891
  910MPD2    H213383   0.994   1.280  16.317 -0.7334 -0.0498 -0.1056
  910MPD2    H313384   0.896   1.495  16.331 -0.7503 -0.0509  0.3266
  910MPD2     N13385   0.848   1.543  15.902 -0.3833  0.0252  0.2711
  910MPD2    H513386   0.784   1.619  15.924  1.5607  2.2145 -1.5253
  910MPD2    N113387   1.113   1.183  16.093  0.4850 -0.1913  0.2263
  910MPD2    H713388   1.157   1.160  16.004  2.5912  0.7041  1.0165
  911MPD2     C13389   3.516   1.910  16.236  0.4641  0.4726  0.3295
  911MPD2    C113390   3.597   2.020  16.253  0.3001  0.1869  0.6792
  911MPD2    C213391   3.561   2.143  16.195  0.1332 -0.0872 -0.2829
  911MPD2    C313392   3.446   2.158  16.125 -0.0649  0.4346 -0.1308
  911MPD2    C413393   3.368   2.048  16.099 -0.4474 -0.6286 -0.3487
  911MPD2    C513394   3.400   1.928  16.158 -0.4564 -0.4015  0.3274
  911MPD2     H13395   3.627   2.227  16.211 -0.6288  0.2279  1.2061
  911MPD2    H113396   3.279   2.061  16.038  0.2168 -0.9174 -1.3702
  911MPD2    H213397   3.538   1.812  16.278  0.4210 -0.6795 -2.2753
  911MPD2    H313398   3.326   1.849  16.153 -2.5996  1.5787  1.1392
  911MPD2     N13399   3.410   2.279  16.059 -0.1481 -0.0722 -0.2266
  911MPD2    H513400   3.325   2.281  16.003  0.2894  0.1724 -0.8646
  911MPD2    N113401   3.715   2.000  16.330 -0.2925  0.9044  0.2200
  911MPD2    H713402   3.731   1.902  16.349 -1.2005 -0.0195 -3.6282
  912MPD2     C13403   3.090   2.132  15.452  0.6279  0.7081  0.3469
  912MPD2    C113404   3.148   2.134  15.583  0.5371  0.4468 -0.0463
  912MPD2    C213405   3.118   2.029  15.670  1.1384 -0.3012 -1.0263
  912MPD2    C313406   3.043   1.922  15.619 -0.1440 -0.0152 -0.5767
  912MPD2    C413407   3.000   1.921  15.487 -0.0423  0.4755 -0.5884
  912MPD2    C513408   3.017   2.030  15.405 -0.1793  0.6623 -0.5635
  912MPD2     H13409   3.167   2.024  15.767  0.5639 -1.6969 -0.8096
  912MPD2    H113410   2.947   1.834  15.450  1.5406 -1.0030  0.6317
  912MPD2    H213411   3.121   2.211  15.385  1.1745  0.2518  0.0668
  912MPD2    H313412   2.985   2.034  15.302  3.0784 -1.9429 -1.6867
  912MPD2     N13413   3.027   1.810  15.700  0.0210  0.3060 -0.4854
  912MPD2    H513414   3.066   1.831  15.791  2.3535  1.6096 -1.7735
  912MPD2    N113415   3.222   2.246  15.616  0.1668 -0.1465 -0.2250
  912MPD2    H713416   3.225   2.317  15.543 -1.5073  0.2734  0.1005
  913MPD2     C13417   4.435   2.658  10.677 -0.3946 -0.1198  0.3609
  913MPD2    C113418   4.523   2.762  10.715 -0.1634  0.2696  0.3960
  913MPD2    C213419   4.534   2.869  10.624  0.4352 -0.4931  0.2894
  913MPD2    C313420   4.474   2.867  10.500  0.2826  0.6792 -0.3551
  913MPD2    C413421   4.400   2.760  10.464  0.1704 -0.0337  0.2181
  913MPD2    C513422   4.387   2.649  10.551 -0.2769 -0.5615 -0.0491
  913MPD2     H13423   4.597   2.955  10.642  2.6874 -1.9866 -0.4935
  913MPD2    H113424   4.346   2.755  10.370 -0.8078 -0.4374  0.8044
  913MPD2    H213425   4.397   2.577  10.739 -2.0924  1.3013  1.2084
  913MPD2    H313426   4.333   2.560  10.521 -1.2717  0.2658 -0.7129
  913MPD2     N13427   4.478   2.972  10.410  0.4681 -0.2644  0.2181
  913MPD2    H513428   4.452   2.951  10.314 -2.8056 -3.1237  1.7370
  913MPD2    N113429   4.584   2.761  10.845  0.0915  0.0480  0.0550
  913MPD2    H713430   4.539   2.701  10.914 -0.4373  0.7324  0.3069
  914MPD2     C13431   1.937   3.104  12.169  0.8885  0.2534  0.2533
  914MPD2    C113432   1.991   3.234  12.190 -0.3672 -0.3016  0.5441
  914MPD2    C213433   2.054   3.257  12.316 -0.0468 -0.0871 -0.4730
  914MPD2    C313434   2.073   3.152  12.404  0.6172 -0.0458  0.4635
  914MPD2    C413435   2.014   3.034  12.376  0.4627 -0.2234  0.1048
  914MPD2    C513436   1.946   3.005  12.263  0.0809  0.5485 -0.4825
  914MPD2     H13437   2.103   3.354  12.326 -1.0346  0.4651 -0.9943
  914MPD2    H113438   2.001   2.951  12.445 -0.1890 -0.0821  0.1567
  914MPD2    H213439   1.894   3.074  12.074  0.2291  0.4598  0.4795
  914MPD2    H313440   1.895   2.911  12.245  0.7437  0.2504 -0.8073
  914MPD2     N13441   2.133   3.181  12.528  0.4812 -0.8287  0.6319
  914MPD2    H513442   2.143   3.279  12.553  0.3111 -0.4399 -0.8605
  914MPD2    N113443   1.978   3.330  12.091  0.6241 -0.2697  0.4929
  914MPD2    H713444   1.956   3.304  11.995 -1.3371  0.1624  0.8361
  915MPD2     C13445   4.412   3.512  15.279 -0.8162  0.8841 -0.0589
  915MPD2    C113446   4.309   3.481  15.361  0.2290 -0.0938 -0.1704
  915MPD2    C213447   4.314   3.523  15.493  0.4045 -0.3857  0.3278
  915MPD2    C313448   4.415   3.607  15.533 -0.9668 -0.5120 -0.0842
  915MPD2    C413449   4.510   3.653  15.439  0.0443 -0.2520  0.6466
  915MPD2    C513450   4.509   3.598  15.315 -0.4183 -0.9485  0.0987
  915MPD2     H13451   4.234   3.503  15.563 -0.2797  1.1258 -0.0297
  915MPD2    H113452   4.598   3.711  15.466  0.8538 -0.3430 -1.7703
  915MPD2    H213453   4.418   3.466  15.181  2.1927  0.7354  0.1817
  915MPD2    H313454   4.592   3.615  15.248 -1.4423  0.7065 -0.7525
  915MPD2     N13455   4.433   3.664  15.660  0.2883  0.1443  0.0411
  915MPD2    H513456   4.494   3.745  15.653  3.3057 -2.2552 -1.6357
  915MPD2    N113457   4.211   3.385  15.317  0.6902 -0.5479  0.1339
  915MPD2    H713458   4.209   3.355  15.220 -1.4734 -2.3655  0.7528
  916MPD2     C13459   2.134   2.044  15.453 -0.5564 -0.6086 -0.3594
  916MPD2    C113460   2.193   1.940  15.510  0.3328  0.1150  0.1884
  916MPD2    C213461   2.201   1.823  15.439 -1.4450  0.3226 -0.2246
  916MPD2    C313462   2.162   1.819  15.306  0.3021 -0.1154 -0.0629
  916MPD2    C413463   2.118   1.936  15.241 -0.2280  0.6772  0.4962
  916MPD2    C513464   2.106   2.050  15.322 -0.0944  0.0881  0.8774
  916MPD2     H13465   2.247   1.735  15.483 -0.8318  1.4040  1.2803
  916MPD2    H113466   2.077   1.945  15.141 -0.0918  0.2911  0.4052
  916MPD2    H213467   2.122   2.138  15.506  1.8209  0.4780 -1.7722
  916MPD2    H313468   2.064   2.145  15.293 -1.8883 -0.2071  2.5262
  916MPD2     N13469   2.184   1.704  15.230  0.1735  0.1173 -0.4069
  916MPD2    H513470   2.219   1.621  15.275  2.3669  0.9878 -0.5298
  916MPD2    N113471   2.235   1.953  15.644  0.6187 -0.5676  0.8430
  916MPD2    H713472   2.232   2.047  15.682  0.4184  0.2109 -1.1110
  917MPD2     C13473   3.878   3.555  11.997  0.0277 -0.2232 -0.8572
  917MPD2    C113474   3.802   3.670  11.949 -0.6570  0.5116  0.3664
  917MPD2    C213475   3.855   3.764  11.859  0.4920  0.4055  0.0971
  917MPD2    C313476   3.982   3.740  11.808  0.2578 -0.1351 -0.1636
  917MPD2    C413477   4.050   3.632  11.850  0.4278  0.8658  1.3141
  917MPD2    C513478   4.008   3.548  11.951  0.1220  0.8529  0.1717
  917MPD2     H13479   3.794   3.840  11.813  0.5167 -0.2588 -1.0376
  917MPD2    H113480   4.150   3.615  11.812 -0.7842 -0.1984 -1.4673
  917MPD2    H213481   3.856   3.478  12.069  0.9463  1.2313  0.9593
  917MPD2    H313482   4.079   3.475  11.987 -4.0475 -1.9748  2.7259
  917MPD2     N13483   4.042   3.829  11.712  0.2492 -0.1394 -0.2315
  917MPD2    H513484   4.136   3.806  11.683  0.9214  1.6383  0.5782
  917MPD2    N113485   3.675   3.676  12.008 -0.6756  0.2560 -0.4507
  917MPD2    H713486   3.636   3.601  12.064  0.0549  1.0864  1.1707
  918MPD2     C13487   3.390   4.486  12.268  0.6296  0.0888  0.8759
  918MPD2    C113488   3.480   4.401  12.330 -0.9348 -0.1917 -0.0501
  918MPD2    C213489   3.445   4.266  12.356  0.2187 -0.3136  0.0374
  918MPD2    C313490   3.333   4.220  12.291  0.5473 -0.4453 -0.1144
  918MPD2    C413491   3.249   4.305  12.231  0.5064  0.0410 -0.1296
  918MPD2    C513492   3.270   4.436  12.228  0.0540  0.0811 -0.0244
  918MPD2     H13493   3.519   4.205  12.406  0.3867  0.1118  0.3124
  918MPD2    H113494   3.158   4.268  12.185 -0.7676  3.3369 -0.2716
  918MPD2    H213495   3.404   4.592  12.249 -0.7117 -0.0517 -0.9821
  918MPD2    H313496   3.187   4.492  12.187  1.1657  0.7002 -1.4292
  918MPD2     N13497   3.322   4.077  12.272  0.1241 -0.3914 -0.3501
  918MPD2    H513498   3.396   4.025  12.317 -0.1170  0.1475  0.6759
  918MPD2    N113499   3.615   4.437  12.360 -0.1326 -0.2373 -0.0206
  918MPD2    H713500   3.665   4.359  12.402 -0.5020 -1.5201 -1.9438
  919MPD2     C13501   4.333   2.916  11.157 -0.9533 -0.3525 -0.1936
  919MPD2    C113502   4.206   2.868  11.151 -0.7676  0.8363  0.4355
  919MPD2    C213503   4.131   2.889  11.032 -0.3807 -0.1807  0.5341
  919MPD2    C313504   4.191   2.954  10.921  0.0828 -0.0783 -0.3286
  919MPD2    C413505   4.317   3.010  10.936  0.0989 -0.2622 -0.3919
  919MPD2    C513506   4.384   2.996  11.055 -0.5079  0.1312  0.1196
  919MPD2     H13507   4.034   2.841  11.027 -0.9102  1.3535 -4.6630
  919MPD2    H113508   4.367   3.063  10.857 -1.0068  0.2603 -0.7319
  919MPD2    H213509   4.393   2.900  11.246 -1.3076 -0.2189  0.0730
  919MPD2    H313510   4.490   3.012  11.070 -0.5290 -0.5229  0.9643
  919MPD2     N13511   4.129   2.968  10.797  0.1443  0.8004  0.8317
  919MPD2    H513512   4.171   3.034  10.731 -0.3281  2.5832  2.3242
  919MPD2    N113513   4.154   2.784  11.251  0.8520 -0.5610 -0.4449
  919MPD2    H713514   4.060   2.749  11.237 -1.1197  3.6714  2.3999
  920MPD2     C13515   3.784   3.677  10.152  0.4566 -0.3380 -0.2229
  920MPD2    C113516   3.668   3.598  10.178 -0.2231 -0.1759 -0.0119
  920MPD2    C213517   3.677   3.487  10.266  0.2262  0.7343 -0.0849
  920MPD2    C313518   3.803   3.439  10.302 -0.0845  0.3139 -0.1744
  920MPD2    C413519   3.917   3.502  10.255 -0.1521  0.2785  0.8372
  920MPD2    C513520   3.906   3.627  10.197  0.2723 -0.5500 -0.0150
  920MPD2     H13521   3.590   3.439  10.310  1.8674 -0.6807  1.6578
  920MPD2    H113522   4.021   3.477  10.276 -0.4271 -0.4681  1.3097
  920MPD2    H213523   3.780   3.774  10.105 -0.4690 -1.2816 -2.0980
  920MPD2    H313524   3.990   3.682  10.158 -0.3413  0.6895  0.4154
  920MPD2     N13525   3.808   3.325  10.384 -0.2504  0.3739  0.7038
  920MPD2    H513526   3.717   3.282  10.399  0.4088 -0.4413  2.3722
  920MPD2    N113527   3.537   3.631  10.131 -0.6750  0.2676  0.3285
  920MPD2    H713528   3.460   3.584  10.180 -0.9998 -1.5301 -1.9223
  921MPD2     C13529   4.618   2.113  16.784  0.2392 -0.3983 -0.5139
  921MPD2    C113530   4.598   2.150  16.656 -0.3723  0.1672 -0.0047
  921MPD2    C213531   4.469   2.154  16.608  0.3076 -0.1434 -0.0675
  921MPD2    C313532   4.366   2.128  16.694  0.5717 -0.5340 -0.1108
  921MPD2    C413533   4.383   2.106  16.829 -0.9017  0.6037  0.1972
  921MPD2    C513534   4.515   2.093  16.866  0.0273 -0.4312 -0.5771
  921MPD2     H13535   4.455   2.162  16.501 -3.1493  5.0794  0.8159
  921MPD2    H113536   4.308   2.085  16.905 -0.9558 -1.2895 -0.3741
  921MPD2    H213537   4.716   2.130  16.825  0.2580 -1.6304 -0.0549
  921MPD2    H313538   4.541   2.066  16.968 -1.3280 -0.0207 -0.1193
  921MPD2     N13539   4.235   2.116  16.640 -0.1518 -0.3674  0.9539
  921MPD2    H513540   4.221   2.107  16.540  0.5944  1.1688  0.7244
  921MPD2    N113541   4.715   2.151  16.574  0.3591 -0.1173  0.6406
  921MPD2    H713542   0.067   2.120  16.614  1.0446  1.1386  0.0773
  922MPD2     C13543   0.296   0.068  16.963  0.9374  0.1129 -0.2345
  922MPD2    C113544   0.256   4.730  17.077 -0.6673 -0.1618 -0.3640
  922MPD2    C213545   0.249   4.594  17.051  0.2547 -0.8668 -0.7470
  922MPD2    C313546   0.275   4.530  16.933 -0.2791  0.2408  0.8525
  922MPD2    C413547   0.312   4.614  16.827  0.4253 -0.5608  0.4130
  922MPD2    C513548   0.330   0.006  16.839  0.6166  0.3202  0.3465
  922MPD2     H13549   0.215   4.529  17.130  0.1855  0.5242  0.3650
  922MPD2    H113550   0.326   4.570  16.729 -0.5342 -2.4875  1.1227
  922MPD2    H213551   0.291   0.176  16.964  0.5226  0.0971 -0.7796
  922MPD2    H313552   0.354   0.057  16.746  2.4366  0.4424  0.8653
  922MPD2     N13553   0.267   4.391  16.903 -0.2084  0.4804  0.3325
  922MPD2    H513554   0.289   4.367  16.807 -0.2196  1.6263  0.0427
  922MPD2    N113555   0.213   0.054  17.203  0.3609 -0.3283  0.2091
  922MPD2    H713556   0.165   4.734  17.273  1.5105 -1.8982 -0.2722
  923MPD2     C13557   2.398   2.337   9.807 -0.2738  0.1170  0.2564
  923MPD2    C113558   2.464   2.458   9.773  0.7974  0.3570  0.4618
  923MPD2    C213559   2.600   2.461   9.762  0.3068 -0.1369 -1.0320
  923MPD2    C313560   2.675   2.347   9.799  0.2788 -0.6041 -0.2216
  923MPD2    C413561   2.610   2.228   9.840  0.3067 -0.4692 -0.1195
  923MPD2    C513562   2.473   2.231   9.841 -0.2094 -0.2810  0.5577
  923MPD2     H13563   2.657   2.541   9.715  2.2968  0.1590  1.8549
  923MPD2    H113564   2.663   2.135   9.858  0.5093 -0.3172  0.0555
  923MPD2    H213565   2.292   2.325   9.826 -0.7379 -0.8814 -2.9002
  923MPD2    H313566   2.432   2.135   9.872  1.5323 -0.6904  1.6227
  923MPD2     N13567   2.812   2.359   9.765 -0.4578 -0.2340  0.2987
  923MPD2    H513568   2.829   2.454   9.734 -0.0424 -0.8107 -1.2129
  923MPD2    N113569   2.383   2.568   9.767 -0.8575 -0.1813  0.5100
  923MPD2    H713570   2.285   2.542   9.767 -0.8151 -0.3191 -1.5629
  924MPD2     C13571   2.277   0.236  15.517  0.3951 -0.4851  0.6935
  924MPD2    C113572   2.232   0.197  15.637 -0.2613 -0.5245 -0.4139
  924MPD2    C213573   2.297   0.230  15.751  0.2328  0.0279 -0.5137
  924MPD2    C313574   2.398   0.326  15.744 -0.7823 -0.3788 -0.7790
  924MPD2    C413575   2.434   0.376  15.619  0.0720 -0.4922  0.2924
  924MPD2    C513576   2.381   0.318  15.509  0.2248  0.4949  0.6372
  924MPD2     H13577   2.273   0.183  15.846 -2.6114 -1.5699 -2.0342
  924MPD2    H113578   2.521   0.441  15.618 -2.1181  2.4015 -2.3453
  924MPD2    H213579   2.241   0.212  15.417 -0.0417 -0.4980  0.8521
  924MPD2    H313580   2.421   0.348  15.413  0.6507 -0.9704  0.3517
  924MPD2     N13581   2.462   0.370  15.863  0.4842 -0.4282  0.0042
  924MPD2    H513582   2.543   0.431  15.858  1.7740 -2.1019  0.1237
  924MPD2    N113583   2.106   0.141  15.635 -0.0199 -0.0453 -0.1981
  924MPD2    H713584   2.057   0.146  15.546 -2.6372 -0.8757  1.1716
  925MPD2     C13585   0.990   2.745  14.655 -0.2164  0.1568 -0.0433
  925MPD2    C113586   0.917   2.859  14.630 -0.3411 -0.3677 -0.0101
  925MPD2    C213587   0.858   2.923  14.732  0.1276  0.8636  0.3728
  925MPD2    C313588   0.892   2.887  14.861  0.2892  0.6798  0.2148
  925MPD2    C413589   0.967   2.771  14.888 -0.8767 -0.6423 -0.0901
  925MPD2    C513590   1.016   2.702  14.784 -0.5555 -0.0828  0.2402
  925MPD2     H13591   0.790   3.006  14.717 -3.2515 -2.1768 -1.2706
  925MPD2    H113592   0.986   2.736  14.989  3.1747  0.4151 -0.4923
  925MPD2    H213593   1.030   2.685  14.574 -2.8963 -1.1898 -0.3619
  925MPD2    H313594   1.062   2.604  14.796 -1.5262 -0.4407  1.0659
  925MPD2     N13595   0.861   2.963  14.977 -0.0525 -0.1626  0.3143
  925MPD2    H513596   0.875   2.920  15.068  3.2599 -2.5543 -1.3185
  925MPD2    N113597   0.894   2.895  14.498 -0.6048 -0.7332 -1.0976
  925MPD2    H713598   0.946   2.843  14.428 -0.4350 -1.0673 -0.7274
  926MPD2     C13599   0.252   1.438  13.210  0.4073  0.5465  0.2567
  926MPD2    C113600   0.121   1.456  13.188  0.2926  0.1297 -0.3423
  926MPD2    C213601   0.077   1.488  13.057 -0.1681 -0.3777 -0.4253
  926MPD2    C313602   0.168   1.513  12.955 -0.2453 -0.9109 -0.3381
  926MPD2    C413603   0.305   1.489  12.983  0.3641 -0.4350 -0.1841
  926MPD2    C513604   0.347   1.445  13.110 -0.8226 -0.7289  0.4541
  926MPD2     H13605   4.707   1.495  13.041 -0.7970  0.0279  3.7277
  926MPD2    H113606   0.382   1.497  12.907  1.4631  1.0794  1.0903
  926MPD2    H213607   0.285   1.406  13.308 -0.8689  1.1200  0.8744
  926MPD2    H313608   0.450   1.415  13.131 -0.2534  0.8353 -0.1345
  926MPD2     N13609   0.131   1.557  12.827  0.3436  0.6213  0.0039
  926MPD2    H513610   0.207   1.600  12.775  0.0136  0.2386 -0.7950
  926MPD2    N113611   0.022   1.455  13.289 -0.1824  0.2644  0.8656
  926MPD2    H713612   4.665   1.481  13.260  0.0778 -1.2080 -1.2858
  927MPD2     C13613   3.870   3.234   0.155  0.3402  0.0298  0.1345
  927MPD2    C113614   3.812   3.361   0.162  0.4581  0.0273  0.5661
  927MPD2    C213615   3.786   3.428   0.041 -0.4047 -0.3793  0.3244
  927MPD2    C313616   3.840   3.392  17.668 -0.1919 -0.0861  0.3410
  927MPD2    C413617   3.910   3.271  17.671  0.0529  0.7784  0.2205
  927MPD2    C513618   3.920   3.192   0.038  0.3626  0.2648  0.4775
  927MPD2     H13619   3.731   3.521   0.040 -0.3078 -0.3322 -0.2098
  927MPD2    H113620   3.950   3.229  17.580  0.1170 -0.2477  0.7309
  927MPD2    H213621   3.880   3.174   0.244  2.4850  0.6547  0.3157
  927MPD2    H313622   3.962   3.092   0.029 -0.3081 -0.0485  0.8029
  927MPD2     N13623   3.822   3.477  17.558  0.4129  0.7657 -0.5950
  927MPD2    H513624   3.801   3.574  17.580  0.3119  0.6013  0.0571
  927MPD2    N113625   3.766   3.399   0.289  0.0250  0.8426  0.4633
  927MPD2    H713626   3.803   3.341   0.364 -1.0401 -0.7572 -0.2479
  928MPD2     C13627   1.263   2.385   0.398  0.0688  0.1058 -0.0587
  928MPD2    C113628   1.318   2.328   0.508 -0.1408  0.3584 -0.4054
  928MPD2    C213629   1.457   2.297   0.497 -0.2952  0.1851 -0.1586
  928MPD2    C313630   1.529   2.319   0.384 -0.7595 -0.3011 -0.4732
  928MPD2    C413631   1.471   2.374   0.273 -0.0280 -0.2258  0.3231
  928MPD2    C513632   1.341   2.412   0.283 -0.0573 -0.2034 -0.1623
  928MPD2     H13633   1.505   2.244   0.578 -2.2123  0.1388  0.9364
  928MPD2    H113634   1.526   2.384   0.180  0.9977 -0.4771  0.9008
  928MPD2    H213635   1.158   2.409   0.384 -0.2520 -0.1552  1.9265
  928MPD2    H313636   1.293   2.449   0.194 -1.3132  0.7381  0.9152
  928MPD2     N13637   1.666   2.284   0.376 -0.2431 -0.1070  0.3167
  928MPD2    H513638   1.698   2.285   0.279 -0.4811 -1.6450  0.2193
  928MPD2    N113639   1.235   2.307   0.625  0.4373 -0.2905 -0.3071
  928MPD2    H713640   1.140   2.342   0.618  0.5830 -0.1271 -1.4689
  929MPD2     C13641   2.868   1.982  10.544  0.1571 -0.4869 -0.2439
  929MPD2    C113642   2.760   1.897  10.577  0.3635  0.2474  0.6321
  929MPD2    C213643   2.650   1.903  10.494  0.0825 -0.4490  0.1062
  929MPD2    C313644   2.648   1.981  10.378 -0.3388 -0.0975 -0.6782
  929MPD2    C413645   2.760   2.057  10.350  0.2334  0.5366  0.0162
  929MPD2    C513646   2.871   2.055  10.428  0.9539 -0.3475 -0.0008
  929MPD2     H13647   2.558   1.854  10.525 -1.1777  1.7389 -0.1524
  929MPD2    H113648   2.773   2.121  10.263  0.3579  0.0946 -0.2911
  929MPD2    H213649   2.962   1.980  10.599 -0.5207  0.0022  0.9326
  929MPD2    H313650   2.961   2.109  10.401 -1.0621  2.3517 -1.2259
  929MPD2     N13651   2.533   2.016  10.296  0.0408  0.3606 -0.2617
  929MPD2    H513652   2.547   2.094  10.233  0.0777  0.9767  0.5075
  929MPD2    N113653   2.764   1.823  10.702 -0.4560 -0.1462  0.3328
  929MPD2    H713654   2.835   1.849  10.770 -0.0425 -1.1450  0.2705
  930MPD2     C13655   3.451   3.989  13.567 -0.1224 -0.1999 -0.0878
  930MPD2    C113656   3.576   3.936  13.539  0.7430 -0.3719 -0.2088
  930MPD2    C213657   3.574   3.811  13.475 -0.2766 -0.1727 -0.2155
  930MPD2    C313658   3.454   3.742  13.451  0.3847 -1.0440 -0.1627
  930MPD2    C413659   3.335   3.794  13.484 -0.2870 -0.1035 -0.6108
  930MPD2    C513660   3.341   3.918  13.532  0.0695  0.0653  0.2628
  930MPD2     H13661   3.665   3.754  13.465 -0.5307 -0.7962  1.0457
  930MPD2    H113662   3.244   3.738  13.467  0.5747 -2.3785  2.1461
  930MPD2    H213663   3.431   4.081  13.619  0.7503 -0.9597  1.6167
  930MPD2    H313664   3.247   3.962  13.563 -0.2743  1.0080 -2.0623
  930MPD2     N13665   3.448   3.613  13.398 -0.1003  0.0437  0.1358
  930MPD2    H513666   3.357   3.567  13.405  0.6654 -1.2505  1.5458
  930MPD2    N113667   3.697   4.003  13.568  0.1144 -0.2203  0.9779
  930MPD2    H713668   3.671   4.085  13.621 -0.8353  0.4940 -0.5995
  931MPD2     C13669   3.993   3.122   0.777  0.1557 -0.7842 -0.2382
  931MPD2    C113670   3.874   3.176   0.824 -0.2402  0.5088  0.0733
  931MPD2    C213671   3.822   3.127   0.939  0.3859 -0.2633  0.2361
  931MPD2    C313672   3.906   3.047   1.016  0.4652  0.0269 -0.3474
  931MPD2    C413673   4.021   2.995   0.969 -0.3573  0.1983  0.2429
  931MPD2    C513674   4.067   3.038   0.848 -0.1639  0.5881  0.4582
  931MPD2     H13675   3.730   3.163   0.983 -0.2289 -1.7653  0.1719
  931MPD2    H113676   4.084   2.925   1.023 -0.1687 -0.3686 -0.7180
  931MPD2    H213677   4.036   3.139   0.679 -1.0746 -1.4150 -0.8853
  931MPD2    H313678   4.151   2.999   0.792  1.1524  1.3618  1.8937
  931MPD2     N13679   3.873   2.998   1.138  0.3993 -0.1254 -0.2149
  931MPD2    H513680   3.929   2.921   1.172 -1.0267 -1.4172 -0.8217
  931MPD2    N113681   3.812   3.267   0.732 -0.0592 -0.1334  0.1990
  931MPD2    H713682   3.851   3.263   0.639 -2.0901 -2.8134 -0.5573
  932MPD2     C13683   1.039   3.013  11.289 -0.0284  0.5640 -0.2139
  932MPD2    C113684   1.169   3.043  11.248 -0.1517 -0.5061  0.4394
  932MPD2    C213685   1.255   2.937  11.227 -0.5743  0.0571  1.1043
  932MPD2    C313686   1.214   2.808  11.260  0.8331  0.4055  0.5028
  932MPD2    C413687   1.086   2.778  11.289  0.6053  0.1010  0.7672
  932MPD2    C513688   0.994   2.880  11.310 -0.2887  0.3895 -0.8531
  932MPD2     H13689   1.357   2.962  11.200 -1.2596 -0.5947 -2.0593
  932MPD2    H113690   1.050   2.677  11.306 -2.2923  0.7497 -1.5125
  932MPD2    H213691   0.967   3.094  11.293  0.8328  1.3707 -1.0512
  932MPD2    H313692   0.893   2.843  11.323 -0.1521  0.1804 -0.3897
  932MPD2     N13693   1.305   2.699  11.261  0.0547 -0.1041  0.4605
  932MPD2    H513694   1.275   2.611  11.302  0.0301  0.7717  2.3490
  932MPD2    N113695   1.238   3.168  11.235 -0.5747  0.3533  0.4520
  932MPD2    H713696   1.334   3.162  11.202 -0.4086  1.2882  0.7720
  933MPD2     C13697   0.610   2.052   0.821 -0.8709 -0.3757  0.0659
  933MPD2    C113698   0.646   2.156   0.900 -0.8158 -0.1548 -0.2840
  933MPD2    C213699   0.558   2.197   1.002  0.3170 -0.4606  0.8863
  933MPD2    C313700   0.432   2.132   1.019 -1.4700 -0.1791  0.2100
  933MPD2    C413701   0.403   2.023   0.939  0.1006  0.3588  0.2110
  933MPD2    C513702   0.490   1.987   0.842  0.7252  0.1460  0.2817
  933MPD2     H13703   0.582   2.279   1.069  1.5246 -0.2140  0.1549
  933MPD2    H113704   0.314   1.962   0.951  0.8304 -0.6512  0.4619
  933MPD2    H213705   0.680   2.017   0.747 -2.4988  1.5444 -2.3793
  933MPD2    H313706   0.466   1.908   0.772 -1.1085 -0.9794  2.1521
  933MPD2     N13707   0.354   2.173   1.126  0.2556  0.1324  0.6731
  933MPD2    H513708   0.397   2.252   1.172 -2.0439  1.8532 -0.1340
  933MPD2    N113709   0.774   2.215   0.873 -0.0316  0.1613  0.0773
  933MPD2    H713710   0.845   2.163   0.823  0.4113  0.5874  0.2611
  934MPD2     C13711   2.286   0.026   0.896 -0.1950 -0.1838  0.3445
  934MPD2    C113712   2.359   4.645   0.896 -0.4133 -0.5769 -0.4324
  934MPD2    C213713   2.299   4.522   0.899  0.3845  0.2758 -1.5169
  934MPD2    C313714   2.164   4.513   0.882  0.0366  0.2162  0.7794
  934MPD2    C413715   2.092   4.630   0.860 -0.8248  0.8203  0.5357
  934MPD2    C513716   2.148   0.023   0.870  0.2691 -0.7217 -0.7993
  934MPD2     H13717   2.354   4.429   0.908  0.5327  0.5978  0.9447
  934MPD2    H113718   1.984   4.625   0.856 -0.7333 -1.6362  1.3032
  934MPD2    H213719   2.338   0.121   0.886  1.5662 -1.1532  0.2754
  934MPD2    H313720   2.084   0.110   0.864  1.0186  0.0680  2.3683
  934MPD2     N13721   2.094   4.386   0.879 -0.1907  0.2190  0.6799
  934MPD2    H513722   1.992   4.388   0.885 -0.2654  0.5540 -0.7574
  934MPD2    N113723   2.498   4.640   0.888 -0.0023  0.3473  0.8164
  934MPD2    H713724   2.544   4.550   0.889  0.3414  0.5207  0.7382
  935MPD2     C13725   2.189   3.307   1.123  0.4210  0.1398 -0.4562
  935MPD2    C113726   2.191   3.355   0.995 -0.8642  1.4299  0.4021
  935MPD2    C213727   2.149   3.479   0.968  0.1102  0.2901  0.1206
  935MPD2    C313728   2.116   3.567   1.062 -0.1459  0.7030  0.9780
  935MPD2    C413729   2.111   3.528   1.194  0.4150  0.1241  0.7280
  935MPD2    C513730   2.139   3.393   1.219 -0.0716 -0.0756 -0.2894
  935MPD2     H13731   2.164   3.503   0.864  1.1844 -0.9668 -0.0137
  935MPD2    H113732   2.099   3.603   1.272 -1.0031  0.0599  0.5714
  935MPD2    H213733   2.217   3.204   1.143  0.9680  0.3592 -0.1055
  935MPD2    H313734   2.149   3.360   1.322 -1.3609 -2.8689 -1.0422
  935MPD2     N13735   2.084   3.705   1.041 -0.0406 -0.0167 -0.0386
  935MPD2    H513736   2.066   3.759   1.125 -3.7827 -0.3605 -0.6168
  935MPD2    N113737   2.232   3.273   0.884 -0.0193 -0.3364  0.0624
  935MPD2    H713738   2.217   3.303   0.789 -1.8760  2.6218  1.2897
  936MPD2     C13739   1.466   1.308  12.408  0.3654 -0.1756 -0.4986
  936MPD2    C113740   1.541   1.211  12.470 -0.2762  0.1565  0.5323
  936MPD2    C213741   1.679   1.229  12.483  0.6733  0.3109 -0.2788
  936MPD2    C313742   1.743   1.342  12.437  0.0113  0.4901 -0.1941
  936MPD2    C413743   1.673   1.439  12.372 -0.1446  0.0454 -0.3836
  936MPD2    C513744   1.537   1.425  12.368  0.6132 -0.2500 -0.3320
  936MPD2     H13745   1.740   1.155  12.534 -2.1764 -0.7721  1.5050
  936MPD2    H113746   1.722   1.533  12.347 -1.1728  0.5799 -0.4081
  936MPD2    H213747   1.358   1.303  12.399  0.2356 -0.8414  1.5520
  936MPD2    H313748   1.473   1.497  12.318 -1.1452 -2.0008 -0.5597
  936MPD2     N13749   1.878   1.358  12.475 -0.4015 -0.9154  0.5245
  936MPD2    H513750   1.915   1.278  12.525 -0.3088 -1.7402 -0.8524
  936MPD2    N113751   1.499   1.081  12.514 -0.0047  0.2569  0.6504
  936MPD2    H713752   1.568   1.019  12.556  0.2544 -0.3465 -0.6764
  937MPD2     C13753   4.442   2.219  11.751  0.9903 -0.2278 -0.5325
  937MPD2    C113754   4.476   2.345  11.705  0.9314  0.3345 -0.4853
  937MPD2    C213755   4.589   2.369  11.634  0.1628  0.1661  0.2806
  937MPD2    C313756   4.683   2.274  11.622 -0.5477 -0.1087 -0.0145
  937MPD2    C413757   4.656   2.149  11.671  0.9325  0.3289  0.3073
  937MPD2    C513758   4.534   2.121  11.733  0.0658 -0.5272  0.6182
  937MPD2     H13759   4.612   2.466  11.590 -0.3565  0.2430  0.1798
  937MPD2    H113760   4.728   2.068  11.669  0.4253 -0.1122 -0.0293
  937MPD2    H213761   4.348   2.200  11.802  1.3560 -0.5461  0.0218
  937MPD2    H313762   4.503   2.022  11.764 -1.5924 -0.7718 -1.8000
  937MPD2     N13763   0.049   2.305  11.535 -0.0580  0.6251 -0.5626
  937MPD2    H513764   0.038   2.397  11.493 -1.7465  0.9278  0.5290
  937MPD2    N113765   4.380   2.448  11.679 -0.6710  0.2664  0.1850
  937MPD2    H713766   4.403   2.531  11.624  0.7405 -0.5247 -0.4351
  938MPD2     C13767   1.678   3.457   0.879  0.1113  0.9133  0.4243
  938MPD2    C113768   1.573   3.521   0.937 -0.0294  0.0201  0.0243
  938MPD2    C213769   1.492   3.457   1.028  0.0164  0.2754  0.5841
  938MPD2    C313770   1.524   3.326   1.066 -0.0680 -0.2612 -0.7381
  938MPD2    C413771   1.627   3.264   1.014  0.3855 -0.3657 -1.2389
  938MPD2    C513772   1.706   3.324   0.918  1.1082  1.1087 -0.1178
  938MPD2     H13773   1.415   3.500   1.091  0.1584  1.7251 -0.2345
  938MPD2    H113774   1.665   3.171   1.056 -0.2821  0.4463  1.1494
  938MPD2    H213775   1.748   3.516   0.822 -1.2886  1.1357 -1.0715
  938MPD2    H313776   1.797   3.284   0.875  0.5724 -1.8056  1.5088
  938MPD2     N13777   1.457   3.261   1.168  0.0649 -0.5280  0.2693
  938MPD2    H513778   1.506   3.185   1.215 -0.0146 -0.3521  0.6372
  938MPD2    N113779   1.551   3.658   0.896 -0.0279  0.6514 -0.2242
  938MPD2    H713780   1.616   3.698   0.830  0.0966  0.0365 -0.4695
  939MPD2     C13781   2.589   0.011   0.099  0.0580  0.0821  0.0681
  939MPD2    C113782   2.649   0.130   0.120  0.2451  0.0921 -0.1791
  939MPD2    C213783   2.774   0.145   0.070 -0.6566 -0.1852 -0.5491
  939MPD2    C313784   2.846   0.049   0.004  0.5422  0.3319  0.2950
  939MPD2    C413785   2.787   4.667  17.730 -0.5156  0.7584  0.6165
  939MPD2    C513786   2.660   4.647   0.032  0.3719 -0.7808 -0.2010
  939MPD2     H13787   2.819   0.242   0.084  3.3105 -2.2951  1.2978
  939MPD2    H113788   2.831   4.595  17.662 -0.4908  1.1582  0.2152
  939MPD2    H213789   2.488   4.731   0.135  0.4787 -0.5288  0.9507
  939MPD2    H313790   2.606   4.554   0.017  1.2859 -1.6941  2.2636
  939MPD2     N13791   2.972   0.093  17.694 -0.6011  0.1700  1.3142
  939MPD2    H513792   2.995   0.192  17.700  1.4035 -0.0941 -2.2320
  939MPD2    N113793   2.579   0.218   0.197  0.0903 -0.0510  0.4099
  939MPD2    H713794   2.494   0.180   0.237 -1.0947  1.3323 -0.7737
  940MPD2     C13795   2.184   0.276  13.369  0.8335 -0.6707 -0.0830
  940MPD2    C113796   2.311   0.321  13.368 -0.7052 -0.6012  0.3980
  940MPD2    C213797   2.368   0.331  13.240 -0.9742 -0.1942 -1.4531
  940MPD2    C313798   2.303   0.310  13.121  0.6655  0.2615 -0.0541
  940MPD2    C413799   2.179   0.259  13.130 -0.7434 -0.2463 -0.4682
  940MPD2    C513800   2.115   0.252  13.254 -0.0027  0.4064  0.5168
  940MPD2     H13801   2.474   0.354  13.240 -0.5310 -2.1877 -0.4018
  940MPD2    H113802   2.121   0.228  13.044 -1.1509  3.2344 -1.4289
  940MPD2    H213803   2.136   0.259  13.464  0.3419 -1.3563 -0.4549
  940MPD2    H313804   2.015   0.211  13.260 -0.1900  1.1003  2.1459
  940MPD2     N13805   2.369   0.330  12.993 -0.0845 -0.1753  0.4255
  940MPD2    H513806   2.310   0.305  12.914 -0.6411 -2.7713  1.6627
  940MPD2    N113807   2.386   0.352  13.492  0.3321  0.3496 -0.0173
  940MPD2    H713808   2.473   0.404  13.488 -0.4839  1.8829  2.0642
  941MPD2     C13809   2.283   0.392   9.298 -0.0143  0.2853  0.8877
  941MPD2    C113810   2.309   0.372   9.429 -0.1073 -0.8511 -0.3315
  941MPD2    C213811   2.299   0.244   9.485 -0.4125 -0.4779  0.1121
  941MPD2    C313812   2.265   0.133   9.413 -0.6597  0.6363  0.5612
  941MPD2    C413813   2.254   0.155   9.280  0.3177  0.1619  0.3902
  941MPD2    C513814   2.264   0.278   9.224 -0.1208 -0.2171  0.1633
  941MPD2     H13815   2.328   0.232   9.588  1.5707 -3.3903 -0.7668
  941MPD2    H113816   2.221   0.073   9.217  4.0801  0.3169 -1.8073
  941MPD2    H213817   2.282   0.491   9.253  0.4434  0.4990  1.3456
  941MPD2    H313818   2.236   0.283   9.119  3.0875  0.2912 -0.6605
  941MPD2     N13819   2.238   0.010   9.483  0.4080 -0.3960  0.1870
  941MPD2    H513820   2.226   4.665   9.423 -3.0131  2.1442 -2.6036
  941MPD2    N113821   2.331   0.483   9.519 -0.0998 -1.0208 -0.2339
  941MPD2    H713822   2.341   0.456   9.616  2.2669  0.0160 -0.1788
  942MPD2     C13823   1.288   2.435  10.081 -0.6001  0.0153  0.0212
  942MPD2    C113824   1.403   2.361  10.053 -0.6716  0.8166  0.1178
  942MPD2    C213825   1.503   2.419   9.970  0.1613 -0.0605 -0.0894
  942MPD2    C313826   1.475   2.539   9.913 -0.9679 -0.2157 -0.2904
  942MPD2    C413827   1.350   2.603   9.932 -0.0297 -0.1076  0.2097
  942MPD2    C513828   1.259   2.551  10.021 -0.8674 -0.5595 -0.1475
  942MPD2     H13829   1.596   2.365   9.956  0.0114 -1.2911  3.5382
  942MPD2    H113830   1.321   2.691   9.876 -1.5528  0.2333  1.5600
  942MPD2    H213831   1.206   2.396  10.141  1.1831 -1.6789  1.3532
  942MPD2    H313832   1.165   2.599  10.045 -1.4340 -1.5015 -0.5281
  942MPD2     N13833   1.567   2.607   9.832  0.4387 -0.4656 -0.0513
  942MPD2    H513834   1.537   2.698   9.800  0.1675 -0.6314 -0.2621
  942MPD2    N113835   1.435   2.237  10.109 -0.5581 -0.1950  0.4805
  942MPD2    H713836   1.526   2.200  10.084 -1.1511 -1.2130 -0.1695
  943MPD2     C13837   0.524   4.695  10.309 -0.0894  0.3560  0.4323
  943MPD2    C113838   0.410   4.635  10.363  0.0055 -0.1734  0.2636
  943MPD2    C213839   0.367   4.681  10.482 -0.2969  0.9794 -0.2108
  943MPD2    C313840   0.440   0.042  10.555  1.0830  0.0507 -0.2568
  943MPD2    C413841   0.549   0.098  10.496  0.2165  0.4584  0.2566
  943MPD2    C513842   0.588   0.055  10.369 -0.2229  0.0576  0.4292
  943MPD2     H13843   0.281   4.636  10.530  0.0970  0.6384  0.1813
  943MPD2    H113844   0.593   0.180  10.551 -0.6759  1.2866 -0.2685
  943MPD2    H213845   0.561   4.671  10.210  0.5790  1.0475  0.5122
  943MPD2    H313846   0.673   0.105  10.323 -0.8409  0.8654  0.1826
  943MPD2     N13847   0.399   0.089  10.681  0.1965 -0.7297 -0.3098
  943MPD2    H513848   0.442   0.177  10.707  1.2017 -0.9339 -1.3024
  943MPD2    N113849   0.341   4.525  10.299  0.0670  0.1848  0.4359
  943MPD2    H713850   0.375   4.513  10.204 -1.6321  0.6244 -0.2357
  944MPD2     C13851   0.023   3.644  11.115  0.1298 -0.0591 -0.8681
  944MPD2    C113852   0.007   3.743  11.025  0.1152  0.8571  0.1014
  944MPD2    C213853   4.722   3.875  11.072 -0.2090  0.3649  0.3136
  944MPD2    C313854   4.697   3.893  11.205  0.9261 -0.1513 -0.0456
  944MPD2    C413855   4.701   3.783  11.296 -1.4485 -0.2252 -0.3175
  944MPD2    C513856   4.731   3.661  11.246 -0.6296 -0.5390  0.1658
  944MPD2     H13857   4.717   3.959  11.003  0.3587  1.5681  1.7385
  944MPD2    H113858   4.689   3.799  11.403  0.5522  0.8905 -0.2730
  944MPD2    H213859   0.041   3.540  11.090  0.1532 -0.2058 -0.2269
  944MPD2    H313860   0.004   3.574  11.309 -0.6996 -0.6928 -0.0374
  944MPD2     N13861   4.656   4.023  11.240 -0.1530  0.2434 -0.7707
  944MPD2    H513862   4.655   4.105  11.181 -0.3383 -0.3538 -1.5963
  944MPD2    N113863   0.032   3.715  10.889  0.8288 -0.2140  0.0979
  944MPD2    H713864   0.065   3.622  10.865  0.0752 -0.4881  0.1374
    1TMC1    C113865   2.916   4.578  14.928 -0.4295  0.4973  0.3951
    1TMC1    C213866   2.920   4.547  15.055 -0.1981 -0.6852  0.4060
    1TMC1    C313867   2.898   4.414  15.087  0.0814 -0.6674  0.0364
    1TMC1    C413868   2.920   4.490  14.826  0.0909 -0.0014 -0.0346
    1TMC1    C513869   2.919   4.359  14.858  0.2052  0.5318  0.0995
    1TMC1    C613870   2.909   4.318  14.989  0.1248 -0.0229  0.0847
    1TMC1     C13871   2.933   4.724  14.905  0.3479  0.9384  0.6132
    1TMC1     O13872   2.943   0.057  15.006  0.0998  0.6988 -0.1780
    1TMC1     H13873   2.927   4.617  15.138 -1.8828 -2.1805  1.8188
    1TMC1    H113874   2.921   4.528  14.724  1.1640  1.7182  0.6220
    1TMC1    H213875   2.915   4.215  15.021  0.8725 -0.0199 -0.0449
    1TMC1    C713876   2.913   4.263  14.744  0.5108 -0.5835  0.2407
    1TMC1    C813877   2.944   4.355  15.213  0.2061 -0.3517 -0.2614
    1TMC1    O113878   2.920   4.299  14.626  0.4737  0.2024  0.0027
    1TMC1    O213879   3.064   4.332  15.215 -0.1998 -0.6150  0.2529
    1TMC1    O313880   2.847   4.157  14.782 -0.0787  0.1726 -1.3252
    1TMC1    H313881   2.822   4.152  14.877 -0.5187 -1.8606 -1.5492
    1TMC1    O513882   2.878   4.433  15.303 -0.1625 -0.7098  0.0931
    1TMC1    H513883   2.782   4.431  15.282  0.1726 -2.6100 -1.1885
    2MPD2     C13884   2.969   0.425  14.654 -0.1749  0.3856  0.5235
    2MPD2    C113885   2.892   0.343  14.576 -0.9809 -0.4189 -0.2572
    2MPD2    C213886   2.871   0.212  14.609  0.7202 -0.0327 -0.4550
    2MPD2    C313887   2.922   0.168  14.734 -0.0108 -0.2794  0.5147
    2MPD2    C413888   3.012   0.251  14.801  0.0564 -0.3542 -0.3710
    2MPD2    C513889   3.023   0.383  14.766 -0.0525 -0.2614  0.3703
    2MPD2     H13890   2.815   0.139  14.552  1.0519  0.8617 -1.8998
    2MPD2    H113891   3.073   0.214  14.882 -0.6685  1.0056  0.8043
    2MPD2    H213892   2.986   0.529  14.627  2.0458  0.1332  0.9009
    2MPD2    H313893   3.088   0.454  14.816  1.0927 -1.2668  0.2941
    2MPD2     N13894   2.913   0.031  14.771 -0.3440  0.7636  1.0728
    2MPD2    H513895   2.880   4.700  14.703  1.6948  0.1400  0.7266
    2MPD2    N113896   2.840   0.402  14.455  0.0812  0.0253  0.0619
    2MPD2    H713897   2.854   0.502  14.443  3.2402 -0.2932  1.1312
    3TMC2    C113898   2.756   0.418  14.237  0.2750  0.4098 -0.9675
    3TMC2    C213899   2.771   0.548  14.250  0.1695  0.6289 -0.1921
    3TMC2    C313900   2.800   0.619  14.136  0.1878  0.4562 -0.4507
    3TMC2    C413901   2.750   0.353  14.116  0.3244  0.3346  0.3326
    3TMC2    C513902   2.776   0.432  14.007 -0.0891  0.1849 -0.0775
    3TMC2    C613903   2.803   0.567  14.008 -0.5481 -0.3194 -0.3053
    3TMC2     C13904   2.766   0.332  14.355 -0.0674  0.3314  0.0849
    3TMC2     O13905   2.727   0.216  14.342 -0.2588 -0.0619  0.0067
    3TMC2     H13906   2.759   0.602  14.343 -0.8761  0.6389 -0.3339
    3TMC2    H113907   2.730   0.247  14.104  2.3192 -0.1479  1.3012
    3TMC2    H213908   2.827   0.636  13.927 -0.7633  0.7911  0.5794
    3TMC2    C713909   2.756   0.365  13.882  0.6799 -0.2653 -0.4929
    3TMC2    C813910   2.854   0.751  14.148 -0.1220  0.7174  0.3363
    3TMC2    O113911   2.776   0.244  13.875  0.1257  0.4517 -0.0984
    3TMC2    O213912   2.916   0.785  14.249 -0.0839 -0.7753 -0.4651
    3TMC2    O513913   2.771   0.825  14.079  0.5111 -0.0313  0.1349
    3TMC2    H513914   2.707   0.771  14.029  0.3045 -0.0495  0.4170
    4TMC2    C113915   2.441   0.948  13.148  0.1640  0.3292  0.5120
    4TMC2    C213916   2.358   0.869  13.075 -0.2710  0.4410  0.1352
    4TMC2    C313917   2.384   0.733  13.066 -1.1927 -0.8389 -0.6709
    4TMC2    C413918   2.545   0.890  13.212  0.0055 -0.0210 -0.9470
    4TMC2    C513919   2.552   0.754  13.214  0.1827  0.4084  0.2660
    4TMC2    C613920   2.476   0.672  13.146  0.1309  0.2097 -0.8268
    4TMC2     C13921   2.455   1.087  13.121 -0.1572  0.2691  0.3451
    4TMC2     O13922   2.565   1.136  13.109  0.1353  0.2772  0.1795
    4TMC2     H13923   2.270   0.912  13.030  0.1035  0.5351 -0.5179
    4TMC2    H113924   2.621   0.947  13.263  0.4963 -0.7179 -0.9019
    4TMC2    H213925   2.474   0.564  13.156 -0.2524  0.1435 -1.5809
    4TMC2    C713926   2.634   0.699  13.319 -0.2489  0.7934 -0.2674
    4TMC2    C813927   2.265   0.656  13.053 -0.0515 -0.6285 -0.4401
    4TMC2    O113928   2.672   0.769  13.409  0.3995 -0.2725 -0.2354
    4TMC2    O213929   2.209   0.605  13.153  0.0058 -0.8075  0.3336
    4TMC2    O513930   2.204   0.711  12.946 -0.2178  0.6090 -0.8250
    4TMC2    H513931   2.270   0.725  12.875 -0.0369 -1.2769 -1.0421
    5MPD2     C13932   2.289   1.464  12.809 -0.0858  0.5221  0.3406
    5MPD2    C113933   2.181   1.419  12.884 -0.1053 -0.3932  0.3950
    5MPD2    C213934   2.203   1.308  12.963  0.5552 -0.4550 -0.3128
    5MPD2    C313935   2.323   1.247  12.978 -0.5202 -0.7201  0.6215
    5MPD2    C413936   2.428   1.295  12.902 -0.2116  0.2626  0.6349
    5MPD2    C513937   2.411   1.397  12.809 -0.3715  0.2383 -0.4687
    5MPD2     H13938   2.118   1.261  13.013  1.2520  0.1699  1.4350
    5MPD2    H113939   2.525   1.246  12.906  0.2537  1.3115  2.2933
    5MPD2    H213940   2.272   1.541  12.734  0.5621  3.2642  2.9619
    5MPD2    H313941   2.499   1.429  12.756 -1.6489  0.7864 -2.2484
    5MPD2     N13942   2.334   1.139  13.066 -0.1515  0.5178  0.4588
    5MPD2    H513943   2.248   1.097  13.099  0.1134 -0.4600 -0.0808
    5MPD2    N113944   2.054   1.481  12.869  0.0919  0.0201  0.2709
    5MPD2    H713945   2.043   1.549  12.794 -1.3748 -2.3697 -1.6795
    6MPD1     C13946   1.505   3.254  13.002  0.2051 -0.2804  0.6591
    6MPD1    C113947   1.505   3.191  13.123  0.3469 -0.5957 -0.2835
    6MPD1    C213948   1.489   3.054  13.128 -0.1181 -0.5964 -1.0263
    6MPD1    C313949   1.474   2.980  13.006  1.1419 -0.4038 -0.3760
    6MPD1    C413950   1.482   3.048  12.886 -0.4218  0.3765  0.9746
    6MPD1    C513951   1.493   3.188  12.888 -0.1762 -0.0594  0.2756
    6MPD1     H13952   1.501   3.008  13.226 -1.4162 -0.8523 -0.9942
    6MPD1    H113953   1.481   2.993  12.793  1.1779  2.2929 -0.1670
    6MPD1    H213954   1.535   3.358  12.996 -1.5671  0.3249  2.3227
    6MPD1    H313955   1.500   3.248  12.797  0.3790 -1.1607 -0.4063
    6MPD1     N13956   1.494   2.836  12.986 -0.4711  0.0994 -0.6450
    6MPD1    H513957   1.461   2.805  12.895  1.1476  0.0590 -1.2127
    6MPD1    N113958   1.558   3.261  13.236 -0.5315 -0.0915 -0.1302
    6MPD1    H613959   1.518   3.229  13.324 -0.3380 -0.3762 -0.1451
    6MPD1    H713960   1.560   3.363  13.234 -0.3007  0.0014  3.8620
    7MPD2     C13961   1.644   2.057  13.435 -0.9992 -0.7030  0.4765
    7MPD2    C113962   1.623   2.070  13.297  0.1686  0.6814 -0.1194
    7MPD2    C213963   1.622   1.957  13.219  0.4982 -0.6781  1.0184
    7MPD2    C313964   1.619   1.832  13.273 -0.6084  0.1709 -0.2915
    7MPD2    C413965   1.643   1.820  13.404 -0.5477  0.4294 -0.2471
    7MPD2    C513966   1.657   1.934  13.485 -0.3327 -0.3474  0.8822
    7MPD2     H13967   1.614   1.966  13.111  0.9521 -1.9259  0.8759
    7MPD2    H113968   1.644   1.726  13.458 -0.9530  0.1327 -0.7582
    7MPD2    H213969   1.655   2.137  13.506 -0.7432 -0.2900 -0.0280
    7MPD2    H313970   1.668   1.915  13.591 -0.0813 -2.2416  0.5182
    7MPD2     N13971   1.615   1.724  13.193 -0.1401 -0.3770  0.5605
    7MPD2    H513972   1.624   1.636  13.241  0.8551 -0.5534  0.0527
    7MPD2    N113973   1.605   2.187  13.234 -0.1244  0.3606  0.2675
    7MPD2    H713974   1.591   2.174  13.134  0.3692  0.7562  0.1430
    8TMC3    C113975   1.619   1.596  12.990 -0.2853  0.5134  0.1696
    8TMC3    C213976   1.743   1.549  13.022  0.1590  0.1610  0.4711
    8TMC3    C313977   1.828   1.511  12.928  0.7366  0.5245  0.2599
    8TMC3    C413978   1.583   1.598  12.861 -0.3070  0.0855  0.4604
    8TMC3    C513979   1.675   1.569  12.763  0.3726  0.1171 -0.5539
    8TMC3    C613980   1.800   1.522  12.793  0.2890  0.0280  0.4029
    8TMC3     C13981   1.583   1.717  13.064  0.5671  0.0551 -0.3874
    8TMC3     O13982   1.520   1.791  12.992 -0.7486  0.3051  0.1184
    8TMC3     H13983   1.774   1.553  13.125  0.3088  0.1892  0.4242
    8TMC3    H113984   1.479   1.617  12.834 -0.9617 -3.2865  0.6652
    8TMC3    H213985   1.857   1.490  12.707 -0.6176  1.5234 -0.7478
    8TMC3    C713986   1.682   1.673  12.665  0.3258  0.2730 -0.0082
    8TMC3    C813987   1.959   1.472  12.967  0.1493  0.9573 -0.0656
    8TMC3    O113988   1.774   1.674  12.586 -0.5604 -0.3567  0.0410
    8TMC3    O213989   1.980   1.436  13.083  0.4230  0.6329  0.2688
    9TMC3    C113990   1.548   2.611  13.054 -0.2250 -0.5035  0.5363
    9TMC3    C213991   1.602   2.573  12.933 -0.1667 -0.0170  0.1626
    9TMC3    C313992   1.656   2.445  12.929 -0.3044  0.3713  0.5610
    9TMC3    C413993   1.549   2.538  13.166  0.1552 -0.2182 -0.5446
    9TMC3    C513994   1.602   2.410  13.154 -0.2060 -0.0821  0.7743
    9TMC3    C613995   1.650   2.362  13.038  0.1139 -0.1029 -0.6155
    9TMC3     C13996   1.544   2.757  13.081 -0.3798  1.1923 -0.3744
    9TMC3     O13997   1.568   2.792  13.197  0.4752  0.0063  0.0266
    9TMC3     H13998   1.598   2.635  12.845  1.5559 -1.7972 -1.1665
    9TMC3    H113999   1.516   2.572  13.263  1.7810 -1.2321  0.3620
    9TMC3    H214000   1.695   2.263  13.034 -2.6080 -1.2977 -1.1538
    9TMC3    C714001   1.605   2.322  13.275  0.0671  0.3921 -0.3631
    9TMC3    C814002   1.644   2.380  12.803 -0.4170 -1.0269  0.6699
    9TMC3    O114003   1.613   2.366  13.387 -0.0501 -0.0880 -0.7215
    9TMC3    O214004   1.683   2.442  12.711  0.1632 -0.2454 -0.4463
   10MPD2     C14005   1.663   1.941  12.541  0.1604 -0.3610 -0.0725
   10MPD2    C114006   1.627   1.910  12.671  0.0414 -0.1390 -0.5165
   10MPD2    C214007   1.610   2.016  12.753  0.3728  0.3582 -0.3189
   10MPD2    C314008   1.623   2.153  12.715  0.1979  1.0688  0.9220
   10MPD2    C414009   1.664   2.172  12.582  0.0729  0.8456 -0.6870
   10MPD2    C514010   1.671   2.070  12.488  0.5947  1.0761 -0.2411
   10MPD2     H14011   1.588   1.985  12.854  1.6037 -0.3625 -0.2777
   10MPD2    H114012   1.671   2.276  12.552  0.0336  0.2312 -2.8469
   10MPD2    H214013   1.695   1.867  12.468  0.8829  0.0496 -0.1624
   10MPD2    H314014   1.697   2.097  12.387 -2.3579 -3.9590 -2.3453
   10MPD2     N14015   1.614   2.253  12.812 -0.5100  0.1796 -0.5193
   10MPD2    H514016   1.571   2.216  12.897 -2.2964 -1.1583 -2.0057
   10MPD2    N114017   1.613   1.779  12.719  0.0997  0.8015  0.3323
   10MPD2    H714018   1.577   1.767  12.813 -2.9130  2.1830 -0.6553
   11MPD2     C14019   2.744   0.284  13.586 -0.7129  0.1967 -0.0767
   11MPD2    C114020   2.736   0.417  13.635 -0.0306 -0.6055 -0.1934
   11MPD2    C214021   2.698   0.513  13.538 -0.4581  0.8295  0.1179
   11MPD2    C314022   2.699   0.486  13.406 -0.6838 -0.4688  0.1661
   11MPD2    C414023   2.721   0.359  13.365  0.4173 -0.0540  0.2763
   11MPD2    C514024   2.750   0.260  13.450 -0.0070 -0.2707  0.0217
   11MPD2     H14025   2.684   0.614  13.575  2.3081  1.7305 -1.2322
   11MPD2    H114026   2.720   0.338  13.259 -1.8032 -0.9841  0.4854
   11MPD2    H214027   2.767   0.201  13.651  0.2487  1.0696  0.7039
   11MPD2    H314028   2.770   0.158  13.417 -0.4507 -0.3122 -0.1041
   11MPD2     N14029   2.658   0.567  13.302 -0.3574 -0.1757  0.0995
   11MPD2    H514030   2.636   0.517  13.216 -0.6609  0.4748 -0.1979
   11MPD2    N114031   2.751   0.453  13.775  0.1771  0.0852 -0.7715
   11MPD2    H714032   2.733   0.551  13.795 -0.3974 -0.4489  1.3144
    1MPD1     C14033   4.072   2.103  17.157 -0.2186 -0.2898 -0.3939
    1MPD1    C114034   4.170   2.035  17.224 -0.4723 -0.9485  0.5374
    1MPD1    C214035   4.295   2.094  17.222  0.4998  0.3220  0.0289
    1MPD1    C314036   4.321   2.216  17.167  0.6131  0.5897 -0.1839
    1MPD1    C414037   4.214   2.292  17.131  0.3937  0.8253 -0.3339
    1MPD1    C514038   4.094   2.233  17.116 -0.0917  0.2456 -0.4846
    1MPD1     H14039   4.372   2.026  17.255 -0.6835 -1.1065 -0.1341
    1MPD1    H114040   4.237   2.390  17.093 -0.0406  0.7570 -0.7602
    1MPD1    H214041   3.974   2.057  17.160 -0.0050 -0.7709 -0.8496
    1MPD1    H314042   4.014   2.287  17.068 -1.2701 -0.4802  0.6392
    1MPD1     N14043   4.451   2.277  17.156 -0.4018 -0.0621  0.2825
    1MPD1    H514044   4.462   2.374  17.127 -1.0407 -0.4199 -1.1424
    1MPD1    N114045   4.153   1.903  17.276 -0.3034 -0.0375  0.7290
    1MPD1    H614046   4.063   1.886  17.322 -0.2087 -2.8218 -0.1369
    1MPD1    H714047   4.233   1.877  17.333  0.8165 -0.7433 -1.1931
    2MPD1     C14048   0.809   2.179  17.093 -0.2874 -0.0484 -0.3997
    2MPD1    C114049   0.777   2.291  17.166  0.4901 -0.0644  0.3623
    2MPD1    C214050   0.644   2.334  17.172 -0.2417 -0.6531 -0.7855
    2MPD1    C314051   0.542   2.258  17.124  0.1833 -0.9544  0.9895
    2MPD1    C414052   0.579   2.144  17.055  0.3660 -0.2928  0.2166
    2MPD1    C514053   0.712   2.108  17.030  0.5353 -0.2951  0.0063
    2MPD1     H14054   0.624   2.428  17.221 -0.1835 -0.0751 -1.8619
    2MPD1    H114055   0.500   2.082  17.014  0.6761 -1.1485  0.8952
    2MPD1    H214056   0.909   2.146  17.067 -0.0287 -0.9245  1.6787
    2MPD1    H314057   0.720   2.025  16.962 -2.6180  0.1004 -0.8407
    2MPD1     N14058   0.406   2.295  17.159  0.4711  0.3562  0.1994
    2MPD1    H514059   0.398   2.361  17.236  0.6534 -2.2264  2.4111
    2MPD1    N114060   0.882   2.366  17.219 -0.5498 -0.4858 -0.1080
    2MPD1    H614061   0.959   2.306  17.250  0.1435  0.3166 -0.2830
    2MPD1    H714062   0.841   2.417  17.298 -0.8333 -0.8794  0.0007
    3TMC3    C114063   0.176   2.299  17.162  0.2332 -0.0733  0.4447
    3TMC3    C214064   0.182   2.428  17.190  0.4846 -0.2082  0.8947
    3TMC3    C314065   0.065   2.489  17.210  0.4497  0.4038 -0.0876
    3TMC3    C414066   0.068   2.228  17.145 -0.3138  0.6100  0.1402
    3TMC3    C514067   4.688   2.294  17.171  0.0675  0.0507  0.0870
    3TMC3    C614068   4.682   2.426  17.193  0.0725 -0.9212 -0.1464
    3TMC3     C14069   0.292   2.229  17.116  0.3115  0.0166  0.0745
    3TMC3     O14070   0.278   2.134  17.041  0.0598 -0.3789  0.0404
    3TMC3     H14071   0.270   2.490  17.171 -0.6860  0.7802 -1.2735
    3TMC3    H114072   0.062   2.120  17.136  1.8896  0.3960  1.0981
    3TMC3    H214073   4.592   2.465  17.239  1.2219  2.9539 -1.1926
    3TMC3    C714074   4.569   2.213  17.189  0.7962  0.4759  0.1141
    3TMC3    C814075   0.072   2.634  17.217 -0.1951 -0.6271  0.3891
    3TMC3    O114076   4.590   2.105  17.236 -0.9758 -0.1081  0.1348
    3TMC3    O214077   0.173   2.682  17.268  0.0451  0.1198  0.9767
    4MPD1     C14078   4.633   3.105  17.126 -0.4561  0.2636  0.0897
    4MPD1    C114079   4.534   3.011  17.087 -0.4211  0.3553 -0.1414
    4MPD1    C214080   4.560   2.876  17.111  0.6035  0.0251 -0.3271
    4MPD1    C314081   4.678   2.837  17.158  0.5060 -0.0287  0.3976
    4MPD1    C414082   0.029   2.930  17.203  0.4677  0.2525 -0.1173
    4MPD1    C514083   0.006   3.063  17.188  0.4993 -0.4759 -0.4869
    4MPD1     H14084   4.492   2.800  17.075 -0.3333  0.2478  1.0142
    4MPD1    H114085   0.125   2.922  17.253 -0.0336 -0.1796  0.7930
    4MPD1    H214086   4.622   3.212  17.108 -1.5984  0.3950  1.5463
    4MPD1    H314087   0.081   3.127  17.233  0.3710  0.1123 -1.1135
    4MPD1     N14088   4.697   2.698  17.164  0.5151  0.2152 -0.6948
    4MPD1    H514089   4.632   2.635  17.119 -1.0154  0.9757  0.4323
    4MPD1    N114090   4.408   3.050  17.042 -0.5920 -0.5010 -0.6805
    4MPD1    H614091   4.409   3.121  16.969  0.1581  0.4941  0.2762
    4MPD1    H714092   4.357   2.970  17.007 -1.7658 -0.0905  0.1108
    1TCq1    O114093   1.165   2.091  11.096 -0.2544  0.1656  0.0683
    1TCq1    C114094   1.191   1.963  11.058 -0.4903 -0.0087  0.3412
    1TCq1    O214095   1.140   1.906  10.962  0.2850  0.1591 -0.2629
    1TCq1    C214096   1.328   1.934  11.100  0.0124  0.1209  0.6579
    1TCq1    C314097   1.375   1.980  11.216 -0.1174  0.2052 -0.3034
    1TCq1    C414098   1.506   1.976  11.246  0.3247 -0.5577  0.2639
    1TCq1    C514099   1.589   1.937  11.141 -0.2669 -0.3923  0.4631
    1TCq1    C614100   1.548   1.892  11.018  0.2825  0.2302 -0.3614
    1TCq1    C714101   1.412   1.895  10.996 -0.1056  0.1271  0.2244
    1TCq1    C814102   1.621   1.802  10.941 -0.0666 -0.0468 -0.0588
    1TCq1    O414103   1.555   1.737  10.859  0.4104 -0.0403  0.0271
    1TCq1    C914104   1.557   2.058  11.351  0.2712  0.4035  1.1513
    1TCq1    O514105   1.471   2.102  11.434  0.5066  0.8475  0.3139
    1TCq1    O614106   1.680   2.087  11.350 -0.1910 -0.1301  0.5110
    1TCq1    H114107   1.241   2.121  11.151  0.5699  0.1451 -1.0480
    1TCq1    H214108   1.303   2.011  11.291  1.5845  1.6477  0.7283
    1TCq1    H314109   1.694   1.951  11.162  0.0390 -1.8462 -0.0773
    1TCq1    H414110   1.366   1.863  10.903 -1.3619  1.4486  0.4041
    2MPD1     C14111   2.013   1.478  10.877 -0.4691 -0.3501 -0.6429
    2MPD1    C114112   2.047   1.572  10.970  0.0898  1.0633 -0.0992
    2MPD1    C214113   1.960   1.678  10.989  0.7718  0.2844 -0.1275
    2MPD1    C314114   1.838   1.687  10.929  0.3808  0.4194 -0.2276
    2MPD1    C414115   1.801   1.586  10.840 -0.1808  0.3149 -0.1105
    2MPD1    C514116   1.892   1.485  10.813 -0.2001  0.0045 -0.0416
    2MPD1     H14117   1.982   1.763  11.053  1.4465 -1.5088  1.9890
    2MPD1    H114118   1.706   1.585  10.788  0.4727 -1.8725 -1.2317
    2MPD1    H214119   2.070   1.392  10.846  0.0100  0.2612 -1.4541
    2MPD1    H314120   1.864   1.412  10.739 -0.9599  0.4428 -0.1777
    2MPD1     N14121   1.749   1.780  10.982 -0.0643 -0.3649 -0.3832
    2MPD1    H514122   1.798   1.843  11.044  0.1219 -1.7553  0.8750
    2MPD1    N114123   2.170   1.569  11.032  0.1013 -0.3184 -0.0052
    2MPD1    H614124   2.200   1.473  11.051 -0.0493 -0.8311 -2.3388
    2MPD1    H714125   2.172   1.630  11.114 -0.2255 -1.0751  0.5764
    1TMC1    C114126   3.185   1.783   1.099  0.9519 -0.6880 -0.6532
    1TMC1    C214127   3.310   1.820   1.148  0.2043  0.3060  0.6028
    1TMC1    C314128   3.422   1.757   1.098  0.2049  0.5782 -0.3738
    1TMC1    C414129   3.180   1.705   0.987  0.2948 -0.0512  0.1183
    1TMC1    C514130   3.294   1.660   0.934  0.1224 -0.3713 -0.1216
    1TMC1    C614131   3.416   1.682   0.986  0.0387 -0.3352 -0.1651
    1TMC1     C14132   3.070   1.814   1.173 -0.1942 -0.4256  0.5393
    1TMC1     O14133   3.091   1.904   1.251  0.1087 -0.4997 -0.1158
    1TMC1     H14134   3.320   1.883   1.236  0.7067  1.3088 -0.1699
    1TMC1    H114135   3.087   1.680   0.938  1.5296  0.2032 -2.3447
    1TMC1    H214136   3.495   1.627   0.937 -0.7422 -0.9904 -0.6779
    1TMC1    C714137   3.282   1.588   0.814  0.3735  0.1219  0.5001
    1TMC1    C814138   3.549   1.765   1.172 -0.3025  0.7767 -0.1054
    1TMC1    O114139   3.370   1.573   0.730 -0.6322 -0.1365  0.0265
    1TMC1    O214140   3.596   1.863   1.228  0.2374  0.5679  0.3743
    1TMC1    O314141   3.186   1.494   0.839  0.2307 -0.1509 -0.3065
    1TMC1    H314142   3.159   1.478   0.932  2.0693  2.8890  0.7340
    1TMC1    O514143   3.590   1.636   1.203  0.7218 -0.1696 -0.6917
    1TMC1    H514144   3.536   1.572   1.153 -1.7863  1.9143 -0.6452
    2MPD1     C14145   2.575   1.777   1.305 -0.3279 -0.2466 -0.2956
    2MPD1    C114146   2.593   1.699   1.190 -0.5420  0.0001  0.5913
    2MPD1    C214147   2.722   1.690   1.142 -0.0323 -1.0023  0.1501
    2MPD1    C314148   2.829   1.756   1.194  0.1294 -0.7068  0.0480
    2MPD1    C414149   2.805   1.836   1.307  0.4548 -0.7243 -0.2419
    2MPD1    C514150   2.680   1.842   1.362 -0.6035  0.3082 -0.5623
    2MPD1     H14151   2.741   1.622   1.059 -0.3209 -2.6662  1.4413
    2MPD1    H114152   2.882   1.889   1.362 -0.5434 -1.2427  1.6237
    2MPD1    H214153   2.476   1.778   1.347  1.0407 -0.0056  2.9393
    2MPD1    H314154   2.657   1.895   1.454 -1.4127  0.9553 -1.1437
    2MPD1     N14155   2.955   1.742   1.137  0.8845  0.8309  0.7375
    2MPD1    H514156   2.967   1.662   1.076 -1.9607 -0.1992  1.5327
    2MPD1    N114157   2.490   1.618   1.144 -0.2671  0.6530  0.6074
    2MPD1    H614158   2.403   1.664   1.169 -0.2819  1.4183 -0.8269
    2MPD1    H714159   2.489   1.622   1.042  0.2822  2.9266  0.6903
    1MPD1     C14160   3.235   2.705  11.692  0.0982  0.0402 -0.0062
    1MPD1    C114161   3.363   2.743  11.716  0.0159 -0.3358  0.1910
    1MPD1    C214162   3.421   2.832  11.631 -0.4894  0.0162  0.3084
    1MPD1    C314163   3.352   2.903  11.530  0.8000  0.1085  0.0311
    1MPD1    C414164   3.214   2.870  11.520  0.6846 -1.0056 -0.2593
    1MPD1    C514165   3.157   2.776  11.596 -0.3302  0.3439 -0.8882
    1MPD1     H14166   3.528   2.847  11.639 -0.3476  0.8797 -3.0404
    1MPD1    H114167   3.153   2.939  11.463 -2.1722 -2.0863  1.4885
    1MPD1    H214168   3.174   2.636  11.751 -1.3541 -0.1755 -1.7652
    1MPD1    H314169   3.050   2.758  11.595 -0.2896  0.3793 -5.3833
    1MPD1     N14170   3.418   3.005  11.457  0.0010  0.2386  0.6635
    1MPD1    H514171   3.511   3.028  11.491 -0.4476  0.2151  1.9142
    1MPD1    N114172   3.439   2.665  11.809  0.0080 -0.1392  0.8268
    1MPD1    H614173   3.505   2.725  11.857  0.1793  0.2213  0.1318
    1MPD1    H714174   3.375   2.636  11.883 -0.3946 -0.8113  0.2096
    2MPD1     C14175   3.023   2.127  11.284  0.3835 -0.0800  0.0637
    2MPD1    C114176   3.009   2.106  11.146  0.8594  0.2239 -0.6295
    2MPD1    C214177   3.016   2.216  11.061 -0.6434  0.3741 -0.0407
    2MPD1    C314178   3.084   2.329  11.108 -0.0654 -0.0001  0.4404
    2MPD1    C414179   3.109   2.344  11.242  0.0921 -0.9169 -0.0010
    2MPD1    C514180   3.075   2.242  11.324 -1.0652 -0.0769 -0.0402
    2MPD1     H14181   2.996   2.205  10.955 -2.3122  1.2339  0.1836
    2MPD1    H114182   3.138   2.439  11.284 -0.4545  0.3187 -2.4470
    2MPD1    H214183   3.002   2.048  11.357 -0.9700  1.7451  1.6525
    2MPD1    H314184   3.083   2.261  11.430  1.3317 -0.0571 -0.2295
    2MPD1     N14185   3.128   2.434  11.023 -0.1788 -0.1552 -0.0910
    2MPD1    H514186   3.175   2.515  11.062 -1.7012  0.4353  0.5107
    2MPD1    N114187   2.952   1.990  11.096 -0.2636 -0.3734 -0.3255
    2MPD1    H614188   2.989   1.906  11.140  0.2813 -1.0505 -2.0899
    2MPD1    H714189   2.977   1.990  10.997  1.5592  0.0953  0.1355
    3MPD1     C14190   2.886   2.542  10.053  0.3747  0.0969 -0.8743
    3MPD1    C114191   2.935   2.429  10.120  0.2441  0.6236 -0.7507
    3MPD1    C214192   3.001   2.453  10.242 -0.2694  0.0315  0.8113
    3MPD1    C314193   3.025   2.578  10.299 -0.3169 -0.8705  0.1355
    3MPD1    C414194   2.997   2.682  10.226  0.3339  0.5281 -0.1512
    3MPD1    C514195   2.926   2.668  10.102 -0.3312 -0.5024 -0.0220
    3MPD1     H14196   3.040   2.366  10.294 -0.5410  0.1763  1.2521
    3MPD1    H114197   3.032   2.781  10.253 -2.2394  0.9515  1.6595
    3MPD1    H214198   2.825   2.543   9.964  1.3476 -0.2042 -1.5481
    3MPD1    H314199   2.884   2.750  10.045  2.1569  0.8011  0.0254
    3MPD1     N14200   3.084   2.572  10.425 -0.2905 -1.1027  0.6291
    3MPD1    H514201   3.085   2.486  10.478  0.2563 -1.4077  0.1116
    3MPD1    N114202   2.895   2.304  10.079  0.2409  0.3028 -0.2332
    3MPD1    H614203   2.933   2.217  10.118 -0.5488 -0.3427 -0.8958
    3MPD1    H714204   2.863   2.304   9.982 -1.3981 -0.5551  0.3181
    4MPD2     C14205   3.498   3.545  10.819  0.5652  0.3364  0.5430
    4MPD2    C114206   3.594   3.520  10.915 -0.7314 -0.9172  0.3223
    4MPD2    C214207   3.729   3.534  10.882 -0.7775  0.6672 -0.4633
    4MPD2    C314208   3.773   3.570  10.757  0.0106 -0.5734  0.6195
    4MPD2    C414209   3.675   3.594  10.667  0.5930  1.1070  0.3027
    4MPD2    C514210   3.543   3.580  10.695  0.3235  0.2557 -0.5522
    4MPD2     H14211   3.793   3.519  10.968 -0.7845 -0.1762 -0.6014
    4MPD2    H114212   3.690   3.609  10.560  1.6443  2.7886  0.6914
    4MPD2    H214213   3.393   3.525  10.838 -0.1638  2.2406 -1.5046
    4MPD2    H314214   3.469   3.592  10.617  0.1796  0.7368 -0.3419
    4MPD2     N14215   3.904   3.585  10.699 -0.0726 -0.0090 -0.0700
    4MPD2    H514216   3.903   3.623  10.605  1.6166 -0.8200 -0.4195
    4MPD2    N114217   3.559   3.482  11.048 -0.5640 -0.5340 -0.6437
    4MPD2    H714218   3.634   3.468  11.115  0.9692  2.2403 -1.7433
    5TMC3    C114219   3.427   3.408  11.226 -0.0908 -0.7320 -0.5631
    5TMC3    C214220   3.361   3.289  11.242  0.0965 -0.7604 -0.1174
    5TMC3    C314221   3.427   3.194  11.316 -0.2412  0.6934 -0.0555
    5TMC3    C414222   3.534   3.436  11.303 -0.4737 -0.1444  0.5642
    5TMC3    C514223   3.602   3.331  11.357  0.3838  0.0982  0.3769
    5TMC3    C614224   3.549   3.207  11.367  0.3640  0.1470 -0.0994
    5TMC3     C14225   3.433   3.446  11.081 -0.7168  0.4607 -0.3081
    5TMC3     O14226   3.337   3.415  11.009  0.2063  0.4584 -0.1868
    5TMC3     H14227   3.282   3.251  11.178 -0.1885  1.3243 -0.9988
    5TMC3    H114228   3.583   3.532  11.293  0.3565 -0.7447 -1.1470
    5TMC3    H214229   3.604   3.125  11.414 -0.3223 -0.2000  0.0920
    5TMC3    C714230   3.743   3.338  11.339 -0.6129 -0.4531 -0.5844
    5TMC3    C814231   3.355   3.078  11.354 -0.8809  0.5177  0.6073
    5TMC3    O114232   3.783   3.412  11.247 -0.0282 -0.6682  0.2152
    5TMC3    O214233   3.244   3.062  11.302 -0.4914 -0.2583  0.5602
    6TMC3    C114234   3.187   2.546  10.816 -0.0229 -0.3661 -0.3319
    6TMC3    C214235   3.143   2.567  10.691 -0.2279  1.4134  0.0895
    6TMC3    C314236   3.219   2.652  10.611  0.2805 -0.0713  0.4631
    6TMC3    C414237   3.303   2.601  10.864 -0.0965  0.2306  0.3841
    6TMC3    C514238   3.368   2.696  10.790  0.1763 -0.7265  0.4529
    6TMC3    C614239   3.339   2.714  10.655  0.4912  0.3205  1.0477
    6TMC3     C14240   3.116   2.433  10.887  0.5856  0.2110 -0.4643
    6TMC3     O14241   3.077   2.348  10.809  0.2452 -0.4354  0.5167
    6TMC3     H14242   3.046   2.527  10.665 -0.2528  0.8714  0.9957
    6TMC3    H114243   3.350   2.561  10.953  1.1607 -0.2219 -0.4717
    6TMC3    H214244   3.386   2.780  10.583 -0.4454 -0.8373 -0.6535
    6TMC3    C714245   3.477   2.779  10.845  0.4649 -0.0518 -0.5850
    6TMC3    C814246   3.174   2.669  10.471  0.4353  1.0092 -0.3301
    6TMC3    O114247   3.523   2.869  10.776  0.4897 -0.5360 -1.3282
    6TMC3    O214248   3.203   2.771  10.413  0.0119  0.3179 -0.3950
    7MPD2     C14249   4.209   3.143  11.439  0.1840  0.6448 -0.2388
    7MPD2    C114250   4.175   3.233  11.337  0.9581  0.5135 -0.5871
    7MPD2    C214251   4.039   3.271  11.333 -0.0958 -0.2568  0.0480
    7MPD2    C314252   3.943   3.223  11.423 -0.0084  0.8960  0.0706
    7MPD2    C414253   3.985   3.138  11.520  0.0968  0.0146  0.0755
    7MPD2    C514254   4.110   3.091  11.523 -0.2102  0.5944  0.2732
    7MPD2     H14255   4.009   3.347  11.261 -0.6085 -1.3700 -0.9231
    7MPD2    H114256   3.919   3.105  11.600 -0.0253  2.1136  0.8388
    7MPD2    H214257   4.307   3.099  11.429 -0.5957 -0.8218 -1.4254
    7MPD2    H314258   4.136   3.016  11.596  0.4550  1.4228  0.8733
    7MPD2     N14259   3.807   3.258  11.428  0.1226 -0.1160 -0.0539
    7MPD2    H514260   3.749   3.193  11.481 -0.6932  1.2210  0.7002
    7MPD2    N114261   4.272   3.277  11.245  0.2691 -0.0545 -0.1775
    7MPD2    H714262   4.368   3.263  11.276  0.2942 -0.8692 -0.6003
    8TMC3    C114263   4.134   3.372  11.061 -0.0448  0.6213  0.3955
    8TMC3    C214264   4.073   3.253  11.033  0.6762  0.3368  0.8097
    8TMC3    C314265   3.986   3.237  10.923  0.1264  0.5960 -0.7461
    8TMC3    C414266   4.105   3.480  10.984  0.1046  0.0790  0.2443
    8TMC3    C514267   4.021   3.471  10.872  0.1043 -0.4264 -0.8979
    8TMC3    C614268   3.969   3.345  10.840 -0.0307 -0.4036 -0.7462
    8TMC3     C14269   4.260   3.364  11.137  0.4349 -0.4459 -0.1508
    8TMC3     O14270   4.364   3.417  11.095 -0.0439  0.2801  0.5984
    8TMC3     H14271   4.111   3.165  11.082  0.7234  2.3726  4.4553
    8TMC3    H114272   4.155   3.574  11.002  1.0488 -0.2834 -0.4838
    8TMC3    H214273   3.900   3.331  10.757 -0.5087  0.6199 -0.5169
    8TMC3    C714274   4.021   3.571  10.767 -0.6542  0.0629 -0.2680
    8TMC3    C814275   3.871   3.144  10.946 -0.7109 -0.0242  1.4606
    8TMC3    O114276   4.133   3.594  10.732 -0.3622  0.1991  0.1233
    8TMC3    O214277   3.792   3.138  10.855 -0.4435 -0.6805  0.1394
    9MPD2     C14278   3.779   2.934  11.240  0.0681  0.5375  0.0344
    9MPD2    C114279   3.779   2.976  11.110  0.6552 -0.2099  0.8575
    9MPD2    C214280   3.679   2.926  11.026  0.1629 -0.3510 -0.8707
    9MPD2    C314281   3.592   2.824  11.064  0.4677 -0.1628 -0.1881
    9MPD2    C414282   3.607   2.780  11.191 -0.0364 -0.8214 -0.2720
    9MPD2    C514283   3.696   2.832  11.278  0.3509 -0.0498 -0.4194
    9MPD2     H14284   3.664   2.975  10.931 -0.3854  2.8115  0.8303
    9MPD2    H114285   3.564   2.687  11.227 -1.0738  0.0200  0.6868
    9MPD2    H214286   3.844   2.965  11.321  0.8152  1.1330 -0.7956
    9MPD2    H314287   3.712   2.785  11.374 -0.2430  2.6730  1.0039
    9MPD2     N14288   3.490   2.764  10.984 -0.2488  0.2379 -0.0733
    9MPD2    H514289   3.431   2.694  11.027  0.4774 -1.0267 -1.1305
    9MPD2    N114290   3.873   3.079  11.072 -0.2145 -0.2587  0.0763
    9MPD2    H714291   3.942   3.119  11.135  1.1215 -2.7416  0.1922
    1MPD1     C14292   1.367   1.865  15.141 -0.0617  0.0160 -0.5750
    1MPD1    C114293   1.474   1.942  15.091 -0.1612 -0.6530 -0.4988
    1MPD1    C214294   1.577   1.965  15.184  0.0870  0.1559 -0.0285
    1MPD1    C314295   1.579   1.926  15.320  0.1335 -0.2554  0.2052
    1MPD1    C414296   1.477   1.841  15.355  0.2752 -0.0129  0.0553
    1MPD1    C514297   1.368   1.824  15.271  0.4404 -0.4851  0.3421
    1MPD1     H14298   1.661   2.026  15.153  1.0766 -0.7703  0.8130
    1MPD1    H114299   1.469   1.813  15.459 -2.5738 -2.6677 -0.8892
    1MPD1    H214300   1.276   1.842  15.087 -0.3735  1.4903 -0.6755
    1MPD1    H314301   1.275   1.785  15.311 -0.0440 -0.8750 -1.1527
    1MPD1     N14302   1.658   1.986  15.424 -0.2468  0.1425 -0.5379
    1MPD1    H514303   1.634   1.954  15.517  0.2609 -2.9733 -1.4754
    1MPD1    N114304   1.483   1.984  14.953 -0.4365  0.3477  0.0116
    1MPD1    H614305   1.554   2.052  14.924 -0.6053  0.6149  0.2270
    1MPD1    H714306   1.399   1.993  14.896 -0.8613 -1.6067  0.3317
    2TMC2    C114307   1.887   2.110  15.753 -0.0200  0.2232  0.1755
    2TMC2    C214308   1.913   2.244  15.768  0.6606 -0.4366  0.0459
    2TMC2    C314309   1.883   2.333  15.664  0.6681 -0.4133 -0.5973
    2TMC2    C414310   1.826   2.063  15.636 -0.0599  0.3418 -0.7369
    2TMC2    C514311   1.800   2.148  15.535  0.2022 -0.6225 -0.5555
    2TMC2    C614312   1.832   2.285  15.543 -0.2542 -0.4363 -0.2842
    2TMC2     C14313   1.908   2.028  15.875  0.5750 -0.5405 -1.0519
    2TMC2     O14314   1.942   2.085  15.976 -0.4469  0.2469  0.0065
    2TMC2     H14315   1.970   2.272  15.856 -0.1141  0.9522  0.1136
    2TMC2    H114316   1.783   1.963  15.628  1.1238 -0.1630 -0.9132
    2TMC2    H214317   1.821   2.355  15.461 -0.4070  0.0436  0.1475
    2TMC2    C714318   1.734   2.104  15.414 -0.6512  0.7146  0.0180
    2TMC2    C814319   1.938   2.464  15.671  1.0292  0.2688 -0.0132
    2TMC2    O114320   1.754   2.170  15.314  0.0554 -0.0161  0.3108
    2TMC2    O214321   1.999   2.516  15.580 -0.2006 -0.2607  0.1393
    2TMC2    O514322   1.938   2.507  15.794 -0.7889  0.5165  0.4051
    2TMC2    H514323   1.882   2.449  15.850  0.1492 -0.5472  0.2529
    3MPD1     C14324   1.900   1.575  16.083  0.4138 -0.5470 -1.0694
    3MPD1    C114325   1.893   1.695  16.140  0.4449  0.4033  0.0532
    3MPD1    C214326   1.888   1.811  16.063 -0.1418 -0.7522  0.3148
    3MPD1    C314327   1.908   1.795  15.926 -0.0177  0.6593  0.4825
    3MPD1    C414328   1.926   1.672  15.870  0.1618 -0.3254 -0.0054
    3MPD1    C514329   1.920   1.560  15.950 -0.2172 -0.7319  0.6493
    3MPD1     H14330   1.870   1.909  16.105 -0.4596 -1.1265  1.0521
    3MPD1    H114331   1.944   1.651  15.765  3.0049 -1.1752  0.6541
    3MPD1    H214332   1.886   1.478  16.130 -1.5264  0.3468  0.2111
    3MPD1    H314333   1.939   1.466  15.900  0.7384 -0.0619 -0.2701
    3MPD1     N14334   1.915   1.901  15.832  0.5254  0.3679 -0.5756
    3MPD1    H514335   1.914   1.880  15.733 -0.2515 -0.5630 -0.3661
    3MPD1    N114336   1.864   1.695  16.276  0.2666  0.0675  0.5293
    3MPD1    H614337   1.924   1.625  16.319  1.5994  1.4481  0.9124
    3MPD1    H714338   1.898   1.777  16.326 -1.2309  0.1910  1.3677
    1TMC1    C114339   1.208   0.294  12.968 -0.5303  0.2649  0.2304
    1TMC1    C214340   1.117   0.212  13.030 -0.3398 -0.1472 -0.3699
    1TMC1    C314341   0.997   0.199  12.976 -0.8912  0.5853 -0.0892
    1TMC1    C414342   1.178   0.352  12.845  0.1984  0.6133 -0.2744
    1TMC1    C514343   1.057   0.315  12.786 -0.3416  0.1760  0.2366
    1TMC1    C614344   0.962   0.241  12.852  0.2462  0.3538  0.1134
    1TMC1     C14345   1.354   0.297  13.002  0.2983 -0.2834 -0.0835
    1TMC1     O14346   1.424   0.338  12.914 -0.2250  0.6863  0.0613
    1TMC1     H14347   1.160   0.158  13.114  0.9118 -1.4526 -1.8599
    1TMC1    H114348   1.250   0.406  12.784  1.6328  0.0774  0.9444
    1TMC1    H214349   0.862   0.214  12.820  0.3946  0.6356 -0.5844
    1TMC1    C714350   1.035   0.350  12.648 -0.0377 -0.2901 -0.1724
    1TMC1    C814351   0.912   0.101  13.036 -0.7618 -0.7330 -0.2344
    1TMC1    O114352   1.040   0.470  12.622 -0.1761  0.4666  0.0620
    1TMC1    O214353   0.825   0.039  12.975 -0.0667  0.3430  0.0947
    1TMC1    O314354   0.941   0.268  12.606 -0.5291 -0.3005 -0.2378
    1TMC1    H314355   0.972   0.182  12.641  0.4511 -0.7027 -2.0903
    1TMC1    O514356   0.923   0.107  13.169  0.2044  0.6157 -0.2728
    1TMC1    H514357   0.990   0.176  13.191  0.4263  0.7425 -1.3210
    2MPD2     C14358   1.623   0.301  13.156 -0.0609 -0.2518 -0.0586
    2MPD2    C114359   1.496   0.324  13.214  0.2264 -0.0545  0.8300
    2MPD2    C214360   1.492   0.340  13.355  0.5914 -0.3291  0.2152
    2MPD2    C314361   1.599   0.349  13.437  0.0284  0.2667  0.4329
    2MPD2    C414362   1.722   0.330  13.380  0.7605 -0.9384  0.6155
    2MPD2    C514363   1.731   0.314  13.243 -0.0272  0.1192 -0.4577
    2MPD2     H14364   1.396   0.373  13.393  0.8341 -1.5357  1.8551
    2MPD2    H114365   1.809   0.349  13.442  0.7498 -0.4268  0.4738
    2MPD2    H214366   1.639   0.291  13.049 -1.4708 -2.3811 -0.0659
    2MPD2    H314367   1.832   0.313  13.204  0.0953 -0.0386 -0.1383
    2MPD2     N14368   1.581   0.357  13.579 -0.9397 -0.2393 -0.1221
    2MPD2    H514369   1.487   0.375  13.612 -0.5934 -0.8732  1.2233
    2MPD2    N114370   1.368   0.304  13.136 -0.0324 -0.0927 -0.2892
    2MPD2    H714371   1.284   0.287  13.190  0.6271  0.5522  0.9396
    3TCq1    O114372   1.458   0.705  14.049 -0.2264  0.6623  0.0347
    3TCq1    C114373   1.401   0.626  13.955 -0.0438  0.1597 -0.0332
    3TCq1    O214374   1.324   0.657  13.864  0.0534  0.6004 -0.5252
    3TCq1    C214375   1.509   0.530  13.943 -0.7428  0.5877  0.4160
    3TCq1    C314376   1.553   0.473  14.057  0.9122 -0.0524 -0.3527
    3TCq1    C414377   1.642   0.374  14.041  0.2424 -0.4180 -0.0201
    3TCq1    C514378   1.680   0.328  13.918  0.0592  0.3716  0.0554
    3TCq1    C614379   1.618   0.375  13.806  0.2271  0.0761 -0.2117
    3TCq1    C714380   1.528   0.478  13.820  0.1016  0.8750  0.2357
    3TCq1    C814381   1.674   0.344  13.680 -0.6235  0.1230  0.0586
    3TCq1    O414382   1.796   0.324  13.674  0.4727  0.4323  0.2265
    3TCq1    C914383   1.696   0.316  14.157 -0.4094 -0.2568 -0.3040
    3TCq1    O514384   1.670   0.380  14.261 -0.1129 -0.0699 -0.0961
    3TCq1    O614385   1.735   0.198  14.153 -0.3097 -0.2117 -0.0676
    3TCq1    H114386   1.540   0.663  14.083 -0.9290 -0.5456  0.2091
    3TCq1    H214387   1.517   0.497  14.157  2.3508 -1.9542  0.6261
    3TCq1    H314388   1.758   0.252  13.913 -1.8764 -1.6472  0.1921
    3TCq1    H414389   1.481   0.527  13.735  1.1676  0.9328 -0.3149
    1MPD2     C14390   0.725   1.444  14.957  0.2830  0.1858 -0.4368
    1MPD2    C114391   0.621   1.358  14.979  0.1604  0.2497  0.7577
    1MPD2    C214392   0.651   1.221  14.955 -0.5366  0.8413  0.8538
    1MPD2    C314393   0.780   1.177  14.930  0.0699 -0.3075  0.2252
    1MPD2    C414394   0.879   1.270  14.905 -0.2759  0.4288 -0.4204
    1MPD2    C514395   0.851   1.402  14.912 -0.3044  0.3486 -0.2746
    1MPD2     H14396   0.564   1.156  14.964  0.9020 -1.0797  0.7984
    1MPD2    H114397   0.979   1.243  14.871 -0.5844 -0.7007 -0.4451
    1MPD2    H214398   0.712   1.551  14.948  1.8641  0.5786  2.0304
    1MPD2    H314399   0.915   1.480  14.872  1.0967 -0.8577 -0.3582
    1MPD2     N14400   0.825   1.040  14.919  0.0505 -0.3867  0.2754
    1MPD2    H514401   0.924   1.033  14.899 -0.1022 -0.5977 -0.3914
    1MPD2    N114402   0.494   1.407  15.020  0.2112 -0.5924  0.6229
    1MPD2    H714403   0.482   1.507  15.025  0.4120 -0.5604  0.4945
    2TMC3    C114404   0.283   1.391  15.133  0.1879  0.7307 -0.6701
    2TMC3    C214405   0.189   1.300  15.154  0.0530  0.1754  0.4124
    2TMC3    C314406   0.068   1.310  15.091  0.4084 -0.4023  0.2348
    2TMC3    C414407   0.249   1.508  15.064 -0.2413  0.2308  0.4430
    2TMC3    C514408   0.123   1.526  15.031  0.7607 -0.3570 -0.3670
    2TMC3    C614409   0.032   1.425  15.029  0.4430 -0.0485  0.3802
    2TMC3     C14410   0.404   1.322  15.085  0.2736 -0.1080 -0.1098
    2TMC3     O14411   0.395   1.204  15.099 -0.1818  0.5331 -0.0871
    2TMC3     H14412   0.216   1.213  15.213  2.4569  1.3490  1.0449
    2TMC3    H114413   0.317   1.592  15.050  0.3351 -0.3989 -0.4988
    2TMC3    H214414   4.678   1.425  14.970  1.4881 -0.5446 -1.2245
    2TMC3    C714415   0.093   1.647  14.953  0.1769  0.5908 -0.3491
    2TMC3    C814416   0.022   1.190  15.022  0.5720  0.4498 -0.3567
    2TMC3    O114417   4.727   1.636  14.886  0.2905  0.4644  0.3487
    2TMC3    O214418   4.647   1.181  14.970 -0.3719 -0.0990 -0.0169
    3TCq1    O114419   0.634   2.792  15.088  0.2567  0.0000  0.1664
    3TCq1    C114420   0.601   2.754  14.964 -0.0292  0.6339  0.2544
    3TCq1    O214421   0.514   2.808  14.897  0.0313 -0.2132 -0.3505
    3TCq1    C214422   0.603   2.604  14.966  0.1602  0.2435 -0.0052
    3TCq1    C314423   0.713   2.542  15.018 -0.4913 -0.4979  0.7396
    3TCq1    C414424   0.708   2.410  15.028 -0.0988 -1.0135  0.3305
    3TCq1    C514425   0.596   2.334  14.988 -0.3752  0.0107  0.0565
    3TCq1    C614426   0.491   2.401  14.933 -0.4916  0.4291 -1.1315
    3TCq1    C714427   0.488   2.540  14.917 -0.2412 -0.1797  0.1965
    3TCq1    C814428   0.366   2.331  14.916  0.4983 -0.5624  0.2672
    3TCq1    O414429   0.280   2.405  14.870  0.2919  0.5345  0.8878
    3TCq1    C914430   0.816   2.342  15.091  0.7587 -0.8444  0.0959
    3TCq1    O514431   0.799   2.217  15.092 -0.2384 -0.2139 -0.2604
    3TCq1    O614432   0.909   2.408  15.137 -0.1411  0.7732 -0.8224
    3TCq1    H114433   0.676   2.720  15.139  0.6565  0.4196  0.4234
    3TCq1    H214434   0.799   2.603  15.045  1.6298 -1.5982 -3.6217
    3TCq1    H314435   0.590   2.226  14.994 -0.9748 -0.0483 -1.5099
    3TCq1    H414436   0.395   2.593  14.899 -1.7345 -3.0279 -0.3045
    4MPD2     C14437   0.147   2.137  14.825 -0.6908 -0.6496 -0.0507
    4MPD2    C114438   0.254   2.106  14.905 -0.1097 -0.1847  0.2295
    4MPD2    C214439   0.258   1.979  14.966 -0.2370 -0.6939 -0.4888
    4MPD2    C314440   0.170   1.886  14.931 -0.0065  0.3785 -0.2939
    4MPD2    C414441   0.061   1.923  14.868 -0.2728  0.4055 -0.3269
    4MPD2    C514442   0.045   2.052  14.822 -0.1041  0.1714 -0.2171
    4MPD2     H14443   0.342   1.945  15.025  1.0684  1.6386 -0.9975
    4MPD2    H114444   4.717   1.860  14.832 -0.5055  0.1815  0.5919
    4MPD2    H214445   0.128   2.240  14.800 -0.7948  0.2134  3.5218
    4MPD2    H314446   4.685   2.076  14.780 -0.0410  1.9314  0.6475
    4MPD2     N14447   0.182   1.753  14.976 -0.1448 -0.8000  0.3777
    4MPD2    H514448   0.255   1.733  15.044  1.1126 -0.8400 -0.9899
    4MPD2    N114449   0.357   2.200  14.946 -0.3104  0.4558 -0.1098
    4MPD2    H714450   0.426   2.162  15.010 -1.3965 -0.5135  0.4793
    5TMC2    C114451   0.629   0.667  14.774  0.8201  0.1049 -0.6489
    5TMC2    C214452   0.706   0.662  14.653  1.2144 -0.4255 -0.2614
    5TMC2    C314453   0.808   0.754  14.646 -1.1208  0.0267 -0.1743
    5TMC2    C414454   0.675   0.730  14.894  0.0482  0.3146 -0.1803
    5TMC2    C514455   0.786   0.803  14.880 -0.0414  0.5737 -0.1803
    5TMC2    C614456   0.843   0.827  14.754 -0.5669 -0.0063  0.0854
    5TMC2     C14457   0.489   0.689  14.754 -0.6380 -0.3350 -0.5241
    5TMC2     O14458   0.443   0.646  14.653 -0.1375  0.6089  0.0131
    5TMC2     H14459   0.682   0.607  14.563  0.8249  2.5754 -2.0000
    5TMC2    H114460   0.617   0.712  14.984  1.0638 -0.9179  0.2274
    5TMC2    H214461   0.927   0.895  14.745 -1.0532  0.4489 -1.0513
    5TMC2    C714462   0.744   0.925  14.937 -0.3864 -0.3030  0.5609
    5TMC2    C814463   0.880   0.764  14.518  0.0672 -0.3305  0.4119
    5TMC2    O114464   0.629   0.932  14.977  0.1848 -0.0248  0.0890
    5TMC2    O214465   0.998   0.790  14.515 -0.5633 -0.0383 -0.1194
    5TMC2    O514466   0.776   0.805  14.435 -0.7542 -0.6949 -0.5276
    5TMC2    H514467   0.684   0.807  14.470 -0.5988  0.3682 -0.1861
    6MPD2     C14468   0.048   0.949  14.848 -0.1993 -0.2574  0.3126
    6MPD2    C114469   0.151   0.999  14.927  0.4284  0.7502  0.5819
    6MPD2    C214470   0.279   0.939  14.928 -0.1766  0.3367  0.2418
    6MPD2    C314471   0.308   0.844  14.835  0.1435 -0.5362  0.5886
    6MPD2    C414472   0.213   0.800  14.748  0.0805  0.1627 -0.3181
    6MPD2    C514473   0.086   0.852  14.757  0.7536 -0.1019  0.5853
    6MPD2     H14474   0.361   0.971  14.990 -0.5394 -0.0090  0.9050
    6MPD2    H114475   0.230   0.738  14.662 -0.7392 -0.8266  0.2387
    6MPD2    H214476   4.685   0.990  14.840 -0.0081  0.1080 -0.1412
    6MPD2    H314477   0.004   0.820  14.693  2.5195 -1.9751 -0.7766
    6MPD2     N14478   0.436   0.781  14.841  0.4798 -0.6322 -0.2664
    6MPD2    H514479   0.510   0.811  14.903  1.2452 -1.0619 -0.9772
    6MPD2    N114480   0.131   1.114  15.008 -0.1268  0.9272 -0.7163
    6MPD2    H714481   0.214   1.149  15.055 -0.4477  1.0781 -0.2569
  945NH3     N114482   2.170   1.683   8.297 -0.3277  0.0769  0.2990
  945NH3     H214483   2.111   1.603   8.276  2.5616 -2.0187  0.2237
  945NH3     H314484   2.219   1.680   8.208  1.3412  0.4264  1.2116
  945NH3     H414485   2.242   1.645   8.357 -1.0531  0.0506  1.1654
  946SOD     NA14486   1.771   0.251  14.405 -0.4715 -0.0754  0.0434
  947SOD     NA14487   1.156   2.140  12.445  0.3048 -0.3067  0.2391
  948SOD     NA14488   2.262   4.737   4.134  0.3567 -0.3053 -0.3078
  949SOD     NA14489   0.104   4.516  10.650  0.1695  0.0177 -0.0370
  950SOD     NA14490   4.312   1.955   8.223 -0.6159  0.0129  0.2430
  951SOD     NA14491   0.298   4.695   4.800 -0.1850 -0.1422  0.3466
  952SOD     NA14492   1.144   1.310  15.365 -0.2119  0.0079  0.3211
  953SOD     NA14493   2.446   2.472  10.848 -0.2055 -0.6091 -0.0118
  954SOL     OW14494   3.307   4.401   8.016  0.1946  0.0035 -0.4641
  954SOL    HW114495   3.267   4.357   8.091 -0.9136  1.3246 -0.2689
  954SOL    HW214496   3.305   4.331   7.951 -1.9532 -0.0216 -0.4030
  955SOL     OW14497   3.767   0.243  15.960  0.1071  0.6690  0.3521
  955SOL    HW114498   3.762   0.333  15.991 -1.7081  1.5952 -2.5879
  955SOL    HW214499   3.855   0.249  15.922 -0.6838 -0.9637 -1.7293
  956SOL     OW14500   3.809   0.756  11.423 -0.7622 -0.3859  0.3553
  956SOL    HW114501   3.874   0.762  11.353 -2.9389  0.4351 -1.5974
  956SOL    HW214502   3.854   0.694  11.480  0.0974 -0.1279 -0.0319
  957SOL     OW14503   4.172   4.733   6.374  0.3484 -0.2664 -0.4878
  957SOL    HW114504   4.146   0.061   6.309  0.7748  1.4372  1.0243
  957SOL    HW214505   4.240   4.685   6.327  2.0636  0.0871  1.5972
  958SOL     OW14506   2.943   4.240   1.408 -0.4286  0.2747  0.2373
  958SOL    HW114507   3.029   4.227   1.368 -0.4041  2.0193 -0.2685
  958SOL    HW214508   2.923   4.146   1.408  0.9724 -0.0428 -4.0901
  959SOL     OW14509   3.126   4.450   4.244 -0.2032 -0.3177  0.0866
  959SOL    HW114510   3.139   4.384   4.176  0.8749 -1.3686  1.3310
  959SOL    HW214511   3.093   4.523   4.192 -1.0581 -1.5149 -1.0549
  960SOL     OW14512   0.639   2.046  15.180  0.4241  0.0642 -0.2237
  960SOL    HW114513   0.695   1.969  15.195 -0.1227 -0.4349 -0.7447
  960SOL    HW214514   0.694   2.117  15.146  1.0553 -0.0065  0.6452
  961SOL     OW14515   1.693   0.412   6.963 -0.7252  0.1808 -0.2074
  961SOL    HW114516   1.704   0.408   7.058 -1.8287  0.6261 -0.0503
  961SOL    HW214517   1.717   0.500   6.937 -0.5130  0.3430  0.5444
  962SOL     OW14518   3.049   0.067  11.383 -0.0640  0.4592  0.8117
  962SOL    HW114519   3.096   4.725  11.357 -0.9871 -0.5808  2.2690
  962SOL    HW214520   3.061   0.074  11.478 -1.4661  1.1523  0.9398
  963SOL     OW14521   0.932   3.903  10.671  0.2326 -0.2254  0.9749
  963SOL    HW114522   0.850   3.869  10.709 -0.4210 -1.4179 -1.5377
  963SOL    HW214523   0.967   3.931  10.756  2.8781  2.3774 -0.9952
  964SOL     OW14524   0.145   4.532   5.944 -0.0125 -0.8928  0.4938
  964SOL    HW114525   0.110   4.445   5.965  0.3249 -0.9880  0.6653
  964SOL    HW214526   0.207   4.548   6.015  1.1574  2.5868 -1.2808
  965SOL     OW14527   1.010   0.136   8.402 -0.2628  0.0835  0.0359
  965SOL    HW114528   0.950   0.085   8.349 -2.4113  0.2360  2.3171
  965SOL    HW214529   0.964   0.129   8.486 -1.6912  1.3855 -0.6381
  966SOL     OW14530   3.966   0.331   6.119 -0.1369 -0.1429 -0.2184
  966SOL    HW114531   3.968   0.318   6.214  1.6909  1.4264 -0.0569
  966SOL    HW214532   4.043   0.285   6.087 -0.4988 -0.7291 -0.2534
  967SOL     OW14533   0.932   0.918  16.590 -0.1557 -0.0078  0.2343
  967SOL    HW114534   0.889   0.984  16.535  0.3411 -1.3580 -1.7803
  967SOL    HW214535   0.889   0.845  16.546  0.9939 -0.9954  0.7796
  968SOL     OW14536   3.139   0.263   1.121 -0.1235 -0.0167  0.0827
  968SOL    HW114537   3.068   0.220   1.168 -1.4468  2.9588  0.8600
  968SOL    HW214538   3.141   0.202   1.047  3.2653 -1.3327  1.2829
  969SOL     OW14539   3.058   2.948   7.999  0.1214  0.6740 -0.1169
  969SOL    HW114540   3.122   2.956   8.070 -2.0159 -0.6681  1.9271
  969SOL    HW214541   3.024   3.037   7.989 -0.6019  0.6593  2.1287
  970SOL     OW14542   2.031   0.678   6.316  0.3875 -0.2108 -0.1468
  970SOL    HW114543   2.002   0.602   6.266  1.0484 -1.0648  0.7786
  970SOL    HW214544   2.124   0.682   6.293  0.4920 -0.9147  0.1487
  971SOL     OW14545   0.541   4.434   6.344 -0.0090  0.0330  0.2212
  971SOL    HW114546   0.557   4.342   6.325 -1.3110 -0.3771  1.1070
  971SOL    HW214547   0.473   4.429   6.411 -1.9788  0.0982 -1.7791
  972SOL     OW14548   0.850   1.458   8.779 -0.0020  0.4872 -0.1301
  972SOL    HW114549   0.930   1.417   8.745 -0.8253  0.2309 -1.7527
  972SOL    HW214550   0.796   1.380   8.791  0.9175  0.1571  1.8238
  973SOL     OW14551   4.641   1.303  17.533  0.6811  0.3451  0.5229
  973SOL    HW114552   4.571   1.252  17.493  1.3192  1.4227 -1.9372
  973SOL    HW214553   4.591   1.344  17.604 -0.7822  1.0558 -0.9453
  974SOL     OW14554   4.086   0.535   5.457 -0.5256 -0.7110  0.1219
  974SOL    HW114555   4.180   0.518   5.458 -0.0053  2.2814  0.7957
  974SOL    HW214556   4.040   0.450   5.459  1.0820 -1.5223  2.0319
  975SOL     OW14557   4.411   0.796   4.940 -0.3540 -0.0540 -0.0365
  975SOL    HW114558   4.448   0.729   4.884  0.1070 -0.3300  0.5934
  975SOL    HW214559   4.399   0.867   4.877  2.3114  0.2037 -0.2500
  976SOL     OW14560   1.903   2.047  12.799  0.8844 -0.3736  0.4258
  976SOL    HW114561   1.814   2.061  12.767  1.3398  0.9853 -0.2546
  976SOL    HW214562   1.946   2.132  12.792  1.1362 -0.3180  2.8289
  977SOL     OW14563   4.143   1.175   4.585  0.6264 -0.0264  0.1286
  977SOL    HW114564   4.101   1.254   4.551  1.1734  0.3991  0.4417
  977SOL    HW214565   4.222   1.200   4.633  0.7251  1.2575 -0.6770
  978SOL     OW14566   1.202   0.822   7.666 -0.3874  0.2818 -0.1377
  978SOL    HW114567   1.153   0.775   7.598 -0.4792 -1.5531  1.1940
  978SOL    HW214568   1.285   0.829   7.619 -0.8991 -0.7790 -1.2131
  979SOL     OW14569   1.197   1.687   2.063  0.0618  0.0600 -0.1774
  979SOL    HW114570   1.223   1.659   1.975 -1.0570  2.0537 -1.1396
  979SOL    HW214571   1.102   1.676   2.064  0.1639 -0.7846  0.2552
  980SOL     OW14572   3.461   1.377   5.593  0.0092 -0.1052  0.1106
  980SOL    HW114573   3.380   1.366   5.643 -0.1384  2.1906  0.3776
  980SOL    HW214574   3.423   1.377   5.505  2.3978  2.2696 -0.8998
  981SOL     OW14575   4.119   4.277   2.019 -0.1858 -0.1764 -1.1930
  981SOL    HW114576   4.117   4.336   1.944 -0.1387 -0.2606 -1.2603
  981SOL    HW214577   4.038   4.226   2.018  0.8166 -1.8136 -0.5455
  982SOL     OW14578   0.697   3.068   5.308 -0.6521 -0.1308 -0.3346
  982SOL    HW114579   0.615   3.024   5.330 -1.1693  0.6357 -0.7267
  982SOL    HW214580   0.718   3.114   5.389 -2.2941  0.3587 -0.1881
  983SOL     OW14581   3.773   1.293   2.699 -0.5815  0.8759  0.0561
  983SOL    HW114582   3.731   1.379   2.695  1.0663  1.7039  0.9267
  983SOL    HW214583   3.721   1.233   2.753  1.0936  0.8979  1.7050
  984SOL     OW14584   3.575   0.794   7.913  0.3636 -0.3987 -0.0189
  984SOL    HW114585   3.605   0.874   7.957 -0.8114  0.7117 -1.2304
  984SOL    HW214586   3.514   0.823   7.846  0.0481  1.7432  1.1949
  985SOL     OW14587   4.283   1.180   3.413 -0.0069 -0.2974 -0.3862
  985SOL    HW114588   4.217   1.114   3.391 -2.3756  1.1589  2.4764
  985SOL    HW214589   4.233   1.261   3.400 -0.2795 -0.5035 -0.6260
  986SOL     OW14590   1.388   3.247   8.664 -1.1828  0.1069 -0.3135
  986SOL    HW114591   1.391   3.325   8.608  1.5086 -0.3460 -0.8016
  986SOL    HW214592   1.392   3.283   8.753 -0.0312  1.0529 -0.7514
  987SOL     OW14593   2.404   2.995  14.998 -0.1936  0.2407 -0.0189
  987SOL    HW114594   2.364   3.079  15.020 -0.2050  0.0289  0.7589
  987SOL    HW214595   2.443   3.016  14.913  0.4777  0.5018  0.3592
  988SOL     OW14596   2.534   1.790   1.729 -0.2217  0.1067 -0.2205
  988SOL    HW114597   2.517   1.759   1.818  0.5683 -1.6872 -0.6835
  988SOL    HW214598   2.459   1.848   1.719  1.5333  2.4028 -0.2181
  989SOL     OW14599   1.613   4.197   4.242 -0.4927 -0.0712  0.2924
  989SOL    HW114600   1.521   4.208   4.216  0.0823 -0.8722 -2.0811
  989SOL    HW214601   1.614   4.102   4.255  2.1540 -0.0827 -0.0045
  990SOL     OW14602   2.335   1.727  16.967 -0.2335  0.4202  0.2035
  990SOL    HW114603   2.261   1.777  17.001 -0.3714  0.7122 -0.5180
  990SOL    HW214604   2.305   1.720  16.876 -1.1722  0.3133  0.5195
  991SOL     OW14605   3.016   1.694  11.477  0.1592 -0.4211 -0.3430
  991SOL    HW114606   2.944   1.714  11.537 -0.1134  0.1673 -0.8601
  991SOL    HW214607   2.977   1.677  11.392  0.5392 -1.5427 -0.2863
  992SOL     OW14608   0.813   2.595   3.249 -0.5895  0.4358 -0.4643
  992SOL    HW114609   0.846   2.539   3.178 -0.1517  0.6618 -0.4389
  992SOL    HW214610   0.781   2.671   3.199 -2.2358 -1.9627 -3.0584
  993SOL     OW14611   4.281   0.432   9.334  0.1641 -0.0767 -0.2897
  993SOL    HW114612   4.189   0.454   9.345  0.6020  0.9416  1.3716
  993SOL    HW214613   4.300   0.467   9.247  1.5973 -0.7200 -0.2436
  994SOL     OW14614   3.395   3.286   1.319 -0.1746  0.7830 -0.8279
  994SOL    HW114615   3.446   3.227   1.264  0.6892  1.3618 -0.6325
  994SOL    HW214616   3.340   3.324   1.250 -1.4233 -0.4019 -0.4871
  995SOL     OW14617   0.915   2.579   4.734 -0.4409  0.0133 -0.4621
  995SOL    HW114618   0.957   2.589   4.648  0.7129  1.8388  0.2945
  995SOL    HW214619   0.849   2.648   4.741 -0.3899  0.1647 -1.3896
  996SOL     OW14620   4.515   1.503   4.927  0.1923 -0.1746 -0.1406
  996SOL    HW114621   4.460   1.502   4.849  2.1101 -2.2484 -1.4519
  996SOL    HW214622   4.559   1.418   4.924  1.7775  0.7045 -1.6860
  997SOL     OW14623   0.377   1.697   3.423 -0.8221 -0.2599  0.2680
  997SOL    HW114624   0.381   1.656   3.336  1.1703 -1.4953  0.9451
  997SOL    HW214625   0.301   1.653   3.460 -1.9940  2.2701  0.8494
  998SOL     OW14626   4.287   0.345   5.208  0.2527  0.2487 -0.2756
  998SOL    HW114627   4.315   0.414   5.268  1.5248  0.0220 -0.6190
  998SOL    HW214628   4.250   0.290   5.276  0.0892  1.2614  0.4586
  999SOL     OW14629   0.026   0.760   5.119  0.3500 -0.4062  0.2164
  999SOL    HW114630   0.008   0.718   5.203  1.1370 -1.2754 -0.0522
  999SOL    HW214631   0.026   0.685   5.059 -1.9541  0.9984 -1.5552
 1000SOL     OW14632   0.166   2.271   7.652 -0.0425  0.0140  0.0448
 1000SOL    HW114633   0.189   2.254   7.561  2.2685 -1.3738  0.8668
 1000SOL    HW214634   0.092   2.329   7.635 -0.2528 -0.4276 -0.5567
 1001SOL     OW14635   3.732   4.205   0.066  0.2535  0.0622  0.0405
 1001SOL    HW114636   3.739   4.167   0.154 -2.6858  3.4779  1.7390
 1001SOL    HW214637   3.686   4.285   0.091  1.7697  0.7316  0.6852
 1002SOL     OW14638   2.060   4.624   5.703  0.3563 -0.5791  0.2386
 1002SOL    HW114639   2.041   4.558   5.636 -1.9515 -0.7146  1.0079
 1002SOL    HW214640   2.155   4.618   5.704  0.2779 -1.8785 -1.0540
 1003SOL     OW14641   2.311   4.602   1.537 -0.2841 -0.2361  0.9603
 1003SOL    HW114642   2.337   4.590   1.446  2.0091 -1.0470  1.7191
 1003SOL    HW214643   2.376   4.543   1.575  2.0865  1.5193 -0.3246
 1004SOL     OW14644   3.444   1.097   2.489  0.5341 -0.1540  0.1250
 1004SOL    HW114645   3.471   1.188   2.479 -1.2716  0.5867  2.1113
 1004SOL    HW214646   3.393   1.109   2.569 -0.2478 -0.3431 -0.3411
 1005SOL     OW14647   4.431   2.767  11.882 -0.4329 -0.1444  0.3893
 1005SOL    HW114648   4.422   2.766  11.786 -3.4595 -1.0010  0.6550
 1005SOL    HW214649   4.498   2.830  11.905 -1.3818  1.1269 -0.2913
 1006SOL     OW14650   1.821   1.988   2.199  0.0830 -0.2134 -0.0262
 1006SOL    HW114651   1.834   2.058   2.263 -1.0801 -0.1540  0.1469
 1006SOL    HW214652   1.730   1.964   2.214 -0.3485  1.7767  0.4442
 1007SOL     OW14653   2.426   0.976   4.893 -0.6586  0.1906  0.1441
 1007SOL    HW114654   2.422   1.058   4.944 -1.9534  0.0640  0.2433
 1007SOL    HW214655   2.385   1.007   4.813  1.2050 -1.6019 -1.5074
 1008SOL     OW14656   2.267   1.549   1.481  0.2741 -0.1457  0.7854
 1008SOL    HW114657   2.225   1.481   1.428  0.2964  0.7836 -0.4369
 1008SOL    HW214658   2.279   1.502   1.563  0.6117 -1.4186  0.0059
 1009SOL     OW14659   2.847   0.382   4.857 -0.3322  0.2997  0.0686
 1009SOL    HW114660   2.864   0.471   4.825  1.2502 -0.4958 -1.3103
 1009SOL    HW214661   2.860   0.392   4.951 -2.1119 -1.8784  0.5570
 1010SOL     OW14662   3.433   2.088  17.529  0.1433 -0.2009 -0.2261
 1010SOL    HW114663   3.476   2.156  17.477 -0.7800  1.4255  1.1374
 1010SOL    HW214664   3.497   2.086  17.601 -0.0123 -2.8965 -0.1531
 1011SOL     OW14665   0.660   1.284  10.575  0.1184 -0.2514  0.9182
 1011SOL    HW114666   0.749   1.316  10.557  0.0919 -1.6529 -1.6978
 1011SOL    HW214667   0.657   1.299  10.670  0.1440  0.9594  0.7241
 1012SOL     OW14668   0.101   0.355   4.873 -0.6458  0.4693  0.1575
 1012SOL    HW114669   0.083   0.447   4.853 -1.2394  0.3660  0.2230
 1012SOL    HW214670   0.027   0.330   4.928 -1.8875 -0.7196 -2.0403
 1013SOL     OW14671   1.966   1.387  15.356 -0.1408  0.6152 -0.3680
 1013SOL    HW114672   1.901   1.347  15.415  0.1119  1.3509  0.4054
 1013SOL    HW214673   2.030   1.316  15.366  0.6347  1.5901  1.5141
 1014SOL     OW14674   3.157   1.358   7.221  0.0980 -0.1758 -0.1834
 1014SOL    HW114675   3.136   1.265   7.218  0.3554 -0.2883  1.4898
 1014SOL    HW214676   3.173   1.369   7.315 -3.1827 -2.8435  0.7021
 1015SOL     OW14677   3.099   1.095  17.681 -0.1699 -0.3629 -0.4713
 1015SOL    HW114678   3.174   1.154  17.680  0.0447 -0.5741  4.5622
 1015SOL    HW214679   3.152   1.015  17.690  1.1998  0.5745 -0.3088
 1016SOL     OW14680   2.399   1.206   7.328 -0.1085  0.4760 -0.4029
 1016SOL    HW114681   2.420   1.127   7.377 -1.1717 -0.1715 -0.9970
 1016SOL    HW214682   2.425   1.188   7.238  1.3250 -0.5356  0.2279
 1017SOL     OW14683   1.059   3.914   9.055  0.5812 -0.4386  0.3260
 1017SOL    HW114684   0.987   3.976   9.042 -0.2626 -1.0476  2.0672
 1017SOL    HW214685   1.123   3.961   9.001  0.4168  1.2155  1.5498
 1018SOL     OW14686   3.338   3.267   3.151  0.1498 -0.0230 -0.3394
 1018SOL    HW114687   3.285   3.334   3.107  2.0848  0.3348 -2.1397
 1018SOL    HW214688   3.376   3.221   3.076  0.7114 -1.7046  1.0048
 1019SOL     OW14689   0.167   2.598   3.595  0.3014  0.0224  0.0585
 1019SOL    HW114690   0.182   2.512   3.635 -0.8226 -0.0516  0.3403
 1019SOL    HW214691   0.213   2.656   3.655 -0.2460  0.7544 -0.2303
 1020SOL     OW14692   0.459   4.197   6.731  0.2441 -0.0875  0.1439
 1020SOL    HW114693   0.365   4.213   6.739  0.2881  0.5931 -0.7733
 1020SOL    HW214694   0.487   4.283   6.761 -0.0277  0.0209  0.0838
 1021SOL     OW14695   4.016   2.128  16.093 -0.1401 -0.4697 -0.4096
 1021SOL    HW114696   3.948   2.195  16.095  1.3916  1.0579  0.0975
 1021SOL    HW214697   4.078   2.158  16.027  0.6822 -1.3226 -0.0312
 1022SOL     OW14698   3.323   3.203   5.318 -0.4249 -0.4750  0.3889
 1022SOL    HW114699   3.380   3.268   5.358  0.9356 -1.2693 -0.2557
 1022SOL    HW214700   3.386   3.135   5.293  0.9086  0.2878  1.6760
 1023SOL     OW14701   0.019   3.980   9.648  0.1162  0.4851  0.2314
 1023SOL    HW114702   4.710   3.952   9.727  0.8274  0.4797  0.6400
 1023SOL    HW214703   0.098   3.927   9.663 -0.4076 -0.6018 -0.8420
 1024SOL     OW14704   0.992   0.943   0.812  0.1907 -0.0645 -0.1906
 1024SOL    HW114705   0.976   0.852   0.787  2.5127 -0.8981  1.3567
 1024SOL    HW214706   0.909   0.958   0.858 -0.2636 -1.1479 -0.6436
 1025SOL     OW14707   3.766   4.293  15.455 -0.1380 -0.2786  0.7992
 1025SOL    HW114708   3.834   4.226  15.467  1.4207  0.8750 -1.5833
 1025SOL    HW214709   3.812   4.355  15.512 -0.1853  1.5100 -1.1012
 1026SOL     OW14710   1.231   4.524  13.562  0.2654 -0.2017 -0.2222
 1026SOL    HW114711   1.290   4.462  13.604 -1.2450 -0.5964  1.3044
 1026SOL    HW214712   1.211   4.583  13.634 -1.2978 -0.7449 -0.2256
 1027SOL     OW14713   2.888   1.231   8.769  0.2204 -0.5564 -0.1646
 1027SOL    HW114714   2.815   1.170   8.760  0.2890 -0.8429  1.1878
 1027SOL    HW214715   2.891   1.253   8.862 -0.7856  0.4896 -0.3988
 1028SOL     OW14716   3.529   1.770   6.693  0.2687 -0.4413 -0.4703
 1028SOL    HW114717   3.474   1.808   6.625 -0.7346  1.2459  1.2970
 1028SOL    HW214718   3.480   1.694   6.724 -1.1625  0.2548 -1.0735
 1029SOL     OW14719   0.809   1.201   6.310 -0.2208  0.1892 -0.5520
 1029SOL    HW114720   0.837   1.252   6.233  0.0052 -0.5143 -0.9363
 1029SOL    HW214721   0.877   1.220   6.374 -0.2073  1.2231 -0.8658
 1030SOL     OW14722   2.066   0.317   5.908  0.0474 -0.3196  0.1314
 1030SOL    HW114723   2.106   0.375   5.843  0.2950  0.2902  0.8359
 1030SOL    HW214724   2.005   0.272   5.849  0.3481  2.0741 -2.0138
 1031SOL     OW14725   1.773   0.947   4.723  0.3766  0.3910  0.1497
 1031SOL    HW114726   1.701   0.935   4.785 -1.9905  0.0245 -2.6580
 1031SOL    HW214727   1.729   0.952   4.638  1.1632  0.3988 -0.2543
 1032SOL     OW14728   0.117   2.112  10.728 -0.4502  0.3266  0.0704
 1032SOL    HW114729   0.160   2.198  10.723  2.3634 -0.9596  2.1972
 1032SOL    HW214730   0.034   2.117  10.681 -0.1243 -0.1794 -0.5659
 1033SOL     OW14731   0.429   1.018   3.508 -0.3379 -0.6561  0.2405
 1033SOL    HW114732   0.360   0.954   3.493 -0.3073 -0.2316 -1.6819
 1033SOL    HW214733   0.479   1.008   3.427  1.5075  0.3597  1.2446
 1034SOL     OW14734   2.241   3.570   8.705 -0.4601 -0.4945 -0.3426
 1034SOL    HW114735   2.307   3.504   8.721  0.0105  0.2831  0.9037
 1034SOL    HW214736   2.294   3.648   8.689 -1.1153 -0.0866 -0.5262
 1035SOL     OW14737   0.828   3.352   4.974 -1.2198  0.4685 -0.0553
 1035SOL    HW114738   0.920   3.327   4.986 -1.4012  0.7012  1.7346
 1035SOL    HW214739   0.792   3.265   4.955 -3.0755  1.3464 -0.5408
 1036SOL     OW14740   3.232   3.379   4.774 -0.1265  0.1401  0.1766
 1036SOL    HW114741   3.227   3.374   4.869 -1.3275  0.8406  0.1500
 1036SOL    HW214742   3.170   3.312   4.747  2.3905 -2.2321  0.2565
 1037SOL     OW14743   1.905   1.927   6.575  0.3452 -0.1837 -0.2069
 1037SOL    HW114744   1.864   1.950   6.491  0.5727 -1.0367 -0.5493
 1037SOL    HW214745   1.866   1.987   6.639  0.4360  0.7307 -1.0129
 1038SOL     OW14746   4.183   3.342   7.076 -0.1632  0.0002 -0.2681
 1038SOL    HW114747   4.124   3.363   7.148  0.6918  0.4812  0.2932
 1038SOL    HW214748   4.198   3.248   7.090 -0.7890 -0.1406 -0.5753
 1039SOL     OW14749   1.839   2.294  13.781 -0.9029  0.0685 -0.3611
 1039SOL    HW114750   1.762   2.336  13.741  0.9472  2.4000 -1.4817
 1039SOL    HW214751   1.896   2.370  13.791 -0.3806 -0.2643 -0.8379
 1040SOL     OW14752   3.813   1.742   8.697 -0.2339 -0.0662 -0.8975
 1040SOL    HW114753   3.766   1.686   8.635 -0.5446  0.3116 -1.0034
 1040SOL    HW214754   3.897   1.740   8.651 -0.1652  2.2171 -0.8525
 1041SOL     OW14755   0.310   0.800  10.704  0.4376  0.0246 -0.1912
 1041SOL    HW114756   0.221   0.772  10.727  0.5963 -0.4425 -0.1588
 1041SOL    HW214757   0.299   0.850  10.623 -0.7428  0.2675  0.1078
 1042SOL     OW14758   0.378   3.538   9.334 -0.1793  0.5618 -0.3641
 1042SOL    HW114759   0.357   3.585   9.415 -0.5833 -1.5174  0.7251
 1042SOL    HW214760   0.466   3.572   9.319 -0.9906  2.7337 -0.1996
 1043SOL     OW14761   4.607   0.477   0.193 -0.1914 -0.5857 -0.7792
 1043SOL    HW114762   4.526   0.518   0.163 -0.2198 -1.2176 -1.5730
 1043SOL    HW214763   4.577   0.387   0.206  1.5384 -1.2791 -1.5986
 1044SOL     OW14764   0.542   3.554   5.503 -0.2420 -0.1613 -0.3313
 1044SOL    HW114765   0.479   3.484   5.523  1.5968 -1.2974  1.4927
 1044SOL    HW214766   0.485   3.630   5.494  0.7376  0.7191  0.8562
 1045SOL     OW14767   0.843   4.081   7.278 -0.1332 -0.2767  0.3661
 1045SOL    HW114768   0.878   4.151   7.222 -0.3145  0.7787  1.5843
 1045SOL    HW214769   0.770   4.119   7.325  1.0253  0.3150  1.6741
 1046SOL     OW14770   1.704   1.891   3.109 -0.4854  0.3925 -0.2549
 1046SOL    HW114771   1.792   1.854   3.112 -0.6311  0.1461  0.9869
 1046SOL    HW214772   1.640   1.821   3.096  0.9229 -0.6888 -1.2565
 1047SOL     OW14773   2.541   1.381   7.862  0.2194  0.4458  0.2725
 1047SOL    HW114774   2.539   1.328   7.782  1.9169 -0.8280  1.0764
 1047SOL    HW214775   2.465   1.344   7.906  0.2361 -0.3580 -0.3877
 1048SOL     OW14776   1.238   2.535   6.340  0.2495  0.4939 -0.3197
 1048SOL    HW114777   1.148   2.562   6.353  1.5569  4.7023 -0.1345
 1048SOL    HW214778   1.283   2.614   6.310 -0.5951  0.1988 -2.3449
 1049SOL     OW14779   2.300   4.420   7.183 -0.2907 -0.1096 -0.0247
 1049SOL    HW114780   2.373   4.473   7.152 -0.4824  1.5811  2.4219
 1049SOL    HW214781   2.258   4.410   7.098  2.2261  0.3211 -1.3224
 1050SOL     OW14782   4.649   2.988  13.003 -0.1312 -0.1230  0.1459
 1050SOL    HW114783   4.602   3.065  12.972 -0.2089 -0.8379 -1.4750
 1050SOL    HW214784   4.720   2.986  12.939 -0.6851  1.0154 -0.5062
 1051SOL     OW14785   1.371   1.287  15.528  0.1957 -0.4106  0.0079
 1051SOL    HW114786   1.325   1.328  15.600 -0.5216  1.0109 -1.2531
 1051SOL    HW214787   1.373   1.195  15.555 -1.3367 -0.5563 -0.3714
 1052SOL     OW14788   0.825   1.799   8.660 -0.0519 -0.3590 -0.4102
 1052SOL    HW114789   0.901   1.766   8.612 -1.2666 -1.9591 -1.2623
 1052SOL    HW214790   0.830   1.891   8.634 -0.6251 -0.5020 -1.0600
 1053SOL     OW14791   2.527   0.031   4.041  0.1944  0.1372 -0.2620
 1053SOL    HW114792   2.590   0.047   4.112 -2.1307  1.2243  1.5493
 1053SOL    HW214793   2.505   0.123   4.029 -0.1570  0.2986  1.6044
 1054SOL     OW14794   1.873   2.008   6.278 -0.1731  0.3840 -0.1615
 1054SOL    HW114795   1.787   2.002   6.236 -0.1411  1.4615 -0.3844
 1054SOL    HW214796   1.925   1.931   6.253  0.7721  0.4324  1.6517
 1055SOL     OW14797   1.399   0.312  16.653  0.0620  0.4453  0.1448
 1055SOL    HW114798   1.459   0.245  16.621  0.0725  0.5779 -0.1086
 1055SOL    HW214799   1.320   0.258  16.657  0.8369 -0.7073  0.0134
 1056SOL     OW14800   3.084   3.444   0.773  0.0092  0.4599 -0.2714
 1056SOL    HW114801   3.044   3.484   0.696  0.4443  0.4580 -0.4990
 1056SOL    HW214802   3.139   3.380   0.728  3.0545  1.1851  2.4179
 1057SOL     OW14803   4.071   1.785   8.546 -0.4319 -0.1479 -0.2437
 1057SOL    HW114804   4.097   1.696   8.521 -2.2085 -0.4476 -1.0663
 1057SOL    HW214805   4.097   1.835   8.469 -0.9621 -0.6394 -0.7535
 1058SOL     OW14806   3.704   3.396   7.880 -0.2309 -0.2733 -0.1289
 1058SOL    HW114807   3.753   3.468   7.920 -0.8241 -0.6673  1.3144
 1058SOL    HW214808   3.737   3.331   7.942  0.3239 -1.2537 -1.4700
 1059SOL     OW14809   3.666   0.728   9.763 -0.3448 -0.2875  0.0886
 1059SOL    HW114810   3.741   0.735   9.704 -0.5303 -2.7117 -0.4182
 1059SOL    HW214811   3.702   0.749   9.849 -0.1035 -1.3183  0.2355
 1060SOL     OW14812   4.225   2.771   1.615  0.4358 -0.3367 -0.0644
 1060SOL    HW114813   4.134   2.774   1.587  0.0692 -2.7287  0.8215
 1060SOL    HW214814   4.271   2.815   1.544 -1.5425 -0.0054 -1.1368
 1061SOL     OW14815   0.188   3.251   2.814 -0.2808 -0.1280 -0.2934
 1061SOL    HW114816   0.116   3.193   2.789 -2.0317  0.6137  3.0570
 1061SOL    HW214817   0.149   3.322   2.865 -1.7297 -2.1940  1.4675
 1062SOL     OW14818   3.659   0.470   5.785 -0.2756 -0.3040 -0.5953
 1062SOL    HW114819   3.721   0.400   5.805 -2.8189 -1.8827  1.7157
 1062SOL    HW214820   3.685   0.500   5.697 -0.4361 -0.8453 -0.8274
 1063SOL     OW14821   2.464   4.230   0.013  0.0732  0.2041 -0.5354
 1063SOL    HW114822   2.372   4.207  17.745  0.8739 -2.0959 -2.0171
 1063SOL    HW214823   2.465   4.265   0.101  1.9840 -0.6415 -0.2146
 1064SOL     OW14824   0.699   3.981   8.329  0.3128  0.2910 -0.2736
 1064SOL    HW114825   0.730   3.973   8.419 -0.5223  2.5098  0.1949
 1064SOL    HW214826   0.786   3.976   8.289  0.8434  1.8074  0.6875
 1065SOL     OW14827   2.251   1.531   0.317  0.2901  0.2713 -0.4680
 1065SOL    HW114828   2.339   1.530   0.355 -0.1478  0.1472  0.5479
 1065SOL    HW214829   2.265   1.593   0.246 -1.2949  0.6319 -0.4579
 1066SOL     OW14830   0.412   1.183  11.751  0.4491  0.2086  0.3631
 1066SOL    HW114831   0.435   1.196  11.659 -3.3263  1.9006 -0.3177
 1066SOL    HW214832   0.449   1.096  11.766  1.9338  0.8119  0.1909
 1067SOL     OW14833   0.315   1.028  14.443 -0.2218  0.3521 -0.0766
 1067SOL    HW114834   0.281   1.093  14.505  1.2534  1.2849 -0.2652
 1067SOL    HW214835   0.233   0.978  14.437  0.0373 -0.0409 -0.3149
 1068SOL     OW14836   0.048   0.453   5.743  0.3328 -0.1623  0.5694
 1068SOL    HW114837   4.706   0.444   5.689  0.1774 -0.3059  0.8157
 1068SOL    HW214838   0.028   0.530   5.797  2.0854  1.2088 -0.7367
 1069SOL     OW14839   4.072   4.249   1.597 -0.3975  0.8147  0.0775
 1069SOL    HW114840   4.140   4.308   1.565  0.3114  0.3871  0.7971
 1069SOL    HW214841   4.016   4.306   1.649 -0.4411  0.4231  0.4567
 1070SOL     OW14842   2.253   1.457   8.111  0.3467  0.3732  0.1394
 1070SOL    HW114843   2.339   1.415   8.104  1.0491  1.7955  0.0988
 1070SOL    HW214844   2.201   1.389   8.069  0.0269 -0.2952  1.6178
 1071SOL     OW14845   0.494   2.717  17.245  0.0579  0.4800 -0.4414
 1071SOL    HW114846   0.482   2.723  17.150  0.8217 -1.9229 -0.6943
 1071SOL    HW214847   0.470   2.804  17.275  1.2502  2.4241 -5.0611
 1072SOL     OW14848   1.472   0.047  10.267 -0.7502 -0.5796  0.2972
 1072SOL    HW114849   1.462   4.710  10.326  1.7342 -1.0448  0.1195
 1072SOL    HW214850   1.416   0.111  10.311  0.7989  1.0860 -0.1175
 1073SOL     OW14851   4.228   3.319   0.655 -0.0560 -0.0147 -0.6476
 1073SOL    HW114852   4.215   3.357   0.568  2.2967  0.4622 -0.7955
 1073SOL    HW214853   4.303   3.267   0.626  0.5672  1.1714 -1.1415
 1074SOL     OW14854   0.429   3.204   9.794  0.3751 -0.1296 -0.7364
 1074SOL    HW114855   0.417   3.298   9.807 -0.4145 -0.6561  2.4586
 1074SOL    HW214856   0.364   3.193   9.725 -0.6586 -0.4586  0.2694
 1075SOL     OW14857   3.708   0.463   6.775  0.4465  0.1859 -0.0782
 1075SOL    HW114858   3.701   0.505   6.689 -0.0454  0.4342  0.0817
 1075SOL    HW214859   3.683   0.537   6.831  1.7339  0.5886 -0.0429
 1076SOL     OW14860   2.710   1.788  12.180  0.1696 -0.0276 -0.5252
 1076SOL    HW114861   2.727   1.725  12.110  1.7260  1.7697 -1.7671
 1076SOL    HW214862   2.765   1.740  12.242 -1.2250 -0.8748  0.0656
 1077SOL     OW14863   0.084   4.430  12.967 -0.4282 -0.1705  0.3124
 1077SOL    HW114864   0.104   4.446  13.059 -0.8647 -0.6884  0.4990
 1077SOL    HW214865   4.728   4.412  12.975 -0.3494  0.1938  2.0548
 1078SOL     OW14866   3.103   1.053   4.739  0.6721 -0.1912 -0.3252
 1078SOL    HW114867   3.125   1.042   4.832  1.9167 -0.3009 -0.6261
 1078SOL    HW214868   3.075   0.965   4.716 -0.3363  0.4480 -1.5703
 1079SOL     OW14869   1.570   1.037   7.257 -0.7022 -0.2319  0.2243
 1079SOL    HW114870   1.645   0.983   7.231 -0.9001 -0.4388  0.0800
 1079SOL    HW214871   1.499   0.976   7.238 -0.2554 -0.3391 -1.1512
 1080SOL     OW14872   2.540   3.006  13.169  0.0983  0.5880  0.3731
 1080SOL    HW114873   2.547   3.037  13.079  0.5325 -0.6101 -0.0036
 1080SOL    HW214874   2.468   3.048  13.216  0.7239  2.1204 -0.0550
 1081SOL     OW14875   0.198   1.743  11.900 -0.0677 -0.0209  0.8517
 1081SOL    HW114876   0.218   1.793  11.980 -0.9420  0.0961  1.0009
 1081SOL    HW214877   0.286   1.732  11.866  0.2714  1.2554  1.2914
 1082SOL     OW14878   4.073   2.388   9.723  0.2873  0.0644  0.5684
 1082SOL    HW114879   4.080   2.408   9.816 -2.2035  0.9511  0.5790
 1082SOL    HW214880   4.155   2.431   9.698  1.1322 -1.4252  0.7751
 1083SOL     OW14881   0.353   3.025  16.789 -1.1188 -0.1598  0.4008
 1083SOL    HW114882   0.424   3.074  16.746 -0.8957  0.6386  1.6641
 1083SOL    HW214883   0.343   2.949  16.732 -1.3419 -0.2191  0.5227
 1084SOL     OW14884   0.010   0.310   8.806 -0.3789 -0.1624 -0.0725
 1084SOL    HW114885   4.661   0.270   8.813  1.5902 -4.1639  0.8617
 1084SOL    HW214886   0.066   0.239   8.836  0.7839  0.3598 -1.0159
 1085SOL     OW14887   2.886   1.212   1.682 -0.0924  0.7371 -0.0592
 1085SOL    HW114888   2.834   1.291   1.699 -2.2730 -1.1957  2.2128
 1085SOL    HW214889   2.926   1.197   1.767  2.3608 -2.7970 -1.8472
 1086SOL     OW14890   3.994   1.484   6.768  0.0963  0.0707 -0.2349
 1086SOL    HW114891   4.065   1.535   6.729 -1.5297  1.7103 -1.0586
 1086SOL    HW214892   3.924   1.547   6.758 -0.5088 -1.2293 -4.2144
 1087SOL     OW14893   1.368   2.750   6.273  0.7053  0.0708  0.3113
 1087SOL    HW114894   1.374   2.726   6.180  0.7529 -0.1230  0.3627
 1087SOL    HW214895   1.361   2.845   6.263 -0.8492 -0.1311 -0.4622
 1088SOL     OW14896   2.725   3.810   4.714 -0.0291 -0.4638  0.4174
 1088SOL    HW114897   2.691   3.878   4.771  2.4933 -0.6762  2.1881
 1088SOL    HW214898   2.814   3.840   4.696 -0.3805  0.9340  1.0818
 1089SOL     OW14899   0.472   3.782   3.700  0.0007  0.0183  0.2256
 1089SOL    HW114900   0.398   3.736   3.740 -0.0781  0.5810  0.7254
 1089SOL    HW214901   0.451   3.802   3.609 -1.1243  2.2744  0.9829
 1090SOL     OW14902   2.254   1.514   2.923 -0.0514 -0.3490 -0.2813
 1090SOL    HW114903   2.232   1.429   2.961  3.0807 -1.1710 -0.3314
 1090SOL    HW214904   2.208   1.511   2.840  0.5538  2.6829 -0.7232
 1091SOL     OW14905   0.238   3.487   6.741  0.0820  1.0947 -0.0477
 1091SOL    HW114906   0.323   3.523   6.713 -0.0616  0.6307 -1.0581
 1091SOL    HW214907   0.270   3.414   6.794 -1.4952  0.2528 -0.2748
 1092SOL     OW14908   1.397   1.054  15.645 -0.1684 -0.1225  0.0875
 1092SOL    HW114909   1.475   1.005  15.672  1.7408  3.0699  0.4365
 1092SOL    HW214910   1.332   0.985  15.658 -0.8328  0.5435  0.2776
 1093SOL     OW14911   0.076   1.127   0.746  0.0510 -0.1239 -0.3849
 1093SOL    HW114912   0.171   1.112   0.750  0.3614  1.7037 -1.2757
 1093SOL    HW214913   0.039   1.134   0.834  0.2178  1.3907 -0.4361
 1094SOL     OW14914   1.282   0.957  11.745  0.2641  0.4610 -0.3486
 1094SOL    HW114915   1.356   0.898  11.728 -1.3211 -0.9081 -2.4298
 1094SOL    HW214916   1.278   0.950  11.841  0.4381 -1.1793 -0.4479
 1095SOL     OW14917   3.105   3.171   4.667  0.6931 -0.1993  0.1823
 1095SOL    HW114918   3.084   3.210   4.582  0.3404  0.3753  0.5326
 1095SOL    HW214919   3.129   3.080   4.648  0.6688  0.0580 -1.1221
 1096SOL     OW14920   2.341   3.896   4.150  0.1280  0.6238 -0.6581
 1096SOL    HW114921   2.291   3.942   4.217  1.4537  2.9560 -1.2991
 1096SOL    HW214922   2.432   3.890   4.178  0.6949 -0.7303 -2.8034
 1097SOL     OW14923   2.825   2.550   5.688  0.0902 -0.4332  0.1390
 1097SOL    HW114924   2.773   2.566   5.767  0.4853  1.5937 -0.0106
 1097SOL    HW214925   2.841   2.639   5.658  1.2732  0.1316  2.4225
 1098SOL     OW14926   0.628   1.944  14.266 -0.2218 -0.6487  0.7593
 1098SOL    HW114927   0.584   1.860  14.273 -1.5606  0.2665  3.5953
 1098SOL    HW214928   0.590   1.988  14.343 -2.3200 -0.4646 -0.3836
 1099SOL     OW14929   2.719   3.140  16.791 -0.0340 -0.9147  0.7094
 1099SOL    HW114930   2.656   3.100  16.851 -3.0285  2.5104 -0.1179
 1099SOL    HW214931   2.685   3.109  16.707 -0.9796 -1.4245  1.2809
 1100SOL     OW14932   3.192   3.462  13.368 -0.3995 -0.0054 -0.3622
 1100SOL    HW114933   3.186   3.370  13.341  0.4785 -0.2276  0.2059
 1100SOL    HW214934   3.102   3.493  13.357 -0.3402 -0.2718 -1.5411
 1101SOL     OW14935   2.647   3.376   7.753 -0.2734 -0.1887 -0.6492
 1101SOL    HW114936   2.733   3.413   7.772 -0.8189  0.8121 -0.0922
 1101SOL    HW214937   2.666   3.309   7.688  2.0386 -1.3079  1.1638
 1102SOL     OW14938   4.092   4.019   5.899  0.0404  0.5411  0.1056
 1102SOL    HW114939   4.150   4.048   5.829 -1.1309  0.9458 -0.7066
 1102SOL    HW214940   4.081   4.096   5.955  0.4059  0.9621 -0.4033
 1103SOL     OW14941   2.358   4.213   2.961 -0.3640 -0.3858  0.6902
 1103SOL    HW114942   2.400   4.293   2.992 -1.7158 -0.1520  1.9439
 1103SOL    HW214943   2.339   4.231   2.869  0.4277  2.3950  1.0712
 1104SOL     OW14944   4.075   1.879   6.861  0.8268 -0.2838 -0.4901
 1104SOL    HW114945   4.073   1.844   6.950 -1.6887  0.2261 -0.3493
 1104SOL    HW214946   3.984   1.870   6.832  0.6180  2.5369 -0.7497
 1105SOL     OW14947   3.367   2.204  12.642  0.4123  0.1750 -0.5998
 1105SOL    HW114948   3.399   2.114  12.646 -0.5978 -0.1850 -0.5915
 1105SOL    HW214949   3.314   2.222  12.565 -0.2359 -1.8260 -0.6242
 1106SOL     OW14950   1.647   2.550   9.379 -0.7120 -0.1857  0.1432
 1106SOL    HW114951   1.671   2.487   9.447  1.1631  0.5008  0.1238
 1106SOL    HW214952   1.564   2.514   9.346  0.2403 -1.8794 -0.3972
 1107SOL     OW14953   1.777   0.839   8.160  0.5669 -0.2473 -0.7470
 1107SOL    HW114954   1.845   0.812   8.221 -0.3105  0.0711  0.3780
 1107SOL    HW214955   1.721   0.761   8.166 -1.4367  1.3125  0.8303
 1108SOL     OW14956   2.381   3.757   1.629  0.1807  0.2266 -0.2952
 1108SOL    HW114957   2.388   3.662   1.620  3.3690  0.3447  1.0095
 1108SOL    HW214958   2.287   3.764   1.612  0.6504  1.9405 -2.2439
 1109SOL     OW14959   3.409   2.317   6.366 -0.5574  0.7635 -0.1101
 1109SOL    HW114960   3.404   2.247   6.301 -2.6277  0.2933  0.5733
 1109SOL    HW214961   3.417   2.262   6.444  0.6871  1.2079  0.0890
 1110SOL     OW14962   3.774   4.401   3.220  0.7054  0.0918 -0.2481
 1110SOL    HW114963   3.866   4.429   3.224  0.4930  0.6242  0.7995
 1110SOL    HW214964   3.742   4.468   3.280  0.2366  0.7036 -1.1784
 1111SOL     OW14965   2.057   0.344  10.153  0.8724  0.2369  0.3094
 1111SOL    HW114966   2.045   0.382  10.240  0.0065 -1.1894  0.8175
 1111SOL    HW214967   2.110   0.267  10.175  2.0078  1.4817  1.9053
 1112SOL     OW14968   0.660   2.775   9.364 -0.4090 -0.2722 -0.2118
 1112SOL    HW114969   0.658   2.826   9.283 -0.2397 -1.4344 -0.9611
 1112SOL    HW214970   0.572   2.740   9.380  1.1043 -4.2803 -0.5612
 1113SOL     OW14971   2.521   0.737   4.572 -0.1557 -0.5662  0.2937
 1113SOL    HW114972   2.549   0.647   4.589  0.2136  0.0778  3.0495
 1113SOL    HW214973   2.447   0.739   4.633 -1.2882 -1.6510 -1.0288
 1114SOL     OW14974   4.563   3.765  16.976 -0.1201  0.1294  0.0599
 1114SOL    HW114975   4.553   3.670  16.971 -0.3618  0.2916 -2.1675
 1114SOL    HW214976   4.516   3.783  16.895 -0.9174  0.6201  0.6398
 1115SOL     OW14977   3.842   3.176   8.345 -0.0324  1.1379  0.1833
 1115SOL    HW114978   3.843   3.260   8.391 -1.0237  0.8638  0.7192
 1115SOL    HW214979   3.804   3.121   8.414 -0.4688 -0.1536 -1.0926
 1116SOL     OW14980   0.006   1.885  12.072  0.5589  0.0214  0.0804
 1116SOL    HW114981   0.048   1.971  12.070  0.3315  0.1050 -1.0290
 1116SOL    HW214982   0.066   1.831  12.123  1.3160  0.1601 -0.6544
 1117SOL     OW14983   1.976   3.996  10.816 -0.0904  0.1443 -0.1878
 1117SOL    HW114984   2.048   3.955  10.864  0.5601  1.0430 -0.4042
 1117SOL    HW214985   1.912   4.005  10.887  0.2866 -1.3088  0.3423
 1118SOL     OW14986   4.704   0.981   5.577 -0.4990  0.2438 -0.0711
 1118SOL    HW114987   4.639   1.036   5.622  0.6720 -0.4416  2.4409
 1118SOL    HW214988   0.006   1.051   5.524 -0.2688  1.4580  1.7071
 1119SOL     OW14989   3.168   1.310  10.656  0.2441  0.8106 -0.0139
 1119SOL    HW114990   3.252   1.296  10.699 -0.0539  0.3561  0.4221
 1119SOL    HW214991   3.179   1.259  10.576  1.8377  2.6469 -0.9673
 1120SOL     OW14992   2.683   2.998   3.595 -0.6261  0.2707  0.1742
 1120SOL    HW114993   2.775   3.013   3.614 -0.4605  0.8763 -1.1286
 1120SOL    HW214994   2.703   2.908   3.569 -1.8950  0.9665 -3.2234
 1121SOL     OW14995   0.838   1.671   2.888  0.1500  0.0189  0.4379
 1121SOL    HW114996   0.915   1.709   2.930  0.5951 -1.0071  0.5631
 1121SOL    HW214997   0.773   1.734   2.918 -0.7948 -1.4079  1.4077
 1122SOL     OW14998   4.202   3.400   2.483  0.4256 -0.0694  0.1366
 1122SOL    HW114999   4.117   3.444   2.474 -0.9385 -2.3437  1.9037
 1122SOL    HW215000   4.207   3.345   2.405 -0.4795 -0.3980  0.3014
 1123SOL     OW15001   4.371   1.805  17.407  0.1532  0.2463  0.0256
 1123SOL    HW115002   4.407   1.731  17.357  2.2734 -0.4446  2.5960
 1123SOL    HW215003   4.446   1.826  17.462  2.2498 -2.8336 -1.5953
 1124SOL     OW15004   4.612   3.289  10.756  0.0912 -0.1288  0.2153
 1124SOL    HW115005   4.555   3.245  10.693 -0.5528  1.4590 -0.3099
 1124SOL    HW215006   4.569   3.373  10.744  1.7753  0.5335 -1.1266
 1125SOL     OW15007   3.400   0.058   6.581  0.1471 -0.6192 -0.4039
 1125SOL    HW115008   3.440   4.708   6.586  0.2089 -0.5946 -0.4579
 1125SOL    HW215009   3.477   0.115   6.583  0.3441 -0.8677 -0.8463
 1126SOL     OW15010   0.109   2.419   2.058 -0.6900 -0.2174  0.3267
 1126SOL    HW115011   0.166   2.459   2.124  1.3392 -2.1610 -0.2494
 1126SOL    HW215012   0.074   2.343   2.104 -1.6495  0.9937  1.5815
 1127SOL     OW15013   2.872   3.618  12.558  0.4475  0.4616 -0.2091
 1127SOL    HW115014   2.894   3.708  12.534  0.2235  0.3313 -0.9062
 1127SOL    HW215015   2.842   3.639  12.646 -1.0177 -0.9316 -0.3970
 1128SOL     OW15016   4.634   1.368   8.937  0.7494 -0.2979 -0.0099
 1128SOL    HW115017   4.697   1.407   8.997  1.3590 -0.5137 -0.5089
 1128SOL    HW215018   4.584   1.443   8.905 -0.3599 -0.0865  2.2523
 1129SOL     OW15019   2.312   1.731  10.816  0.3249 -0.0070  0.1557
 1129SOL    HW115020   2.248   1.682  10.868 -1.1077  0.5767 -1.0688
 1129SOL    HW215021   2.338   1.663  10.754  1.4166  0.5259  0.0272
 1130SOL     OW15022   2.019   1.859   8.011 -0.1119 -0.4374  0.1178
 1130SOL    HW115023   1.973   1.779   8.035  0.9490 -0.9461  0.4889
 1130SOL    HW215024   1.986   1.917   8.080  3.3466  1.4230  0.2422
 1131SOL     OW15025   2.540   1.777  13.292  0.1893  0.1595 -0.4973
 1131SOL    HW115026   2.549   1.856  13.345 -0.1284 -0.4857  0.5150
 1131SOL    HW215027   2.532   1.825  13.210 -1.6942 -2.1942 -1.7032
 1132SOL     OW15028   1.561   2.687   0.927  0.7057  0.5348  0.3775
 1132SOL    HW115029   1.613   2.608   0.912  2.4789  2.0657 -1.5468
 1132SOL    HW215030   1.492   2.680   0.861  1.9001 -1.2163 -0.7039
 1133SOL     OW15031   4.403   1.488   4.329  0.5294 -0.2980 -0.4964
 1133SOL    HW115032   4.465   1.511   4.398 -0.4451 -0.9530  0.5878
 1133SOL    HW215033   4.462   1.477   4.255 -1.8994 -2.0991 -2.1394
 1134SOL     OW15034   1.464   1.633   0.295  0.7512  0.1025  0.1056
 1134SOL    HW115035   1.540   1.575   0.304  1.9980  1.6241 -0.4696
 1134SOL    HW215036   1.458   1.637   0.199  2.5289 -0.5557 -0.0393
 1135SOL     OW15037   0.993   2.730  11.930 -0.0635  0.0005 -0.5904
 1135SOL    HW115038   0.946   2.646  11.937 -0.4891  0.0527 -2.9013
 1135SOL    HW215039   1.012   2.731  11.837  1.2699  0.1425 -0.3068
 1136SOL     OW15040   3.763   4.728   2.676  0.1333  0.6722  0.1458
 1136SOL    HW115041   3.760   4.681   2.760  0.4546  1.0772  0.3823
 1136SOL    HW215042   3.817   4.664   2.631 -1.3687 -0.8551  0.5164
 1137SOL     OW15043   4.622   2.253   9.617 -0.6774 -0.6827  0.0408
 1137SOL    HW115044   4.602   2.333   9.665  3.1466  0.8670 -0.9426
 1137SOL    HW215045   4.715   2.273   9.605 -0.5978 -3.1362 -3.3971
 1138SOL     OW15046   0.366   2.610   3.305 -0.1736  0.2121 -0.1846
 1138SOL    HW115047   0.391   2.564   3.224  1.2637  1.6968 -0.5856
 1138SOL    HW215048   0.273   2.624   3.287 -0.3698 -0.6110  0.1588
 1139SOL     OW15049   1.470   0.382   4.269 -0.0571  0.1680 -0.4085
 1139SOL    HW115050   1.480   0.303   4.322 -0.3495  0.4971  0.1443
 1139SOL    HW215051   1.522   0.448   4.315  0.8175 -0.2393 -0.8051
 1140SOL     OW15052   0.454   3.264  10.900 -0.0004 -0.4534  0.3282
 1140SOL    HW115053   0.474   3.250  10.808  0.9137  1.1120  0.2880
 1140SOL    HW215054   0.544   3.271  10.932  0.6725 -1.1192 -1.4354
 1141SOL     OW15055   1.836   1.616   4.709 -0.0753  0.2238  0.0440
 1141SOL    HW115056   1.808   1.602   4.618 -0.5602  0.3608  0.1725
 1141SOL    HW215057   1.888   1.536   4.713  0.4089  0.4924 -0.7754
 1142SOL     OW15058   2.026   2.264  12.736  0.4188  0.6444  0.4906
 1142SOL    HW115059   2.012   2.346  12.782  0.6731  0.4804  0.8591
 1142SOL    HW215060   2.119   2.247  12.752  0.6194  2.1690  0.8546
 1143SOL     OW15061   3.718   2.897  14.203  0.0764  0.0938 -0.3956
 1143SOL    HW115062   3.692   2.841  14.131 -0.3265  0.5346 -0.5922
 1143SOL    HW215063   3.674   2.851  14.274 -0.0703  0.7721 -0.0384
 1144SOL     OW15064   3.305   4.256  15.306 -0.4133 -0.2332  0.7898
 1144SOL    HW115065   3.318   4.347  15.333  3.0232 -0.3735 -0.3212
 1144SOL    HW215066   3.215   4.270  15.277 -0.2650  1.3556  1.0992
 1145SOL     OW15067   1.203   0.210   5.762  0.1236 -0.3422  0.2306
 1145SOL    HW115068   1.149   0.132   5.768  0.4957 -0.6841 -0.8294
 1145SOL    HW215069   1.273   0.182   5.821  2.1788 -2.1519 -3.0476
 1146SOL     OW15070   0.964   3.976   8.270 -0.2118  0.2259 -0.7816
 1146SOL    HW115071   1.044   3.973   8.322 -0.6938 -2.3673 -0.1611
 1146SOL    HW215072   0.985   3.927   8.191 -0.6066  0.0242 -0.7612
 1147SOL     OW15073   2.803   0.797  13.669  0.1674  0.3640  0.6994
 1147SOL    HW115074   2.776   0.808  13.578 -0.1432 -2.2928  0.4869
 1147SOL    HW215075   2.731   0.831  13.722 -2.8491 -2.4859 -1.6483
 1148SOL     OW15076   4.534   0.185   4.541 -0.1653  0.2779 -0.0562
 1148SOL    HW115077   4.582   0.158   4.463 -2.1350  2.4564 -2.0290
 1148SOL    HW215078   4.569   0.138   4.617 -0.4360 -1.1595 -0.8162
 1149SOL     OW15079   3.805   4.726   7.429  0.4556 -0.6140 -0.1204
 1149SOL    HW115080   3.898   4.714   7.446  0.9950  0.4301 -2.3987
 1149SOL    HW215081   3.799   0.025   7.341  2.2476 -0.4414 -0.1622
 1150SOL     OW15082   3.224   4.430   3.704 -0.0233 -0.0474  0.2008
 1150SOL    HW115083   3.197   4.352   3.656 -0.8793  0.2249  0.2377
 1150SOL    HW215084   3.181   4.499   3.653 -0.4086 -1.3064 -1.1831
 1151SOL     OW15085   1.681   2.866   7.974 -1.0345 -0.1731  0.2676
 1151SOL    HW115086   1.597   2.899   8.004  0.0637  2.0440  0.9389
 1151SOL    HW215087   1.652   2.801   7.910 -3.1529  0.3504  0.7224
 1152SOL     OW15088   0.135   1.206   5.808  0.1974  0.1224  0.3376
 1152SOL    HW115089   0.187   1.181   5.884 -0.0473 -0.8903  0.1650
 1152SOL    HW215090   0.168   1.295   5.795 -0.8764  0.7685  2.0651
 1153SOL     OW15091   0.316   3.724   8.298 -0.4871 -0.1395  0.1040
 1153SOL    HW115092   0.334   3.680   8.380 -0.6958 -2.9914 -1.3925
 1153SOL    HW215093   0.404   3.742   8.264 -0.4465  1.1906  0.8861
 1154SOL     OW15094   2.967   0.289  11.241  0.5620  0.0667 -0.9495
 1154SOL    HW115095   2.986   0.215  11.298  0.1165 -0.0593 -0.9674
 1154SOL    HW215096   2.985   0.257  11.153  2.0189 -0.3543 -0.5044
 1155SOL     OW15097   4.698   0.646   0.718 -0.0052  0.3302 -0.0249
 1155SOL    HW115098   4.701   0.555   0.747 -0.0854  0.4524  0.3671
 1155SOL    HW215099   0.037   0.684   0.762 -1.2393 -0.1054  2.4538
 1156SOL     OW15100   0.505   1.569  12.000  0.0379 -0.3497  0.3106
 1156SOL    HW115101   0.510   1.642  11.938  1.1731  0.1581  1.0022
 1156SOL    HW215102   0.451   1.502  11.957 -1.7739  0.7707  0.8764
 1157SOL     OW15103   0.144   4.506   7.813  0.1497 -0.5955  0.3183
 1157SOL    HW115104   0.056   4.469   7.814 -0.3487  0.6244  1.4427
 1157SOL    HW215105   0.180   4.481   7.899  1.7422 -1.7669 -0.6859
 1158SOL     OW15106   1.258   0.125   6.172 -0.0016  0.1337  0.2286
 1158SOL    HW115107   1.254   0.170   6.256  1.8402 -3.2191  2.1192
 1158SOL    HW215108   1.174   0.148   6.132 -0.2690  0.7898  1.1685
 1159SOL     OW15109   3.357   4.506   6.326 -0.6185  0.0057  0.0829
 1159SOL    HW115110   3.299   4.434   6.350 -1.3937  0.1102 -1.4711
 1159SOL    HW215111   3.417   4.503   6.401  0.3041  3.1604 -0.5016
 1160SOL     OW15112   0.883   4.591   5.363 -0.1066 -0.1169 -0.4183
 1160SOL    HW115113   0.792   4.619   5.348 -0.0938  0.0498 -0.1975
 1160SOL    HW215114   0.872   4.548   5.448 -0.4688  1.3961  0.3133
 1161SOL     OW15115   4.643   3.616   4.142  0.1323 -0.2746  0.3378
 1161SOL    HW115116   4.669   3.655   4.226  0.0673  2.3262 -0.8542
 1161SOL    HW215117   4.646   3.525   4.174  0.0439 -0.2217  0.4989
 1162SOL     OW15118   3.915   0.710   7.888 -0.1036  0.5221  0.1636
 1162SOL    HW115119   3.889   0.749   7.804 -1.0939  1.1588  0.7690
 1162SOL    HW215120   3.853   0.638   7.892  0.9593 -0.5430 -2.3661
 1163SOL     OW15121   2.843   1.662   2.856 -0.4456 -0.3859 -0.3249
 1163SOL    HW115122   2.766   1.619   2.819 -0.5461  0.0981 -0.6843
 1163SOL    HW215123   2.804   1.746   2.881 -0.1553 -0.1450 -0.6794
 1164SOL     OW15124   0.332   3.083   3.010 -0.3647 -0.4518  0.0791
 1164SOL    HW115125   0.282   3.120   2.938  0.6590  0.9030  0.0645
 1164SOL    HW215126   0.271   3.020   3.048  1.1492 -1.5921  0.6322
 1165SOL     OW15127   3.558   3.132  10.730  0.0534 -0.1028 -0.6324
 1165SOL    HW115128   3.638   3.163  10.774 -0.2710 -1.8082  1.1173
 1165SOL    HW215129   3.569   3.045  10.767 -1.4731  0.4029  0.9675
 1166SOL     OW15130   3.765   1.969   6.963  0.0434 -0.0664  0.1910
 1166SOL    HW115131   3.841   1.986   7.019 -0.0216  0.1960  0.2007
 1166SOL    HW215132   3.685   1.967   7.016  0.7586 -1.4049  1.1934
 1167SOL     OW15133   1.003   3.424  13.017 -0.2579 -0.1249  0.0214
 1167SOL    HW115134   0.989   3.452  13.107  2.1412  0.5675  0.1698
 1167SOL    HW215135   1.051   3.500  12.985 -0.9374  0.7188  1.0159
 1168SOL     OW15136   0.570   1.745   7.667  0.3593 -0.0456  0.2270
 1168SOL    HW115137   0.572   1.814   7.733 -0.5784 -1.2992  1.5806
 1168SOL    HW215138   0.638   1.683   7.696 -0.1804 -1.9345 -2.4842
 1169SOL     OW15139   1.215   0.772  16.954 -0.3590  0.1767 -0.2884
 1169SOL    HW115140   1.227   0.677  16.962  1.5010  0.3002 -1.8223
 1169SOL    HW215141   1.125   0.774  16.986  0.7294 -0.9188  2.8522
 1170SOL     OW15142   2.159   3.957   7.311 -0.7901 -0.2572 -0.7288
 1170SOL    HW115143   2.175   3.902   7.234 -1.3756  1.2102 -1.8819
 1170SOL    HW215144   2.202   3.908   7.382 -1.2216  1.9282  1.0615
 1171SOL     OW15145   1.735   2.745   1.173 -0.2112 -0.5377  0.1527
 1171SOL    HW115146   1.652   2.698   1.172  0.9870 -2.6522  0.8676
 1171SOL    HW215147   1.766   2.740   1.264  0.7944  0.8181 -0.1087
 1172SOL     OW15148   2.646   0.086   5.664  0.2238 -0.6058 -0.8268
 1172SOL    HW115149   2.668   0.179   5.663  1.6657 -0.9584 -3.1673
 1172SOL    HW215150   2.597   0.075   5.745 -1.0338  0.4923 -1.4350
 1173SOL     OW15151   3.089   0.048   3.815 -0.2420 -0.3978  0.1217
 1173SOL    HW115152   3.144   0.061   3.893 -0.0937 -0.0347 -0.0417
 1173SOL    HW215153   3.104   0.129   3.767 -1.4489 -1.1567 -1.5561
 1174SOL     OW15154   3.748   0.732   5.783  0.8444  0.1042 -0.2973
 1174SOL    HW115155   3.774   0.789   5.856 -0.3191  0.5954 -0.2514
 1174SOL    HW215156   3.714   0.661   5.838 -1.5259  0.1100 -1.7662
 1175SOL     OW15157   2.398   2.999   6.793  0.4706 -0.2697 -0.8047
 1175SOL    HW115158   2.417   2.957   6.877 -0.6206  0.5546 -0.1371
 1175SOL    HW215159   2.331   3.063   6.816  0.3290 -1.2580  1.5472
 1176SOL     OW15160   0.682   0.900   0.121  0.4253  0.1367 -0.6946
 1176SOL    HW115161   0.703   0.981   0.074 -1.5591  1.0273 -0.0638
 1176SOL    HW215162   0.717   0.835   0.060  0.2607 -2.2859  1.7785
 1177SOL     OW15163   0.448   1.868   6.558 -0.2125  0.3109 -0.1343
 1177SOL    HW115164   0.417   1.778   6.569  3.1206 -0.7964  0.4092
 1177SOL    HW215165   0.543   1.857   6.556 -0.3604 -0.6386 -2.7180
 1178SOL     OW15166   0.206   1.479   9.510  0.1764 -0.6176  0.1991
 1178SOL    HW115167   0.142   1.534   9.466  0.0404 -0.2733  0.8282
 1178SOL    HW215168   0.272   1.482   9.440  0.6490 -0.9210  0.6338
 1179SOL     OW15169   1.714   2.752  16.778 -0.0007 -0.2293 -0.4893
 1179SOL    HW115170   1.790   2.706  16.741  0.5817 -0.4318  0.9753
 1179SOL    HW215171   1.726   2.842  16.748  2.0430  0.2138  1.6135
 1180SOL     OW15172   0.108   0.550   6.830 -0.2131 -0.6918 -0.3976
 1180SOL    HW115173   0.036   0.614   6.821 -0.8038 -1.3837 -0.6189
 1180SOL    HW215174   0.134   0.544   6.738 -0.1956 -0.9000 -0.3778
 1181SOL     OW15175   2.838   1.147   7.478 -0.4538 -0.3085 -0.0516
 1181SOL    HW115176   2.775   1.217   7.460 -1.5537 -0.5709  2.6190
 1181SOL    HW215177   2.886   1.174   7.557  1.3995  1.6254 -1.8621
 1182SOL     OW15178   3.028   1.711   7.096  0.2953  0.5293  0.3555
 1182SOL    HW115179   3.018   1.734   7.003 -0.2587 -2.3384 -0.2824
 1182SOL    HW215180   2.964   1.640   7.103  1.7957 -0.6545  1.8560
 1183SOL     OW15181   0.577   2.372   2.646  0.1939 -0.1809  0.4904
 1183SOL    HW115182   0.639   2.305   2.620  0.2366 -0.7618  2.0607
 1183SOL    HW215183   0.513   2.355   2.577 -0.0278  1.4687  0.2806
 1184SOL     OW15184   0.505   1.549   1.446  0.0973  0.3210  0.0762
 1184SOL    HW115185   0.429   1.586   1.490 -1.5898 -0.5148 -2.1280
 1184SOL    HW215186   0.527   1.622   1.388  1.6637  1.1046  1.6495
 1185SOL     OW15187   2.835   1.548   4.589  0.5351  0.1620  0.0468
 1185SOL    HW115188   2.928   1.569   4.583  0.8891 -1.5652 -0.4239
 1185SOL    HW215189   2.807   1.531   4.499 -0.9900  0.8638  0.3845
 1186SOL     OW15190   1.439   0.831   7.524 -0.5545 -0.1042 -0.1555
 1186SOL    HW115191   1.527   0.865   7.543  0.0644 -0.7947 -1.7610
 1186SOL    HW215192   1.438   0.842   7.429  2.6239  0.9796 -0.0586
 1187SOL     OW15193   2.469   2.895   5.899 -0.4560 -0.4130  0.0263
 1187SOL    HW115194   2.485   2.850   5.816  0.3146 -0.7779  0.3751
 1187SOL    HW215195   2.474   2.981   5.857 -0.3202 -0.6557 -0.4582
 1188SOL     OW15196   3.585   3.169   6.829  0.2521 -0.1045  0.1530
 1188SOL    HW115197   3.680   3.173   6.825  0.2839  1.7956  2.4252
 1188SOL    HW215198   3.564   3.252   6.788  0.9790  0.3752  0.7491
 1189SOL     OW15199   3.875   3.083   5.943  0.0093  0.3364 -0.3631
 1189SOL    HW115200   3.848   3.023   5.873 -3.7135 -0.3280  1.6356
 1189SOL    HW215201   3.825   3.064   6.022  0.8269 -0.0166  0.0666
 1190SOL     OW15202   2.265   0.899   9.209 -0.8471 -0.2349 -0.2830
 1190SOL    HW115203   2.294   0.810   9.228  2.6774  1.0126  0.2265
 1190SOL    HW215204   2.193   0.911   9.270 -1.8710  1.2536 -1.7711
 1191SOL     OW15205   1.717   1.433   9.360  0.7089  0.0225 -0.0823
 1191SOL    HW115206   1.683   1.489   9.430 -0.2779  0.3675 -0.8366
 1191SOL    HW215207   1.795   1.483   9.335  0.1692  1.2756  0.7578
 1192SOL     OW15208   3.144   3.939  10.326  0.4361 -0.3532 -0.5786
 1192SOL    HW115209   3.126   4.010  10.264  1.0842 -0.3479 -0.7551
 1192SOL    HW215210   3.202   3.985  10.387 -0.2947  0.7557 -0.7156
 1193SOL     OW15211   4.549   3.638   2.384 -0.3350 -0.3398  0.0039
 1193SOL    HW115212   4.576   3.623   2.474  3.8615 -0.7053 -1.2884
 1193SOL    HW215213   4.550   3.734   2.389  1.5106 -0.3189 -0.5818
 1194SOL     OW15214   4.342   0.232   3.790 -0.0978  0.3754 -0.2422
 1194SOL    HW115215   4.419   0.181   3.815 -1.1952 -0.6998  0.8741
 1194SOL    HW215216   4.272   0.188   3.838 -0.4329  1.8332  0.6023
 1195SOL     OW15217   0.724   4.084  10.607 -0.4362 -0.2703 -0.4421
 1195SOL    HW115218   0.744   4.150  10.540  1.8285 -0.5548 -0.0369
 1195SOL    HW215219   0.779   4.013  10.574  0.6013  1.5690 -2.6983
 1196SOL     OW15220   2.899   0.520   5.826  0.1844  0.1134  0.0683
 1196SOL    HW115221   2.969   0.543   5.888  1.5495 -2.3391 -0.5519
 1196SOL    HW215222   2.958   0.515   5.751  1.1253 -1.8065  0.9336
 1197SOL     OW15223   1.207   0.177   3.057 -0.1370  0.1185  0.4682
 1197SOL    HW115224   1.144   0.107   3.072  0.3124 -0.6383 -1.1599
 1197SOL    HW215225   1.288   0.144   3.096 -0.1215  0.3576  0.6372
 1198SOL     OW15226   1.756   2.611   6.592 -0.2219  0.1381  0.3001
 1198SOL    HW115227   1.784   2.693   6.553  1.8213 -0.3724  0.6718
 1198SOL    HW215228   1.777   2.617   6.685  0.5451 -2.4645  0.2964
 1199SOL     OW15229   3.356   0.003  13.717 -0.0692 -0.8902  0.1016
 1199SOL    HW115230   3.372   0.031  13.807  0.0246  1.8526 -0.7527
 1199SOL    HW215231   3.420   0.056  13.670  0.4321 -1.1177  0.5269
 1200SOL     OW15232   2.171   3.286  10.029  0.2151  0.2505  0.0879
 1200SOL    HW115233   2.210   3.229  10.095  0.8700  0.8631  0.2258
 1200SOL    HW215234   2.237   3.316   9.967 -0.8732  1.2309 -0.6061
 1201SOL     OW15235   3.241   1.832  16.609  0.4463  0.0102 -0.2913
 1201SOL    HW115236   3.164   1.795  16.566  0.6183 -0.7853  0.0665
 1201SOL    HW215237   3.309   1.766  16.593 -0.1733 -0.5576 -0.5938
 1202SOL     OW15238   3.706   1.334   1.301  0.4161 -0.5155 -0.0694
 1202SOL    HW115239   3.721   1.404   1.364 -0.4084  1.5246 -2.1319
 1202SOL    HW215240   3.630   1.295   1.344  0.2172 -0.4685 -0.3829
 1203SOL     OW15241   2.394   2.654   3.524  0.4096 -0.1279 -0.0085
 1203SOL    HW115242   2.315   2.707   3.521  0.9705  0.7473  0.6318
 1203SOL    HW215243   2.461   2.692   3.467  0.1166 -2.0868 -1.6515
 1204SOL     OW15244   0.188   3.682   4.068  0.0019  0.1494 -0.2852
 1204SOL    HW115245   0.216   3.592   4.085  1.3659  0.3198 -1.6497
 1204SOL    HW215246   0.119   3.698   4.133 -0.7892 -2.5638 -0.4777
 1205SOL     OW15247   1.053   0.031   9.013 -0.0495 -0.4927  0.3239
 1205SOL    HW115248   1.036   4.686   8.966  0.3458 -1.3045  1.6084
 1205SOL    HW215249   1.112   0.011   9.086 -0.3678  0.3904  0.8285
 1206SOL     OW15250   1.946   1.316   6.706 -0.1009 -0.1251  0.8423
 1206SOL    HW115251   1.931   1.282   6.795  0.4701 -0.8589  0.6475
 1206SOL    HW215252   1.858   1.351   6.691  0.8464  1.9535  0.1254
 1207SOL     OW15253   1.940   1.777   5.984  0.2393  0.0498 -0.6252
 1207SOL    HW115254   1.940   1.770   6.079  0.3460 -2.3319 -0.7994
 1207SOL    HW215255   1.916   1.685   5.972 -2.8899  0.8387 -0.1940
 1208SOL     OW15256   2.027   1.826   9.379 -0.1612 -0.0780  0.4819
 1208SOL    HW115257   2.123   1.819   9.376  0.0277  2.2689  1.1757
 1208SOL    HW215258   2.000   1.773   9.304  0.4665  0.5107 -0.1646
 1209SOL     OW15259   0.808   0.728   8.145 -0.0899 -0.6950 -0.3474
 1209SOL    HW115260   0.782   0.749   8.055 -0.8646 -0.9800 -0.1885
 1209SOL    HW215261   0.876   0.790   8.171 -0.4777 -0.2928 -0.2688
 1210SOL     OW15262   3.685   1.183   6.965  0.6458  0.2069  0.0430
 1210SOL    HW115263   3.722   1.270   6.976 -1.6660  0.8393  2.7001
 1210SOL    HW215264   3.750   1.118   6.940  0.4497 -0.4779  1.2960
 1211SOL     OW15265   3.977   0.782   3.074  0.1468  0.0575 -0.5538
 1211SOL    HW115266   3.927   0.819   3.147  1.7869  1.6190 -0.2138
 1211SOL    HW215267   3.915   0.721   3.035 -1.2753 -0.5279  2.6744
 1212SOL     OW15268   3.036   1.349   4.420 -0.4832 -0.3268  0.2779
 1212SOL    HW115269   3.043   1.406   4.496  1.2945 -1.7836  1.2104
 1212SOL    HW215270   3.069   1.417   4.361  0.1643 -0.4163  0.5371
 1213SOL     OW15271   2.075   3.903   9.434 -0.0320  0.5221 -0.0187
 1213SOL    HW115272   1.980   3.895   9.447  0.2876 -4.3093 -0.7201
 1213SOL    HW215273   2.105   3.933   9.520  0.7498  2.1971 -0.8753
 1214SOL     OW15274   3.904   0.919   2.827 -0.0634 -0.2151 -0.2869
 1214SOL    HW115275   3.941   0.853   2.885 -2.9899 -0.7027  1.0157
 1214SOL    HW215276   3.814   0.888   2.818 -0.5103  1.6862 -2.3287
 1215SOL     OW15277   1.367   2.468   6.608 -0.6005  0.4961  0.4975
 1215SOL    HW115278   1.324   2.515   6.537 -1.3772 -0.8906  0.0500
 1215SOL    HW215279   1.285   2.433   6.643  1.5234 -0.8814  4.1583
 1216SOL     OW15280   4.306   3.299   9.852  0.3204 -0.7614  0.4164
 1216SOL    HW115281   4.243   3.305   9.780  0.9368  0.0281 -0.0540
 1216SOL    HW215282   4.300   3.209   9.883  1.2927 -1.0172 -0.1527
 1217SOL     OW15283   4.296   0.489  16.658  0.4160  0.0754 -0.3627
 1217SOL    HW115284   4.273   0.440  16.738  0.4938  0.2018 -0.2633
 1217SOL    HW215285   4.244   0.567  16.676  1.7952  1.1335 -1.0352
 1218SOL     OW15286   3.721   1.413   5.698 -0.1714 -0.1488  0.0612
 1218SOL    HW115287   3.722   1.350   5.771 -1.2951 -1.1060 -0.7468
 1218SOL    HW215288   3.669   1.366   5.633 -0.2792  1.1086 -0.7432
 1219SOL     OW15289   1.408   3.937   8.818 -0.6835  0.2537 -0.5599
 1219SOL    HW115290   1.412   4.032   8.806 -1.3214  0.1953 -1.2719
 1219SOL    HW215291   1.497   3.926   8.851 -0.4517  2.6767 -0.3865
 1220SOL     OW15292   1.348   2.596   3.157 -0.8318  0.1793  0.3842
 1220SOL    HW115293   1.399   2.542   3.097 -1.7033  0.7685 -0.8865
 1220SOL    HW215294   1.267   2.546   3.170 -0.5421 -0.1250  0.9859
 1221SOL     OW15295   1.646   3.573   8.046  0.1006  0.1681 -0.1545
 1221SOL    HW115296   1.719   3.633   8.038 -0.8034  1.4379  1.1814
 1221SOL    HW215297   1.672   3.543   8.133 -0.3081  0.7590  0.1744
 1222SOL     OW15298   0.940   2.768  10.372 -0.7301  0.0743  0.0994
 1222SOL    HW115299   0.984   2.823  10.307  1.3026 -2.5359 -0.7371
 1222SOL    HW215300   0.896   2.713  10.308 -0.9751  0.3515  0.0335
 1223SOL     OW15301   2.908   0.803   4.639 -0.1945 -0.4387  0.1114
 1223SOL    HW115302   2.850   0.869   4.679  1.8802  0.7529  1.1419
 1223SOL    HW215303   2.902   0.836   4.550 -1.6260 -3.2008 -0.8100
 1224SOL     OW15304   2.872   4.087   9.921  0.3883  0.4457  0.4772
 1224SOL    HW115305   2.814   4.134   9.862 -1.2873 -2.7853 -0.4267
 1224SOL    HW215306   2.821   4.015   9.958 -2.7670  1.8327 -1.2426
 1225SOL     OW15307   1.363   4.658   8.847  0.3068 -0.5798 -0.2973
 1225SOL    HW115308   1.432   4.704   8.800 -0.2959  1.6486  1.0292
 1225SOL    HW215309   1.372   4.701   8.933  1.8367  0.8659 -1.1801
 1226SOL     OW15310   2.284   2.885   7.224  0.1070  0.2276  0.2059
 1226SOL    HW115311   2.214   2.825   7.248 -0.3609 -0.0198 -1.7706
 1226SOL    HW215312   2.316   2.901   7.313 -0.9120  3.7592 -0.0400
 1227SOL     OW15313   1.123   0.621   9.570  0.6454  0.1682  0.0278
 1227SOL    HW115314   1.037   0.623   9.613  0.1857  2.3319 -0.9878
 1227SOL    HW215315   1.159   0.709   9.580  0.7425 -0.0008  1.2728
 1228SOL     OW15316   3.713   1.531   1.841 -0.0689  0.1575 -0.5945
 1228SOL    HW115317   3.637   1.474   1.838  1.6932 -2.3622  2.5965
 1228SOL    HW215318   3.743   1.529   1.750 -3.0901  0.6406 -1.6074
 1229SOL     OW15319   0.242   3.357   3.284 -0.3543  0.2772  0.0845
 1229SOL    HW115320   0.274   3.411   3.211  2.7585 -2.3412 -0.5359
 1229SOL    HW215321   0.311   3.291   3.291 -0.8357 -0.2232  0.0744
 1230SOL     OW15322   3.563   1.265   1.969 -0.1639 -0.0281 -0.3198
 1230SOL    HW115323   3.597   1.202   1.905 -1.0053 -2.5787  1.7415
 1230SOL    HW215324   3.639   1.277   2.026 -0.8422 -1.2235  0.8402
 1231SOL     OW15325   1.147   3.658  13.023  0.0283  0.1447  0.4641
 1231SOL    HW115326   1.217   3.623  13.079  1.5825 -0.1577 -1.6670
 1231SOL    HW215327   1.165   3.752  13.028  0.8374  0.0115  0.1170
 1232SOL     OW15328   3.208   2.493   3.135  0.1634 -0.0224  0.4568
 1232SOL    HW115329   3.172   2.519   3.220 -1.8312  2.1713 -1.0578
 1232SOL    HW215330   3.184   2.565   3.076  0.2121 -0.5763 -0.2321
 1233SOL     OW15331   3.733   1.197   3.660 -0.7110 -0.8954 -0.0952
 1233SOL    HW115332   3.825   1.174   3.672 -0.5623 -1.6154 -2.4981
 1233SOL    HW215333   3.691   1.130   3.714  2.4865 -2.5796  0.2880
 1234SOL     OW15334   3.295   0.728   3.706 -0.0844  0.4461  0.7187
 1234SOL    HW115335   3.364   0.667   3.731  0.4863 -0.2230 -2.5061
 1234SOL    HW215336   3.326   0.783   3.635  0.2140  0.5475  0.9256
 1235SOL     OW15337   2.995   4.471   7.845  0.2293  0.1145  0.0570
 1235SOL    HW115338   2.996   4.528   7.922  2.7544 -2.4319  1.8601
 1235SOL    HW215339   2.946   4.519   7.778  0.6362 -0.1338 -0.4104
 1236SOL     OW15340   0.831   2.418   9.421 -0.4577  0.4506 -0.5613
 1236SOL    HW115341   0.848   2.512   9.416 -0.7314  0.4820 -0.8974
 1236SOL    HW215342   0.851   2.404   9.514 -0.0360 -2.0996 -1.0367
 1237SOL     OW15343   2.838   4.087   8.864  0.2502  0.4652 -0.0367
 1237SOL    HW115344   2.802   4.052   8.783 -0.1858 -1.4886  0.9726
 1237SOL    HW215345   2.758   4.117   8.908 -0.0391  0.7288 -0.7568
 1238SOL     OW15346   0.453   2.531   1.119 -0.4932  0.3368 -0.2394
 1238SOL    HW115347   0.510   2.479   1.176 -0.6492  0.4955  0.0630
 1238SOL    HW215348   0.412   2.584   1.188  0.0336  0.2666  0.1324
 1239SOL     OW15349   1.517   0.374  11.407 -0.4635 -0.5977  0.3211
 1239SOL    HW115350   1.604   0.357  11.370 -0.3656  2.0119 -0.6708
 1239SOL    HW215351   1.537   0.455  11.455 -0.3778 -0.5645  0.2299
 1240SOL     OW15352   3.981   3.155   9.048  0.1986 -0.0558  0.2184
 1240SOL    HW115353   3.951   3.171   8.959  0.3534  0.3003  0.2290
 1240SOL    HW215354   3.998   3.240   9.089 -0.1349  0.6301 -1.0743
 1241SOL     OW15355   3.505   0.181   3.051 -0.6085  0.5365  0.5848
 1241SOL    HW115356   3.556   0.154   3.128  0.7847 -1.5366 -1.0674
 1241SOL    HW215357   3.543   0.144   2.971 -3.6161  0.4697 -0.8072
 1242SOL     OW15358   2.521   3.015  16.221  0.3101 -0.2462 -0.0628
 1242SOL    HW115359   2.532   2.924  16.246 -0.0423 -0.7698 -1.7797
 1242SOL    HW215360   2.452   3.046  16.280 -0.8079 -1.7787 -0.5458
 1243SOL     OW15361   3.004   3.060   9.991 -0.1410 -0.5777 -0.0401
 1243SOL    HW115362   3.044   3.131  10.040  0.0197 -1.8015  1.5919
 1243SOL    HW215363   3.080   3.003   9.979 -0.4251 -1.4329  2.2224
 1244SOL     OW15364   2.547   3.928  14.511 -0.4980  0.4240 -0.6908
 1244SOL    HW115365   2.516   3.966  14.429 -0.9476 -0.6865 -1.0309
 1244SOL    HW215366   2.637   3.961  14.508  0.1019 -1.1635  0.0089
 1245SOL     OW15367   2.536   1.524   9.136  0.2060 -0.2070 -0.4542
 1245SOL    HW115368   2.631   1.526   9.147  0.3739 -1.9901 -1.4718
 1245SOL    HW215369   2.506   1.436   9.157 -0.1232  0.0009 -0.0649
 1246SOL     OW15370   3.676   0.521   3.588 -0.0024  0.6505 -0.5745
 1246SOL    HW115371   3.757   0.479   3.618 -0.4605  1.5678  1.9929
 1246SOL    HW215372   3.619   0.522   3.666 -0.3577 -0.2409 -0.8211
 1247SOL     OW15373   1.551   2.507  16.513 -0.0117 -0.1585 -0.6643
 1247SOL    HW115374   1.589   2.595  16.505  1.0911 -0.6997 -1.3763
 1247SOL    HW215375   1.484   2.516  16.445  0.8937 -0.2985 -1.5689
 1248SOL     OW15376   0.344   3.017   6.441  0.0098  0.5328  0.5207
 1248SOL    HW115377   0.275   2.951   6.450 -0.8491  1.2789 -0.5581
 1248SOL    HW215378   0.284   3.066   6.386  1.0196  1.4505  0.2452
 1249SOL     OW15379   0.112   4.069   2.095  1.2349 -0.2269  0.1871
 1249SOL    HW115380   0.037   4.041   2.148  1.4687  2.2765  1.8305
 1249SOL    HW215381   0.179   4.002   2.107  0.6697 -0.5009  1.8639
 1250SOL     OW15382   1.798   2.762  16.010 -0.1043 -0.3200  0.4701
 1250SOL    HW115383   1.708   2.735  16.026 -0.7248 -1.2134 -4.7004
 1250SOL    HW215384   1.781   2.849  15.975  0.8614 -0.3785 -0.1491
 1251SOL     OW15385   4.369   1.436   2.244 -0.5994 -0.1642  0.2639
 1251SOL    HW115386   4.313   1.399   2.176 -0.5558 -1.1293  0.7608
 1251SOL    HW215387   4.451   1.393   2.217 -0.3362 -0.3030  1.2612
 1252SOL     OW15388   1.056   3.734   6.045 -0.1886 -0.0463 -0.0614
 1252SOL    HW115389   0.975   3.726   5.994  0.0921 -2.9634 -0.0357
 1252SOL    HW215390   1.112   3.753   5.969 -2.1131  1.1321 -1.1870
 1253SOL     OW15391   1.915   2.559   5.949  0.0797  0.0799  0.1525
 1253SOL    HW115392   1.953   2.471   5.944 -1.4642 -0.4910 -1.4843
 1253SOL    HW215393   1.823   2.539   5.967  0.1144  0.9787  1.3002
 1254SOL     OW15394   2.945   1.422   9.404 -0.1888  0.0255  0.3033
 1254SOL    HW115395   2.923   1.365   9.478 -0.3760 -0.3687 -0.0556
 1254SOL    HW215396   2.879   1.399   9.338  1.4311 -3.3185 -0.1733
 1255SOL     OW15397   1.599   0.121   8.769 -0.0393 -0.4955  0.4637
 1255SOL    HW115398   1.571   0.062   8.699  0.6224 -0.9472  0.5749
 1255SOL    HW215399   1.681   0.073   8.783 -0.1902 -0.5081  1.3226
 1256SOL     OW15400   4.720   3.162   8.863 -0.6740  0.0760  0.4127
 1256SOL    HW115401   0.064   3.211   8.849 -1.3971  1.0078 -0.4757
 1256SOL    HW215402   4.685   3.153   8.775  0.2922 -0.7379  0.1102
 1257SOL     OW15403   2.252   1.385  11.573  0.0495  0.1346 -0.0541
 1257SOL    HW115404   2.190   1.328  11.619 -1.8304  0.5971 -2.0314
 1257SOL    HW215405   2.282   1.445  11.641  2.7794 -2.9278  1.4851
 1258SOL     OW15406   1.586   3.788  14.909  0.3149 -0.6401 -0.2884
 1258SOL    HW115407   1.548   3.806  14.824  2.3902 -1.7582 -1.4664
 1258SOL    HW215408   1.671   3.753  14.883  0.8913  0.9285 -0.4927
 1259SOL     OW15409   0.905   0.522   3.232  0.3741  0.2416 -0.3702
 1259SOL    HW115410   0.970   0.492   3.168  3.5414  2.0940  1.9704
 1259SOL    HW215411   0.960   0.568   3.296 -0.5061  1.4443 -0.4742
 1260SOL     OW15412   3.498   2.300   5.013  0.3276 -0.4857  0.4398
 1260SOL    HW115413   3.529   2.372   4.957 -0.1092  0.0428  0.8699
 1260SOL    HW215414   3.479   2.234   4.946  0.3324 -0.8567  0.8057
 1261SOL     OW15415   3.753   4.131   3.136  0.0222  0.2400 -0.1021
 1261SOL    HW115416   3.771   4.223   3.156  0.2767  0.6191 -2.0490
 1261SOL    HW215417   3.705   4.111   3.216 -1.5446 -1.9082 -1.5771
 1262SOL     OW15418   3.990   3.792   6.605  0.6845  0.0366  0.3451
 1262SOL    HW115419   3.914   3.801   6.663  1.4049  2.1027  0.9659
 1262SOL    HW215420   4.046   3.759   6.675  0.3753 -2.6150 -0.6624
 1263SOL     OW15421   3.254   4.147   2.635  0.1177 -0.6213  0.0035
 1263SOL    HW115422   3.280   4.219   2.693 -0.6589 -0.6518  0.3777
 1263SOL    HW215423   3.247   4.076   2.698 -2.1869  0.1475  0.5966
 1264SOL     OW15424   2.886   2.337   3.060  0.0621  0.3533 -0.0898
 1264SOL    HW115425   2.806   2.305   3.019 -0.1355 -0.7002  1.0981
 1264SOL    HW215426   2.843   2.359   3.143  1.3079  1.3135  0.3150
 1265SOL     OW15427   4.610   0.666  12.996 -0.2983 -0.2767 -0.1094
 1265SOL    HW115428   4.634   0.710  13.077  1.7935  2.4946 -2.2046
 1265SOL    HW215429   4.650   0.726  12.932 -2.6565  2.2632  0.8531
 1266SOL     OW15430   2.822   0.243   3.547  0.5389  0.2308  0.2922
 1266SOL    HW115431   2.858   0.331   3.539  1.4427 -0.2646 -0.9716
 1266SOL    HW215432   2.857   0.201   3.469  0.3479 -2.9622  1.9169
 1267SOL     OW15433   0.365   3.399   8.253  0.1174  0.9552  0.0469
 1267SOL    HW115434   0.361   3.440   8.339 -1.6533  1.3609 -0.2266
 1267SOL    HW215435   0.453   3.364   8.242  0.7840  2.1059  1.7519
 1268SOL     OW15436   1.659   4.657  11.284  0.5083 -0.1417  0.0476
 1268SOL    HW115437   1.667   0.014  11.268  1.5925 -0.4024 -0.9657
 1268SOL    HW215438   1.726   4.627  11.222 -1.1650  0.2850 -1.9388
 1269SOL     OW15439   2.662   0.125   4.388 -0.2708 -0.1005  0.8225
 1269SOL    HW115440   2.755   0.104   4.390 -0.4629 -1.0022 -0.0948
 1269SOL    HW215441   2.644   0.134   4.482 -2.1269  3.1840  0.1180
 1270SOL     OW15442   1.270   0.189   8.648 -0.1308  0.4749 -0.3210
 1270SOL    HW115443   1.179   0.208   8.669  0.4078 -0.7846  3.0808
 1270SOL    HW215444   1.272   0.099   8.614  0.4462 -0.2976  1.7996
 1271SOL     OW15445   2.839   2.618   5.023 -0.4070  0.0370 -0.1930
 1271SOL    HW115446   2.860   2.525   5.030  1.7575  0.5515  0.5235
 1271SOL    HW215447   2.791   2.626   5.105  1.7062  1.7920  0.8928
 1272SOL     OW15448   1.393   1.115   2.267 -0.2766 -0.4749 -0.8364
 1272SOL    HW115449   1.339   1.157   2.200  0.3134  0.5663 -0.6532
 1272SOL    HW215450   1.322   1.066   2.309 -0.9866  0.9499 -0.3662
 1273SOL     OW15451   1.464   4.629   5.659  0.2018  0.0585 -0.4823
 1273SOL    HW115452   1.426   4.548   5.692  0.0083 -0.0619 -0.9863
 1273SOL    HW215453   1.438   4.688   5.729 -2.3684 -1.5067 -0.0961
 1274SOL     OW15454   3.950   3.354   6.113  0.2014 -0.0226 -0.1532
 1274SOL    HW115455   3.900   3.433   6.136 -1.7408 -1.4060  0.3745
 1274SOL    HW215456   3.910   3.293   6.176  1.3760  0.3164  0.9230
 1275SOL     OW15457   2.161   4.018   8.088 -0.2201  0.0113  0.1155
 1275SOL    HW115458   2.142   3.992   8.178  1.2115 -1.4522 -0.0206
 1275SOL    HW215459   2.115   3.951   8.037 -1.6570  2.5086 -1.9372
 1276SOL     OW15460   3.259   3.872   1.295 -0.2313  0.0517  0.4403
 1276SOL    HW115461   3.231   3.841   1.381 -0.9105 -0.4171  0.0580
 1276SOL    HW215462   3.340   3.823   1.286  0.6048  1.7849 -1.5531
 1277SOL     OW15463   1.947   3.551   3.827  0.2393 -0.6918 -0.0839
 1277SOL    HW115464   1.870   3.550   3.770  0.0036 -0.2189  0.2254
 1277SOL    HW215465   2.003   3.607   3.773 -0.9658 -0.7799 -1.4227
 1278SOL     OW15466   3.022   0.698   2.168  0.6789  0.0095  0.3282
 1278SOL    HW115467   3.079   0.705   2.092  0.6969 -1.3749  0.2139
 1278SOL    HW215468   3.075   0.735   2.239  0.3969  0.0491  0.5198
 1279SOL     OW15469   4.365   0.082   4.905  0.1499 -0.1903  0.3204
 1279SOL    HW115470   4.317   0.090   4.822 -0.2070  1.4369  0.6855
 1279SOL    HW215471   4.345   0.168   4.942 -1.2589 -0.6553  0.6537
 1280SOL     OW15472   4.355   2.924  12.884 -0.6249 -0.7868  0.6731
 1280SOL    HW115473   4.405   3.003  12.904 -1.0948 -0.1874 -0.5033
 1280SOL    HW215474   4.344   2.933  12.789 -0.3258  0.8175  0.8042
 1281SOL     OW15475   2.412   3.646  12.405  0.8108  0.4401 -0.3777
 1281SOL    HW115476   2.467   3.569  12.387  2.3922  1.7121 -0.9778
 1281SOL    HW215477   2.456   3.682  12.482  0.2079  1.2673 -0.4164
 1282SOL     OW15478   4.450   3.501  10.842  0.1042 -0.2177  0.7089
 1282SOL    HW115479   4.425   3.589  10.870 -1.0316  0.2153 -1.6274
 1282SOL    HW215480   4.425   3.456  10.922 -0.9389  1.0823  1.1141
 1283SOL     OW15481   1.681   1.952   0.487 -0.0012 -1.0866  0.3422
 1283SOL    HW115482   1.671   2.010   0.563 -2.8693 -2.7626  1.2596
 1283SOL    HW215483   1.717   1.869   0.517 -0.3134 -0.4761  2.4255
 1284SOL     OW15484   1.669   0.184   4.389 -0.1386  0.4184  0.2685
 1284SOL    HW115485   1.586   0.152   4.425  0.4228 -0.7647  0.5026
 1284SOL    HW215486   1.721   0.171   4.468  1.7445  1.1126 -0.8735
 1285SOL     OW15487   0.608   3.257   8.279 -0.1020  0.4776  0.1780
 1285SOL    HW115488   0.692   3.288   8.247 -1.2614  1.7090 -1.6963
 1285SOL    HW215489   0.576   3.211   8.201  0.7541 -0.3476  0.3225
 1286SOL     OW15490   1.451   1.189  11.928  0.0984 -0.6216  0.2177
 1286SOL    HW115491   1.371   1.215  11.883 -0.0441 -0.2773  0.6737
 1286SOL    HW215492   1.410   1.110  11.963 -2.1546  0.1258 -0.7134
 1287SOL     OW15493   1.980   4.579   3.604 -0.0008 -0.6477 -0.0025
 1287SOL    HW115494   1.955   4.495   3.567  0.9258 -0.0113 -2.0819
 1287SOL    HW215495   1.953   4.638   3.533  2.6155 -2.5156 -2.5052
 1288SOL     OW15496   1.510   4.106   7.172  0.0533 -0.6542  0.0088
 1288SOL    HW115497   1.539   4.139   7.258 -1.2419 -0.2242  0.2739
 1288SOL    HW215498   1.415   4.111   7.183  0.0459 -0.9703  0.0898
 1289SOL     OW15499   1.403   4.707  16.177  0.0392  0.1662 -0.1581
 1289SOL    HW115500   1.414   4.687  16.270  0.1486 -1.9507 -0.6410
 1289SOL    HW215501   1.492   4.728  16.150 -0.6269 -0.1558 -2.5610
 1290SOL     OW15502   3.474   3.734   3.882 -0.4620  0.1654 -0.1140
 1290SOL    HW115503   3.511   3.785   3.810 -1.3655 -0.6805 -1.1617
 1290SOL    HW215504   3.444   3.804   3.941 -0.6881 -0.4780  0.5356
 1291SOL     OW15505   1.586   0.082   9.476 -0.8179 -0.1223  0.3311
 1291SOL    HW115506   1.494   0.058   9.481  0.5061 -5.3186 -0.8100
 1291SOL    HW215507   1.583   0.174   9.503 -0.6898 -0.4846  1.5536
 1292SOL     OW15508   1.959   1.792  12.280  0.2063  0.2833  0.1224
 1292SOL    HW115509   1.920   1.708  12.306 -1.3501  0.5609 -1.2843
 1292SOL    HW215510   1.988   1.820  12.366 -0.9283 -1.6944  1.1569
 1293SOL     OW15511   3.915   4.212   8.634  0.2349  0.5424  0.5833
 1293SOL    HW115512   3.848   4.148   8.656  0.3791  0.0407 -0.4472
 1293SOL    HW215513   3.973   4.200   8.710 -0.0692 -0.0485  0.7172
 1294SOL     OW15514   4.111   2.564   5.550 -0.7593 -0.8917 -0.0180
 1294SOL    HW115515   4.018   2.561   5.571 -0.8546  0.8586 -0.1410
 1294SOL    HW215516   4.109   2.507   5.473  2.0871 -0.5960 -0.3362
 1295SOL     OW15517   2.165   2.577   5.101  0.5743 -0.2253  0.2113
 1295SOL    HW115518   2.091   2.555   5.158  0.1900 -0.7205 -0.4913
 1295SOL    HW215519   2.193   2.661   5.138 -2.8582  0.7826  0.4386
 1296SOL     OW15520   4.017   2.743   0.760 -1.1682 -0.4439 -0.2645
 1296SOL    HW115521   3.942   2.692   0.792 -0.1978 -1.7519 -0.0394
 1296SOL    HW215522   4.090   2.725   0.819 -1.8034  1.7963  1.2059
 1297SOL     OW15523   0.835   1.838   3.806  0.4503  0.3482  0.0212
 1297SOL    HW115524   0.750   1.881   3.804 -0.1171 -0.9234 -3.0222
 1297SOL    HW215525   0.814   1.753   3.769 -3.3702  0.6141  1.5794
 1298SOL     OW15526   0.388   2.274   8.330 -0.0423 -0.0738 -0.1455
 1298SOL    HW115527   0.304   2.238   8.304 -0.1862  0.4169 -0.3585
 1298SOL    HW215528   0.361   2.364   8.315 -0.5582 -0.2399 -0.1912
 1299SOL     OW15529   2.295   1.554  11.803 -0.7779  0.1181 -0.2797
 1299SOL    HW115530   2.220   1.539  11.860 -0.2403  0.5108  0.5342
 1299SOL    HW215531   2.355   1.591  11.868 -0.4484 -0.5371 -0.2138
 1300SOL     OW15532   1.863   0.312  16.017 -0.1720 -0.4769 -0.2243
 1300SOL    HW115533   1.853   0.363  16.098 -2.1738 -1.4816  0.1531
 1300SOL    HW215534   1.889   0.228  16.056 -0.6782 -0.7638 -0.5078
 1301SOL     OW15535   0.380   4.128   1.532 -0.8536  0.1178 -0.3859
 1301SOL    HW115536   0.405   4.192   1.465 -1.3728 -0.8818 -1.5235
 1301SOL    HW215537   0.302   4.163   1.576  0.3182  0.8680  1.0819
 1302SOL     OW15538   0.341   4.623   7.345  0.1101 -0.2011 -0.3248
 1302SOL    HW115539   0.285   4.677   7.400  0.2689  0.1669 -0.5297
 1302SOL    HW215540   0.304   4.639   7.258 -0.5799 -1.3847 -0.2421
 1303SOL     OW15541   1.300   3.694   2.694  0.4708 -0.0422 -0.2040
 1303SOL    HW115542   1.327   3.729   2.609  1.4534  1.6030  0.7759
 1303SOL    HW215543   1.378   3.642   2.713  0.2736 -0.0522  0.5667
 1304SOL     OW15544   2.659   3.030   2.850 -0.3631  0.0222 -0.0253
 1304SOL    HW115545   2.754   3.029   2.842 -0.3440 -0.4215  0.2471
 1304SOL    HW215546   2.642   2.986   2.766 -1.3735  1.0468 -0.3454
 1305SOL     OW15547   0.999   4.115  14.926 -0.1089  0.4226  0.4263
 1305SOL    HW115548   1.084   4.118  14.883 -1.0548 -1.9966 -1.6430
 1305SOL    HW215549   0.958   4.186  14.878  1.0158  1.1621  0.5746
 1306SOL     OW15550   2.785   2.253  15.546 -0.2034  0.1482  0.0774
 1306SOL    HW115551   2.839   2.242  15.468 -1.6721 -0.6497 -0.8128
 1306SOL    HW215552   2.756   2.344  15.540 -1.8101 -0.4026 -0.4259
 1307SOL     OW15553   2.582   3.592   6.649 -0.0711 -0.1945  0.0013
 1307SOL    HW115554   2.674   3.602   6.625  0.5045 -0.6648  1.9894
 1307SOL    HW215555   2.562   3.501   6.671  2.2368 -1.6235 -3.6319
 1308SOL     OW15556   1.919   0.214  17.282 -0.1543 -0.1609 -0.4573
 1308SOL    HW115557   1.864   0.233  17.206  0.4037  0.4276 -0.7241
 1308SOL    HW215558   1.931   0.119  17.278  0.1118 -0.0904 -1.2593
 1309SOL     OW15559   3.300   1.663   8.065  0.0921  0.1613  0.6393
 1309SOL    HW115560   3.369   1.666   8.000  0.0286 -4.8396  0.3544
 1309SOL    HW215561   3.287   1.570   8.083  0.6458 -0.1938 -0.8653
 1310SOL     OW15562   4.270   1.375   7.533 -0.3226 -0.1968 -0.8754
 1310SOL    HW115563   4.246   1.437   7.603 -1.2975 -2.2163  0.5834
 1310SOL    HW215564   4.255   1.434   7.459 -1.6896 -1.6739 -1.7601
 1311SOL     OW15565   1.494   3.935  11.333 -0.2673  0.2255  0.1716
 1311SOL    HW115566   1.524   3.991  11.404 -0.5356 -0.6000  0.9460
 1311SOL    HW215567   1.516   3.849  11.369  3.2291  1.2895  0.5215
 1312SOL     OW15568   1.323   0.278   9.999  0.1177 -0.2786  0.3272
 1312SOL    HW115569   1.407   0.249  10.035 -0.2074  0.2494  1.4952
 1312SOL    HW215570   1.279   0.195   9.977  0.2025 -0.9423  2.7324
 1313SOL     OW15571   1.545   3.691   7.187 -0.0166  0.0361  0.1127
 1313SOL    HW115572   1.484   3.749   7.142 -0.1604  0.1801  0.4875
 1313SOL    HW215573   1.488   3.646   7.249  1.1422 -0.8924  0.5129
 1314SOL     OW15574   2.136   0.991  14.308  0.1673  0.1891 -0.0288
 1314SOL    HW115575   2.199   1.063  14.317 -0.8212  1.4141 -2.8983
 1314SOL    HW215576   2.146   0.939  14.388  0.8958  1.9942  1.0631
 1315SOL     OW15577   1.186   1.804   4.291  0.4814 -0.3451  0.1475
 1315SOL    HW115578   1.231   1.720   4.303  1.4684  0.2304  0.4677
 1315SOL    HW215579   1.188   1.821   4.197  1.2025  1.2806  0.4637
 1316SOL     OW15580   0.590   3.015   9.649 -1.2011  0.8611 -0.3547
 1316SOL    HW115581   0.620   3.081   9.586 -0.2527  0.5872 -0.1839
 1316SOL    HW215582   0.553   3.067   9.721 -1.1509 -0.9466  0.9519
 1317SOL     OW15583   4.578   2.509   9.749  0.3972 -0.4942  0.1265
 1317SOL    HW115584   4.669   2.535   9.738  0.2616 -0.3308 -0.5750
 1317SOL    HW215585   4.570   2.512   9.845 -2.3146 -0.3876 -0.0840
 1318SOL     OW15586   1.101   1.740  12.338 -0.4782  0.0239  0.1708
 1318SOL    HW115587   1.069   1.829  12.354 -0.4332  0.4175 -1.9463
 1318SOL    HW215588   1.115   1.747  12.244 -0.9183  0.2345  0.1180
 1319SOL     OW15589   1.843   3.256   3.885 -0.2884  0.0807  0.0657
 1319SOL    HW115590   1.883   3.343   3.882 -2.3207  1.0534  1.7301
 1319SOL    HW215591   1.867   3.213   3.803 -1.1833  1.2078 -0.7940
 1320SOL     OW15592   1.900   3.282   6.769  0.3841 -0.6557  0.4410
 1320SOL    HW115593   1.897   3.311   6.860  2.5198  0.8182  0.0409
 1320SOL    HW215594   1.984   3.327   6.762 -0.0313 -0.2309 -1.7650
 1321SOL     OW15595   1.672   2.230  17.601  0.3613 -0.3128 -0.2298
 1321SOL    HW115596   1.729   2.159  17.630  0.9135 -0.2744 -1.2134
 1321SOL    HW215597   1.622   2.191  17.530  1.2822 -2.5763  0.3794
 1322SOL     OW15598   3.874   0.322   8.841 -0.4023 -0.5595  0.0080
 1322SOL    HW115599   3.797   0.323   8.784 -1.9645  1.0721  2.1315
 1322SOL    HW215600   3.931   0.313   8.765  0.2669 -1.9864  0.6699
 1323SOL     OW15601   2.663   1.304   4.189 -0.0154 -0.0865  0.2772
 1323SOL    HW115602   2.604   1.310   4.114 -0.1267  2.9288  0.6058
 1323SOL    HW215603   2.739   1.355   4.159  0.1608  0.3350  1.4520
 1324SOL     OW15604   1.738   2.603   4.885 -0.5999  0.7457  0.0749
 1324SOL    HW115605   1.815   2.564   4.926  0.6313  0.3151 -2.6364
 1324SOL    HW215606   1.776   2.630   4.801 -2.1499 -0.7149 -1.1031
 1325SOL     OW15607   0.100   1.395   3.185  0.0184 -0.0020  0.6867
 1325SOL    HW115608   0.137   1.362   3.103 -2.0356 -3.5622  1.1916
 1325SOL    HW215609   0.007   1.396   3.162 -0.1840  3.5541  1.6425
 1326SOL     OW15610   0.423   4.598   3.339 -0.3362  0.0235  0.4034
 1326SOL    HW115611   0.508   4.598   3.382 -0.9404  0.9755  1.5861
 1326SOL    HW215612   0.427   4.511   3.299  1.8507 -0.5639  1.8902
 1327SOL     OW15613   0.217   1.086   4.037  0.2869 -0.0642  0.3885
 1327SOL    HW115614   0.268   1.005   4.038  1.9049  0.9573  1.0581
 1327SOL    HW215615   0.247   1.121   4.121  2.6497  2.3333 -1.4697
 1328SOL     OW15616   3.596   3.291   2.883 -0.6610 -0.3430 -0.0710
 1328SOL    HW115617   3.649   3.220   2.920 -1.6772 -1.3365 -0.5380
 1328SOL    HW215618   3.545   3.239   2.821 -1.2356 -0.8796  0.8388
 1329SOL     OW15619   3.165   0.793  10.097 -0.0480  0.2456  0.8869
 1329SOL    HW115620   3.240   0.792  10.037 -0.1706 -2.4782  0.7778
 1329SOL    HW215621   3.137   0.703  10.081  0.4201  0.1194  0.7778
 1330SOL     OW15622   0.167   1.225   4.578  0.0765  0.4343  0.4143
 1330SOL    HW115623   0.149   1.161   4.646  1.0875 -0.4391 -0.1333
 1330SOL    HW215624   0.260   1.237   4.598  0.9699 -0.2123 -3.3585
 1331SOL     OW15625   1.927   2.017   7.742  0.4026  0.7993  0.2783
 1331SOL    HW115626   1.903   1.951   7.806  1.9802 -1.2168 -1.2083
 1331SOL    HW215627   1.875   2.092   7.773  0.0813 -0.4182  2.6563
 1332SOL     OW15628   3.260   3.245   3.866  0.6241  0.3498 -0.4160
 1332SOL    HW115629   3.207   3.193   3.806  1.4403 -0.7123 -0.2188
 1332SOL    HW215630   3.328   3.257   3.800  0.8280 -1.1815 -0.4898
 1333SOL     OW15631   2.879   1.953   0.390  0.0023  0.2633 -0.0257
 1333SOL    HW115632   2.891   2.031   0.443 -0.0119  0.3972 -0.2209
 1333SOL    HW215633   2.894   1.988   0.302 -1.8963 -0.4101 -0.6224
 1334SOL     OW15634   3.585   1.378  11.861 -0.1379 -0.4393  0.4041
 1334SOL    HW115635   3.650   1.331  11.808 -0.6308 -2.3022  1.4642
 1334SOL    HW215636   3.510   1.343  11.813  0.9597 -1.6514 -0.4333
 1335SOL     OW15637   1.523   4.091   4.603  0.4954  0.0771  0.0865
 1335SOL    HW115638   1.515   4.113   4.696  0.1420 -0.6056  0.2160
 1335SOL    HW215639   1.602   4.139   4.579  0.0739 -0.6445 -2.6878
 1336SOL     OW15640   2.197   3.980   8.581  0.0603  0.4238 -0.8275
 1336SOL    HW115641   2.226   4.043   8.647  0.9286 -0.7141 -0.1213
 1336SOL    HW215642   2.283   3.947   8.553  0.4813  1.1013 -0.3519
 1337SOL     OW15643   1.918   0.890   7.437  0.6165  0.5241 -0.4058
 1337SOL    HW115644   1.991   0.917   7.494 -0.0407  0.2263  0.5777
 1337SOL    HW215645   1.844   0.887   7.497  2.5464  0.6079  1.9847
 1338SOL     OW15646   1.106   0.349  17.411 -1.0804  0.0160  0.2534
 1338SOL    HW115647   1.029   0.371  17.359 -0.6902  0.2163 -0.2390
 1338SOL    HW215648   1.144   0.437  17.421 -1.5572  0.3671 -1.0306
 1339SOL     OW15649   0.805   1.202   9.080  0.1120  0.1924 -0.0967
 1339SOL    HW115650   0.848   1.127   9.122  0.5988 -0.9084 -2.5286
 1339SOL    HW215651   0.805   1.271   9.147  1.4708 -0.1013  0.2069
 1340SOL     OW15652   3.338   2.420   2.379  0.5881 -0.1986 -0.6874
 1340SOL    HW115653   3.427   2.453   2.386  0.4785  0.2731 -1.4713
 1340SOL    HW215654   3.346   2.373   2.296 -3.6106 -0.8601 -0.7663
 1341SOL     OW15655   0.139   1.316  14.314 -0.1521 -0.5025 -0.4694
 1341SOL    HW115656   0.120   1.263  14.236  1.8552 -0.3021 -1.0994
 1341SOL    HW215657   0.092   1.265  14.380 -2.1717  1.8414 -0.1281
 1342SOL     OW15658   0.040   1.950   3.002  0.2666 -0.0183 -0.4217
 1342SOL    HW115659   0.047   1.857   2.981 -2.3076 -0.6117  1.3075
 1342SOL    HW215660   0.128   1.985   2.993  0.6078 -0.8944 -0.5349
 1343SOL     OW15661   2.157   1.905  12.830 -0.3069 -0.5247 -0.0536
 1343SOL    HW115662   2.077   1.957  12.836  0.2587  0.5710 -1.8462
 1343SOL    HW215663   2.112   1.823  12.811 -1.4055  0.2426 -0.7509
 1344SOL     OW15664   3.237   0.663  15.886 -0.1321  0.3605  0.7581
 1344SOL    HW115665   3.323   0.626  15.908 -0.5696  0.2033  2.1873
 1344SOL    HW215666   3.237   0.646  15.792 -0.4399  0.9103  0.6624
 1345SOL     OW15667   3.952   0.166   2.758 -0.1054 -0.6294 -0.2091
 1345SOL    HW115668   4.017   0.097   2.763  0.0983 -0.3255  1.4851
 1345SOL    HW215669   3.878   0.107   2.744  0.5980 -2.0718  2.1120
 1346SOL     OW15670   1.316   4.368   3.283 -0.0867 -0.2223  0.2232
 1346SOL    HW115671   1.341   4.456   3.309  0.6878 -0.3919  0.0615
 1346SOL    HW215672   1.404   4.333   3.272 -0.1894 -0.4324  0.0758
 1347SOL     OW15673   2.535   3.097   6.273  0.0529 -0.5505  0.6113
 1347SOL    HW115674   2.458   3.077   6.218  0.7598 -0.4365 -0.4157
 1347SOL    HW215675   2.577   3.162   6.217 -0.2639 -0.6847  0.2198
 1348SOL     OW15676   4.500   0.296   1.008 -0.2134  0.1079  0.3618
 1348SOL    HW115677   4.577   0.269   1.059  1.0404  2.3591 -0.3426
 1348SOL    HW215678   4.505   0.233   0.936  3.0989 -0.7338  1.3405
 1349SOL     OW15679   2.092   1.725   1.604  0.4036 -1.1519  0.0779
 1349SOL    HW115680   2.145   1.675   1.544  0.5577 -0.8382 -0.0483
 1349SOL    HW215681   2.017   1.757   1.553 -0.6649 -3.1366  0.4036
 1350SOL     OW15682   4.187   1.390   4.920 -0.2318  0.0470 -0.0029
 1350SOL    HW115683   4.226   1.434   4.844  0.8018 -0.2337  0.3627
 1350SOL    HW215684   4.109   1.443   4.937  0.7774  1.4314  0.2715
 1351SOL     OW15685   4.165   1.437  17.663 -0.1296 -0.2174  0.3701
 1351SOL    HW115686   4.116   1.427  17.744 -2.8635 -2.0500 -1.4944
 1351SOL    HW215687   4.226   1.509  17.681  1.0685 -1.1074 -0.0940
 1352SOL     OW15688   2.744   2.824   3.235  0.3338  0.1748  0.3161
 1352SOL    HW115689   2.813   2.794   3.176 -0.7274 -2.0219  0.2040
 1352SOL    HW215690   2.673   2.836   3.171 -0.3372 -0.0568  1.0210
 1353SOL     OW15691   4.130   3.894   9.554  0.3265 -0.3821  0.3105
 1353SOL    HW115692   4.111   3.894   9.461 -0.2493 -0.6796  0.4294
 1353SOL    HW215693   4.111   3.987   9.570  0.5909 -0.0224 -1.5476
 1354SOL     OW15694   3.386   2.818  13.069 -0.7445 -0.1052  0.2894
 1354SOL    HW115695   3.455   2.858  13.122 -1.7128  0.5050  1.0936
 1354SOL    HW215696   3.307   2.857  13.107 -0.4833 -0.0592  0.7816
 1355SOL     OW15697   0.021   2.929  15.871 -0.3936 -0.4195 -0.5019
 1355SOL    HW115698   4.689   2.908  15.808  0.0352 -1.5775 -0.5767
 1355SOL    HW215699   0.084   2.979  15.818  0.1983 -2.3700 -1.6293
 1356SOL     OW15700   1.769   4.469   7.597 -0.3932 -0.0303 -0.0379
 1356SOL    HW115701   1.739   4.394   7.647  1.2126  0.6306  1.9545
 1356SOL    HW215702   1.697   4.532   7.600 -2.1719 -2.0702 -0.0242
 1357SOL     OW15703   3.889   3.185   5.241  0.1624  0.1514  0.3465
 1357SOL    HW115704   3.895   3.113   5.178  1.3693  0.4543  0.1132
 1357SOL    HW215705   3.822   3.147   5.297  1.9935 -0.1168  2.3303
 1358SOL     OW15706   2.814   2.286   8.844 -0.4801 -0.0203  1.0417
 1358SOL    HW115707   2.741   2.311   8.901 -1.2170  0.4282 -0.1108
 1358SOL    HW215708   2.789   2.195   8.830  0.9331 -0.1721 -0.4121
 1359SOL     OW15709   4.373   2.708   4.144  1.5133 -0.1892  0.2051
 1359SOL    HW115710   4.379   2.799   4.115 -2.4142 -0.2879 -0.9278
 1359SOL    HW215711   4.318   2.663   4.080  0.0303  1.1881  0.5100
 1360SOL     OW15712   3.688   2.855   6.900 -0.2521  0.0807 -0.0876
 1360SOL    HW115713   3.727   2.919   6.841  0.4455 -0.9403 -0.7259
 1360SOL    HW215714   3.666   2.911   6.974  0.3049  0.3396 -0.1152
 1361SOL     OW15715   0.403   3.763   5.504  0.0942 -0.0986  0.7663
 1361SOL    HW115716   0.372   3.809   5.582  0.3252 -0.2192  0.9287
 1361SOL    HW215717   0.398   3.834   5.441 -0.9086  0.5386  1.5504
 1362SOL     OW15718   4.238   2.702   8.692 -0.1354 -0.5399  0.6272
 1362SOL    HW115719   4.308   2.726   8.752  0.1441 -0.1135  0.1209
 1362SOL    HW215720   4.205   2.625   8.739  1.2963 -0.8939  1.0250
 1363SOL     OW15721   1.190   1.489   1.180  0.7448  0.3416  0.3552
 1363SOL    HW115722   1.159   1.531   1.099  1.0628 -1.7163 -0.8198
 1363SOL    HW215723   1.183   1.568   1.234 -0.0076  0.3548  0.2428
 1364SOL     OW15724   0.286   1.562   8.887  0.3473 -0.4504  0.3727
 1364SOL    HW115725   0.279   1.479   8.936 -0.0254 -0.3938  0.4094
 1364SOL    HW215726   0.197   1.595   8.880  0.7144  0.8298  1.8542
 1365SOL     OW15727   1.717   1.061   9.766  0.2212  0.2438  0.3681
 1365SOL    HW115728   1.788   1.091   9.710  0.4638  0.2688  0.6909
 1365SOL    HW215729   1.710   1.111   9.847 -0.3093 -0.8568  1.0031
 1366SOL     OW15730   3.610   1.308  10.922 -0.2126  0.5102 -1.0316
 1366SOL    HW115731   3.627   1.402  10.931  0.5116 -0.0593  3.5407
 1366SOL    HW215732   3.584   1.303  10.830  0.1145 -0.4422 -1.0753
 1367SOL     OW15733   0.167   1.546   4.480 -0.2454 -0.8548  0.1511
 1367SOL    HW115734   0.155   1.481   4.550 -0.3752 -2.1482 -1.0846
 1367SOL    HW215735   0.108   1.621   4.491 -1.0119 -1.5309  0.6371
 1368SOL     OW15736   2.088   3.731   3.613 -0.4811  0.4922 -0.7068
 1368SOL    HW115737   2.106   3.817   3.650  0.7473 -0.4451  0.8633
 1368SOL    HW215738   2.018   3.755   3.551 -1.4060 -2.5253 -0.8528
 1369SOL     OW15739   2.452   2.059   7.506  0.1988 -0.3973 -0.4848
 1369SOL    HW115740   2.527   2.012   7.470  1.0217 -0.1176  0.8841
 1369SOL    HW215741   2.377   2.049   7.447  0.8610  0.8706 -1.5371
 1370SOL     OW15742   1.437   1.643   0.572 -0.6572 -0.0960 -0.2523
 1370SOL    HW115743   1.532   1.629   0.574 -0.7001 -0.3549 -0.0717
 1370SOL    HW215744   1.408   1.620   0.484 -0.8832  1.9220 -0.7087
 1371SOL     OW15745   1.630   0.959   1.103  0.6735  0.0921  0.2461
 1371SOL    HW115746   1.567   0.993   1.168  0.5886  0.4708 -0.0349
 1371SOL    HW215747   1.681   0.890   1.145  1.7601  1.2226  0.7605
 1372SOL     OW15748   3.354   1.657   2.380  0.1849 -0.9213  0.1390
 1372SOL    HW115749   3.363   1.567   2.349  2.3608  0.7843 -4.2773
 1372SOL    HW215750   3.354   1.700   2.294  1.0904  2.2677  1.7536
 1373SOL     OW15751   4.714   0.297  16.103 -0.1125 -0.2271  0.1684
 1373SOL    HW115752   4.652   0.327  16.170 -0.5778 -0.4227 -0.1690
 1373SOL    HW215753   4.642   0.300  16.039 -0.5811 -0.1606  0.6940
 1374SOL     OW15754   3.846   4.211  16.577  0.1637  0.1219 -0.2791
 1374SOL    HW115755   3.822   4.188  16.666 -2.0064  1.5550 -0.5105
 1374SOL    HW215756   3.761   4.208  16.533  0.7756 -1.1298 -1.3934
 1375SOL     OW15757   3.451   3.298  17.575  0.0140 -0.6807  0.0636
 1375SOL    HW115758   3.516   3.231  17.556  0.0411 -0.6952  0.2066
 1375SOL    HW215759   3.438   3.286  17.669 -1.8583  1.0462  0.0453
 1376SOL     OW15760   0.733   4.377   7.623  0.4278  0.3488 -0.2234
 1376SOL    HW115761   0.664   4.366   7.689  1.8237 -1.1190  0.9796
 1376SOL    HW215762   0.716   4.465   7.589 -0.0181  0.4634  0.2774
 1377SOL     OW15763   3.507   0.814   6.048  0.5792  0.3328  0.0476
 1377SOL    HW115764   3.574   0.746   6.044 -0.8715 -1.0477 -1.0142
 1377SOL    HW215765   3.473   0.806   5.959 -0.5321 -0.5144  0.5457
 1378SOL     OW15766   0.985   2.755   5.225  0.5424 -0.4594  0.3632
 1378SOL    HW115767   1.019   2.844   5.225 -2.2708  0.6090 -1.8704
 1378SOL    HW215768   1.064   2.706   5.201 -0.2265 -1.5315  0.0310
 1379SOL     OW15769   4.048   3.765   3.566  0.0620 -0.3523  0.0949
 1379SOL    HW115770   3.962   3.808   3.564  1.3561  2.2835  1.5880
 1379SOL    HW215771   4.100   3.815   3.628 -0.5288  0.5500 -0.1414
 1380SOL     OW15772   3.564   2.737   8.131 -0.3209 -0.6621 -0.3776
 1380SOL    HW115773   3.471   2.717   8.134 -0.6898  1.1996  0.4723
 1380SOL    HW215774   3.563   2.806   8.064  0.5621  1.0192  1.3482
 1381SOL     OW15775   1.169   1.353  11.360  0.0708 -0.0209  0.3639
 1381SOL    HW115776   1.192   1.277  11.414  0.4395 -0.7423 -0.8281
 1381SOL    HW215777   1.078   1.324  11.350  0.6109 -1.2117 -0.9701
 1382SOL     OW15778   2.424   1.651  17.234  0.1006 -0.8114  0.1669
 1382SOL    HW115779   2.345   1.696  17.263  0.3262  0.4473 -1.1610
 1382SOL    HW215780   2.415   1.655  17.139  0.2266 -1.8422  0.1047
 1383SOL     OW15781   3.109   4.185   3.096  0.2179 -0.0842  0.5284
 1383SOL    HW115782   3.022   4.177   3.057  0.3039 -0.0829  0.3396
 1383SOL    HW215783   3.086   4.145   3.181 -0.0104 -1.6355 -0.2616
 1384SOL     OW15784   3.970   4.209   9.024  0.0259 -0.2385 -0.5160
 1384SOL    HW115785   3.908   4.152   8.978  0.2467 -0.8502 -0.0564
 1384SOL    HW215786   3.994   4.158   9.102 -0.1389 -2.8504 -2.1652
 1385SOL     OW15787   3.526   4.459   7.288  0.4282  0.2205  0.7567
 1385SOL    HW115788   3.456   4.522   7.269  1.2974  1.4999  1.7939
 1385SOL    HW215789   3.521   4.442   7.382 -0.5655  0.2692  0.7148
 1386SOL     OW15790   1.365   1.135  17.166 -0.6327  0.3249  0.1300
 1386SOL    HW115791   1.332   1.220  17.138  0.7199  0.6895 -0.3552
 1386SOL    HW215792   1.330   1.083  17.093 -2.1184 -0.5037  1.4523
 1387SOL     OW15793   1.077   3.250   5.028 -0.5518  0.0159 -0.0378
 1387SOL    HW115794   1.094   3.160   5.057 -0.8672 -0.0778 -0.1456
 1387SOL    HW215795   1.163   3.273   4.991 -0.8453  3.1842  1.2882
 1388SOL     OW15796   0.185   0.657   8.486 -0.4204 -0.1460 -0.3144
 1388SOL    HW115797   0.110   0.656   8.545 -0.7611 -1.0280 -0.7660
 1388SOL    HW215798   0.151   0.714   8.417 -0.9742  0.9811  0.9005
 1389SOL     OW15799   0.537   0.359   3.332  0.1882  0.0502 -0.2362
 1389SOL    HW115800   0.620   0.313   3.333  0.5053  0.6260 -0.0872
 1389SOL    HW215801   0.559   0.451   3.320 -1.3883  0.1148 -2.7986
 1390SOL     OW15802   2.103   3.888   2.562  0.1894  0.1050  0.0810
 1390SOL    HW115803   2.076   3.979   2.577  0.0429 -0.5802  3.9702
 1390SOL    HW215804   2.199   3.890   2.567  0.2119 -4.2080  0.7551
 1391SOL     OW15805   3.736   0.521   2.232 -0.0490 -0.0507  0.0220
 1391SOL    HW115806   3.683   0.444   2.215 -2.0949  1.5794 -0.9842
 1391SOL    HW215807   3.730   0.571   2.150  1.2981 -0.4945 -0.3498
 1392SOL     OW15808   2.358   4.682   6.675  0.6059  0.1028  0.4681
 1392SOL    HW115809   2.281   4.717   6.629  0.3660 -0.4027  0.4893
 1392SOL    HW215810   2.309   4.617   6.726  1.1534 -1.1253 -0.5814
 1393SOL     OW15811   2.852   3.590   6.645  0.5194 -0.4983  0.3408
 1393SOL    HW115812   2.905   3.511   6.659  1.2768 -0.2684 -1.1829
 1393SOL    HW215813   2.871   3.637   6.726  0.0517 -0.9679  0.7257
 1394SOL     OW15814   2.944   2.491  11.591  0.3256 -0.1824 -0.4375
 1394SOL    HW115815   2.891   2.540  11.653 -3.5606 -1.8760 -2.4046
 1394SOL    HW215816   2.885   2.437  11.538  2.4761 -1.0241 -1.9684
 1395SOL     OW15817   1.082   1.275   5.231  0.5189 -0.3688  0.4624
 1395SOL    HW115818   1.004   1.297   5.180  1.9041  0.6403 -1.2132
 1395SOL    HW215819   1.079   1.180   5.223 -2.7986 -0.3677  1.7181
 1396SOL     OW15820   0.348   4.169  13.520 -0.2276 -0.3594  0.3587
 1396SOL    HW115821   0.328   4.229  13.592 -0.7900  0.8130 -0.7769
 1396SOL    HW215822   0.410   4.224  13.471 -0.4761 -1.1467 -0.8344
 1397SOL     OW15823   3.850   1.037   4.241 -0.0616 -0.7186 -0.2538
 1397SOL    HW115824   3.908   1.111   4.259  0.5927 -1.5105  0.9675
 1397SOL    HW215825   3.785   1.030   4.311 -0.6730 -2.8712 -1.0190
 1398SOL     OW15826   1.396   1.007  11.388  0.6363  0.1100 -0.1662
 1398SOL    HW115827   1.333   0.938  11.367  0.6186  0.3520 -0.9029
 1398SOL    HW215828   1.350   1.050  11.460  2.4396  1.3345  0.2639
 1399SOL     OW15829   1.564   4.220   6.069 -0.0117 -0.3204 -0.3196
 1399SOL    HW115830   1.571   4.314   6.079  1.8625 -0.1245 -3.2887
 1399SOL    HW215831   1.595   4.199   5.980  0.0093  0.5194 -0.5033
 1400SOL     OW15832   1.099   2.978   3.318  0.4491 -0.9148  0.1998
 1400SOL    HW115833   1.150   2.958   3.397 -0.1452 -1.2076  0.5098
 1400SOL    HW215834   1.067   2.889   3.301 -0.4125 -0.6439  0.4405
 1401SOL     OW15835   4.051   4.703   9.048  0.3889 -0.3493 -0.1178
 1401SOL    HW115836   4.032   4.642   8.976  0.8833 -0.8822  0.2077
 1401SOL    HW215837   4.068   0.049   9.004 -1.8531  0.2417  0.1044
 1402SOL     OW15838   2.637   0.979   1.298  0.1073 -0.3322  0.0490
 1402SOL    HW115839   2.581   0.997   1.222 -0.7100 -0.5033  0.5994
 1402SOL    HW215840   2.701   0.924   1.254 -0.4079  0.9678 -2.3104
 1403SOL     OW15841   2.567   3.071   9.369  0.3128 -0.4917  0.3244
 1403SOL    HW115842   2.590   3.009   9.438  1.8585  0.7163  0.8794
 1403SOL    HW215843   2.635   3.136   9.386  0.6915 -1.0995  1.0994
 1404SOL     OW15844   2.994   1.552   5.712 -0.0158 -0.1799 -0.4959
 1404SOL    HW115845   3.007   1.524   5.622  2.4764 -1.5613  0.2878
 1404SOL    HW215846   3.078   1.529   5.751 -0.3943 -0.0400  0.4168
 1405SOL     OW15847   1.389   0.948   6.970  0.0309 -0.2374  0.1063
 1405SOL    HW115848   1.411   0.857   6.990 -1.1858 -0.2830  1.2913
 1405SOL    HW215849   1.321   0.922   6.908  1.5423  1.3767 -2.2372
 1406SOL     OW15850   4.045   1.274   8.660 -0.0569 -1.0916  0.7227
 1406SOL    HW115851   3.992   1.349   8.631 -0.4127 -2.0444 -1.0689
 1406SOL    HW215852   3.992   1.236   8.730 -0.8509  1.0084  1.2823
 1407SOL     OW15853   0.080   4.681   4.770  0.4723 -0.3749 -0.1298
 1407SOL    HW115854   0.027   4.667   4.692 -0.1819  2.2225 -0.1407
 1407SOL    HW215855   0.016   4.689   4.841 -1.5476 -0.9579 -1.9005
 1408SOL     OW15856   3.390   1.281  17.532 -0.1401  0.0603 -0.3417
 1408SOL    HW115857   3.379   1.204  17.476  1.1084  0.1527 -0.7058
 1408SOL    HW215858   3.346   1.257  17.614  0.0995 -0.8446 -0.4721
 1409SOL     OW15859   4.448   0.677  14.734  0.1718  0.1955 -0.1565
 1409SOL    HW115860   4.530   0.681  14.685 -0.9258 -2.2610 -2.2717
 1409SOL    HW215861   4.463   0.727  14.814  2.3670  1.6620 -1.4983
 1410SOL     OW15862   2.695   2.662   5.914 -0.4551  0.4559  0.0473
 1410SOL    HW115863   2.624   2.705   5.867 -0.5817  0.7068  0.4733
 1410SOL    HW215864   2.728   2.735   5.966 -0.9080  0.3753  0.4517
 1411SOL     OW15865   0.529   2.862  16.055  0.0861 -0.0699 -0.0445
 1411SOL    HW115866   0.488   2.803  15.991 -0.6890 -0.6357  0.9806
 1411SOL    HW215867   0.609   2.885  16.007  0.7945  2.2311  2.2441
 1412SOL     OW15868   4.239   2.836  16.959 -0.0592 -0.5411  0.8417
 1412SOL    HW115869   4.245   2.788  16.876  0.7013  1.7986 -0.4589
 1412SOL    HW215870   4.182   2.780  17.011 -2.7781  0.3798 -1.1804
 1413SOL     OW15871   2.156   4.299   7.980 -0.1863  0.1073  0.3616
 1413SOL    HW115872   2.211   4.353   8.036  0.6143  0.2234 -0.5527
 1413SOL    HW215873   2.182   4.214   8.017 -1.6010 -1.5518 -2.3723
 1414SOL     OW15874   0.869   2.113  13.555 -0.5381 -0.6138  0.1442
 1414SOL    HW115875   0.925   2.133  13.630 -0.3050  1.6554 -0.6025
 1414SOL    HW215876   0.885   2.019  13.550 -1.1103 -0.7261  0.5355
 1415SOL     OW15877   4.037   0.537  11.411  0.0091 -0.1576  0.6128
 1415SOL    HW115878   4.120   0.501  11.380 -0.6899 -0.5366 -0.8271
 1415SOL    HW215879   4.029   0.609  11.349  0.0477 -0.1093  0.6639
 1416SOL     OW15880   3.472   1.309   6.216  0.3241 -0.6274 -0.0963
 1416SOL    HW115881   3.539   1.322   6.148  0.4294 -1.2581 -0.1219
 1416SOL    HW215882   3.405   1.260   6.168 -0.9095  1.4590 -0.4994
 1417SOL     OW15883   3.066   4.220   7.475  0.3730 -0.2403 -0.1736
 1417SOL    HW115884   3.081   4.126   7.469 -0.8901 -0.3504 -1.4739
 1417SOL    HW215885   3.104   4.261   7.398 -0.0786 -1.6754 -1.1667
 1418SOL     OW15886   0.858   3.544   8.668  0.3692 -0.0261  0.1122
 1418SOL    HW115887   0.918   3.529   8.741  0.4910 -1.4289 -0.2833
 1418SOL    HW215888   0.894   3.470   8.619  0.6163  1.2075 -1.6131
 1419SOL     OW15889   3.824   2.869   2.741 -0.6123  0.1265  0.4529
 1419SOL    HW115890   3.757   2.868   2.810 -3.5691  0.2580 -2.3977
 1419SOL    HW215891   3.838   2.963   2.748  1.2363 -0.1180  0.1073
 1420SOL     OW15892   3.078   3.881   1.883  0.4644 -0.0290 -0.2687
 1420SOL    HW115893   3.067   3.917   1.971 -1.6818 -1.3744  0.0222
 1420SOL    HW215894   3.127   3.801   1.904  0.7256 -0.0219 -0.8432
 1421SOL     OW15895   3.287   0.427   1.777 -0.4323 -0.5650  0.3469
 1421SOL    HW115896   3.246   0.492   1.834 -0.3973  0.4688 -0.8310
 1421SOL    HW215897   3.221   0.360   1.796 -1.5359  1.1258  2.4587
 1422SOL     OW15898   2.213   3.711   6.852 -0.4625  0.0504 -0.2567
 1422SOL    HW115899   2.270   3.635   6.857 -1.6548 -0.8552 -0.2000
 1422SOL    HW215900   2.164   3.696   6.770  0.2176  0.7469 -0.7892
 1423SOL     OW15901   1.098   2.601  17.382  0.0684 -0.2579  0.3580
 1423SOL    HW115902   1.115   2.555  17.300  0.2790  0.2928  0.0872
 1423SOL    HW215903   1.181   2.573  17.421  0.7755  0.5342 -0.5736
 1424SOL     OW15904   0.630   1.763   4.832  0.2764 -0.3404 -0.0350
 1424SOL    HW115905   0.662   1.850   4.810  1.3111 -0.9671 -1.0361
 1424SOL    HW215906   0.556   1.745   4.773  0.9182  2.1274 -1.5614
 1425SOL     OW15907   0.979   4.592   1.359  0.9347 -0.3212  0.0944
 1425SOL    HW115908   1.024   4.675   1.342 -1.9069  0.7682 -2.1266
 1425SOL    HW215909   1.029   4.527   1.310 -1.8277 -2.1066 -0.3359
 1426SOL     OW15910   1.567   0.633   3.116 -0.0051  0.0390 -0.3687
 1426SOL    HW115911   1.591   0.670   3.201 -0.7795 -1.3274  0.4315
 1426SOL    HW215912   1.653   0.611   3.081  0.0502 -0.4227  0.0635
 1427SOL     OW15913   3.967   0.408   4.735  0.9064 -0.2578  0.0536
 1427SOL    HW115914   3.932   0.476   4.677 -1.2545 -0.0933  1.5359
 1427SOL    HW215915   4.005   0.460   4.806 -2.1610  0.7378  0.9408
 1428SOL     OW15916   3.888   0.638   2.868  0.2218  0.3784 -0.2951
 1428SOL    HW115917   3.807   0.594   2.842 -0.0579  0.4534  0.4450
 1428SOL    HW215918   3.924   0.667   2.784  0.1394 -1.2906 -0.9103
 1429SOL     OW15919   2.877   2.827  13.599 -0.1750 -0.0219  0.2368
 1429SOL    HW115920   2.864   2.868  13.684 -1.1944 -1.3845  0.7301
 1429SOL    HW215921   2.787   2.821  13.566  0.0864 -0.0324 -0.4869
 1430SOL     OW15922   3.922   2.429  16.458  0.6226 -0.0405 -0.6105
 1430SOL    HW115923   3.998   2.450  16.404  0.5425  0.0136 -0.7023
 1430SOL    HW215924   3.886   2.354  16.412  0.1611 -1.4517  2.0204
 1431SOL     OW15925   0.811   0.454   6.362  0.6541  0.0968  0.0924
 1431SOL    HW115926   0.836   0.371   6.402  2.3582  1.0915  1.1169
 1431SOL    HW215927   0.807   0.521   6.430  2.0333  0.6065 -0.3385
 1432SOL     OW15928   1.940   3.482   5.440  0.4072  0.3848 -0.2472
 1432SOL    HW115929   1.862   3.443   5.400 -0.7922 -0.0652  2.4896
 1432SOL    HW215930   1.949   3.425   5.517  0.9522  1.2048  0.2843
 1433SOL     OW15931   2.965   3.986   2.610 -0.4841  0.7601 -0.3394
 1433SOL    HW115932   2.895   4.042   2.576  0.4559  1.5108 -1.0325
 1433SOL    HW215933   2.999   3.955   2.526  0.7419 -1.5884  1.0471
 1434SOL     OW15934   2.571   3.902  13.279 -0.5661 -0.0929 -0.0816
 1434SOL    HW115935   2.512   3.838  13.318 -1.8609  1.4803  0.5564
 1434SOL    HW215936   2.650   3.864  13.317  0.5719  1.6934 -0.6286
 1435SOL     OW15937   3.357   0.477   5.304 -0.2989 -0.1183 -0.1571
 1435SOL    HW115938   3.364   0.507   5.395  0.8071 -0.5821 -0.0866
 1435SOL    HW215939   3.392   0.553   5.258 -0.6075  0.0214 -0.1629
 1436SOL     OW15940   3.940   4.257   5.722 -0.1938  0.1926  0.1563
 1436SOL    HW115941   3.982   4.190   5.668 -1.2830 -0.2110 -0.2005
 1436SOL    HW215942   3.854   4.254   5.680  0.2202 -0.0804 -0.6593
 1437SOL     OW15943   0.499   0.516   3.692 -0.6038 -0.0587  0.1645
 1437SOL    HW115944   0.477   0.570   3.616  0.2005 -0.2966 -0.2380
 1437SOL    HW215945   0.588   0.492   3.667 -0.1000  0.2767  1.6477
 1438SOL     OW15946   3.356   2.288   8.333  0.5079 -0.2701 -0.0511
 1438SOL    HW115947   3.384   2.358   8.393  0.4059 -2.5773  2.6593
 1438SOL    HW215948   3.275   2.268   8.380  0.8193 -0.5102  0.3836
 1439SOL     OW15949   0.603   3.365   3.886  0.1892 -0.2326 -0.4376
 1439SOL    HW115950   0.637   3.396   3.802 -0.8674 -0.3398 -0.9108
 1439SOL    HW215951   0.667   3.299   3.911 -0.3531  0.5229  2.9559
 1440SOL     OW15952   4.157   4.658   7.961 -0.4115 -0.7428  0.4213
 1440SOL    HW115953   4.135   4.583   8.016 -0.2314 -0.3896  0.9755
 1440SOL    HW215954   4.235   4.682   8.011 -0.1184  0.0710 -0.4276
 1441SOL     OW15955   4.160   3.392   4.650  0.6828 -0.0891 -0.1922
 1441SOL    HW115956   4.182   3.299   4.642 -1.8289 -0.8154  1.2156
 1441SOL    HW215957   4.093   3.389   4.718 -0.6218 -2.1215 -1.5345
 1442SOL     OW15958   3.675   3.252   7.313  0.4917  0.0953  0.1143
 1442SOL    HW115959   3.748   3.231   7.255 -1.2011  0.1026 -2.0455
 1442SOL    HW215960   3.661   3.342   7.283 -0.0451  0.3523  1.1368
 1443SOL     OW15961   0.912   4.527  11.868  0.5757  0.1767  0.3607
 1443SOL    HW115962   0.938   4.437  11.848  0.0801 -0.0232  0.6188
 1443SOL    HW215963   0.971   4.561  11.800  1.4536  0.8862  1.4848
 1444SOL     OW15964   3.978   3.193   6.341 -0.2959  0.4303 -0.2825
 1444SOL    HW115965   3.941   3.107   6.359  2.1344 -0.8554 -1.4258
 1444SOL    HW215966   4.070   3.176   6.363 -0.4497 -0.5453 -0.4127
 1445SOL     OW15967   0.712   3.898   8.606 -0.0475  0.5910  0.1521
 1445SOL    HW115968   0.675   3.815   8.575  0.2304  0.1492  0.9952
 1445SOL    HW215969   0.774   3.866   8.672 -2.2338 -2.6984  0.5911
 1446SOL     OW15970   2.065   2.411  11.222  0.1435 -0.4632  0.2404
 1446SOL    HW115971   1.976   2.387  11.247  0.1322 -1.8805 -1.0996
 1446SOL    HW215972   2.116   2.330  11.228  1.2625  0.1762 -0.6783
 1447SOL     OW15973   3.544   1.346   0.740 -0.3989 -0.3841  0.3268
 1447SOL    HW115974   3.467   1.382   0.784  0.4340  0.5581  1.0243
 1447SOL    HW215975   3.616   1.353   0.803 -1.2349 -1.3600  1.3743
 1448SOL     OW15976   3.828   2.818   3.614 -0.4948  0.4432  0.4925
 1448SOL    HW115977   3.820   2.911   3.635  0.7373  0.3771  1.2712
 1448SOL    HW215978   3.886   2.792   3.686  0.0562  0.5842  0.1034
 1449SOL     OW15979   4.561   0.599   3.024 -0.3437  0.3938  0.0828
 1449SOL    HW115980   4.480   0.639   2.993 -0.4521 -0.1475 -0.3365
 1449SOL    HW215981   4.533   0.515   3.060  4.5553 -0.8377  1.0429
 1450SOL     OW15982   1.074   0.281   9.798 -0.7267  0.1438  0.2232
 1450SOL    HW115983   1.086   0.257   9.890  0.7462  0.8772  0.2312
 1450SOL    HW215984   1.036   0.368   9.811  0.0760  0.5410 -0.0537
 1451SOL     OW15985   4.122   2.766   8.191  0.1788 -0.3238 -0.3298
 1451SOL    HW115986   4.049   2.730   8.242 -1.0961  1.8033 -0.6368
 1451SOL    HW215987   4.183   2.696   8.213  0.0573 -0.1347  0.6186
 1452SOL     OW15988   3.868   0.335  11.291 -0.5541 -0.2188  0.3443
 1452SOL    HW115989   3.925   0.386  11.349 -2.3553  2.4777 -0.2344
 1452SOL    HW215990   3.790   0.391  11.297 -1.6006 -1.6003 -0.5347
 1453SOL     OW15991   2.342   3.212  13.318 -0.0985  0.5402 -0.9354
 1453SOL    HW115992   2.256   3.253  13.330 -1.7662 -2.9351 -0.7012
 1453SOL    HW215993   2.390   3.254  13.389 -0.3265 -1.0009  0.1396
 1454SOL     OW15994   4.443   0.613   7.821  0.1221 -0.6958 -0.1684
 1454SOL    HW115995   4.392   0.532   7.817  1.6162 -1.6795  0.6378
 1454SOL    HW215996   4.373   0.678   7.812  0.9118 -0.0421 -1.5691
 1455SOL     OW15997   4.103   2.012   5.993  0.2404 -0.3136 -0.2638
 1455SOL    HW115998   4.064   1.933   6.030 -0.5790  0.3040  0.2033
 1455SOL    HW215999   4.029   2.050   5.945 -1.2447 -0.2969  2.0237
 1456SOL     OW16000   3.107   4.441  13.073 -0.5605  0.4619  0.3116
 1456SOL    HW116001   3.055   4.401  13.142 -1.4965 -0.8527 -1.1438
 1456SOL    HW216002   3.188   4.454  13.123 -0.2513  1.5305 -0.4574
 1457SOL     OW16003   0.093   1.231   7.648  0.0415 -0.3307  0.6920
 1457SOL    HW116004   0.036   1.157   7.668  0.1811 -0.0354  2.1611
 1457SOL    HW216005   0.175   1.183   7.633  1.6437  2.0167  1.9596
 1458SOL     OW16006   0.973   2.949   3.020  0.5060  0.3775  0.1181
 1458SOL    HW116007   1.065   2.966   3.037  1.1432 -1.7641 -1.2638
 1458SOL    HW216008   0.961   2.861   2.985 -0.1135  1.0369 -1.3241
 1459SOL     OW16009   2.244   2.382   5.741 -0.2081 -0.2108  0.3016
 1459SOL    HW116010   2.264   2.358   5.831 -0.4959 -1.0729  0.1344
 1459SOL    HW216011   2.230   2.297   5.699 -3.2207 -0.1201  1.1120
 1460SOL     OW16012   2.144   0.421  15.926 -0.1563  0.6802  0.0954
 1460SOL    HW116013   2.051   0.418  15.905 -0.6762 -1.3500  2.6737
 1460SOL    HW216014   2.166   0.328  15.923 -0.2278  0.7200 -1.5880
 1461SOL     OW16015   2.298   0.838  14.080 -0.5392 -0.3324  0.0741
 1461SOL    HW116016   2.267   0.882  14.001  0.9955  0.2289 -0.2106
 1461SOL    HW216017   2.233   0.862  14.146  1.2941  0.7407  1.4929
 1462SOL     OW16018   1.241   3.410   6.867 -0.5546  0.4789  0.5516
 1462SOL    HW116019   1.205   3.346   6.805 -0.0162  0.0504  0.6956
 1462SOL    HW216020   1.245   3.355   6.945  2.1396  1.0287  0.7899
 1463SOL     OW16021   1.969   3.001   2.250  0.3811 -0.3055 -0.2077
 1463SOL    HW116022   1.967   2.989   2.345  3.2538 -0.2155 -0.1248
 1463SOL    HW216023   2.060   3.023   2.232  1.1961  0.0897  4.3750
 1464SOL     OW16024   0.043   3.700   7.026  0.0457 -0.4589  0.0987
 1464SOL    HW116025   0.028   3.695   6.932 -0.6378  3.5371 -0.0189
 1464SOL    HW216026   4.715   3.643   7.067  0.0506 -0.5698 -0.0496
 1465SOL     OW16027   2.429   3.142   7.806 -0.0736 -0.0762  0.2582
 1465SOL    HW116028   2.471   3.077   7.749 -0.8720 -1.3752  1.1458
 1465SOL    HW216029   2.421   3.095   7.890  0.9283  3.9439  2.6126
 1466SOL     OW16030   2.099   1.080   8.757 -0.2010 -0.4595 -0.3953
 1466SOL    HW116031   2.113   1.084   8.852 -1.3326 -1.0865 -0.2146
 1466SOL    HW216032   2.004   1.082   8.745 -0.2215  1.9676  0.1483
 1467SOL     OW16033   2.314   2.401   3.437  0.5205  0.5065 -0.1828
 1467SOL    HW116034   2.274   2.464   3.376 -0.6847 -0.8810 -0.8327
 1467SOL    HW216035   2.369   2.463   3.485 -1.0365 -0.0846  2.3549
 1468SOL     OW16036   3.455   0.034   7.367 -0.3517  0.2112 -0.0621
 1468SOL    HW116037   3.377   4.721   7.388  0.8971 -3.0366 -3.1630
 1468SOL    HW216038   3.524   4.719   7.408  0.5196  2.3059  1.0835
 1469SOL     OW16039   3.991   2.638  12.070 -0.0251 -0.8672  0.2262
 1469SOL    HW116040   3.952   2.636  12.158  3.3029  0.7200  1.7376
 1469SOL    HW216041   4.067   2.697  12.072 -0.0727 -0.7916 -0.4395
 1470SOL     OW16042   2.641   3.906   7.291 -0.0961  0.0906  0.1247
 1470SOL    HW116043   2.558   3.861   7.310 -0.2356  1.5578  3.0397
 1470SOL    HW216044   2.617   3.961   7.217  0.8829  1.7808  1.0599
 1471SOL     OW16045   1.329   0.330   7.781 -0.3422  0.6655  0.3764
 1471SOL    HW116046   1.328   0.274   7.858 -1.5664 -1.0474 -0.8718
 1471SOL    HW216047   1.382   0.271   7.727 -1.1492  0.9859 -0.7680
 1472SOL     OW16048   2.375   4.553   1.293 -0.3798 -0.4840  0.9804
 1472SOL    HW116049   2.433   4.598   1.231  0.1933 -2.6803 -0.0786
 1472SOL    HW216050   2.349   4.469   1.255  1.5403 -0.0619 -1.3183
 1473SOL     OW16051   3.108   1.866   8.053  0.8693  0.4196 -0.1435
 1473SOL    HW116052   3.140   1.891   8.140  1.1685  0.5149 -0.2812
 1473SOL    HW216053   3.162   1.788   8.051 -1.1459 -0.9915  0.4219
 1474SOL     OW16054   3.614   0.549   2.801  0.1548 -0.0515 -0.0913
 1474SOL    HW116055   3.527   0.512   2.785  0.1658 -0.2065  0.2094
 1474SOL    HW216056   3.648   0.478   2.856 -0.5831 -0.6372 -0.3851
 1475SOL     OW16057   4.652   3.049   6.215  0.2948  0.1180 -0.0626
 1475SOL    HW116058   4.595   3.108   6.165 -0.9117 -0.2468  0.8958
 1475SOL    HW216059   4.597   3.044   6.293 -0.5901  0.0812 -0.6932
 1476SOL     OW16060   2.876   3.276   9.217 -0.3822 -0.2057 -0.2670
 1476SOL    HW116061   2.841   3.334   9.285 -2.1609 -3.0276  1.2609
 1476SOL    HW216062   2.831   3.316   9.143  0.1958  1.9377  0.5312
 1477SOL     OW16063   2.071   0.035   1.956  0.1618 -0.0329  0.4382
 1477SOL    HW116064   2.165   0.041   1.935  0.3514  2.9356  2.0893
 1477SOL    HW216065   2.069   0.094   2.032 -1.5911  0.2404  0.1637
 1478SOL     OW16066   1.996   2.451   5.298  0.0164 -0.3507  0.3326
 1478SOL    HW116067   2.020   2.462   5.390 -0.3244  0.5310  0.3185
 1478SOL    HW216068   1.900   2.451   5.296  0.1034 -0.7511 -4.1510
 1479SOL     OW16069   4.379   4.509   0.817  0.6285  0.0150  0.6111
 1479SOL    HW116070   4.309   4.572   0.835  0.6272  0.4606 -0.9736
 1479SOL    HW216071   4.353   4.464   0.737 -1.8192 -0.1114  1.4570
 1480SOL     OW16072   3.493   1.048  13.861  0.3769  0.3024 -0.4453
 1480SOL    HW116073   3.418   1.094  13.825 -0.3606 -0.0415  0.6615
 1480SOL    HW216074   3.570   1.075  13.810 -0.9084  1.2291 -1.8840
 1481SOL     OW16075   3.259   1.585  12.719  0.1529  0.8608 -0.7548
 1481SOL    HW116076   3.221   1.522  12.658 -0.6275  0.0276  0.5938
 1481SOL    HW216077   3.230   1.539  12.798 -0.1093 -0.4864 -1.6381
 1482SOL     OW16078   1.039   1.278   8.954  0.0859 -0.4922  0.5108
 1482SOL    HW116079   1.078   1.284   9.041  1.9189 -0.0527 -0.3386
 1482SOL    HW216080   0.952   1.245   8.974 -0.5349  0.3500 -0.8370
 1483SOL     OW16081   3.483   3.141   4.721 -0.1267 -0.2152 -0.0416
 1483SOL    HW116082   3.395   3.149   4.684 -0.4734  2.9763  1.4714
 1483SOL    HW216083   3.518   3.220   4.679  2.2532 -1.3471 -0.1377
 1484SOL     OW16084   3.606   1.611   7.112  0.0376  0.3465 -0.0848
 1484SOL    HW116085   3.618   1.687   7.169 -1.7966  0.7318 -0.1944
 1484SOL    HW216086   3.527   1.569   7.148 -0.0736 -0.0180 -0.7572
 1485SOL     OW16087   3.200   3.148   7.101 -0.1160  0.4335 -0.2334
 1485SOL    HW116088   3.254   3.222   7.130  0.2308  0.2720 -0.4749
 1485SOL    HW216089   3.266   3.079   7.102 -0.2077  0.3512  0.4000
 1486SOL     OW16090   3.183   1.164   9.264 -1.1312 -0.4133 -0.2462
 1486SOL    HW116091   3.126   1.196   9.333  0.3603 -1.2477  1.3792
 1486SOL    HW216092   3.184   1.237   9.202 -1.4419 -1.1175 -1.0806
 1487SOL     OW16093   0.600   1.089  11.063 -0.3465  0.1319  0.2660
 1487SOL    HW116094   0.576   1.030  11.135  1.4282  1.2102  1.7338
 1487SOL    HW216095   0.667   1.138  11.111  0.1170  2.9963 -3.2703
 1488SOL     OW16096   3.455   2.483  13.413 -0.7188  0.5829 -0.1854
 1488SOL    HW116097   3.531   2.534  13.384 -1.4849  0.8867 -1.6231
 1488SOL    HW216098   3.399   2.492  13.336 -0.4861  1.8634 -0.2162
 1489SOL     OW16099   1.421   3.935   9.224 -0.1300 -0.4220 -0.0024
 1489SOL    HW116100   1.468   4.004   9.270 -0.6711  0.6112 -0.9884
 1489SOL    HW216101   1.403   3.993   9.150 -0.5310  0.9197  1.1529
 1490SOL     OW16102   3.125   1.132   3.030  0.1470 -0.3902 -0.1282
 1490SOL    HW116103   3.187   1.172   3.090  0.9650 -0.3999 -0.9647
 1490SOL    HW216104   3.077   1.209   2.999 -0.1275  0.1474  1.6750
 1491SOL     OW16105   3.149   3.840  17.552  0.3611 -0.5643 -0.1441
 1491SOL    HW116106   3.176   3.898  17.480 -0.1815  1.0149  0.9269
 1491SOL    HW216107   3.201   3.887  17.617 -0.7216 -0.6601  0.7798
 1492SOL     OW16108   1.222   4.676   8.547  0.0081  0.1421  0.0222
 1492SOL    HW116109   1.163   4.698   8.475 -0.7250  2.6451  1.3910
 1492SOL    HW216110   1.178   4.599   8.582 -1.8441  1.5339  0.6854
 1493SOL     OW16111   2.996   1.142   4.245 -0.2936  0.4097  0.9824
 1493SOL    HW116112   3.061   1.170   4.181 -4.8732  2.9467 -2.5235
 1493SOL    HW216113   2.998   1.218   4.304  2.7317  1.9541 -1.1132
 1494SOL     OW16114   0.294   0.296   7.340 -0.2137  0.0365 -0.3082
 1494SOL    HW116115   0.278   0.341   7.423 -0.1820 -0.5089 -0.0034
 1494SOL    HW216116   0.351   0.359   7.296 -2.5975  1.7512 -0.9228
 1495SOL     OW16117   1.385   2.681   5.690  0.0790 -0.2173  0.2753
 1495SOL    HW116118   1.474   2.650   5.708 -0.6367 -2.2234  0.3974
 1495SOL    HW216119   1.396   2.745   5.620 -0.6360  1.1799  1.4394
 1496SOL     OW16120   3.002   3.373   6.730  0.4493  0.5892 -0.1130
 1496SOL    HW116121   3.090   3.375   6.768  0.4219  0.7049 -0.0546
 1496SOL    HW216122   3.013   3.293   6.679 -0.2894  2.4618 -3.1621
 1497SOL     OW16123   3.188   1.001   6.615  0.3667 -0.0818 -0.2879
 1497SOL    HW116124   3.156   1.091   6.605  2.1921  0.6073  0.0677
 1497SOL    HW216125   3.283   1.012   6.621  0.3581 -0.1305 -0.0747
 1498SOL     OW16126   1.905   2.530  17.643 -0.0239 -0.6638  0.4146
 1498SOL    HW116127   1.898   2.588  17.719  0.0173  0.1372 -0.1979
 1498SOL    HW216128   1.991   2.489  17.652  2.1065  3.6084 -0.1620
 1499SOL     OW16129   4.500   1.406   9.211  0.6379  0.1879  0.4347
 1499SOL    HW116130   4.478   1.448   9.127 -2.2907  2.3929  2.3295
 1499SOL    HW216131   4.555   1.474   9.251 -1.4505 -0.1812  3.8967
 1500SOL     OW16132   4.480   4.332   9.596 -0.5635 -0.4346 -0.4837
 1500SOL    HW116133   4.450   4.339   9.687 -0.1836  0.2098 -0.4135
 1500SOL    HW216134   4.451   4.242   9.577 -0.7946 -0.6022  0.6621
 1501SOL     OW16135   2.462   0.360   8.288  0.1792 -0.0831  0.6326
 1501SOL    HW116136   2.417   0.420   8.348 -2.5134  0.5177 -2.0493
 1501SOL    HW216137   2.425   0.274   8.309  1.0101 -0.4683  0.5300
 1502SOL     OW16138   1.842   4.543   2.589  0.1231 -0.1169  0.4826
 1502SOL    HW116139   1.903   4.597   2.539 -1.3617 -0.0756 -1.2944
 1502SOL    HW216140   1.770   4.527   2.528  2.3974 -0.5164 -2.0906
 1503SOL     OW16141   0.749   2.295   6.219 -0.0240 -0.0435  0.4370
 1503SOL    HW116142   0.800   2.370   6.189  0.2786 -0.9797 -1.4134
 1503SOL    HW216143   0.662   2.332   6.226  0.1930  0.5972 -0.2187
 1504SOL     OW16144   0.263   0.391  12.582 -0.1595  0.3285  0.5023
 1504SOL    HW116145   0.220   0.351  12.658  1.4902 -1.5729  0.4454
 1504SOL    HW216146   0.256   0.483  12.606  4.1587  0.2154  2.2264
 1505SOL     OW16147   0.578   1.414  10.868 -0.4880 -0.2419  0.2567
 1505SOL    HW116148   0.672   1.407  10.886 -0.6376 -3.7723 -0.3952
 1505SOL    HW216149   0.557   1.481  10.933 -1.6569  0.6565 -1.0509
 1506SOL     OW16150   2.361   3.317   4.435 -0.0225  0.4587 -0.2942
 1506SOL    HW116151   2.331   3.406   4.419 -0.4005  0.1606 -1.2160
 1506SOL    HW216152   2.285   3.285   4.483 -0.4091  1.1819 -0.4439
 1507SOL     OW16153   1.643   4.200   7.428  0.0737 -0.2353 -0.0628
 1507SOL    HW116154   1.691   4.163   7.502 -0.4343  1.3560  1.0848
 1507SOL    HW216155   1.563   4.235   7.469  0.9544  0.6886  0.8914
 1508SOL     OW16156   3.128   1.417  10.256  0.5828 -0.4090  0.0097
 1508SOL    HW116157   3.086   1.338  10.290  0.0499 -0.2574 -0.2921
 1508SOL    HW216158   3.077   1.437  10.177 -0.5902  0.6608  1.0448
 1509SOL     OW16159   0.464   0.618   5.416  0.3248  0.1836 -0.1379
 1509SOL    HW116160   0.499   0.695   5.371  1.0277  0.6162  1.1502
 1509SOL    HW216161   0.469   0.648   5.506  0.0479  0.8826 -0.3574
 1510SOL     OW16162   1.303   1.653   7.093 -0.4247  0.0704 -0.4904
 1510SOL    HW116163   1.306   1.558   7.081 -2.5094 -0.2514  1.6119
 1510SOL    HW216164   1.340   1.667   7.181  0.1052  0.2778 -0.7439
 1511SOL     OW16165   1.778   2.157   5.223 -0.8541  0.3678 -0.2592
 1511SOL    HW116166   1.827   2.077   5.202 -2.0934 -0.8500  1.4550
 1511SOL    HW216167   1.774   2.155   5.319  2.1232 -2.0051 -0.1542
 1512SOL     OW16168   0.044   4.207   1.874 -0.1595 -0.3853  0.8550
 1512SOL    HW116169   0.063   4.164   1.958 -2.1154  0.8806  1.9232
 1512SOL    HW216170   0.100   4.154   1.817 -0.4693 -0.7765  0.9193
 1513SOL     OW16171   4.111   1.756  14.125 -0.2864 -0.0907  0.2916
 1513SOL    HW116172   4.132   1.823  14.060  1.6624 -0.5539  0.4331
 1513SOL    HW216173   4.042   1.805  14.169  0.4361  1.0314  0.1642
 1514SOL     OW16174   2.236   3.127  11.298  0.5411  0.3213  0.5735
 1514SOL    HW116175   2.323   3.152  11.329  0.1408  1.4043  0.8340
 1514SOL    HW216176   2.245   3.148  11.205  2.6476 -0.0925  0.6804
 1515SOL     OW16177   2.012   3.138  17.659  0.1280 -0.4703  0.3334
 1515SOL    HW116178   1.946   3.193  17.701  0.0218 -0.0452 -0.3839
 1515SOL    HW216179   2.047   3.078  17.725 -2.8778 -1.7461  0.7405
 1516SOL     OW16180   3.064   3.974   7.165  0.4126  0.1848  0.3703
 1516SOL    HW116181   2.997   3.908   7.145 -1.6661  1.9441  1.5015
 1516SOL    HW216182   3.031   4.039   7.103 -0.9604 -1.9522 -1.1347
 1517SOL     OW16183   1.223   1.497  12.388  0.0717  0.4063  0.2370
 1517SOL    HW116184   1.245   1.479  12.297 -0.6988  1.2487 -0.1149
 1517SOL    HW216185   1.151   1.556  12.366 -0.2086  0.8304  2.2443
 1518SOL     OW16186   3.659   1.118   7.761 -0.7441  0.1606 -0.0386
 1518SOL    HW116187   3.568   1.106   7.788  0.2030  0.7737  3.3930
 1518SOL    HW216188   3.662   1.046   7.699  0.9008 -0.0400  0.2764
 1519SOL     OW16189   2.687   0.115   7.863 -0.1110 -0.1170  0.0467
 1519SOL    HW116190   2.606   0.075   7.831 -2.4948  1.4251  4.1281
 1519SOL    HW216191   2.663   0.202   7.895 -0.8454  0.5545 -2.3387
 1520SOL     OW16192   2.875   1.078   0.094 -0.5683 -0.4466  0.5121
 1520SOL    HW116193   2.824   1.017   0.040 -1.1839  0.6456 -0.1430
 1520SOL    HW216194   2.956   1.076   0.044 -0.6247 -1.3335  0.4594
 1521SOL     OW16195   3.619   2.005   6.134  0.1006 -0.3831 -0.3650
 1521SOL    HW116196   3.575   1.938   6.083  0.6084  0.2415 -1.6146
 1521SOL    HW216197   3.551   2.072   6.124  0.5772  0.4424  1.7462
 1522SOL     OW16198   1.227   0.262   4.107  0.4738  0.1019 -0.5710
 1522SOL    HW116199   1.286   0.188   4.096 -1.1659 -1.0049 -1.8779
 1522SOL    HW216200   1.289   0.334   4.098 -0.4204  1.0765  1.0007
 1523SOL     OW16201   1.363   2.920   7.757 -0.2406 -0.0769 -0.0392
 1523SOL    HW116202   1.272   2.894   7.743 -0.5117  0.2015  1.2172
 1523SOL    HW216203   1.347   3.012   7.780 -0.2127  0.2662 -1.3774
 1524SOL     OW16204   1.842   3.251  11.840  0.6923  0.0869  0.7684
 1524SOL    HW116205   1.846   3.289  11.753 -1.6190  1.8618  1.4271
 1524SOL    HW216206   1.776   3.184  11.823 -1.1357  1.6782  1.6591
 1525SOL     OW16207   1.307   2.251  11.289  0.0686  0.0114 -0.0106
 1525SOL    HW116208   1.267   2.312  11.351  1.7169 -0.9118  1.9209
 1525SOL    HW216209   1.365   2.203  11.347  1.4133 -0.4778 -1.7459
 1526SOL     OW16210   3.146   4.548  13.821 -0.2764 -0.4671  0.1227
 1526SOL    HW116211   3.205   4.476  13.842 -0.1581 -0.5820 -0.6115
 1526SOL    HW216212   3.217   4.606  13.792 -0.5422  0.1373  0.6613
 1527SOL     OW16213   1.549   3.549  14.617 -1.0720 -0.2131 -0.3686
 1527SOL    HW116214   1.559   3.511  14.704  0.5396  0.4057 -0.2898
 1527SOL    HW216215   1.557   3.644  14.626  1.3055 -0.6301  1.8958
 1528SOL     OW16216   3.388   0.278   7.265  0.3493  0.3816 -0.0161
 1528SOL    HW116217   3.307   0.245   7.226  2.4212 -2.2778 -2.0394
 1528SOL    HW216218   3.440   0.200   7.281 -0.7535 -0.0226  1.6203
 1529SOL     OW16219   1.384   4.736   0.799  0.0396  0.0661  0.1646
 1529SOL    HW116220   1.475   4.711   0.780  1.3616  3.1238  2.4816
 1529SOL    HW216221   1.332   4.657   0.786  0.2878  0.2588 -1.8683
 1530SOL     OW16222   1.132   2.769   4.631  0.0709 -0.1099 -0.3387
 1530SOL    HW116223   1.059   2.804   4.681 -0.4761 -0.9233 -0.5626
 1530SOL    HW216224   1.174   2.709   4.693 -1.3854 -1.3173 -0.4973
 1531SOL     OW16225   4.563   3.686   5.515  0.0251 -0.1824  0.2737
 1531SOL    HW116226   4.571   3.765   5.569  1.8067  0.1031 -0.4272
 1531SOL    HW216227   4.469   3.669   5.518  0.0928 -0.7699 -1.1296
 1532SOL     OW16228   1.821   3.925  15.651 -0.4269  0.2650 -0.0302
 1532SOL    HW116229   1.767   3.987  15.601  0.1220  0.4827 -0.3578
 1532SOL    HW216230   1.818   3.957  15.741  3.0635 -0.3094  0.2931
 1533SOL     OW16231   3.569   0.175  11.521  0.0723  0.1398 -0.5668
 1533SOL    HW116232   3.507   0.248  11.516 -0.1360  0.1037  1.4712
 1533SOL    HW216233   3.645   0.220  11.557 -0.2900 -0.8955  1.4945
 1534SOL     OW16234   0.818   1.490   1.729  0.0816  0.1814 -0.1351
 1534SOL    HW116235   0.784   1.569   1.686 -0.0451  0.2769  0.1433
 1534SOL    HW216236   0.750   1.429   1.698 -0.5878  0.7043  0.2944
 1535SOL     OW16237   0.453   0.676   3.479 -0.4271  0.5936 -0.2354
 1535SOL    HW116238   0.384   0.741   3.465  0.3253  1.6148  0.7741
 1535SOL    HW216239   0.488   0.664   3.391  0.6618  2.4293 -0.0633
 1536SOL     OW16240   0.588   3.004  12.000  0.4914 -0.1408  0.2534
 1536SOL    HW116241   0.671   3.044  12.026 -1.0808  1.8756  2.2670
 1536SOL    HW216242   0.623   2.916  12.010  1.0808  0.0557 -0.0819
 1537SOL     OW16243   4.687   1.273   0.958 -0.4754 -0.3744  0.4718
 1537SOL    HW116244   4.681   1.332   1.034 -0.5124 -0.7964  0.7987
 1537SOL    HW216245   4.594   1.264   0.936 -0.1060 -0.7309 -0.9130
 1538SOL     OW16246   3.981   4.574   3.996 -0.1048 -0.3905  0.0104
 1538SOL    HW116247   4.049   4.509   4.008 -0.5030 -0.8720 -0.3617
 1538SOL    HW216248   3.922   4.574   4.072  0.4232  2.6288  0.4444
 1539SOL     OW16249   2.430   0.045   6.926 -0.5119 -0.1754 -0.1036
 1539SOL    HW116250   2.522   0.018   6.926 -0.2154  0.8541  0.7203
 1539SOL    HW216251   2.406   0.016   6.838 -2.1309  1.4041 -0.1857
 1540SOL     OW16252   1.535   1.685  16.168  0.1267 -0.7517 -0.4215
 1540SOL    HW116253   1.624   1.659  16.191  0.5403  0.6670 -0.4340
 1540SOL    HW216254   1.487   1.603  16.179 -1.3306  0.0140 -0.9313
 1541SOL     OW16255   1.878   0.529   3.245 -0.3108  0.3123  0.0147
 1541SOL    HW116256   1.972   0.542   3.230  0.1812 -1.0143  1.8877
 1541SOL    HW216257   1.879   0.444   3.290 -2.0943  1.9652  3.1961
 1542SOL     OW16258   2.664   1.600   3.563  0.0766  0.1723 -0.2205
 1542SOL    HW116259   2.743   1.621   3.612  1.2167 -0.7356 -1.6870
 1542SOL    HW216260   2.703   1.580   3.478  0.4114  0.6425 -0.1767
 1543SOL     OW16261   1.285   1.906  12.939 -0.1851  0.1400  0.0237
 1543SOL    HW116262   1.357   1.850  12.966  0.2478  1.4366  1.5482
 1543SOL    HW216263   1.220   1.837  12.954 -0.0932  0.0569  0.0389
 1544SOL     OW16264   4.205   4.099   9.827  0.1306  0.1431  0.2735
 1544SOL    HW116265   4.208   4.109   9.731 -1.5233  0.2363  0.2206
 1544SOL    HW216266   4.116   4.064   9.832  0.4598 -0.4883  1.6659
 1545SOL     OW16267   1.611   2.529   4.529  0.2680  0.3593  0.7020
 1545SOL    HW116268   1.693   2.578   4.526  1.0796 -0.9443  1.6955
 1545SOL    HW216269   1.630   2.475   4.605  0.2841  0.5459  0.8318
 1546SOL     OW16270   4.362   4.651   4.026  0.6937  0.3464  0.1508
 1546SOL    HW116271   4.362   4.714   4.098 -0.6516 -0.0114  0.4592
 1546SOL    HW216272   4.277   4.661   3.984  0.1186 -2.2307  0.7068
 1547SOL     OW16273   4.624   2.938   5.683  0.7337 -0.1602  0.4760
 1547SOL    HW116274   4.638   2.852   5.723  2.5874  0.7195  1.6708
 1547SOL    HW216275   4.531   2.955   5.700  0.3219 -1.2876 -0.6097
 1548SOL     OW16276   4.585   4.074   3.625  0.1800 -0.1387 -0.2710
 1548SOL    HW116277   4.557   4.083   3.534 -0.7520 -0.0378  0.0250
 1548SOL    HW216278   4.544   4.150   3.668 -0.3171 -0.0334 -0.9242
 1549SOL     OW16279   0.673   1.060   6.474  0.0680 -0.6439  0.0444
 1549SOL    HW116280   0.706   1.107   6.397  0.2792  0.4596  0.8119
 1549SOL    HW216281   0.723   1.111   6.537  0.5119  0.0726 -0.8714
 1550SOL     OW16282   3.034   4.448   5.921  0.4377 -0.4596  0.1425
 1550SOL    HW116283   3.038   4.487   5.834 -1.4036 -0.8978 -0.1494
 1550SOL    HW216284   3.026   4.525   5.978 -2.0963 -0.1949 -0.5867
 1551SOL     OW16285   4.609   1.279   1.302  0.3908  0.0249  0.0348
 1551SOL    HW116286   4.657   1.208   1.260  2.5286  0.3700  1.9542
 1551SOL    HW216287   4.517   1.255   1.290  1.1606 -2.0525 -1.6856
 1552SOL     OW16288   4.449   2.797   9.863  0.8577 -0.2592 -0.2798
 1552SOL    HW116289   4.449   2.794   9.767 -1.3228 -3.6355 -0.1494
 1552SOL    HW216290   4.541   2.782   9.887  0.8575  0.8673  0.4671
 1553SOL     OW16291   0.276   2.100   2.275 -0.0316 -0.2666  0.2348
 1553SOL    HW116292   0.331   2.033   2.233  2.7550  1.9837  0.2641
 1553SOL    HW216293   0.197   2.112   2.224 -0.5335  0.4201  1.1743
 1554SOL     OW16294   4.358   1.342   6.681  0.0893  0.0597 -0.5466
 1554SOL    HW116295   4.352   1.359   6.775 -1.3346 -0.9251 -0.4589
 1554SOL    HW216296   4.314   1.424   6.660  0.9739  1.0995  1.7024
 1555SOL     OW16297   2.206   1.822   5.282 -0.3078 -0.0121  0.0824
 1555SOL    HW116298   2.272   1.766   5.322 -0.1352 -0.3616 -0.7049
 1555SOL    HW216299   2.257   1.880   5.227  1.7567 -0.7341  1.2568
 1556SOL     OW16300   1.159   4.263  11.489 -0.0991 -0.1462 -0.3472
 1556SOL    HW116301   1.241   4.273  11.537 -0.3930 -2.2191  0.5836
 1556SOL    HW216302   1.184   4.198  11.423  2.8220 -0.3231  0.9649
 1557SOL     OW16303   0.922   1.371   0.067  0.2994 -0.2483 -0.1176
 1557SOL    HW116304   0.841   1.322   0.073 -0.5925  0.8747 -3.1287
 1557SOL    HW216305   0.936   1.386  17.720  4.9120 -1.9614  0.3103
 1558SOL     OW16306   3.611   3.196   5.766 -0.3758 -0.1998  0.4392
 1558SOL    HW116307   3.631   3.236   5.851 -2.2137  2.1037 -0.1960
 1558SOL    HW216308   3.655   3.111   5.769  3.0748  1.6004  0.4882
 1559SOL     OW16309   3.539   0.741  11.311 -0.1677  0.4335 -0.4209
 1559SOL    HW116310   3.551   0.749  11.217  1.8837 -1.3654 -0.3094
 1559SOL    HW216311   3.623   0.713  11.347 -1.0722 -0.5089  0.9663
 1560SOL     OW16312   2.389   4.106   6.467  0.2428 -0.3396  0.4023
 1560SOL    HW116313   2.375   4.025   6.418  0.7062 -1.1504  1.6090
 1560SOL    HW216314   2.444   4.158   6.409 -0.0896 -1.7592 -1.1781
 1561SOL     OW16315   3.654   3.238   6.369 -0.0731 -0.0239 -0.0649
 1561SOL    HW116316   3.709   3.163   6.391  2.0719  1.3369 -0.7711
 1561SOL    HW216317   3.586   3.239   6.437  0.3228  2.3126  0.2862
 1562SOL     OW16318   2.556   4.360   4.083 -0.4244 -0.2277 -0.3980
 1562SOL    HW116319   2.553   4.314   4.167 -0.4465 -0.8715 -0.7498
 1562SOL    HW216320   2.593   4.286   4.035  0.3128  1.4624 -2.4163
 1563SOL     OW16321   0.020   0.190  11.466 -0.1928  0.7087  0.1601
 1563SOL    HW116322   0.006   0.231  11.381  1.0062 -0.2368 -0.5060
 1563SOL    HW216323   0.113   0.170  11.458 -0.3208 -0.2560  1.1173
 1564SOL     OW16324   4.037   1.131   2.961 -0.2794 -0.4675  0.1732
 1564SOL    HW116325   3.996   1.058   2.913  0.3398 -0.6325 -0.1079
 1564SOL    HW216326   3.970   1.156   3.025  1.6112  0.9380  1.5998
 1565SOL     OW16327   1.710   2.405   8.848 -0.8650 -0.0367 -0.4523
 1565SOL    HW116328   1.622   2.383   8.817 -0.5036 -1.0700 -0.7436
 1565SOL    HW216329   1.688   2.410   8.941 -1.2800  0.6020 -0.5887
 1566SOL     OW16330   3.057   2.466   8.263  0.5993  0.2787 -0.3822
 1566SOL    HW116331   3.142   2.450   8.303  0.6820 -0.3663 -0.8237
 1566SOL    HW216332   3.029   2.376   8.278  1.0328  0.2306  0.1076
 1567SOL     OW16333   0.827   1.758   7.070 -0.4535  0.3909 -0.0190
 1567SOL    HW116334   0.921   1.779   7.075 -0.1852 -1.0897  1.1406
 1567SOL    HW216335   0.793   1.847   7.065 -3.2575 -0.7919 -1.7499
 1568SOL     OW16336   2.572   4.596   4.365 -0.1471 -0.4178 -0.6142
 1568SOL    HW116337   2.614   4.582   4.281  1.9548 -0.3396  0.4282
 1568SOL    HW216338   2.624   4.668   4.401 -0.4492 -1.4833  1.9581
 1569SOL     OW16339   4.431   0.587   6.208 -0.2636  0.0778  0.3931
 1569SOL    HW116340   4.472   0.507   6.240 -2.0853 -0.9206  0.1788
 1569SOL    HW216341   4.376   0.609   6.283  1.8649  0.8214  1.7400
 1570SOL     OW16342   3.497   4.207  15.519  0.1333 -0.0619  0.4911
 1570SOL    HW116343   3.436   4.203  15.446  2.6101 -0.4359 -1.5677
 1570SOL    HW216344   3.585   4.228  15.488  0.0791  0.7053  0.8651
 1571SOL     OW16345   1.433   1.938   8.207  0.1821  0.8423  0.0502
 1571SOL    HW116346   1.404   1.904   8.291 -2.6200  1.7001 -0.5692
 1571SOL    HW216347   1.528   1.930   8.217 -0.0582 -1.4189  0.5085
 1572SOL     OW16348   0.106   3.284   5.055  0.4190 -0.5532  0.1836
 1572SOL    HW116349   0.184   3.230   5.072  0.2670 -0.3902  1.3709
 1572SOL    HW216350   0.056   3.228   4.995 -3.0315  4.1213 -1.3007
 1573SOL     OW16351   1.058   2.841   6.434  0.0450 -0.6529 -0.0205
 1573SOL    HW116352   1.079   2.861   6.343  0.9968  1.1412  0.5945
 1573SOL    HW216353   1.039   2.749   6.420 -0.5533 -0.2788 -1.7133
 1574SOL     OW16354   3.134   3.853   2.802 -0.1788 -0.5126 -0.2167
 1574SOL    HW116355   3.124   3.766   2.766  0.2803 -0.2432 -1.0008
 1574SOL    HW216356   3.070   3.897   2.746  0.4518  1.6345  0.7065
 1575SOL     OW16357   4.283   1.079  13.589 -0.1271 -0.1920 -0.4893
 1575SOL    HW116358   4.274   1.173  13.575 -0.9536 -0.3078 -0.7427
 1575SOL    HW216359   4.198   1.045  13.561  0.4720 -1.7527 -0.4527
 1576SOL     OW16360   1.109   0.014   1.173 -0.7220 -0.1887  0.0715
 1576SOL    HW116361   1.162   0.025   1.094 -1.3317  1.8115 -0.0419
 1576SOL    HW216362   1.042   4.700   1.128 -1.0052 -0.8022  1.1765
 1577SOL     OW16363   3.592   3.301   4.176  0.5718  0.4220  0.4940
 1577SOL    HW116364   3.592   3.364   4.103  0.4305 -0.2055 -0.0441
 1577SOL    HW216365   3.685   3.293   4.198  0.3276 -0.8928  1.0367
 1578SOL     OW16366   2.536   3.316   6.097 -0.0238  0.2132 -0.3428
 1578SOL    HW116367   2.614   3.368   6.118  0.6541 -0.9090 -0.0717
 1578SOL    HW216368   2.482   3.373   6.043  2.4224 -0.0652 -3.0574
 1579SOL     OW16369   0.705   2.073   3.524  0.8020  0.8757 -0.1375
 1579SOL    HW116370   0.683   2.012   3.454 -0.3852  2.5190 -1.2116
 1579SOL    HW216371   0.661   2.025   3.595 -1.1636  1.8997 -0.6619
 1580SOL     OW16372   3.957   2.411   8.527 -0.1978  0.2401  0.1225
 1580SOL    HW116373   3.879   2.360   8.507 -0.5672  0.8331  0.0712
 1580SOL    HW216374   3.943   2.440   8.617 -0.0627  1.0225 -0.1063
 1581SOL     OW16375   2.998   4.497  11.580 -0.1145 -0.5330 -0.2834
 1581SOL    HW116376   2.908   4.465  11.573 -0.4484  0.4268 -0.3644
 1581SOL    HW216377   3.030   4.458  11.662  2.6235  1.7959 -0.2534
 1582SOL     OW16378   1.005   0.400   6.134  0.2415  0.1761 -0.2191
 1582SOL    HW116379   0.975   0.476   6.183  1.0034  0.8758 -0.8311
 1582SOL    HW216380   1.084   0.438   6.096  0.9545 -0.9431  0.1636
 1583SOL     OW16381   4.505   2.543  10.235  0.7231 -0.1425  0.1667
 1583SOL    HW116382   4.559   2.555  10.313  2.1238  1.7847 -1.1246
 1583SOL    HW216383   4.566   2.494  10.180 -0.9993 -1.4434 -0.5798
 1584SOL     OW16384   2.825   3.939   5.020 -0.0933  0.2527 -0.6482
 1584SOL    HW116385   2.758   3.904   4.961  1.0053  2.2000 -3.0691
 1584SOL    HW216386   2.777   3.995   5.080  0.2193 -0.5135  0.3125
 1585SOL     OW16387   1.477   1.669   1.491 -0.0438 -0.0078  0.1854
 1585SOL    HW116388   1.527   1.667   1.573  1.3034 -2.6941 -0.6885
 1585SOL    HW216389   1.517   1.603   1.434  0.8695  0.7802 -0.0932
 1586SOL     OW16390   2.295   2.982   8.035 -0.5459 -0.1065 -0.2386
 1586SOL    HW116391   2.348   2.905   8.055 -1.1658  0.3170  3.0183
 1586SOL    HW216392   2.251   3.000   8.118 -2.8458  0.3439 -1.5532
 1587SOL     OW16393   2.622   3.890   5.209  0.0777  0.1620 -0.4698
 1587SOL    HW116394   2.602   3.828   5.138  2.1622  1.0062 -1.7953
 1587SOL    HW216395   2.540   3.938   5.206  1.1495  2.0754  1.3410
 1588SOL     OW16396   2.935   4.357   0.042  0.6863  0.4508  0.0240
 1588SOL    HW116397   3.001   4.359  17.719 -1.2199 -1.3647 -1.8491
 1588SOL    HW216398   2.917   4.264   0.059  1.4860 -0.2623 -3.0585
 1589SOL     OW16399   0.042   1.343  16.653  0.9421 -0.3986 -0.2366
 1589SOL    HW116400   0.022   1.415  16.713  0.9027  0.6717 -1.5106
 1589SOL    HW216401   4.701   1.350  16.597  1.5438  0.8544 -0.9392
 1590SOL     OW16402   2.526   1.200   0.573  0.3921  0.1270  0.2307
 1590SOL    HW116403   2.605   1.154   0.603  1.0930  1.8918  1.1599
 1590SOL    HW216404   2.496   1.225   0.660 -0.5746 -2.6503  0.6884
 1591SOL     OW16405   4.616   3.844   3.938 -0.5690  0.4397 -0.2023
 1591SOL    HW116406   4.667   3.782   3.990 -2.0717 -1.3905 -0.8976
 1591SOL    HW216407   4.525   3.822   3.958 -0.1004 -1.3167 -0.0180
 1592SOL     OW16408   4.400   4.139   8.398  0.0903  0.1106  0.0329
 1592SOL    HW116409   4.340   4.134   8.324 -0.4874  2.1433  0.3563
 1592SOL    HW216410   4.340   4.157   8.470 -1.1314  0.1018 -0.9798
 1593SOL     OW16411   4.345   4.718   8.138 -0.3205  0.3095  0.3337
 1593SOL    HW116412   4.416   4.661   8.169  0.5307  0.7366 -0.8127
 1593SOL    HW216413   4.380   0.070   8.146  0.2040  0.0547  0.8666
 1594SOL     OW16414   3.654   2.772  13.174 -0.0183  0.0696 -0.2176
 1594SOL    HW116415   3.744   2.803  13.180 -0.2434  0.8834 -1.0602
 1594SOL    HW216416   3.614   2.850  13.136  0.3571  0.9857  1.3062
 1595SOL     OW16417   2.209   1.050   0.882 -0.3378  0.3169  0.5716
 1595SOL    HW116418   2.160   1.113   0.934  0.4739  0.9889  0.5077
 1595SOL    HW216419   2.135   0.994   0.858  1.6322 -1.5736 -1.1961
 1596SOL     OW16420   3.396   1.536  16.978  0.2676 -0.2621  0.2245
 1596SOL    HW116421   3.351   1.557  16.896 -0.5593 -1.1928  0.4403
 1596SOL    HW216422   3.355   1.586  17.049 -0.9061 -0.4909 -0.2897
 1597SOL     OW16423   1.231   0.084   3.682  0.4699 -0.3209  0.1478
 1597SOL    HW116424   1.294   0.131   3.735 -0.4277  1.9363 -0.7847
 1597SOL    HW216425   1.164   0.148   3.656 -0.9407 -1.6862  0.3857
 1598SOL     OW16426   1.328   1.357   5.713  0.1073  0.2231 -0.1297
 1598SOL    HW116427   1.420   1.354   5.689  0.1310 -0.0042 -0.0068
 1598SOL    HW216428   1.276   1.312   5.647 -1.6087 -0.2863  1.5580
 1599SOL     OW16429   4.711   0.835   2.058 -0.0189  0.1509 -0.1921
 1599SOL    HW116430   0.064   0.856   2.082 -0.1970  0.4880  0.1735
 1599SOL    HW216431   4.731   0.788   1.976  0.9814  0.7089 -0.2690
 1600SOL     OW16432   4.319   0.340  15.876 -0.0008 -0.3218  0.0589
 1600SOL    HW116433   4.263   0.380  15.809 -0.4449 -0.0430  0.6026
 1600SOL    HW216434   4.385   0.408  15.891  0.1704  0.1187 -2.5427
 1601SOL     OW16435   4.355   2.799   6.351 -0.3782 -0.6042  0.0322
 1601SOL    HW116436   4.396   2.800   6.264  1.0600 -1.4436  0.6961
 1601SOL    HW216437   4.280   2.745   6.326 -0.6071 -0.1286 -0.2929
 1602SOL     OW16438   0.675   4.523   2.081 -0.3245  0.0031 -0.2485
 1602SOL    HW116439   0.736   4.520   2.007  0.9160 -3.3801  0.9233
 1602SOL    HW216440   0.636   4.610   2.079  0.8252  0.4937 -1.2406
 1603SOL     OW16441   0.546   3.967  16.742  0.5963 -0.7351 -0.0965
 1603SOL    HW116442   0.458   3.933  16.757 -0.1876  0.6439 -1.5033
 1603SOL    HW216443   0.548   3.964  16.646  1.3618  0.3820 -0.1147
 1604SOL     OW16444   3.970   2.109   4.881 -0.3060 -0.5660  0.6542
 1604SOL    HW116445   4.022   2.180   4.919 -0.8592  0.1421  0.1022
 1604SOL    HW216446   4.011   2.031   4.917 -0.8043 -0.6166  1.1093
 1605SOL     OW16447   3.591   1.409   6.672 -0.3986  0.4416  0.4965
 1605SOL    HW116448   3.621   1.318   6.666 -2.8008 -0.3382  0.3456
 1605SOL    HW216449   3.516   1.397   6.614  0.9512 -0.7998 -1.0068
 1606SOL     OW16450   1.684   2.947  10.997  0.5424  0.1863 -0.4660
 1606SOL    HW116451   1.751   2.905  11.050 -1.0993 -2.3179 -0.4119
 1606SOL    HW216452   1.615   2.885  11.019 -0.0090  1.0420  0.2302
 1607SOL     OW16453   2.355   2.085   6.798 -0.0960  0.7521 -0.2630
 1607SOL    HW116454   2.393   2.075   6.885 -1.4412  1.0125  0.3554
 1607SOL    HW216455   2.290   2.015   6.796  1.6953 -0.9147 -0.2773
 1608SOL     OW16456   2.991   2.987  17.160  0.3601  0.6960  0.6735
 1608SOL    HW116457   3.067   3.045  17.152  0.8275  0.1128  0.8801
 1608SOL    HW216458   2.975   2.985  17.065  2.3043  0.9245  0.3442
 1609SOL     OW16459   4.565   1.832   1.614 -0.5980  0.2139 -0.9912
 1609SOL    HW116460   4.655   1.818   1.585 -0.1668 -0.2842  0.5831
 1609SOL    HW216461   4.559   1.921   1.581  0.2020  0.7441  0.3094
 1610SOL     OW16462   3.384   0.753   3.076  0.5386  0.0297  0.1330
 1610SOL    HW116463   3.354   0.738   3.166 -1.6034 -1.8319 -0.8723
 1610SOL    HW216464   3.390   0.661   3.048  1.1640 -0.3280  1.4311
 1611SOL     OW16465   2.624   1.490   1.464 -0.1513  0.3787  0.3700
 1611SOL    HW116466   2.643   1.425   1.396  0.0274  1.5623 -0.7093
 1611SOL    HW216467   2.619   1.565   1.404  0.1623  0.5283  0.5314
 1612SOL     OW16468   1.578   1.732   4.156  0.0120 -0.3292  0.1691
 1612SOL    HW116469   1.642   1.777   4.100  2.1384 -0.3017  2.5879
 1612SOL    HW216470   1.571   1.793   4.230 -0.3723  0.2961 -0.3874
 1613SOL     OW16471   3.894   3.431   1.202  0.7002 -0.4733  0.4219
 1613SOL    HW116472   3.892   3.416   1.107 -0.5057  0.2359  0.3428
 1613SOL    HW216473   3.853   3.516   1.214  1.4412  0.1037 -1.1659
 1614SOL     OW16474   2.339   0.485   3.502 -0.1854  0.3271  0.3803
 1614SOL    HW116475   2.433   0.498   3.489  0.1874 -1.6449  1.1123
 1614SOL    HW216476   2.333   0.524   3.590 -0.0675  1.2035  0.0011
 1615SOL     OW16477   1.164   0.446  11.882 -0.0184  0.0186  0.3002
 1615SOL    HW116478   1.119   0.507  11.940  0.6194  0.0959  0.7109
 1615SOL    HW216479   1.136   0.365  11.925  0.8578  0.4780  1.7316
 1616SOL     OW16480   1.796   0.433   5.866  0.2684 -0.1750 -0.3399
 1616SOL    HW116481   1.761   0.363   5.922 -1.8318  0.8208 -0.4238
 1616SOL    HW216482   1.751   0.427   5.782  1.7316  1.9909 -1.2480
 1617SOL     OW16483   4.611   2.296   4.849  0.1007  0.0742 -0.1962
 1617SOL    HW116484   4.636   2.384   4.821 -2.9656  1.0954  0.3078
 1617SOL    HW216485   4.573   2.252   4.772  1.9990  0.1212 -1.1739
 1618SOL     OW16486   0.120   0.432   4.438  0.1933  0.5709 -0.1735
 1618SOL    HW116487   0.206   0.476   4.442  0.9042 -1.0638  2.1366
 1618SOL    HW216488   0.075   0.488   4.500  0.1507  0.8693 -0.4708
 1619SOL     OW16489   0.700   0.682   4.074  0.4462  0.5352 -0.6387
 1619SOL    HW116490   0.610   0.694   4.105  1.5667  2.3135  1.8987
 1619SOL    HW216491   0.731   0.616   4.136  0.8935 -0.5687 -2.0395
 1620SOL     OW16492   2.345   0.865   4.382 -0.3990 -0.0133  0.0550
 1620SOL    HW116493   2.412   0.812   4.423 -0.1072 -0.9972 -1.6622
 1620SOL    HW216494   2.394   0.925   4.326  1.8644 -2.8117 -0.9768
 1621SOL     OW16495   0.222   4.339   4.560  0.5657 -0.4127 -0.0707
 1621SOL    HW116496   0.147   4.358   4.504  1.4272  0.5003 -0.9142
 1621SOL    HW216497   0.197   4.255   4.598 -0.1590  0.4661  1.4009
 1622SOL     OW16498   4.736   2.780  11.621  0.2062  0.3296 -0.0052
 1622SOL    HW116499   0.025   2.838  11.549 -2.2939  0.4071 -0.8530
 1622SOL    HW216500   4.653   2.742  11.591  2.1404 -3.5659 -0.4682
 1623SOL     OW16501   0.540   0.431   1.878 -1.0627  1.0074 -0.1233
 1623SOL    HW116502   0.632   0.439   1.902 -1.0753 -0.4055  0.3851
 1623SOL    HW216503   0.516   0.339   1.867 -2.5693  1.5595 -1.4997
 1624SOL     OW16504   1.154   3.764  13.405 -0.5414 -0.4613  0.2796
 1624SOL    HW116505   1.196   3.693  13.453 -1.5324 -0.2031  1.5475
 1624SOL    HW216506   1.210   3.779  13.329  0.8390  2.5873  1.8960
 1625SOL     OW16507   0.051   0.944   5.878 -0.4956 -0.5380 -0.5750
 1625SOL    HW116508   0.112   0.990   5.936 -0.4043 -1.4179  0.0331
 1625SOL    HW216509   0.029   1.004   5.807  1.2769 -1.2502 -1.7336
 1626SOL     OW16510   4.221   4.020   3.023 -0.1721 -0.2465  0.1828
 1626SOL    HW116511   4.156   3.997   2.957  1.9137  0.0172 -1.9666
 1626SOL    HW216512   4.236   4.104   2.980 -2.8693  0.7602  1.1733
 1627SOL     OW16513   3.729   0.328   9.096  0.0817 -0.3147 -0.1069
 1627SOL    HW116514   3.768   0.344   9.010 -0.2240  0.1854 -0.1511
 1627SOL    HW216515   3.702   0.236   9.090 -0.8700 -0.0461  0.1013
 1628SOL     OW16516   1.868   0.584   2.236  0.0706  0.1570 -0.1751
 1628SOL    HW116517   1.805   0.653   2.215 -0.7044 -0.7750 -0.9168
 1628SOL    HW216518   1.832   0.516   2.179  0.4325 -0.1867  0.0055
 1629SOL     OW16519   0.020   3.812   4.808 -0.2816  0.5851  0.2161
 1629SOL    HW116520   4.666   3.839   4.794  0.2241  2.1252 -0.0307
 1629SOL    HW216521   0.050   3.776   4.724 -0.0312 -1.9839  1.4027
 1630SOL     OW16522   0.457   2.840   8.084 -0.3816  1.1312 -0.0254
 1630SOL    HW116523   0.508   2.760   8.099  0.5261  1.6369 -0.4566
 1630SOL    HW216524   0.391   2.835   8.153 -0.8118 -0.1614 -0.5437
 1631SOL     OW16525   4.010   0.476   8.115 -0.3786  0.3958 -0.0014
 1631SOL    HW116526   3.999   0.566   8.144  0.9402  0.7606 -0.6235
 1631SOL    HW216527   3.929   0.472   8.065 -0.1911  1.5392 -0.4079
 1632SOL     OW16528   1.447   4.410   8.910  0.4095  0.0103  0.0593
 1632SOL    HW116529   1.520   4.437   8.965 -0.0223  0.0010  0.6424
 1632SOL    HW216530   1.407   4.492   8.884 -2.1060 -0.4422  2.4233
 1633SOL     OW16531   0.815   0.714   4.733 -0.3375  0.0986  0.0974
 1633SOL    HW116532   0.848   0.626   4.751 -1.5188 -0.1844  0.8693
 1633SOL    HW216533   0.895   0.741   4.688 -0.3964 -1.3134 -0.8437
 1634SOL     OW16534   0.511   3.631   6.041 -0.4660  0.2582  0.1750
 1634SOL    HW116535   0.471   3.717   6.027 -1.0510 -0.3199 -1.7747
 1634SOL    HW216536   0.452   3.573   5.993  1.2140 -1.0308 -0.3341
 1635SOL     OW16537   3.374   0.401   5.610 -0.4450 -0.6121 -0.9174
 1635SOL    HW116538   3.392   0.347   5.687 -0.3571  0.9514  0.1692
 1635SOL    HW216539   3.415   0.344   5.546 -1.4280 -0.3049 -1.8210
 1636SOL     OW16540   2.803   1.209  13.033  0.0988  0.1638  0.1669
 1636SOL    HW116541   2.709   1.192  13.046  0.0915 -0.0342 -0.1449
 1636SOL    HW216542   2.832   1.256  13.112 -0.8454  0.3440  0.4083
 1637SOL     OW16543   3.731   4.554   5.578  0.3683  0.0854 -0.0894
 1637SOL    HW116544   3.770   4.595   5.501 -0.7867  0.7312 -0.3280
 1637SOL    HW216545   3.663   4.621   5.588 -0.7320 -0.9347 -0.6713
 1638SOL     OW16546   1.574   0.013   6.155  0.2185 -0.2710  0.1075
 1638SOL    HW116547   1.597   0.057   6.073  0.3362 -1.5307 -0.5306
 1638SOL    HW216548   1.604   0.077   6.220  0.6120 -0.3511  0.0076
 1639SOL     OW16549   4.487   3.517  11.439 -0.0196  0.3832  1.1185
 1639SOL    HW116550   4.510   3.592  11.384  0.7302 -0.0801  0.8152
 1639SOL    HW216551   4.558   3.511  11.502  2.3409  0.9853 -1.4813
 1640SOL     OW16552   0.380   2.539   9.243 -0.5826  0.2765  0.4266
 1640SOL    HW116553   0.405   2.496   9.325 -0.2469  1.8485  1.1472
 1640SOL    HW216554   0.316   2.473   9.215 -2.6787  3.2158 -1.6344
 1641SOL     OW16555   0.782   1.077  17.672 -0.5368 -0.1167  0.2595
 1641SOL    HW116556   0.813   1.041  17.590  1.3014  0.8366  0.5292
 1641SOL    HW216557   0.781   1.171  17.655  1.5511 -0.2171 -0.3530
 1642SOL     OW16558   1.160   0.724  15.149  0.0496 -0.0292  0.0633
 1642SOL    HW116559   1.079   0.756  15.188 -1.0605 -1.4930 -1.0850
 1642SOL    HW216560   1.136   0.692  15.062 -2.2222  0.3966  0.5384
 1643SOL     OW16561   3.338   0.173   3.953 -0.1734 -0.3957 -0.5292
 1643SOL    HW116562   3.372   0.262   3.960 -0.9161 -0.1100 -0.5884
 1643SOL    HW216563   3.262   0.179   4.010 -0.5001  0.1808 -1.0287
 1644SOL     OW16564   1.685   2.649   3.537 -0.1874  0.7042 -0.2972
 1644SOL    HW116565   1.673   2.601   3.456 -0.5140 -1.6415  1.1446
 1644SOL    HW216566   1.780   2.651   3.548 -0.2057  1.3525 -0.2388
 1645SOL     OW16567   2.838   3.162   6.539  0.3649  0.6024 -0.1753
 1645SOL    HW116568   2.871   3.104   6.609 -0.7878  2.0318  1.5595
 1645SOL    HW216569   2.750   3.125   6.530  1.5346 -1.9104 -1.3591
 1646SOL     OW16570   3.792   0.172   2.474 -0.0626 -0.1228 -0.1379
 1646SOL    HW116571   3.725   0.105   2.470 -0.1903 -0.0979  1.7522
 1646SOL    HW216572   3.877   0.128   2.474 -0.6922 -1.3270 -1.1902
 1647SOL     OW16573   0.458   2.852   8.570  0.2377  0.3148 -0.1134
 1647SOL    HW116574   0.481   2.945   8.578  1.7940 -0.2996  2.7292
 1647SOL    HW216575   0.437   2.840   8.662 -0.7607 -1.9917 -0.6522
 1648SOL     OW16576   3.374   2.733   2.444 -0.1561 -0.2287 -0.9931
 1648SOL    HW116577   3.410   2.660   2.494  0.0057  0.8579  0.4872
 1648SOL    HW216578   3.280   2.719   2.459  0.3654 -1.6055  0.9451
 1649SOL     OW16579   0.502   0.171   1.791  0.5307  0.2693  0.1100
 1649SOL    HW116580   0.419   0.188   1.748  0.3030 -1.0420  0.0226
 1649SOL    HW216581   0.573   0.197   1.732 -1.1670  1.0130 -1.5949
 1650SOL     OW16582   0.363   4.702   1.467  0.3396  0.6879  0.0850
 1650SOL    HW116583   0.441   4.689   1.520  0.6030 -2.0113 -0.9851
 1650SOL    HW216584   0.335   0.049   1.504  0.1023 -0.5114  2.6386
 1651SOL     OW16585   3.158   1.216   5.609  0.0763 -0.0248  0.3630
 1651SOL    HW116586   3.094   1.172   5.665  0.9017  0.2185  1.4822
 1651SOL    HW216587   3.097   1.219   5.535 -0.5723  0.4288  0.9192
 1652SOL     OW16588   3.993   1.878  13.680 -0.1120 -0.2096  0.0740
 1652SOL    HW116589   4.028   1.913  13.598 -0.3003  0.1468  0.1450
 1652SOL    HW216590   3.928   1.946  13.695  2.4546  2.0991  0.6872
 1653SOL     OW16591   3.139   1.309   3.353  0.0314  0.0270  0.3686
 1653SOL    HW116592   3.081   1.232   3.351  1.0263 -0.7223  0.2966
 1653SOL    HW216593   3.094   1.362   3.418 -0.0669 -0.3237  0.5893
 1654SOL     OW16594   0.817   3.166   2.981  0.0684  0.4559  0.5480
 1654SOL    HW116595   0.738   3.122   3.011 -1.4436  2.2429 -0.8383
 1654SOL    HW216596   0.875   3.089   2.983  1.8688  1.7761 -1.0601
 1655SOL     OW16597   0.281   3.147   5.698  0.1372 -0.4784  0.6903
 1655SOL    HW116598   0.260   3.065   5.653  1.0530  0.1416 -0.8346
 1655SOL    HW216599   0.210   3.151   5.763  0.1935 -2.1571  0.8705
 1656SOL     OW16600   2.105   1.294   1.414  0.3060 -0.2145  0.3380
 1656SOL    HW116601   2.085   1.238   1.489 -0.3914 -1.5043 -0.7934
 1656SOL    HW216602   2.078   1.250   1.334 -0.6221 -0.4833  0.7986
 1657SOL     OW16603   4.117   3.867  10.785  0.4334  0.2886 -0.0194
 1657SOL    HW116604   4.162   3.787  10.759  0.2847 -0.6093  2.4337
 1657SOL    HW216605   4.072   3.840  10.865  1.0691 -1.6252 -0.3245
 1658SOL     OW16606   0.832   4.039   5.670  0.0346  0.2804 -0.0027
 1658SOL    HW116607   0.876   4.091   5.603  0.0330 -0.4689 -0.5826
 1658SOL    HW216608   0.862   3.949   5.658 -3.7233 -1.2293  2.0900
 1659SOL     OW16609   3.536   3.888   7.799 -0.4168 -0.2585  0.1490
 1659SOL    HW116610   3.480   3.853   7.868  0.9817 -1.2111  0.7998
 1659SOL    HW216611   3.479   3.955   7.761 -1.6281 -1.5752 -0.3496
 1660SOL     OW16612   3.357   2.726   9.213  0.0336  0.6086  0.1566
 1660SOL    HW116613   3.360   2.784   9.136 -1.3433  0.5378  0.0453
 1660SOL    HW216614   3.290   2.763   9.270 -1.9912 -1.5704 -0.8285
 1661SOL     OW16615   3.437   4.663   2.547  0.8379 -0.4823 -0.1999
 1661SOL    HW116616   3.383   4.690   2.621  0.9948 -1.5891  0.3165
 1661SOL    HW216617   3.403   4.728   2.486 -0.2110 -0.2871  0.5987
 1662SOL     OW16618   1.869   0.161   3.169 -0.3750  0.1771 -0.0037
 1662SOL    HW116619   1.777   0.158   3.145 -0.8550  0.6143  1.7345
 1662SOL    HW216620   1.873   0.231   3.234  0.3637  2.1213 -2.1405
 1663SOL     OW16621   0.174   2.710   1.871 -0.5940 -0.0858 -0.1967
 1663SOL    HW116622   0.219   2.766   1.809 -1.8915 -0.0639 -1.0999
 1663SOL    HW216623   0.217   2.734   1.954 -2.3211  2.0264  0.0792
 1664SOL     OW16624   0.067   3.843  17.088 -0.4956 -0.2748 -0.0596
 1664SOL    HW116625   0.042   3.847  17.180 -0.7926 -1.7930 -0.0777
 1664SOL    HW216626   4.719   3.811  17.055 -0.6055  2.4316 -2.4643
 1665SOL     OW16627   4.425   2.566   0.450  0.6178  0.1420  0.5289
 1665SOL    HW116628   4.494   2.610   0.400  0.9106  0.4225  1.1702
 1665SOL    HW216629   4.448   2.603   0.535  1.0983 -0.1523  0.5296
 1666SOL     OW16630   4.441   2.423  12.050 -0.2555  0.1807  0.0694
 1666SOL    HW116631   4.383   2.380  11.987 -0.2131 -0.8122  0.7064
 1666SOL    HW216632   4.377   2.432  12.121 -0.1589  0.2128  0.1524
 1667SOL     OW16633   1.960   0.542   9.961 -0.6110  0.4532  0.3706
 1667SOL    HW116634   2.004   0.477  10.015  0.0396  1.2239  0.7831
 1667SOL    HW216635   1.869   0.535   9.991 -0.1502 -1.7650  1.1956
 1668SOL     OW16636   4.312   2.932   8.064 -0.3870 -0.0030  0.4198
 1668SOL    HW116637   4.312   2.982   8.145  0.6042 -1.6405  1.4389
 1668SOL    HW216638   4.239   2.872   8.075  0.0893 -0.8062 -0.7721
 1669SOL     OW16639   1.283   0.204  16.116  0.0407 -0.8646 -0.1671
 1669SOL    HW116640   1.369   0.244  16.126 -1.7717  2.8015  0.7519
 1669SOL    HW216641   1.302   0.112  16.136 -0.7765 -0.4994  2.3857
 1670SOL     OW16642   4.724   0.496  14.974 -0.6696 -0.5588  0.0910
 1670SOL    HW116643   4.718   0.466  14.883  0.3929 -2.7060  0.7364
 1670SOL    HW216644   4.632   0.497  15.001 -0.8193  0.7485 -0.4555
 1671SOL     OW16645   3.162   3.200   9.205  0.4054  0.5684 -0.0101
 1671SOL    HW116646   3.068   3.191   9.217  0.3506  1.8659  0.5503
 1671SOL    HW216647   3.172   3.288   9.240  2.9532  0.7343 -1.1306
 1672SOL     OW16648   1.243   0.692   1.809  0.2916  0.1442  0.0634
 1672SOL    HW116649   1.292   0.663   1.887 -1.3092 -2.9530 -0.0691
 1672SOL    HW216650   1.314   0.729   1.758 -0.8643  0.7997 -1.0543
 1673SOL     OW16651   2.136   3.079   8.954 -0.3987  0.1703  0.3017
 1673SOL    HW116652   2.156   3.022   9.029 -1.9530 -0.7461  0.0183
 1673SOL    HW216653   2.199   3.055   8.887  1.0213  1.8752  0.9960
 1674SOL     OW16654   0.983   1.367   6.174  0.0443 -0.8507  0.0675
 1674SOL    HW116655   0.935   1.450   6.175 -1.5729 -1.7653 -2.1820
 1674SOL    HW216656   1.074   1.395   6.167 -0.9700  3.0058  1.9142
 1675SOL     OW16657   2.673   0.712   8.582 -0.1440  0.2321 -0.0773
 1675SOL    HW116658   2.640   0.704   8.671 -1.3043  0.9857 -0.4344
 1675SOL    HW216659   2.642   0.628   8.550  0.3197  0.3718 -0.8914
 1676SOL     OW16660   1.060   3.141   6.931 -0.2492  0.0279 -0.1892
 1676SOL    HW116661   1.050   3.204   7.002  2.0080  0.6604 -0.4299
 1676SOL    HW216662   1.109   3.074   6.979 -0.8192  0.3546  0.8436
 1677SOL     OW16663   2.307   2.438  16.196 -0.9482  0.2734 -0.4493
 1677SOL    HW116664   2.370   2.439  16.269 -0.5276  0.4490 -0.8123
 1677SOL    HW216665   2.270   2.526  16.206 -2.4291 -0.4608  0.4567
 1678SOL     OW16666   3.470   1.020   3.708  0.4851 -0.5672 -0.0766
 1678SOL    HW116667   3.523   0.944   3.733  1.0829 -0.6525 -1.5731
 1678SOL    HW216668   3.434   0.979   3.629  0.8190 -3.0058  1.0484
 1679SOL     OW16669   3.603   1.567  11.053  0.3722  0.3032  0.2212
 1679SOL    HW116670   3.548   1.632  11.097  0.1373 -0.1178  0.5499
 1679SOL    HW216671   3.687   1.612  11.053  0.0167  0.9600  0.2542
 1680SOL     OW16672   0.676   0.922   0.639 -0.8131  0.4121 -0.1905
 1680SOL    HW116673   0.655   0.868   0.563 -1.1204 -2.1005  1.6680
 1680SOL    HW216674   0.721   0.857   0.694  1.6972  1.3677 -1.1287
 1681SOL     OW16675   1.323   4.144  13.234 -0.1229  0.2017 -0.4811
 1681SOL    HW116676   1.313   4.049  13.227  0.6678  0.3117 -3.0138
 1681SOL    HW216677   1.414   4.159  13.257 -0.4612 -1.2669  1.8411
 1682SOL     OW16678   2.077   0.595  17.573 -0.3070 -0.3701 -0.3546
 1682SOL    HW116679   2.056   0.573  17.664  0.2665  2.6741  0.5302
 1682SOL    HW216680   1.998   0.587  17.519 -1.2113  1.4169  0.6982
 1683SOL     OW16681   2.821   1.478   8.182 -0.0446 -0.3665  0.3882
 1683SOL    HW116682   2.847   1.563   8.147  1.3493 -0.4822  1.1460
 1683SOL    HW216683   2.831   1.491   8.276 -0.1484  2.2742  0.0190
 1684SOL     OW16684   2.828   4.079   2.954  0.2066  0.2080 -0.0523
 1684SOL    HW116685   2.787   3.995   2.934  1.7501 -0.6434  0.3252
 1684SOL    HW216686   2.877   4.092   2.872 -1.2735  1.2018 -0.7782
 1685SOL     OW16687   2.500   1.453   0.396 -0.1797  0.6427 -0.1416
 1685SOL    HW116688   2.546   1.374   0.426 -2.2978 -1.0227 -1.2523
 1685SOL    HW216689   2.562   1.484   0.330  0.0642  1.6740  0.5779
 1686SOL     OW16690   1.426   2.813   4.413  0.1044  0.1853 -0.0079
 1686SOL    HW116691   1.378   2.888   4.380  1.9603  1.7079  0.7685
 1686SOL    HW216692   1.392   2.737   4.365 -2.3895  2.0972 -1.2313
 1687SOL     OW16693   1.875   1.344   4.700 -0.1649  0.2556 -0.3489
 1687SOL    HW116694   1.874   1.262   4.749  0.2420 -0.9303 -2.3417
 1687SOL    HW216695   1.959   1.327   4.656  0.5247 -0.4305  1.2407
 1688SOL     OW16696   3.096   1.038   2.442 -0.3196  0.6393  0.0233
 1688SOL    HW116697   3.146   1.061   2.364 -2.3881  1.8893 -0.9450
 1688SOL    HW216698   3.122   1.102   2.508 -2.8346  1.4832  0.2094
 1689SOL     OW16699   1.698   2.413   5.288 -0.2794 -0.1038  0.0882
 1689SOL    HW116700   1.662   2.369   5.365  0.1357  0.3422  0.5310
 1689SOL    HW216701   1.728   2.333   5.244  0.8601 -0.4584  1.4953
 1690SOL     OW16702   0.312   1.073   7.620  0.1140 -0.0841  0.5405
 1690SOL    HW116703   0.398   1.100   7.651 -0.7129  0.2608  2.6011
 1690SOL    HW216704   0.335   1.006   7.557  0.1475  1.1400 -0.7497
 1691SOL     OW16705   1.546   3.172  15.537  0.2896  0.3549  0.2004
 1691SOL    HW116706   1.491   3.095  15.526 -1.3524  1.4843  0.5398
 1691SOL    HW216707   1.536   3.215  15.453 -4.2272 -2.4513 -0.6737
 1692SOL     OW16708   0.931   3.089   8.798  0.1197 -0.5156  0.1621
 1692SOL    HW116709   1.021   3.105   8.768  0.8539 -2.8551  1.1415
 1692SOL    HW216710   0.950   3.037   8.876  1.1556  0.0318  0.2843
 1693SOL     OW16711   2.224   2.257   5.314 -0.8920 -0.4287 -0.4810
 1693SOL    HW116712   2.145   2.308   5.296 -0.3144  0.4439 -0.5335
 1693SOL    HW216713   2.287   2.314   5.270  1.0874 -1.5319  0.9437
 1694SOL     OW16714   1.240   1.358   3.933  0.0046 -0.2190  0.5059
 1694SOL    HW116715   1.315   1.339   3.989 -0.3935 -0.0886  1.0823
 1694SOL    HW216716   1.241   1.454   3.933 -1.9519 -0.2088 -0.0560
 1695SOL     OW16717   0.098   4.141  13.674 -0.1822  0.1662 -0.1984
 1695SOL    HW116718   0.135   4.085  13.606 -1.6726  2.1156 -2.6109
 1695SOL    HW216719   0.178   4.172  13.717 -2.1376  4.7639  0.0456
 1696SOL     OW16720   3.389   1.779   6.985  0.9077 -0.1875  0.2945
 1696SOL    HW116721   3.431   1.698   6.956  1.3756 -0.5404  1.9684
 1696SOL    HW216722   3.316   1.745   7.035 -1.9911  2.0615 -2.3833
 1697SOL     OW16723   3.362   0.654   9.538 -0.3793 -0.1134  0.0812
 1697SOL    HW116724   3.305   0.577   9.534  0.5581 -0.8320  0.7000
 1697SOL    HW216725   3.431   0.613   9.590  1.4429  0.7982 -1.6143
 1698SOL     OW16726   2.152   1.057  13.311 -0.0857 -0.2269  0.1223
 1698SOL    HW116727   2.231   1.036  13.361 -1.1490  0.7635  2.2199
 1698SOL    HW216728   2.158   1.150  13.288  1.6549 -0.0945  1.0703
 1699SOL     OW16729   1.140   3.592   3.780  0.6924  0.1365  0.5958
 1699SOL    HW116730   1.045   3.581   3.785  0.4407  2.0322  0.0963
 1699SOL    HW216731   1.149   3.688   3.783 -1.7170  0.5231 -3.6756
 1700SOL     OW16732   2.480   4.149  16.875 -0.8846 -0.2842 -0.0347
 1700SOL    HW116733   2.389   4.166  16.898 -0.6302  0.9018  0.0990
 1700SOL    HW216734   2.525   4.191  16.949 -0.9225  1.1382 -0.8303
 1701SOL     OW16735   3.268   4.019  11.876  0.7992 -0.0839 -0.1469
 1701SOL    HW116736   3.204   3.975  11.932  1.2783 -0.2204  0.2876
 1701SOL    HW216737   3.299   4.095  11.924 -1.7440  0.4398  0.6529
 1702SOL     OW16738   3.236   3.612   4.630  0.5454 -0.1420 -0.4669
 1702SOL    HW116739   3.231   3.550   4.703  1.5422 -1.2475 -1.3117
 1702SOL    HW216740   3.314   3.579   4.585  1.3270  1.9969 -0.6731
 1703SOL     OW16741   0.039   1.810   5.759 -0.9718  0.2542 -0.0060
 1703SOL    HW116742   0.131   1.834   5.769 -0.9258 -0.4722  1.4201
 1703SOL    HW216743   0.013   1.852   5.677  1.4734 -0.3923 -1.1135
 1704SOL     OW16744   3.117   0.138   4.104  0.2940  0.0932  0.3928
 1704SOL    HW116745   3.028   0.167   4.085  0.3867 -0.3514 -0.7136
 1704SOL    HW216746   3.102   0.091   4.186 -0.7947 -0.8949 -0.3687
 1705SOL     OW16747   1.050   0.720   7.477 -0.4517  0.2599 -0.7530
 1705SOL    HW116748   1.081   0.630   7.471 -1.2254  0.1488 -2.9234
 1705SOL    HW216749   0.957   0.703   7.467 -0.4659 -0.4802  0.6081
 1706SOL     OW16750   4.554   3.433   6.342  0.2982 -0.0118  0.1712
 1706SOL    HW116751   4.561   3.380   6.262  0.8951 -1.9233  1.4957
 1706SOL    HW216752   4.459   3.439   6.355  0.4212  1.4496  0.4191
 1707SOL     OW16753   4.526   1.368   7.952 -0.0117 -0.3158  0.3012
 1707SOL    HW116754   4.446   1.413   7.978 -0.6880 -0.2717 -1.8827
 1707SOL    HW216755   4.500   1.277   7.940  0.1922 -0.4374  0.7671
 1708SOL     OW16756   3.901   2.961   5.103  0.2095  0.4479 -0.1066
 1708SOL    HW116757   3.841   2.936   5.032  0.0924 -1.3466  0.6151
 1708SOL    HW216758   3.904   2.872   5.139  2.5384 -1.1311 -4.1009
 1709SOL     OW16759   3.802   0.015   7.137 -0.2552  0.2520 -0.2840
 1709SOL    HW116760   3.780   4.659   7.132 -1.1671  0.6123 -2.9093
 1709SOL    HW216761   3.744   0.050   7.069  0.0397 -0.1694 -0.7530
 1710SOL     OW16762   2.155   3.870   6.530  0.6118  0.1999 -0.0104
 1710SOL    HW116763   2.217   3.899   6.598  1.0253 -1.5212  0.3535
 1710SOL    HW216764   2.079   3.872   6.588  1.5005  0.0398  1.1854
 1711SOL     OW16765   4.411   2.666   1.872 -0.3453 -0.2709  0.1502
 1711SOL    HW116766   4.488   2.611   1.858 -1.6254 -2.0100 -0.0290
 1711SOL    HW216767   4.456   2.750   1.888 -0.0443 -0.0948 -1.5911
 1712SOL     OW16768   1.472   3.966   7.700  0.3372  0.0846  0.2683
 1712SOL    HW116769   1.445   4.051   7.664 -0.5672  0.2136  1.2586
 1712SOL    HW216770   1.566   3.960   7.684  0.1409 -1.0967 -0.4023
 1713SOL     OW16771   1.342   2.199   7.217  0.0194 -0.2745 -0.2382
 1713SOL    HW116772   1.437   2.198   7.222 -0.0401  0.9017  1.1039
 1713SOL    HW216773   1.320   2.280   7.171  1.3699  0.3827  0.2843
 1714SOL     OW16774   3.654   0.646   1.991 -0.1684  0.2462  0.6792
 1714SOL    HW116775   3.700   0.578   1.941  2.8696  3.0602 -0.3467
 1714SOL    HW216776   3.581   0.664   1.931  0.0540  0.7337  0.5585
 1715SOL     OW16777   3.080   0.142   3.161 -0.3147 -0.6222  0.2461
 1715SOL    HW116778   3.132   0.128   3.082 -0.9459  1.7267 -0.5971
 1715SOL    HW216779   3.065   0.236   3.151  1.4418 -0.2193  1.4191
 1716SOL     OW16780   3.771   0.130   4.169 -0.0548 -0.3003 -0.2682
 1716SOL    HW116781   3.835   0.073   4.211  0.1276  0.8226  0.9859
 1716SOL    HW216782   3.830   0.187   4.121  0.5873 -1.9968 -1.4800
 1717SOL     OW16783   2.861   4.507   6.831  0.4886 -0.8617  0.0266
 1717SOL    HW116784   2.798   4.454   6.782 -1.2594  0.0103  1.3394
 1717SOL    HW216785   2.858   4.596   6.798  0.7215 -0.6829  0.4959
 1718SOL     OW16786   4.475   0.826   1.206 -0.0546 -0.0659 -0.3478
 1718SOL    HW116787   4.558   0.869   1.184  0.3837 -1.1451 -0.7931
 1718SOL    HW216788   4.421   0.872   1.142 -0.3891 -0.2168 -0.1738
 1719SOL     OW16789   4.431   4.652   8.953  0.1199  0.4336  0.0251
 1719SOL    HW116790   4.467   0.002   8.935  0.0474  0.6075  0.7306
 1719SOL    HW216791   4.435   4.647   9.048  0.0706 -1.8073 -0.0890
 1720SOL     OW16792   1.325   1.232   2.640  0.1646  0.2276 -0.3155
 1720SOL    HW116793   1.308   1.140   2.620  2.5535 -0.7409  2.1999
 1720SOL    HW216794   1.282   1.236   2.725 -0.6179  1.1027 -0.7431
 1721SOL     OW16795   4.603   0.519  14.471  0.0527  0.1447 -0.3173
 1721SOL    HW116796   4.651   0.464  14.409  0.2976 -0.4927  0.4457
 1721SOL    HW216797   4.535   0.546  14.409  0.6005 -0.3407 -1.1418
 1722SOL     OW16798   2.269   0.997   0.019 -0.7281  0.1984  0.2903
 1722SOL    HW116799   2.358   0.991  17.731 -0.4736 -0.4709  1.0835
 1722SOL    HW216800   2.290   1.057   0.090 -0.1726  0.6487 -0.2551
 1723SOL     OW16801   2.885   0.838   8.735 -0.4945  0.0102  0.1552
 1723SOL    HW116802   2.914   0.850   8.645 -1.1348  0.8108  0.0458
 1723SOL    HW216803   2.842   0.754   8.727  0.3823 -0.3243 -0.9785
 1724SOL     OW16804   1.548   1.151   1.354  0.0047  0.1324  0.0821
 1724SOL    HW116805   1.636   1.181   1.377 -0.4824 -1.1003  3.5702
 1724SOL    HW216806   1.490   1.226   1.335  0.3122  0.0911 -1.0352
 1725SOL     OW16807   1.563   4.688   3.208  0.4338  0.2415 -0.2315
 1725SOL    HW116808   1.562   4.607   3.157 -0.6954 -0.6244  1.1788
 1725SOL    HW216809   1.491   4.661   3.264  0.6137 -0.6828 -0.4439
 1726SOL     OW16810   4.313   2.492   9.674  0.2128 -0.1133  0.4927
 1726SOL    HW116811   4.311   2.586   9.654  0.5086 -0.4983 -1.3401
 1726SOL    HW216812   4.409   2.483   9.679 -0.0071 -1.9793  1.2809
 1727SOL     OW16813   1.065   4.126   8.577  0.3911  0.3596 -0.6329
 1727SOL    HW116814   1.088   4.034   8.566 -2.0256 -0.4377  1.1978
 1727SOL    HW216815   0.997   4.144   8.512 -0.9401 -2.1508  0.0571
 1728SOL     OW16816   3.954   2.554   3.645  0.5830 -0.5296  0.4642
 1728SOL    HW116817   3.996   2.638   3.664  1.7276 -0.3912 -2.7981
 1728SOL    HW216818   4.019   2.493   3.680  1.5657  0.1852 -0.1040
 1729SOL     OW16819   4.442   0.583   4.111 -0.1693  0.9279  0.5656
 1729SOL    HW116820   4.478   0.567   4.024  3.3261  1.9234  1.8513
 1729SOL    HW216821   4.462   0.677   4.106  3.1821  0.3838  3.4708
 1730SOL     OW16822   2.167   3.662   8.424 -0.1907 -0.0688  0.8271
 1730SOL    HW116823   2.250   3.699   8.455  0.8895 -1.8040  0.0124
 1730SOL    HW216824   2.144   3.591   8.485  2.6568 -0.9488  0.8657
 1731SOL     OW16825   2.862   4.343   4.363 -0.4505  0.0090  0.4991
 1731SOL    HW116826   2.893   4.305   4.445  1.7931 -1.2497 -0.9237
 1731SOL    HW216827   2.943   4.385   4.333 -2.4877  3.1982 -0.5588
 1732SOL     OW16828   4.220   2.666  16.412 -0.1548 -0.0270 -0.6564
 1732SOL    HW116829   4.196   2.630  16.327  0.4418  1.3854 -1.4290
 1732SOL    HW216830   4.306   2.627  16.429  0.0704  1.4750  1.6918
 1733SOL     OW16831   3.684   3.850   0.198  0.3407 -0.4489  0.3267
 1733SOL    HW116832   3.639   3.765   0.201 -1.0569  0.2643 -0.7975
 1733SOL    HW216833   3.736   3.826   0.122  1.2187 -0.2883  0.8792
 1734SOL     OW16834   4.169   1.653   6.300  0.2792  0.1136 -0.1009
 1734SOL    HW116835   4.222   1.677   6.376 -1.4625  2.5479  0.3171
 1734SOL    HW216836   4.242   1.621   6.245  1.1011 -0.7589  1.5031
 1735SOL     OW16837   1.270   4.596   9.559 -0.0547 -0.5821  0.3857
 1735SOL    HW116838   1.250   4.682   9.593  2.0002  0.1451 -0.2537
 1735SOL    HW216839   1.323   4.567   9.633  0.1598 -1.5386 -0.1272
 1736SOL     OW16840   4.153   0.375  17.119 -0.5390 -0.6482 -0.2418
 1736SOL    HW116841   4.105   0.458  17.124  1.3444  0.5145 -1.6151
 1736SOL    HW216842   4.144   0.358  17.026  0.3621 -0.9092 -0.2824
 1737SOL     OW16843   4.456   2.026   3.523  0.2318  0.3640 -0.3169
 1737SOL    HW116844   4.460   1.989   3.435  2.4117 -1.6691  0.6400
 1737SOL    HW216845   4.468   2.119   3.504 -1.2295  0.2821 -1.6133
 1738SOL     OW16846   0.223   3.366  10.021 -0.3437  0.1330  0.5415
 1738SOL    HW116847   0.204   3.369  10.115  1.9186 -0.6705  1.0157
 1738SOL    HW216848   0.141   3.396   9.981  0.8488  1.8050 -0.6307
 1739SOL     OW16849   1.244   2.882   5.306  0.2616  0.2823  0.0351
 1739SOL    HW116850   1.238   2.789   5.285  1.1614  0.0693  0.7075
 1739SOL    HW216851   1.340   2.889   5.315  0.4446 -1.5922 -0.4373
 1740SOL     OW16852   0.981   0.222   6.583  0.0894  0.1882 -0.0816
 1740SOL    HW116853   0.917   0.277   6.628 -0.4278 -0.5749  0.1227
 1740SOL    HW216854   0.924   0.192   6.513 -1.7242  2.0241  0.6184
 1741SOL     OW16855   3.218   0.369   0.484  0.4224 -0.1077  0.0467
 1741SOL    HW116856   3.176   0.426   0.549  1.3378  0.5051  0.0891
 1741SOL    HW216857   3.165   0.384   0.406 -1.4251  0.5735  1.4212
 1742SOL     OW16858   1.624   4.387   3.553  0.1243  0.5110 -0.1496
 1742SOL    HW116859   1.708   4.341   3.546  0.4458  1.1746 -0.7017
 1742SOL    HW216860   1.654   4.478   3.563 -0.5391  0.6741  0.3047
 1743SOL     OW16861   2.304   1.847  11.663 -0.1515 -0.4472  0.0683
 1743SOL    HW116862   2.340   1.776  11.716  0.2033  0.5107  1.1201
 1743SOL    HW216863   2.211   1.843  11.685 -0.7300 -0.6065 -2.3950
 1744SOL     OW16864   2.200   4.606   2.583  0.5634  0.1185 -0.3990
 1744SOL    HW116865   2.251   4.599   2.663 -0.2067  2.9515  0.3397
 1744SOL    HW216866   2.250   4.553   2.521  2.8298  1.2888  0.4322
 1745SOL     OW16867   2.725   2.417   7.523  0.2931  0.7103 -0.3716
 1745SOL    HW116868   2.799   2.404   7.464  0.2390 -0.0667 -0.2696
 1745SOL    HW216869   2.697   2.329   7.548 -0.2854  1.1691  0.6205
 1746SOL     OW16870   0.673   3.772  11.646  0.1031  1.0794  0.4997
 1746SOL    HW116871   0.768   3.773  11.662  0.1496  1.0284  0.2294
 1746SOL    HW216872   0.678   3.748  11.554 -0.1290 -0.4023  0.8762
 1747SOL     OW16873   4.288   3.774  10.100 -0.1414  0.4247  0.4663
 1747SOL    HW116874   4.258   3.683  10.103 -0.0461  0.4670  2.3521
 1747SOL    HW216875   4.362   3.774  10.161 -0.0632  0.3128  0.3709
 1748SOL     OW16876   1.256   1.675   0.754  0.6916  0.9153 -0.0250
 1748SOL    HW116877   1.285   1.601   0.807  1.2530  0.2485 -1.2705
 1748SOL    HW216878   1.329   1.679   0.692  0.4428 -0.4663 -0.3983
 1749SOL     OW16879   4.209   0.824   3.340  0.1992  0.0397  0.9231
 1749SOL    HW116880   4.152   0.827   3.263  1.4995  0.0669 -0.0346
 1749SOL    HW216881   4.169   0.898   3.385  0.5464  1.9782 -1.9548
 1750SOL     OW16882   2.985   0.486   4.277  0.1669 -0.2244 -0.4895
 1750SOL    HW116883   2.967   0.572   4.240  2.3401  0.4712  0.0496
 1750SOL    HW216884   2.989   0.441   4.192  0.9202  0.6067 -0.9026
 1751SOL     OW16885   2.184   0.053   6.428 -0.0405 -0.5056 -0.0508
 1751SOL    HW116886   2.171   4.701   6.396  0.0575  0.0264 -1.5802
 1751SOL    HW216887   2.142   0.106   6.360 -0.4599 -0.2410  0.4088
 1752SOL     OW16888   3.642   3.491   7.206 -0.1021  0.0300  0.1460
 1752SOL    HW116889   3.575   3.550   7.173  0.7181 -0.3398 -2.1627
 1752SOL    HW216890   3.722   3.537   7.182  0.0298  0.1578  0.8247
 1753SOL     OW16891   4.491   0.921   1.878 -0.3376  0.1000 -0.4440
 1753SOL    HW116892   4.434   0.958   1.810 -2.5921 -0.8719  0.9250
 1753SOL    HW216893   4.577   0.935   1.839 -0.1532 -1.7297 -0.6658
 1754SOL     OW16894   0.299   2.171  12.411  0.5449  0.0765  0.2769
 1754SOL    HW116895   0.246   2.140  12.484  1.6470 -1.0369  0.6068
 1754SOL    HW216896   0.346   2.247  12.444 -0.8768  0.7329  0.8074
 1755SOL     OW16897   2.571   2.650   2.103 -0.5850 -0.0618 -0.5502
 1755SOL    HW116898   2.522   2.571   2.124 -0.2217  0.0766  0.8159
 1755SOL    HW216899   2.639   2.622   2.042  0.3320 -2.2007  1.4441
 1756SOL     OW16900   3.025   1.685   9.355  0.2369 -0.6029 -0.3054
 1756SOL    HW116901   2.978   1.750   9.409 -0.3778 -0.1436 -1.3840
 1756SOL    HW216902   2.991   1.605   9.395 -0.6097 -0.0544  0.0739
 1757SOL     OW16903   3.886   3.907   0.372 -0.9560  0.6776 -0.4149
 1757SOL    HW116904   3.817   3.904   0.439  0.0622  1.9449  0.6929
 1757SOL    HW216905   3.831   3.879   0.298  0.4330  0.6121 -1.4080
 1758SOL     OW16906   4.224   4.441   8.563  0.3108  0.2579  0.1168
 1758SOL    HW116907   4.167   4.474   8.633  3.0601 -0.5534  2.7522
 1758SOL    HW216908   4.195   4.350   8.551 -0.5579  0.6227 -0.5729
 1759SOL     OW16909   0.565   0.761   0.472 -0.6138  0.1054  0.8966
 1759SOL    HW116910   0.522   0.766   0.387  1.5088  0.8247 -0.1354
 1759SOL    HW216911   0.584   0.667   0.470 -1.8257 -0.1513  1.6467
 1760SOL     OW16912   2.330   0.454   4.640  0.3460 -0.3470  0.4620
 1760SOL    HW116913   2.280   0.401   4.702 -2.8208 -0.2896 -2.0752
 1760SOL    HW216914   2.335   0.537   4.688  1.2411 -0.8613  1.2502
 1761SOL     OW16915   2.419   0.858   1.657 -0.1459 -0.0699 -0.3065
 1761SOL    HW116916   2.484   0.927   1.670 -0.5026  0.6922 -2.6413
 1761SOL    HW216917   2.436   0.813   1.574  0.9540 -0.2723  0.0250
 1762SOL     OW16918   4.513   0.264   6.641  0.2210 -0.0174 -0.5961
 1762SOL    HW116919   4.491   0.310   6.722  1.9347 -2.7489  1.4138
 1762SOL    HW216920   4.526   0.337   6.580  0.6707 -0.1989 -0.7152
 1763SOL     OW16921   2.853   1.140   5.206 -0.1196  0.0207 -0.3842
 1763SOL    HW116922   2.908   1.160   5.130  2.8157 -1.4503  1.3323
 1763SOL    HW216923   2.764   1.140   5.173 -0.6998 -0.9486  1.1562
 1764SOL     OW16924   2.698   3.462  13.413  0.0882  0.0880 -0.0156
 1764SOL    HW116925   2.711   3.557  13.418 -0.7575  0.3603 -2.8819
 1764SOL    HW216926   2.605   3.454  13.434 -0.0294  0.7647 -0.2791
 1765SOL     OW16927   0.937   1.976   5.590  0.1802 -0.5711 -0.2963
 1765SOL    HW116928   0.931   2.003   5.682 -0.9069  2.1809 -1.1650
 1765SOL    HW216929   0.857   1.929   5.568 -1.1917  1.4177  0.4815
 1766SOL     OW16930   3.102   1.247   6.565 -0.0247 -0.2005  0.2053
 1766SOL    HW116931   3.089   1.286   6.652  0.9703 -2.5814  1.4357
 1766SOL    HW216932   3.132   1.312   6.502 -1.3894  0.8271  0.5958
 1767SOL     OW16933   1.217   3.082  10.929  0.3539 -0.1743 -0.0496
 1767SOL    HW116934   1.227   2.990  10.952 -3.1934 -1.6131 -4.3621
 1767SOL    HW216935   1.307   3.116  10.933  0.5284 -0.9176  2.2403
 1768SOL     OW16936   0.696   0.545   9.230  0.0830  0.5027  0.4210
 1768SOL    HW116937   0.684   0.602   9.306  1.9421 -1.0459  1.8839
 1768SOL    HW216938   0.614   0.554   9.182 -0.0553 -0.6700  0.4317
 1769SOL     OW16939   4.440   3.914   3.187  0.1860 -0.1199  0.3268
 1769SOL    HW116940   4.367   3.960   3.145  0.0441  0.4033  1.1536
 1769SOL    HW216941   4.451   3.834   3.136 -2.2545 -0.2583  0.0287
 1770SOL     OW16942   0.470   1.806   4.507 -0.4511  0.1100  0.9233
 1770SOL    HW116943   0.564   1.820   4.497 -0.5480  0.3014  0.2751
 1770SOL    HW216944   0.437   1.781   4.420  0.4250  1.2967  0.2422
 1771SOL     OW16945   2.161   1.605   1.892  0.0044 -0.4177 -0.3352
 1771SOL    HW116946   2.106   1.679   1.868  1.8735  1.6151  1.6140
 1771SOL    HW216947   2.127   1.537   1.834  0.0990  0.1135 -1.0144
 1772SOL     OW16948   2.669   1.621   5.490  0.0802 -0.2680 -0.0057
 1772SOL    HW116949   2.753   1.617   5.446 -1.3267 -1.1039 -2.5866
 1772SOL    HW216950   2.681   1.691   5.554  3.0549  0.0749 -0.9524
 1773SOL     OW16951   1.341   4.293   4.273  0.0723  0.3386  0.1330
 1773SOL    HW116952   1.261   4.319   4.318 -1.3571 -1.4198 -1.3973
 1773SOL    HW216953   1.381   4.379   4.265  2.6493 -0.9362 -1.0222
 1774SOL     OW16954   1.845   1.000  13.983 -0.0012  0.1518  0.0174
 1774SOL    HW116955   1.798   0.922  14.012  0.9576 -1.3825 -2.5959
 1774SOL    HW216956   1.781   1.068  14.003 -0.0912  0.2532 -0.6263
 1775SOL     OW16957   1.061   1.491   6.641 -0.0275  0.2215  0.1957
 1775SOL    HW116958   1.134   1.527   6.692 -0.8293  1.3293  0.5677
 1775SOL    HW216959   0.989   1.508   6.702 -0.7179 -2.9733  0.2496
 1776SOL     OW16960   3.325   1.919   8.821  0.2593 -0.3886  0.6068
 1776SOL    HW116961   3.328   1.974   8.743  1.2984 -2.9265 -1.1311
 1776SOL    HW216962   3.284   1.837   8.793 -0.6494  0.9376 -1.9047
 1777SOL     OW16963   0.887   0.974   7.765 -0.0456 -0.2805  0.3628
 1777SOL    HW116964   0.809   0.920   7.750 -0.1905 -0.1482  0.6383
 1777SOL    HW216965   0.875   1.045   7.703 -2.0395 -0.9061  0.0302
 1778SOL     OW16966   2.199   4.241   1.870  0.4624  0.8494  0.3061
 1778SOL    HW116967   2.218   4.312   1.809  1.6166  0.4565  0.2242
 1778SOL    HW216968   2.242   4.283   1.945  2.9839 -2.1787  0.5086
 1779SOL     OW16969   3.627   0.961   8.347 -0.2276  0.0836 -0.1732
 1779SOL    HW116970   3.628   0.873   8.310 -0.7649  0.0645 -0.1426
 1779SOL    HW216971   3.564   0.946   8.417  0.3598 -0.3918  0.2527
 1780SOL     OW16972   1.352   1.304   6.263  0.2329 -0.1051 -0.1268
 1780SOL    HW116973   1.300   1.352   6.198 -0.2537 -0.2363  0.1634
 1780SOL    HW216974   1.385   1.375   6.318  2.5433 -0.2441 -1.3525
 1781SOL     OW16975   0.706   4.657   3.048 -0.6840 -0.4456  0.0619
 1781SOL    HW116976   0.716   4.563   3.062 -1.4127 -0.6469 -0.7568
 1781SOL    HW216977   0.703   4.691   3.137  0.9521  0.7818 -0.3503
 1782SOL     OW16978   0.364   0.420  12.207 -0.3346 -0.5304  0.1785
 1782SOL    HW116979   0.414   0.441  12.286  2.5250 -0.4069 -1.6549
 1782SOL    HW216980   0.285   0.474  12.209 -0.7372 -1.0950 -0.4651
 1783SOL     OW16981   4.265   3.556   7.666  0.2853  0.3945 -0.1951
 1783SOL    HW116982   4.186   3.505   7.684  0.9503  0.1400  1.9811
 1783SOL    HW216983   4.215   3.637   7.673  1.7207  1.4483 -1.9866
 1784SOL     OW16984   2.005   3.042  16.794 -0.6319 -0.4206  0.1163
 1784SOL    HW116985   1.910   3.048  16.785 -0.5391 -0.4939 -0.9648
 1784SOL    HW216986   2.011   2.958  16.839 -1.2265 -0.5453 -0.0369
 1785SOL     OW16987   0.337   0.594   7.433 -0.0282  0.9493  1.0010
 1785SOL    HW116988   0.311   0.571   7.344  1.5368  0.3203  0.7188
 1785SOL    HW216989   0.345   0.687   7.410  2.9479  0.5367  0.3241
 1786SOL     OW16990   1.056   4.580  12.833  0.5386 -0.0441 -0.1820
 1786SOL    HW116991   1.113   4.619  12.767 -0.1164  3.1235  1.1550
 1786SOL    HW216992   1.098   4.606  12.915 -1.0707 -1.2573  1.0237
 1787SOL     OW16993   3.555   2.751  13.459 -0.0537 -0.0120 -0.5412
 1787SOL    HW116994   3.469   2.754  13.417  0.4091 -2.6423 -1.7140
 1787SOL    HW216995   3.612   2.784  13.390  3.1423  0.4241  2.2936
 1788SOL     OW16996   3.086   1.330   8.605  0.1661 -0.1336  0.5458
 1788SOL    HW116997   3.136   1.250   8.593  2.1294  1.3647 -1.0940
 1788SOL    HW216998   3.009   1.310   8.660  0.1680 -0.7445  0.3309
 1789SOL     OW16999   4.672   0.602   2.656  0.2288 -0.0140  0.8207
 1789SOL    HW117000   4.707   0.598   2.744 -0.4457  2.7529  1.1990
 1789SOL    HW217001   4.589   0.556   2.671 -0.0991 -0.6946 -2.9382
 1790SOL     OW17002   2.600   4.703   3.120  0.0731 -0.0124 -0.1056
 1790SOL    HW117003   2.526   4.642   3.120 -1.5159  1.9315  0.5925
 1790SOL    HW217004   2.681   4.652   3.125  0.9495  1.3747 -0.0974
 1791SOL     OW17005   3.981   4.151   6.327  0.6073 -0.4043  0.0496
 1791SOL    HW117006   3.969   4.060   6.352  0.1686  0.1999  2.0221
 1791SOL    HW217007   3.893   4.187   6.339  0.1954 -1.3667 -0.1289
 1792SOL     OW17008   4.526   0.980   5.115  0.1426 -0.2437 -0.0728
 1792SOL    HW117009   4.570   0.926   5.179  1.1417  1.9031  1.0560
 1792SOL    HW217010   4.486   0.909   5.065  0.9531  0.2796 -1.4913
 1793SOL     OW17011   1.166   2.753   8.544 -0.2632  0.0928  0.7670
 1793SOL    HW117012   1.073   2.739   8.559 -0.1733  1.3274  2.4846
 1793SOL    HW217013   1.190   2.677   8.490 -1.4100  0.1625  0.1636
 1794SOL     OW17014   3.985   2.994   9.348  0.2868 -0.4553 -0.0793
 1794SOL    HW117015   4.047   2.970   9.279  0.0017  2.2656 -1.2950
 1794SOL    HW217016   4.043   3.051   9.399 -0.7651 -1.2438  2.0052
 1795SOL     OW17017   2.485   2.725   5.152  0.8312  0.0348  0.2573
 1795SOL    HW117018   2.505   2.642   5.108 -1.7794 -0.2574 -0.3608
 1795SOL    HW217019   2.486   2.788   5.080  1.6583 -0.1366  0.1115
 1796SOL     OW17020   3.233   2.755  12.049 -0.3287 -0.0967 -0.0067
 1796SOL    HW117021   3.190   2.831  12.010  1.0583  1.2341  1.0974
 1796SOL    HW217022   3.304   2.788  12.102 -0.3878 -0.5557  0.3605
 1797SOL     OW17023   2.705   3.371   9.408 -0.3124 -0.2500 -0.4164
 1797SOL    HW117024   2.706   3.459   9.445  2.8805 -0.9561  1.1759
 1797SOL    HW217025   2.697   3.311   9.482  1.9272 -2.7290 -2.1449
 1798SOL     OW17026   3.421   3.577   0.008  0.3251  0.0914 -0.4019
 1798SOL    HW117027   3.469   3.529   0.076  2.2647  1.2075 -1.0001
 1798SOL    HW217028   3.383   3.504  17.705  0.5386 -1.5705  1.8982
 1799SOL     OW17029   4.212   1.634   6.664  0.0708  0.2532 -0.1592
 1799SOL    HW117030   4.211   1.709   6.725 -0.1644 -0.3380  0.5638
 1799SOL    HW217031   4.300   1.656   6.635  0.7570 -0.8195  1.1272
 1800SOL     OW17032   0.653   2.749   4.411  0.1196 -0.0902  0.4240
 1800SOL    HW117033   0.609   2.682   4.463 -0.2394  1.1835  1.7826
 1800SOL    HW217034   0.693   2.691   4.347  0.3816  2.1737 -1.4542
 1801SOL     OW17035   2.259   1.207   5.419 -0.3416 -0.0627 -0.5490
 1801SOL    HW117036   2.254   1.301   5.402 -0.4560  0.5744  3.0618
 1801SOL    HW217037   2.188   1.200   5.483 -0.6099  0.3083 -0.8044
 1802SOL     OW17038   1.072   2.619   4.958  0.5545 -0.1028 -0.5084
 1802SOL    HW117039   1.067   2.715   4.965 -1.7482 -0.1559 -1.6303
 1802SOL    HW217040   1.001   2.605   4.896  0.9522  0.5245 -1.1023
 1803SOL     OW17041   0.239   3.221   2.339 -0.1818  0.0438  0.5630
 1803SOL    HW117042   0.192   3.253   2.262  1.7079  1.3590 -0.0430
 1803SOL    HW217043   0.295   3.295   2.362 -1.6886  1.6689 -1.0465
 1804SOL     OW17044   0.314   2.986   4.148  0.1282  0.1342 -1.2791
 1804SOL    HW117045   0.409   2.995   4.159 -0.1616 -1.3517  2.3690
 1804SOL    HW217046   0.293   3.018   4.060 -2.2149 -0.3773 -0.9030
 1805SOL     OW17047   3.555   3.466   6.775 -0.2197 -0.0784  0.2083
 1805SOL    HW117048   3.650   3.472   6.787 -0.2505 -0.0916  0.4649
 1805SOL    HW217049   3.532   3.544   6.726  0.4147 -1.1470 -1.7714
 1806SOL     OW17050   2.902   1.148  12.075 -0.1545  0.3197 -0.3742
 1806SOL    HW117051   2.878   1.056  12.085 -2.8113  1.1422  0.6269
 1806SOL    HW217052   2.917   1.167  12.168 -0.2283  0.9939 -0.5022
 1807SOL     OW17053   3.264   3.409  12.800 -0.1483 -0.5806  0.3076
 1807SOL    HW117054   3.330   3.339  12.797  1.5173  1.1428 -2.8712
 1807SOL    HW217055   3.221   3.399  12.715 -1.2490  0.0041  0.7916
 1808SOL     OW17056   3.531   1.785   6.020  0.3348 -0.6178 -0.4105
 1808SOL    HW117057   3.438   1.762   6.026  0.4835 -0.7497  1.5354
 1808SOL    HW217058   3.560   1.711   5.966  1.2712  0.5448 -1.4869
 1809SOL     OW17059   1.358   0.293   1.129  0.2830  0.4621  0.3486
 1809SOL    HW117060   1.296   0.287   1.202  0.7729  0.9410  0.8036
 1809SOL    HW217061   1.315   0.232   1.069  0.8722 -0.1415  0.5403
 1810SOL     OW17062   4.348   0.676   8.158  0.0039  1.2532  0.1105
 1810SOL    HW117063   4.314   0.715   8.077 -1.2612  0.1118  0.0941
 1810SOL    HW217064   4.279   0.711   8.216 -0.9502  0.9221 -0.8183
 1811SOL     OW17065   1.989   2.689   0.128  0.4825 -0.0030  0.4842
 1811SOL    HW117066   2.069   2.637   0.116  0.3703  0.1661 -1.0745
 1811SOL    HW217067   1.950   2.664   0.212  1.5111  1.2107  1.3201
 1812SOL     OW17068   2.393   0.143   9.883 -0.5360 -0.3461 -0.8160
 1812SOL    HW117069   2.379   0.153   9.977  0.6173  1.1375 -0.8047
 1812SOL    HW217070   2.412   0.051   9.868  0.5548 -0.4507  1.2593
 1813SOL     OW17071   1.988   2.103   9.361 -0.1903 -0.4732  0.2296
 1813SOL    HW117072   1.936   2.109   9.281 -0.7000  1.5560  0.6985
 1813SOL    HW217073   2.003   2.010   9.378  1.3723 -0.3098 -0.2579
 1814SOL     OW17074   1.535   3.559   2.294 -0.3586 -0.6090 -0.0347
 1814SOL    HW117075   1.497   3.573   2.207 -1.0241  2.7312  0.7976
 1814SOL    HW217076   1.546   3.464   2.298 -0.6542 -0.7584 -2.3044
 1815SOL     OW17077   1.049   2.937   0.368 -0.9889  0.6158  0.1509
 1815SOL    HW117078   1.009   2.934   0.454  0.8075  2.5734  1.0430
 1815SOL    HW217079   1.028   2.850   0.332 -1.1073  1.1195 -1.0076
 1816SOL     OW17080   4.047   4.481   2.265 -0.6403  0.2073  0.1532
 1816SOL    HW117081   4.096   4.500   2.345 -0.9388 -0.0929  0.4075
 1816SOL    HW217082   4.089   4.395   2.254  1.2298  0.9905  1.2239
 1817SOL     OW17083   3.482   3.566   7.500 -0.2014  1.1516  1.0484
 1817SOL    HW117084   3.537   3.518   7.561  0.0864 -0.1776 -0.2522
 1817SOL    HW217085   3.435   3.495   7.456  2.4732  1.0022 -1.5296
 1818SOL     OW17086   2.749   2.885   6.104 -0.5422  0.0530  0.7161
 1818SOL    HW117087   2.773   2.966   6.149  1.1601 -0.2719  0.3982
 1818SOL    HW217088   2.656   2.904   6.096 -0.3819  0.8076  0.6619
 1819SOL     OW17089   2.176   0.303  17.278 -0.0714  0.2333  0.0392
 1819SOL    HW117090   2.243   0.239  17.303 -0.2007  0.9344  2.1827
 1819SOL    HW217091   2.107   0.249  17.240  0.3164  0.3353 -0.8091
 1820SOL     OW17092   0.410   3.303  16.051 -0.1965 -0.3732 -0.1447
 1820SOL    HW117093   0.398   3.340  16.139 -3.8311 -1.2410 -0.2587
 1820SOL    HW217094   0.316   3.285  16.044 -0.3912  1.1000 -1.3046
 1821SOL     OW17095   3.014   1.931   5.706  0.1716 -0.0535  0.1605
 1821SOL    HW117096   2.979   1.932   5.795  0.8938 -0.3681  0.4517
 1821SOL    HW217097   3.083   1.997   5.714 -2.2218  2.1914  2.1764
 1822SOL     OW17098   0.508   0.937   4.328  0.0668 -0.5255 -0.2551
 1822SOL    HW117099   0.491   0.902   4.241 -2.1657 -2.6723  1.0301
 1822SOL    HW217100   0.436   0.893   4.372  0.0044 -0.7818 -0.6152
 1823SOL     OW17101   1.136   4.194  16.189 -0.4914 -0.2570  0.1456
 1823SOL    HW117102   1.052   4.180  16.233 -0.2040  0.6973  1.0135
 1823SOL    HW217103   1.158   4.106  16.157  2.5648  0.1710  1.0678
 1824SOL     OW17104   2.803   4.483  10.600 -0.1612 -0.2063 -0.2560
 1824SOL    HW117105   2.835   4.402  10.639  0.5253 -0.8579 -2.1832
 1824SOL    HW217106   2.886   4.530  10.594 -1.1145  1.7344  1.7834
 1825SOL     OW17107   4.222   4.172   5.011 -0.0764 -0.5250  0.2709
 1825SOL    HW117108   4.287   4.142   5.075  0.0735 -0.7679  0.0053
 1825SOL    HW217109   4.243   4.266   5.013 -0.1676 -0.5066  0.3412
 1826SOL     OW17110   4.284   3.030   9.930  0.7211  0.1342 -0.2902
 1826SOL    HW117111   4.228   3.007   9.856  0.3740  0.0357 -0.0004
 1826SOL    HW217112   4.366   2.991   9.900  1.4322  1.1241  0.3590
 1827SOL     OW17113   0.965   0.710   8.780  0.1692  0.4122  0.4777
 1827SOL    HW117114   1.037   0.688   8.721  0.5379 -1.2234  1.5202
 1827SOL    HW217115   0.937   0.626   8.817 -0.9234 -0.1053 -1.5216
 1828SOL     OW17116   2.668   0.070   8.461 -0.1596  0.0562 -0.4591
 1828SOL    HW117117   2.735   0.010   8.494 -0.8340  0.3966  1.4960
 1828SOL    HW217118   2.638   0.107   8.544 -2.3056  1.0341 -1.6762
 1829SOL     OW17119   3.530   3.742   4.534 -0.5890 -0.0840 -0.2468
 1829SOL    HW117120   3.620   3.711   4.524 -0.4762 -0.4024  1.9184
 1829SOL    HW217121   3.481   3.685   4.474 -1.8159 -1.4713  2.0587
 1830SOL     OW17122   1.664   1.074   4.158  0.1923  0.0675 -0.5942
 1830SOL    HW117123   1.573   1.047   4.146  1.2353 -4.2972  1.8120
 1830SOL    HW217124   1.697   1.061   4.069 -0.9392  1.1149 -1.1678
 1831SOL     OW17125   2.421   3.470   4.936  0.1839 -0.1613 -1.0140
 1831SOL    HW117126   2.457   3.511   4.857 -1.5208 -0.7538 -2.0830
 1831SOL    HW217127   2.332   3.444   4.915 -0.5976  1.4374  0.3668
 1832SOL     OW17128   2.604   2.758  13.274  0.3497 -0.1125  0.7086
 1832SOL    HW117129   2.584   2.828  13.213  1.2091 -0.8811 -0.4455
 1832SOL    HW217130   2.521   2.713  13.285 -0.1558  0.8142  0.6423
 1833SOL     OW17131   3.728   3.303   9.245 -0.4395 -0.0854  0.3132
 1833SOL    HW117132   3.760   3.358   9.317  1.1280 -1.1193  0.4073
 1833SOL    HW217133   3.810   3.257   9.228 -1.2740 -0.8952 -1.5777
 1834SOL     OW17134   4.486   1.406  15.908 -0.3119  0.5250 -0.2097
 1834SOL    HW117135   4.402   1.400  15.863 -1.0433 -0.5243  1.3069
 1834SOL    HW217136   4.522   1.318  15.897 -2.0862  0.0174 -1.9560
 1835SOL     OW17137   4.448   0.029   3.160 -0.3714  0.6355  0.4264
 1835SOL    HW117138   4.430   0.029   3.066 -1.6718  2.2190  0.6578
 1835SOL    HW217139   4.423   0.115   3.194 -2.0318  0.4493 -0.3490
 1836SOL     OW17140   3.515   4.694   6.194 -0.1570 -0.4204 -0.5381
 1836SOL    HW117141   3.463   4.619   6.163 -1.4966  0.1922  0.2183
 1836SOL    HW217142   3.477   4.704   6.281 -0.6953  1.6683 -0.9998
 1837SOL     OW17143   4.268   3.660   6.221  0.3359  0.3368 -0.0650
 1837SOL    HW117144   4.205   3.724   6.189  0.5316  0.2470 -0.6206
 1837SOL    HW217145   4.329   3.660   6.147  3.4635 -1.2956  2.4593
 1838SOL     OW17146   1.478   0.710  15.065 -0.0358 -0.1047 -0.4069
 1838SOL    HW117147   1.458   0.623  15.031 -0.4845 -0.0000 -0.4085
 1838SOL    HW217148   1.416   0.760  15.012 -1.4584 -1.1825  0.2433
 1839SOL     OW17149   1.812   4.721   4.918  0.0018 -0.5946 -0.1677
 1839SOL    HW117150   1.753   4.722   4.994 -1.8227 -1.4655 -1.5537
 1839SOL    HW217151   1.820   0.078   4.904  0.7499 -0.2381  2.6429
 1840SOL     OW17152   4.491   1.103   3.253  0.0562 -0.0773  0.4054
 1840SOL    HW117153   4.412   1.132   3.299  1.5352  3.0191  0.9471
 1840SOL    HW217154   4.473   1.011   3.235  2.1002 -0.2569 -0.7391
 1841SOL     OW17155   1.994   3.009   3.212  0.4300 -0.0781 -0.3121
 1841SOL    HW117156   2.082   2.971   3.205  1.7590  2.7491  1.2860
 1841SOL    HW217157   1.982   3.045   3.124  3.3344 -0.6627 -0.9552
 1842SOL     OW17158   2.043   3.914   8.351 -0.9381  0.0667 -0.0275
 1842SOL    HW117159   2.104   3.955   8.412 -0.3887  2.0869 -1.9324
 1842SOL    HW217160   2.057   3.820   8.357 -3.6183 -0.1748  2.0266
 1843SOL     OW17161   3.043   2.560  13.430 -0.5636  0.2249 -0.2192
 1843SOL    HW117162   2.964   2.573  13.482 -0.4128 -0.1762  0.1121
 1843SOL    HW217163   3.048   2.466  13.410 -1.0118  0.6519 -2.3057
 1844SOL     OW17164   0.076   4.477   6.355  1.0825 -0.4697 -0.3291
 1844SOL    HW117165   0.125   4.531   6.417  1.3196  0.8519 -1.6681
 1844SOL    HW217166   4.734   4.469   6.409  1.1289  0.1821 -0.1578
 1845SOL     OW17167   1.324   4.597   3.941 -0.2878  0.4028  0.0745
 1845SOL    HW117168   1.381   4.527   3.974  1.7638  2.3202  0.6494
 1845SOL    HW217169   1.364   4.672   3.985  0.2449  0.3829 -0.3696
 1846SOL     OW17170   2.662   2.038  15.666 -0.2250 -0.0342 -0.3775
 1846SOL    HW117171   2.602   2.000  15.601  3.5628 -2.4704 -2.5043
 1846SOL    HW217172   2.692   2.117  15.623  2.6848 -1.3515 -0.7478
 1847SOL     OW17173   1.945   2.252  11.515  0.4422  0.1737  0.1386
 1847SOL    HW117174   2.032   2.225  11.486 -0.4046 -2.5899  0.2068
 1847SOL    HW217175   1.905   2.170  11.543  2.5041 -0.8381  0.1652
 1848SOL     OW17176   0.579   4.680  17.090 -0.0853  0.4478 -0.1071
 1848SOL    HW117177   0.554   4.733  17.015 -1.2070 -0.0200 -0.0679
 1848SOL    HW217178   0.588   4.594  17.048  2.8465  1.1598 -0.9330
 1849SOL     OW17179   0.392   3.999   7.374  0.5175 -0.4249  0.4183
 1849SOL    HW117180   0.450   4.072   7.396 -0.1162 -1.0637  4.1811
 1849SOL    HW217181   0.313   4.040   7.409 -0.2539 -1.1688 -0.4759
 1850SOL     OW17182   3.585   3.730  17.602  0.0929 -0.1342  0.2145
 1850SOL    HW117183   3.523   3.670  17.644 -1.2884  0.5125 -0.8893
 1850SOL    HW217184   3.550   3.813  17.634 -1.0372  0.5486 -2.7907
 1851SOL     OW17185   1.451   4.531   8.322 -0.4655 -0.1979 -0.1344
 1851SOL    HW117186   1.528   4.573   8.282 -2.2511  1.3216 -2.0247
 1851SOL    HW217187   1.392   4.540   8.247 -0.4317 -1.1560 -0.2719
 1852SOL     OW17188   1.500   1.903   0.270  0.2036  0.3743 -0.4545
 1852SOL    HW117189   1.545   1.941   0.346  0.1260 -1.2264  0.3858
 1852SOL    HW217190   1.488   1.813   0.298  0.4144  0.3777 -0.3504
 1853SOL     OW17191   0.863   3.137  16.315 -0.4946  0.1258 -0.4047
 1853SOL    HW117192   0.878   3.044  16.331 -0.5466  0.1501 -0.2128
 1853SOL    HW217193   0.936   3.152  16.255 -0.7400  0.5171 -0.6106
 1854SOL     OW17194   4.340   3.973   9.209 -0.0811 -0.7289 -0.0629
 1854SOL    HW117195   4.270   3.909   9.202 -0.5826 -0.2974  0.9827
 1854SOL    HW217196   4.350   4.004   9.119  0.1434  1.0085  0.5607
 1855SOL     OW17197   4.005   1.404   8.356  0.2805  0.2088  0.3415
 1855SOL    HW117198   3.974   1.400   8.447 -0.2558 -0.7945  0.1138
 1855SOL    HW217199   3.930   1.386   8.299 -0.9378  5.1986  0.3683
 1856SOL     OW17200   0.609   4.513   7.350 -0.3733  0.3330  0.5458
 1856SOL    HW117201   0.658   4.568   7.411 -1.3237  1.9826 -0.2004
 1856SOL    HW217202   0.524   4.555   7.358  0.0269  0.9518  1.5861
 1857SOL     OW17203   0.370   4.027   9.045  0.4907 -0.2377 -0.0131
 1857SOL    HW117204   0.419   4.093   9.093  0.2003 -1.0133  1.3427
 1857SOL    HW217205   0.304   3.999   9.108  0.3579 -2.1858 -0.9851
 1858SOL     OW17206   0.890   2.176   1.266  0.1540  0.5084  0.2764
 1858SOL    HW117207   0.936   2.112   1.211  1.5995  1.8226 -0.0319
 1858SOL    HW217208   0.834   2.117   1.316  0.9305  0.4515  1.0808
 1859SOL     OW17209   2.248   3.109  13.928 -0.1448  0.4634  0.4003
 1859SOL    HW117210   2.158   3.128  13.954 -1.3937 -0.6352 -3.1153
 1859SOL    HW217211   2.255   3.023  13.970  1.0129 -0.1364 -1.0269
 1860SOL     OW17212   2.614   1.637   2.196  0.0188 -0.0132 -0.4191
 1860SOL    HW117213   2.631   1.597   2.110 -0.5691  0.3642 -0.7155
 1860SOL    HW217214   2.537   1.584   2.219  0.0673 -0.3554 -1.0383
 1861SOL     OW17215   0.480   2.585  13.243  0.6548 -0.1332  0.0288
 1861SOL    HW117216   0.524   2.669  13.255  0.4155  0.3004 -2.2243
 1861SOL    HW217217   0.488   2.571  13.149 -1.4993 -2.8702  0.2393
 1862SOL     OW17218   2.919   2.330  13.301 -0.7294  0.8329  0.0242
 1862SOL    HW117219   2.876   2.410  13.271 -2.3583  0.1973  0.6559
 1862SOL    HW217220   2.903   2.336  13.396 -0.3299 -3.1003  0.3709
 1863SOL     OW17221   3.141   1.236   3.987  0.2163 -0.8458 -0.3369
 1863SOL    HW117222   3.147   1.309   3.924  0.2524  0.4094  1.1134
 1863SOL    HW217223   3.234   1.241   4.009 -0.0070  1.5507  0.0713
 1864SOL     OW17224   2.822   4.280   8.006  0.1608  0.0002 -0.1247
 1864SOL    HW117225   2.890   4.326   7.956 -1.0891  2.6364  0.6276
 1864SOL    HW217226   2.749   4.314   7.954  0.9334  0.3129 -1.0058
 1865SOL     OW17227   2.991   0.577   6.766  0.5448 -0.2246  0.0053
 1865SOL    HW117228   3.066   0.607   6.715 -0.8429  1.5571 -0.9668
 1865SOL    HW217229   2.994   0.634   6.843 -0.9679  0.1435 -0.2171
 1866SOL     OW17230   1.907   1.420   4.325  0.0044  0.1461  0.5001
 1866SOL    HW117231   1.979   1.470   4.362 -0.0934 -0.6044  1.6989
 1866SOL    HW217232   1.835   1.482   4.333 -2.3510 -2.4008 -0.6046
 1867SOL     OW17233   2.304   3.211   9.409  0.6175  0.0480  0.0935
 1867SOL    HW117234   2.344   3.278   9.354 -1.1722  0.0324 -1.2280
 1867SOL    HW217235   2.373   3.146   9.391  0.9896  0.1036  1.3290
 1868SOL     OW17236   4.238   0.230  12.432  0.0928 -0.0648  0.0077
 1868SOL    HW117237   4.219   0.323  12.440 -0.3299 -0.1662  0.1661
 1868SOL    HW217238   4.267   0.220  12.522 -0.9692 -0.9785  0.2394
 1869SOL     OW17239   3.652   1.186   7.395  0.7515 -0.2255  0.5053
 1869SOL    HW117240   3.653   1.119   7.463 -1.3758  0.7767  1.5424
 1869SOL    HW217241   3.630   1.133   7.318 -1.8116  0.3727  0.8111
 1870SOL     OW17242   3.350   1.033   7.462  0.2369 -0.1175  0.7061
 1870SOL    HW117243   3.400   1.048   7.383 -1.1834  0.4429 -0.0760
 1870SOL    HW217244   3.302   1.115   7.455  0.6135 -0.1719 -2.1877
 1871SOL     OW17245   0.267   1.992  11.189  0.7280 -0.1174 -0.6210
 1871SOL    HW117246   0.285   1.908  11.146 -0.8617 -0.9402  0.2981
 1871SOL    HW217247   0.179   2.011  11.156 -0.1444 -0.6654  1.3493
 1872SOL     OW17248   0.240   2.435   2.526 -0.2335 -0.0532 -0.5530
 1872SOL    HW117249   0.145   2.432   2.534 -0.2451  0.0862 -0.6358
 1872SOL    HW217250   0.255   2.517   2.573 -0.5937 -1.0835  1.3339
 1873SOL     OW17251   4.562   2.257   7.250  0.2177  0.6922 -0.4341
 1873SOL    HW117252   4.649   2.279   7.219 -0.2179  1.9217 -0.7946
 1873SOL    HW217253   4.522   2.343   7.235 -0.8505  0.0503 -1.3037
 1874SOL     OW17254   1.880   1.470   7.546  0.2758  0.1735  0.1172
 1874SOL    HW117255   1.803   1.477   7.602 -0.5973 -0.0940 -1.0617
 1874SOL    HW217256   1.936   1.538   7.584  0.3777 -0.3538  0.8920
 1875SOL     OW17257   4.386   1.134   7.894  0.4263 -0.2550  0.0140
 1875SOL    HW117258   4.311   1.123   7.952  0.1953 -1.5711 -0.5360
 1875SOL    HW217259   4.349   1.123   7.807  1.9603 -0.4348 -0.6124
 1876SOL     OW17260   1.467   1.345   0.159 -0.0793 -0.6167  0.4788
 1876SOL    HW117261   1.390   1.400   0.170  0.0649  0.7701 -5.4030
 1876SOL    HW217262   1.464   1.306   0.071 -1.7298  0.2692  0.1439
 1877SOL     OW17263   4.035   0.861   4.890 -0.0393 -0.2607  0.5261
 1877SOL    HW117264   3.963   0.918   4.862  2.0435  2.1469  0.0807
 1877SOL    HW217265   4.092   0.935   4.911 -2.2333  2.0389 -1.5863
 1878SOL     OW17266   3.851   2.516   8.807  0.5700 -0.2844 -0.3274
 1878SOL    HW117267   3.788   2.456   8.847 -0.4726  1.8547  1.2471
 1878SOL    HW217268   3.819   2.603   8.831  1.1835 -0.2508  0.3732
 1879SOL     OW17269   3.001   0.934   9.442 -0.1142 -0.0526 -0.0214
 1879SOL    HW117270   2.924   0.884   9.414 -1.0926  1.9499 -0.9845
 1879SOL    HW217271   3.065   0.906   9.376 -1.4033 -0.5824 -1.0549
 1880SOL     OW17272   2.073   3.774  16.222 -0.1222 -0.5522 -0.2921
 1880SOL    HW117273   2.019   3.716  16.168  0.1975 -2.2883  1.2326
 1880SOL    HW217274   2.071   3.729  16.307 -0.8673  0.6748  0.3280
 1881SOL     OW17275   3.277   4.164   4.194  0.3491 -0.3867 -0.4535
 1881SOL    HW117276   3.332   4.242   4.196 -1.1293  0.6933 -2.0991
 1881SOL    HW217277   3.231   4.182   4.112 -0.2776 -1.3152 -0.3044
 1882SOL     OW17278   0.803   2.491   3.512 -0.0430 -0.0196 -0.6685
 1882SOL    HW117279   0.833   2.572   3.553 -0.5377  0.5424 -1.3958
 1882SOL    HW217280   0.792   2.521   3.421  2.4667 -1.7350 -1.5241
 1883SOL     OW17281   0.577   2.894   9.154 -0.6097  0.0520 -0.1853
 1883SOL    HW117282   0.623   2.929   9.078  1.6180 -1.8937  0.3016
 1883SOL    HW217283   0.548   2.971   9.203 -1.2854  0.6737 -1.5423
 1884SOL     OW17284   0.825   2.059   3.067  0.2604  0.5096 -0.0662
 1884SOL    HW117285   0.752   2.051   3.128 -0.4639 -0.7173 -1.0885
 1884SOL    HW217286   0.780   2.101   2.993  0.7409  1.0695 -0.0423
 1885SOL     OW17287   2.892   1.773   6.244 -0.0775 -0.2422 -0.2898
 1885SOL    HW117288   2.880   1.679   6.235 -2.4499 -0.0167  0.3584
 1885SOL    HW217289   2.827   1.813   6.187 -0.1585 -0.7224 -0.5314
 1886SOL     OW17290   2.673   1.144   5.536 -0.5388  0.1156 -0.5519
 1886SOL    HW117291   2.629   1.116   5.456 -0.6724 -0.5266 -0.2545
 1886SOL    HW217292   2.608   1.126   5.605  0.2985 -1.0638 -0.0535
 1887SOL     OW17293   1.643   2.329   4.747  0.9044 -0.3621  0.2197
 1887SOL    HW117294   1.711   2.304   4.809  0.0734 -0.2915  1.1622
 1887SOL    HW217295   1.581   2.366   4.810 -1.3623 -0.3637 -2.0137
 1888SOL     OW17296   3.821   1.541   9.021 -0.1440 -0.1030 -0.3503
 1888SOL    HW117297   3.753   1.606   9.003 -0.5863 -0.8282 -1.3146
 1888SOL    HW217298   3.781   1.460   8.990  0.0805  0.2537 -1.5614
 1889SOL     OW17299   4.397   4.234   5.863  0.9816 -0.0277  0.0537
 1889SOL    HW117300   4.359   4.170   5.802  2.8725 -0.7095 -0.4063
 1889SOL    HW217301   4.328   4.299   5.851  0.4657 -0.1540  2.4894
 1890SOL     OW17302   3.665   2.411   0.618 -0.0320 -0.0199  0.3435
 1890SOL    HW117303   3.709   2.326   0.615  0.0336 -0.0017  0.8319
 1890SOL    HW217304   3.741   2.464   0.594 -0.9691  1.2866  0.2946
 1891SOL     OW17305   2.703   3.703  10.804 -0.3754  0.1856 -0.3252
 1891SOL    HW117306   2.737   3.754  10.877  2.3998 -1.3440 -0.5624
 1891SOL    HW217307   2.782   3.684  10.753  0.3324  3.0205 -0.2899
 1892SOL     OW17308   2.617   1.214   6.030  0.4555  0.3991 -0.0060
 1892SOL    HW117309   2.589   1.290   6.080  2.7334  2.5379 -1.9926
 1892SOL    HW217310   2.707   1.199   6.061  1.4852  0.7136 -2.8839
 1893SOL     OW17311   0.733   4.315   5.259  0.0679  0.0115 -0.4150
 1893SOL    HW117312   0.757   4.333   5.350  0.4528 -1.1859 -0.2738
 1893SOL    HW217313   0.754   4.396   5.213 -0.8000  1.0830  1.1076
 1894SOL     OW17314   4.683   0.125  12.952 -0.5645  0.2585 -0.1367
 1894SOL    HW117315   4.715   0.168  12.873  0.7389  2.3216  1.5064
 1894SOL    HW217316   4.649   0.042  12.919  0.7121 -0.4906  0.4151
 1895SOL     OW17317   2.922   1.447   7.161  0.1284 -0.2294 -0.4933
 1895SOL    HW117318   3.014   1.437   7.185  0.0016  2.3039  1.0112
 1895SOL    HW217319   2.905   1.364   7.115  1.1839 -1.1223  0.7280
 1896SOL     OW17320   1.629   4.579   6.645  0.0759  0.3149 -0.0224
 1896SOL    HW117321   1.667   4.595   6.558 -0.8200  0.4716 -0.3771
 1896SOL    HW217322   1.633   4.483   6.648 -0.1574  0.3030 -0.0812
 1897SOL     OW17323   3.990   3.399   6.532 -0.2927  0.1151 -0.5060
 1897SOL    HW117324   4.064   3.460   6.526 -0.4443  0.3396 -0.0842
 1897SOL    HW217325   4.013   3.352   6.451  0.9524 -2.5779  1.4292
 1898SOL     OW17326   1.487   1.696   3.889  0.3111 -0.2886 -0.1924
 1898SOL    HW117327   1.499   1.738   3.974 -1.5954 -0.7367  0.3030
 1898SOL    HW217328   1.493   1.604   3.916 -0.3199 -0.2201  0.1685
 1899SOL     OW17329   1.050   0.071   0.374 -0.3488 -0.1078 -0.3151
 1899SOL    HW117330   1.119   0.021   0.418 -1.5146 -0.2574  1.3772
 1899SOL    HW217331   0.977   0.076   0.436  1.4906  2.1887  1.6149
 1900SOL     OW17332   3.437   3.927   5.644 -0.3858  0.0621  0.0903
 1900SOL    HW117333   3.450   3.848   5.697 -0.6170 -0.3472 -0.4631
 1900SOL    HW217334   3.350   3.965   5.656 -1.5499 -2.8003  0.6967
 1901SOL     OW17335   3.853   2.076   9.267  0.1377  0.0570 -0.6125
 1901SOL    HW117336   3.885   2.001   9.216  1.2908  0.3362 -0.3037
 1901SOL    HW217337   3.810   2.022   9.333 -1.3123  1.6906 -0.2468
 1902SOL     OW17338   2.653   4.128   1.863 -0.0080  0.0058 -0.3177
 1902SOL    HW117339   2.698   4.045   1.847  0.0060  0.4062 -2.3620
 1902SOL    HW217340   2.574   4.117   1.810 -0.2742  1.3216 -0.1944
 1903SOL     OW17341   0.334   4.190   3.017 -0.9801 -0.4710  0.6343
 1903SOL    HW117342   0.272   4.128   3.056 -2.1738  0.7933  0.7687
 1903SOL    HW217343   0.371   4.239   3.091 -1.7666 -1.8896  1.9543
 1904SOL     OW17344   4.609   1.314   2.168 -0.4432 -0.2598 -0.3784
 1904SOL    HW117345   4.665   1.289   2.241  0.1368  1.2512 -0.3090
 1904SOL    HW217346   4.578   1.226   2.148 -0.0990 -0.0986 -1.6573
 1905SOL     OW17347   2.589   1.078  10.255  0.1048  0.2224 -0.0034
 1905SOL    HW117348   2.638   0.997  10.268  0.8166  0.3602 -1.8928
 1905SOL    HW217349   2.629   1.104  10.172  0.2516 -0.9016 -0.2813
 1906SOL     OW17350   4.165   2.430  12.190  0.3348  0.2797 -0.1213
 1906SOL    HW117351   4.106   2.359  12.167 -1.0908  1.2516  0.5723
 1906SOL    HW217352   4.144   2.502  12.131 -1.5648  0.5017  0.8517
 1907SOL     OW17353   3.904   3.300   4.268 -0.3279  0.7307  0.2311
 1907SOL    HW117354   3.910   3.281   4.174 -0.9674  0.4980  0.2395
 1907SOL    HW217355   3.971   3.368   4.277  0.5188  0.0664 -0.9485
 1908SOL     OW17356   1.695   1.776   8.135 -0.8702 -0.4585 -0.1052
 1908SOL    HW117357   1.730   1.753   8.221 -0.0262  0.4704 -0.2046
 1908SOL    HW217358   1.681   1.684   8.111  0.5910 -0.4870 -0.8452
 1909SOL     OW17359   0.898   3.326   7.185  0.1881 -0.2640  0.0118
 1909SOL    HW117360   0.874   3.342   7.094 -1.8446  3.8234  1.3014
 1909SOL    HW217361   0.814   3.330   7.231  2.2371  2.2454  3.5421
 1910SOL     OW17362   3.800   0.885   8.928  0.6864 -0.0713  0.2016
 1910SOL    HW117363   3.813   0.919   9.017  1.3080 -0.0397  0.1009
 1910SOL    HW217364   3.759   0.800   8.942  0.1317  0.3425  1.0296
 1911SOL     OW17365   2.694   1.028   8.774 -0.2523 -0.0122  0.2254
 1911SOL    HW117366   2.732   0.944   8.749  0.2740  0.8255 -1.7379
 1911SOL    HW217367   2.605   1.001   8.799 -0.1300  0.1273  0.8029
 1912SOL     OW17368   1.905   2.954   8.911 -0.2326 -0.0555 -0.5118
 1912SOL    HW117369   1.845   3.024   8.883 -0.0485  0.1736 -0.3302
 1912SOL    HW217370   1.990   2.996   8.896  0.0282 -0.7399 -0.9560
 1913SOL     OW17371   1.487   2.255   8.755  0.5416  0.0610 -0.7276
 1913SOL    HW117372   1.498   2.160   8.759  1.1222  0.1679  0.1756
 1913SOL    HW217373   1.406   2.260   8.805  0.0400  1.1957 -1.6565
 1914SOL     OW17374   3.213   1.539   2.586  0.6624 -0.6074  0.4637
 1914SOL    HW117375   3.264   1.608   2.544  0.8195 -0.8101  0.3221
 1914SOL    HW217376   3.146   1.589   2.632  0.2048 -1.3661  0.6288
 1915SOL     OW17377   3.158   3.173   6.307  0.5775 -0.5113  0.1899
 1915SOL    HW117378   3.127   3.099   6.359  0.8745 -0.5355  0.3293
 1915SOL    HW217379   3.080   3.230   6.311  2.4128  1.8428  2.3272
 1916SOL     OW17380   4.298   2.677   2.860 -0.2364 -0.3028 -0.5569
 1916SOL    HW117381   4.206   2.675   2.832 -0.3414 -1.5230 -0.1140
 1916SOL    HW217382   4.287   2.663   2.954  0.4430  2.8614 -0.0074
 1917SOL     OW17383   1.517   0.533  10.389  0.1194  0.2015 -0.3881
 1917SOL    HW117384   1.559   0.503  10.309 -0.2502  0.8238 -0.8176
 1917SOL    HW217385   1.578   0.488  10.448 -1.8651  0.0409  1.5240
 1918SOL     OW17386   1.763   2.309   0.103  0.3147  0.0365 -0.0444
 1918SOL    HW117387   1.729   2.280   0.019 -1.8886 -0.1355  0.9140
 1918SOL    HW217388   1.822   2.383   0.089  0.8708 -0.2475  0.7820
 1919SOL     OW17389   3.972   0.355   7.769  0.7887  0.1525  0.3470
 1919SOL    HW117390   3.956   0.263   7.748 -0.5093  0.6267 -0.8007
 1919SOL    HW217391   3.894   0.380   7.818  1.9734 -0.8738  2.7512
 1920SOL     OW17392   1.097   1.840   7.066  0.3993  0.5418 -0.4698
 1920SOL    HW117393   1.123   1.903   7.134 -0.2496  1.4743 -1.0759
 1920SOL    HW217394   1.152   1.763   7.080  0.7212  1.1898  1.8738
 1921SOL     OW17395   3.524   4.174   0.544 -0.1741 -0.1514  0.0365
 1921SOL    HW117396   3.520   4.109   0.474 -3.6362 -0.7388  0.7960
 1921SOL    HW217397   3.612   4.144   0.570 -0.6035  0.9547  2.7953
 1922SOL     OW17398   4.261   1.260  15.762  0.2976 -0.2382 -0.1643
 1922SOL    HW117399   4.216   1.212  15.832 -0.0692 -3.0462 -2.3391
 1922SOL    HW217400   4.214   1.340  15.740  2.0875  2.1207  4.4846
 1923SOL     OW17401   0.379   1.737  12.724 -1.0424 -0.0443  0.8088
 1923SOL    HW117402   0.453   1.781  12.767  0.2831 -1.8175  0.3504
 1923SOL    HW217403   0.319   1.806  12.751 -3.5905 -1.4526 -1.2817
 1924SOL     OW17404   1.272   2.983   4.245  0.2023  0.1429 -0.0757
 1924SOL    HW117405   1.190   2.944   4.275 -0.5426  2.0109  0.3226
 1924SOL    HW217406   1.259   3.075   4.268  1.7352  0.3060  0.0851
 1925SOL     OW17407   3.780   3.908   2.223  0.6285 -0.5062  0.0133
 1925SOL    HW117408   3.777   3.827   2.173  1.9561 -0.1038 -0.7261
 1925SOL    HW217409   3.819   3.871   2.302  2.4978 -0.9162 -1.1066
 1926SOL     OW17410   0.155   0.022   9.507  0.3777  0.5531  0.1566
 1926SOL    HW117411   0.137   0.115   9.491 -1.6464  0.1210 -0.0213
 1926SOL    HW217412   0.228   0.034   9.568  0.3100  0.7142  0.2092
 1927SOL     OW17413   2.289   0.027   3.637  0.2622 -0.3064  0.1643
 1927SOL    HW117414   2.293   4.668   3.638 -1.2805 -0.4007 -1.1054
 1927SOL    HW217415   2.323   0.040   3.548 -1.7124  0.0042 -0.5692
 1928SOL     OW17416   2.792   3.101   5.610 -0.3060 -0.0164 -0.6533
 1928SOL    HW117417   2.883   3.127   5.628 -0.6668 -1.3706  3.1415
 1928SOL    HW217418   2.772   3.161   5.538  1.2578  1.2653 -0.0249
 1929SOL     OW17419   1.037   0.474   4.154  0.9124  0.1644 -0.1477
 1929SOL    HW117420   1.101   0.515   4.212 -1.1780  2.4514  0.5671
 1929SOL    HW217421   1.083   0.398   4.119 -0.0885 -0.3074 -0.4556
 1930SOL     OW17422   1.868   1.261   3.046  0.3650  0.3306 -0.3105
 1930SOL    HW117423   1.834   1.174   3.066  1.5578  0.0977  0.6885
 1930SOL    HW217424   1.842   1.309   3.124 -2.4836 -1.7321  0.0050
 1931SOL     OW17425   4.637   4.431   7.751 -0.1713 -0.5443 -0.2999
 1931SOL    HW117426   4.564   4.447   7.812 -0.6158 -0.4008 -0.8674
 1931SOL    HW217427   4.609   4.492   7.683  0.0106  0.2046  0.2857
 1932SOL     OW17428   0.378   4.393  16.214  0.2132 -0.1096  0.3395
 1932SOL    HW117429   0.410   4.362  16.299 -0.3024  1.5531  1.1492
 1932SOL    HW217430   0.284   4.375  16.224  0.5836 -2.1781  0.0558
 1933SOL     OW17431   4.663   2.000   3.962  0.0658  0.1810  0.1393
 1933SOL    HW117432   4.600   2.056   4.007  2.0429  1.9554  0.7287
 1933SOL    HW217433   4.617   1.956   3.891  0.6205 -1.1377  0.5911
 1934SOL     OW17434   3.608   2.548   4.468  0.1384 -0.1496  0.3241
 1934SOL    HW117435   3.701   2.548   4.489  0.8135 -1.3889 -2.7803
 1934SOL    HW217436   3.604   2.492   4.391 -1.5117 -0.8589  0.9208
 1935SOL     OW17437   1.362   1.697   3.641 -0.5809 -0.6350  0.0472
 1935SOL    HW117438   1.414   1.684   3.720  0.5233 -0.1790 -0.6163
 1935SOL    HW217439   1.381   1.788   3.617 -0.8553 -0.7634 -0.6588
 1936SOL     OW17440   0.177   2.777   5.789 -0.2207 -0.2974 -0.2150
 1936SOL    HW117441   0.102   2.725   5.818 -2.0686  2.4602 -0.0388
 1936SOL    HW217442   0.136   2.816   5.712  1.1256 -1.3656 -1.4844
 1937SOL     OW17443   2.922   2.955  13.845  0.0618  0.4074 -0.0876
 1937SOL    HW117444   2.986   3.010  13.800  1.0649 -0.5934  0.0978
 1937SOL    HW217445   2.979   2.919  13.913  1.2232  1.4477 -0.5055
 1938SOL     OW17446   1.845   4.254  14.896  0.0889  0.0180 -0.3636
 1938SOL    HW117447   1.836   4.289  14.807  1.5887 -0.4050 -0.6801
 1938SOL    HW217448   1.810   4.165  14.902  1.6433 -0.8239 -4.0714
 1939SOL     OW17449   1.328   2.347   5.132  0.0978 -0.7039 -0.2321
 1939SOL    HW117450   1.422   2.354   5.121 -0.1392  0.0190 -1.8036
 1939SOL    HW217451   1.298   2.332   5.043 -1.0120  1.4934 -0.2480
 1940SOL     OW17452   1.912   1.756  15.544 -0.0263  0.4715 -0.0901
 1940SOL    HW117453   1.981   1.689  15.546 -0.8886 -0.3908  1.0483
 1940SOL    HW217454   1.872   1.746  15.457 -0.4855 -0.2586  0.2052
 1941SOL     OW17455   3.543   3.450   2.070 -0.4024 -0.5335  0.7267
 1941SOL    HW117456   3.494   3.368   2.062  0.2489 -0.7866 -0.7324
 1941SOL    HW217457   3.472   3.498   2.111 -0.8550 -0.7315  0.1674
 1942SOL     OW17458   3.987   1.963  12.574 -0.1066  0.5164  0.0529
 1942SOL    HW117459   4.071   1.947  12.617 -0.3743 -1.7012 -0.2435
 1942SOL    HW217460   3.923   1.899  12.605 -1.0103  1.8137  0.8860
 1943SOL     OW17461   0.487   1.164  10.393  0.7051  0.6497  0.3561
 1943SOL    HW117462   0.528   1.166  10.307 -2.5689  1.2998 -1.1887
 1943SOL    HW217463   0.563   1.195  10.443  1.9487 -1.4604 -0.2216
 1944SOL     OW17464   4.417   4.669   9.226  0.5576 -0.6772 -0.3834
 1944SOL    HW117465   4.459   4.659   9.311 -0.8993  0.5402  0.4885
 1944SOL    HW217466   4.371   0.017   9.230  3.1004  0.6332  0.9983
 1945SOL     OW17467   1.777   3.701   4.694  0.1775  0.8067  0.1681
 1945SOL    HW117468   1.695   3.731   4.733  0.3368 -0.7399  1.7364
 1945SOL    HW217469   1.798   3.776   4.638 -2.9172  2.5575  1.3529
 1946SOL     OW17470   4.683   0.220   9.930  0.3854  0.4828 -0.1746
 1946SOL    HW117471   4.654   0.285   9.994 -2.4757  0.2906 -1.2859
 1946SOL    HW217472   0.032   0.203   9.970  1.0974  0.6413 -1.6267
 1947SOL     OW17473   2.957   4.369  10.249  0.2760 -0.1862  0.1594
 1947SOL    HW117474   2.944   4.284  10.207 -0.9808 -0.0757  0.3355
 1947SOL    HW217475   2.929   4.360  10.340  0.4336 -0.7080  0.1537
 1948SOL     OW17476   4.342   3.556   7.005 -0.4225 -0.1055 -0.0435
 1948SOL    HW117477   4.278   3.494   7.041 -0.8852 -0.5699 -1.6304
 1948SOL    HW217478   4.344   3.614   7.080  0.5185 -0.2039  0.0106
 1949SOL     OW17479   4.733   1.070   3.888 -0.0754 -0.1924  0.1084
 1949SOL    HW117480   0.023   1.059   3.797 -0.2406 -2.7972  0.3473
 1949SOL    HW217481   0.089   1.076   3.912  0.5026 -0.6586 -1.9889
 1950SOL     OW17482   0.135   2.659  10.641  0.1690  0.1861 -0.0925
 1950SOL    HW117483   0.123   2.713  10.562 -2.3818  0.0008  0.1492
 1950SOL    HW217484   0.058   2.603  10.633 -2.0518  3.2133 -0.2660
 1951SOL     OW17485   3.712   1.136   5.844  0.3228  0.3719  0.0856
 1951SOL    HW117486   3.789   1.124   5.788 -0.5525 -1.4826 -0.7094
 1951SOL    HW217487   3.650   1.072   5.811 -1.8104  2.1663  0.6352
 1952SOL     OW17488   4.507   4.427   5.053  0.2318  0.1802  0.8855
 1952SOL    HW117489   4.423   4.446   5.010  0.7192 -1.5371 -0.8312
 1952SOL    HW217490   4.482   4.380   5.133  1.0201 -1.2310  0.3105
 1953SOL     OW17491   2.470   3.978   3.048 -0.5033 -0.0427  0.4994
 1953SOL    HW117492   2.446   4.063   3.009 -0.2583 -0.7391 -1.1671
 1953SOL    HW217493   2.413   3.928   2.990  0.6801 -1.1977  0.3418
 1954SOL     OW17494   1.316   2.220  15.098 -0.1545 -0.2211  0.1435
 1954SOL    HW117495   1.324   2.137  15.051  0.1687  1.2261 -2.3910
 1954SOL    HW217496   1.251   2.256  15.037  0.0538  3.2286  1.9935
 1955SOL     OW17497   3.587   4.409  14.993 -0.4257  0.3811  0.5389
 1955SOL    HW117498   3.665   4.381  14.946  0.1798 -0.1825  1.8915
 1955SOL    HW217499   3.616   4.403  15.084 -1.2989 -1.9655  0.6635
 1956SOL     OW17500   1.114   3.044   9.387 -0.3508 -0.3441 -0.8488
 1956SOL    HW117501   1.143   3.114   9.328 -0.3201 -0.6867 -1.2352
 1956SOL    HW217502   1.032   3.089   9.409  0.1834  0.6902 -0.9608
 1957SOL     OW17503   3.023   0.371   0.305  0.2824  0.0264 -0.1007
 1957SOL    HW117504   2.938   0.335   0.280  0.1464  0.2920 -0.0244
 1957SOL    HW217505   2.993   0.456   0.338 -1.2941  0.1704 -1.9323
 1958SOL     OW17506   0.945   0.212  16.537  0.0392  0.3583 -0.0545
 1958SOL    HW117507   0.893   0.207  16.457 -1.1987  0.4712  0.7431
 1958SOL    HW217508   0.903   0.289  16.576 -1.8984 -0.7937  0.1501
 1959SOL     OW17509   4.152   1.276   3.911  0.3138  0.3445 -0.0676
 1959SOL    HW117510   4.232   1.231   3.884 -0.2195 -1.2094  0.9450
 1959SOL    HW217511   4.092   1.248   3.841 -1.1823  1.5495  0.7347
 1960SOL     OW17512   1.346   1.529   9.434 -0.2559 -0.1579 -0.0608
 1960SOL    HW117513   1.390   1.582   9.368  3.3860 -2.2091  0.7124
 1960SOL    HW217514   1.314   1.451   9.388  0.3218 -0.1561 -0.4772
 1961SOL     OW17515   2.381   0.473  10.069 -0.5008  0.7260  0.2238
 1961SOL    HW117516   2.359   0.537  10.137 -1.9334 -0.3930  0.8160
 1961SOL    HW217517   2.445   0.531  10.027 -0.6056  0.6582 -0.0312
 1962SOL     OW17518   1.811   4.414   0.872 -0.4248  0.3356 -0.0089
 1962SOL    HW117519   1.784   4.491   0.821 -0.1502  0.2787 -0.2409
 1962SOL    HW217520   1.737   4.356   0.851 -0.4287 -0.0588  1.1235
 1963SOL     OW17521   0.684   0.256   7.525  0.0911 -0.3199 -0.5432
 1963SOL    HW117522   0.773   0.253   7.560  1.0026  1.3090 -2.7060
 1963SOL    HW217523   0.639   0.330   7.564 -1.9375 -1.6616 -0.3349
 1964SOL     OW17524   0.705   3.067   2.455 -0.1875 -0.0760  0.7344
 1964SOL    HW117525   0.780   3.126   2.461 -2.6198  2.9957  1.2416
 1964SOL    HW217526   0.688   3.052   2.548  0.9934  2.0412  1.2716
 1965SOL     OW17527   2.388   4.304   0.530 -0.6974  0.0708  0.1628
 1965SOL    HW117528   2.310   4.357   0.514 -0.0625  1.2362  0.9457
 1965SOL    HW217529   2.347   4.228   0.570 -2.0345  0.5820 -0.2285
 1966SOL     OW17530   1.167   2.416   8.139  0.6584 -0.6642  0.4017
 1966SOL    HW117531   1.206   2.345   8.087 -0.4072 -1.4595  0.6928
 1966SOL    HW217532   1.122   2.369   8.209  2.2785 -1.0445  1.2019
 1967SOL     OW17533   1.048   3.905   0.304  0.2180  0.5645 -0.2799
 1967SOL    HW117534   1.072   3.989   0.266 -1.3243  1.4630  0.7252
 1967SOL    HW217535   0.967   3.893   0.255 -0.5911 -0.2259  1.2155
 1968SOL     OW17536   3.543   1.540   0.433 -0.1435  0.1369  0.7119
 1968SOL    HW117537   3.502   1.511   0.514  1.4061 -2.8042  0.4596
 1968SOL    HW217538   3.530   1.634   0.442  0.3489  0.6410 -3.3813
 1969SOL     OW17539   0.213   4.651   6.516  0.0910  0.7771  0.1097
 1969SOL    HW117540   0.221   4.704   6.596  0.0976  0.3701  0.3817
 1969SOL    HW217541   0.295   4.673   6.473  0.4328  3.1338  1.9613
 1970SOL     OW17542   3.416   4.314   6.754  0.5634  0.4248  0.3886
 1970SOL    HW117543   3.486   4.334   6.816  0.5514 -1.5404  1.0342
 1970SOL    HW217544   3.337   4.336   6.804 -0.3361  3.3567 -2.3505
 1971SOL     OW17545   3.150   3.168  10.593  0.0427 -0.0469  0.6166
 1971SOL    HW117546   3.203   3.118  10.531  0.0435  2.6269 -1.5595
 1971SOL    HW217547   3.206   3.233  10.637 -0.2679  1.2794 -0.9402
 1972SOL     OW17548   4.385   0.548   9.118 -0.2782  0.6878  0.3115
 1972SOL    HW117549   4.480   0.557   9.119 -0.2158 -0.1263  1.2247
 1972SOL    HW217550   4.353   0.638   9.118 -1.2673  0.3376 -1.4529
 1973SOL     OW17551   1.754   3.980   7.584  0.1264 -0.4314  0.1354
 1973SOL    HW117552   1.716   3.906   7.536 -0.3660  0.2600 -0.5440
 1973SOL    HW217553   1.824   4.011   7.526  0.9228  0.6966  1.6829
 1974SOL     OW17554   0.600   3.946   2.304 -0.1833 -0.1246 -0.1701
 1974SOL    HW117555   0.584   4.034   2.272 -1.1077  0.0882  0.8750
 1974SOL    HW217556   0.677   3.962   2.359  0.2595 -0.6536 -0.6372
 1975SOL     OW17557   0.382   2.492   4.927  0.6136  0.5885 -0.0380
 1975SOL    HW117558   0.477   2.488   4.934  0.6083 -0.2859 -0.5033
 1975SOL    HW217559   0.363   2.582   4.901  0.2778  0.7303  0.6869
 1976SOL     OW17560   4.154   1.477   7.274  0.0286 -0.0501 -0.0377
 1976SOL    HW117561   4.199   1.505   7.195 -1.2260 -0.5020 -0.9043
 1976SOL    HW217562   4.078   1.532   7.293 -0.3944  0.1292 -2.3237
 1977SOL     OW17563   1.585   2.187  10.837 -0.3351  0.6295 -0.7047
 1977SOL    HW117564   1.522   2.196  10.908  0.6760 -1.2603  0.4361
 1977SOL    HW217565   1.527   2.156  10.768  2.0718  1.1231 -2.9313
 1978SOL     OW17566   3.080   1.421   4.839 -0.0861  0.4053 -0.1231
 1978SOL    HW117567   3.125   1.451   4.760  0.9009  1.0341  0.6684
 1978SOL    HW217568   3.141   1.360   4.879 -1.1059  1.0819  2.4909
 1979SOL     OW17569   0.931   0.028  10.966 -0.2220  0.3569 -0.8420
 1979SOL    HW117570   0.946   0.063  11.054  0.2304  2.3958 -1.7319
 1979SOL    HW217571   1.000   4.699  10.962 -1.9127 -1.5134  0.7448
 1980SOL     OW17572   3.222   2.225   3.109  0.0963 -0.6805  0.0086
 1980SOL    HW117573   3.175   2.187   3.183 -1.3833  2.5317  0.7233
 1980SOL    HW217574   3.204   2.316   3.133 -2.3962 -1.2793  0.3994
 1981SOL     OW17575   0.671   1.295   0.159  0.5508  0.1000  0.4767
 1981SOL    HW117576   0.629   1.222   0.114 -0.8344  0.0790  1.8029
 1981SOL    HW217577   0.650   1.276   0.251 -1.1523  0.2326  0.1011
 1982SOL     OW17578   1.254   1.280   3.557 -0.1044 -0.3149 -0.7054
 1982SOL    HW117579   1.344   1.259   3.582 -0.3600 -1.4953 -0.7733
 1982SOL    HW217580   1.225   1.201   3.513  0.6936 -0.6325 -0.6411
 1983SOL     OW17581   3.506   4.213  14.062 -0.1189  0.4850 -0.1713
 1983SOL    HW117582   3.544   4.128  14.084  1.3938  0.6865 -1.8896
 1983SOL    HW217583   3.520   4.259  14.144  0.4195  1.6565 -0.9142
 1984SOL     OW17584   2.256   0.478   2.467 -0.2582 -0.0200  0.4845
 1984SOL    HW117585   2.309   0.537   2.413 -0.1776 -0.1118  0.4618
 1984SOL    HW217586   2.265   0.391   2.427 -0.8078 -0.2311  0.8228
 1985SOL     OW17587   4.303   2.925  10.179  0.1324 -0.1030  0.2535
 1985SOL    HW117588   4.295   2.977  10.099 -1.0634 -0.8615 -0.1110
 1985SOL    HW217589   4.314   2.836  10.146 -1.0227 -0.5952  1.1771
 1986SOL     OW17590   1.194   0.110   4.672  0.0796  0.1893  0.0269
 1986SOL    HW117591   1.131   0.113   4.599  0.4440 -1.2843 -0.3475
 1986SOL    HW217592   1.136   0.102   4.748 -2.2196  2.3080 -1.4897
 1987SOL     OW17593   2.791   3.874  11.020 -0.0166 -0.2920 -0.2954
 1987SOL    HW117594   2.879   3.908  11.035 -0.3223 -0.0180  0.8660
 1987SOL    HW217595   2.778   3.825  11.102  1.7084  1.2076  0.8767
 1988SOL     OW17596   1.321   0.667   8.336  0.6395  0.3078 -0.0555
 1988SOL    HW117597   1.298   0.589   8.285 -0.9786  1.5478 -1.2277
 1988SOL    HW217598   1.240   0.716   8.320 -0.7247 -1.6496  0.7267
 1989SOL     OW17599   1.233   0.573   4.308  0.2968  0.6457 -0.1341
 1989SOL    HW117600   1.302   0.508   4.293 -0.9662 -0.5902 -0.6692
 1989SOL    HW217601   1.282   0.653   4.328 -2.4011  1.8328  1.7455
 1990SOL     OW17602   1.218   1.007   4.141 -0.0443 -0.0357  0.1364
 1990SOL    HW117603   1.149   1.044   4.086  0.8768  1.6558  0.1119
 1990SOL    HW217604   1.168   1.014   4.222 -0.6505  1.7087 -0.3801
 1991SOL     OW17605   0.299   2.211  12.717 -0.1920 -0.6925 -0.0983
 1991SOL    HW117606   0.299   2.242  12.808  0.3272 -2.2424  0.4339
 1991SOL    HW217607   0.277   2.121  12.742  0.3804 -0.4487  1.3222
 1992SOL     OW17608   0.987   1.772   5.154 -0.1809  0.1122  0.1933
 1992SOL    HW117609   0.935   1.708   5.202  0.3896 -0.5426 -0.0777
 1992SOL    HW217610   1.044   1.805   5.223 -1.0330  0.9646  0.5056
 1993SOL     OW17611   2.749   1.324  15.681  0.6165  0.4640 -0.2617
 1993SOL    HW117612   2.713   1.390  15.621 -1.9980  2.5167  3.5859
 1993SOL    HW217613   2.769   1.372  15.761 -1.7144  0.6135  0.2446
 1994SOL     OW17614   2.557   1.925   8.990  0.0394 -0.5205  0.0916
 1994SOL    HW117615   2.490   1.860   9.009 -0.8033  0.6187  1.0298
 1994SOL    HW217616   2.521   1.997   9.043  0.1403  0.5340 -1.2492
 1995SOL     OW17617   2.326   3.884   4.783  0.3294  0.9492  0.2403
 1995SOL    HW117618   2.339   3.837   4.700 -0.3906  1.2883 -0.0626
 1995SOL    HW217619   2.280   3.825   4.843  1.9297 -0.8281 -0.2944
 1996SOL     OW17620   3.638   0.066   5.716 -0.0378  0.4511 -0.0838
 1996SOL    HW117621   3.598   0.099   5.796  0.6486  0.0417  0.4232
 1996SOL    HW217622   3.727   0.064   5.752  0.8191  2.4322 -2.0387
 1997SOL     OW17623   1.589   3.457  16.557 -0.1736 -0.2440 -0.3960
 1997SOL    HW117624   1.537   3.475  16.636 -0.8689 -2.3861 -0.3742
 1997SOL    HW217625   1.520   3.454  16.490  0.8833  1.8597 -1.5829
 1998SOL     OW17626   2.455   0.101   5.883 -0.1585  0.0327  0.3896
 1998SOL    HW117627   2.446   0.196   5.882 -2.6806 -0.1513  3.5314
 1998SOL    HW217628   2.467   0.087   5.977  0.6644  0.3771  0.3296
 1999SOL     OW17629   0.469   1.208   2.322  0.1747 -0.5355  0.5217
 1999SOL    HW117630   0.560   1.238   2.320 -0.1181  0.4090  0.9907
 1999SOL    HW217631   0.472   1.152   2.245 -2.5861  0.7578 -0.5264
 2000SOL     OW17632   1.143   1.107   6.975 -0.2151  0.7937 -0.1066
 2000SOL    HW117633   1.099   1.039   7.027 -0.3798  1.4246  0.5703
 2000SOL    HW217634   1.233   1.078   6.988 -1.0515 -2.5017 -1.4599
 2001SOL     OW17635   0.692   0.394  12.611  0.6305 -0.1431  0.0340
 2001SOL    HW117636   0.765   0.334  12.597  0.5479  0.2857 -2.1719
 2001SOL    HW217637   0.709   0.437  12.695  0.8668  2.8233 -1.5603
 2002SOL     OW17638   2.968   1.373  14.457 -0.3556  0.0351 -0.3447
 2002SOL    HW117639   2.905   1.442  14.478 -2.5067 -1.6328 -1.2321
 2002SOL    HW217640   2.948   1.344  14.368  2.7346 -0.7444 -0.7696
 2003SOL     OW17641   2.802   4.220  16.734 -0.5074  0.8158 -0.3481
 2003SOL    HW117642   2.744   4.147  16.758  0.6132  0.2675  0.6520
 2003SOL    HW217643   2.742   4.271  16.679 -1.0648 -1.2102 -1.6235
 2004SOL     OW17644   3.388   3.064   7.716 -0.1541  0.0681 -0.2465
 2004SOL    HW117645   3.444   3.078   7.640 -1.6597 -1.7729 -1.6815
 2004SOL    HW217646   3.362   3.155   7.734  0.2264 -0.1043  1.1916
 2005SOL     OW17647   0.997   0.181   0.113 -0.0450  0.0179  0.2154
 2005SOL    HW117648   1.021   0.117   0.180 -0.5031  0.5866  0.9300
 2005SOL    HW217649   0.936   0.239   0.159 -3.3828 -2.0750 -1.5993
 2006SOL     OW17650   1.573   2.378   9.127  0.0499 -0.7305  0.4066
 2006SOL    HW117651   1.535   2.465   9.128 -0.7965 -1.0975  0.3326
 2006SOL    HW217652   1.512   2.342   9.192 -1.7126  0.0349 -0.8264
 2007SOL     OW17653   4.456   1.256   2.696 -0.1569  0.1084  0.2974
 2007SOL    HW117654   4.433   1.341   2.659  2.2483  0.8126  0.4590
 2007SOL    HW217655   4.517   1.229   2.627 -0.8289 -0.4645 -0.0742
 2008SOL     OW17656   3.971   0.992   8.139 -0.3577 -0.4559 -1.0486
 2008SOL    HW117657   3.982   1.031   8.052 -0.9794  1.1106 -0.4140
 2008SOL    HW217658   4.018   1.046   8.202 -3.3429 -0.2690  1.0122
 2009SOL     OW17659   1.884   0.226   8.092  0.1979  0.9159  0.5561
 2009SOL    HW117660   1.884   0.131   8.096 -1.1068  0.8830 -0.3193
 2009SOL    HW217661   1.827   0.238   8.016  1.8765 -2.4163 -1.1995
 2010SOL     OW17662   4.077   1.791   3.336 -0.1024  0.2480 -0.2768
 2010SOL    HW117663   4.109   1.814   3.249  0.8317  0.8055  0.2167
 2010SOL    HW217664   4.038   1.875   3.360  0.8641  0.6795 -0.2122
 2011SOL     OW17665   2.693   0.665   5.033 -0.6348 -0.0620  0.2372
 2011SOL    HW117666   2.783   0.652   5.003 -0.5753  4.1152 -1.3812
 2011SOL    HW217667   2.693   0.759   5.018 -1.3422 -0.1352 -0.1819
 2012SOL     OW17668   0.020   3.736   2.681 -0.2810  0.0035  0.4511
 2012SOL    HW117669   0.094   3.791   2.705  0.9961 -0.9652 -1.2823
 2012SOL    HW217670   0.058   3.668   2.625  0.5783  0.3769  0.5885
 2013SOL     OW17671   1.496   3.474   5.056 -0.4516  0.2005  0.3353
 2013SOL    HW117672   1.408   3.509   5.039 -1.3419 -2.0384  0.4105
 2013SOL    HW217673   1.470   3.404   5.116  0.8751 -0.6240 -0.0676
 2014SOL     OW17674   2.509   3.876   9.167  0.0841 -0.0733 -0.7306
 2014SOL    HW117675   2.431   3.832   9.200  0.5028  0.6236  1.2127
 2014SOL    HW217676   2.522   3.938   9.239  0.6285  1.3071 -2.0123
 2015SOL     OW17677   0.643   4.165   3.255 -0.2782 -0.0645 -0.1780
 2015SOL    HW117678   0.662   4.104   3.184  3.1523  0.6905  0.0774
 2015SOL    HW217679   0.700   4.149   3.331 -0.3758  1.5889  0.2534
 2016SOL     OW17680   3.542   0.797  10.478 -0.4144 -0.0464 -0.6783
 2016SOL    HW117681   3.504   0.710  10.480  1.5127 -0.9649 -3.3150
 2016SOL    HW217682   3.607   0.773  10.412  0.4888 -0.4827  0.3722
 2017SOL     OW17683   2.706   0.461  10.917 -0.2563  0.3166  0.1262
 2017SOL    HW117684   2.761   0.434  10.990  2.6051  1.4354 -1.6082
 2017SOL    HW217685   2.616   0.443  10.945  0.0132 -0.8409  0.2469
 2018SOL     OW17686   3.110   0.110   8.422 -0.2943  0.5172  0.1058
 2018SOL    HW117687   3.155   0.124   8.505  1.9830 -3.1382 -0.5005
 2018SOL    HW217688   3.039   0.051   8.446  0.5215 -0.0365  1.1677
 2019SOL     OW17689   2.524   4.550   7.135 -0.2533 -0.4090 -0.4944
 2019SOL    HW117690   2.581   4.626   7.118 -2.1846  1.3305  0.7193
 2019SOL    HW217691   2.531   4.505   7.051  1.7205 -1.1516  0.0715
 2020SOL     OW17692   3.355   0.939   9.519  0.1481 -0.1643 -0.2257
 2020SOL    HW117693   3.291   0.895   9.575 -1.6103  0.2766 -1.8809
 2020SOL    HW217694   3.418   0.868   9.502  1.9924  1.3001  0.4853
 2021SOL     OW17695   2.431   4.255   5.390 -0.2395 -0.2289 -0.3199
 2021SOL    HW117696   2.344   4.281   5.419 -0.2447  1.0641 -1.4587
 2021SOL    HW217697   2.487   4.315   5.439 -0.7609  1.0747 -1.3041
 2022SOL     OW17698   1.397   1.194   9.850 -0.1542  0.5867  0.1843
 2022SOL    HW117699   1.433   1.280   9.828 -0.9661  0.5935 -1.0771
 2022SOL    HW217700   1.304   1.211   9.859 -0.7854 -2.3169 -1.0751
 2023SOL     OW17701   0.154   2.687  13.983 -0.1046  0.2218  0.2821
 2023SOL    HW117702   0.220   2.752  14.007  2.4774 -2.1849 -0.2745
 2023SOL    HW217703   0.195   2.648  13.906  1.6872  0.6279  1.0240
 2024SOL     OW17704   0.263   3.417  15.734 -0.1279 -0.2719 -0.5945
 2024SOL    HW117705   0.190   3.395  15.675 -1.1263  1.7560 -0.1235
 2024SOL    HW217706   0.225   3.409  15.821  1.6024  0.0779  0.1870
 2025SOL     OW17707   3.014   1.559   6.639 -0.1801  0.0422 -0.1718
 2025SOL    HW117708   3.036   1.485   6.696 -1.7380 -0.8576 -0.7374
 2025SOL    HW217709   2.921   1.545   6.623 -0.2692  2.5332 -1.8012
 2026SOL     OW17710   3.165   3.145   1.369 -0.0663  0.2800  0.4276
 2026SOL    HW117711   3.257   3.171   1.376  0.7109 -2.6999  1.0678
 2026SOL    HW217712   3.125   3.164   1.454 -0.3531  2.9608 -0.2970
 2027SOL     OW17713   1.187   3.497   5.490 -0.3225 -0.4184  0.3055
 2027SOL    HW117714   1.236   3.562   5.441 -3.8459  3.1075  1.4973
 2027SOL    HW217715   1.137   3.444   5.427 -2.3133  3.3803 -1.2848
 2028SOL     OW17716   3.875   0.823   9.417 -0.0119  0.1779  0.0558
 2028SOL    HW117717   3.935   0.889   9.453  0.8556 -0.5561 -0.0497
 2028SOL    HW217718   3.912   0.798   9.332 -1.5858  1.0908 -0.8916
 2029SOL     OW17719   1.225   0.942  10.270 -0.6966 -0.3028  0.2670
 2029SOL    HW117720   1.238   0.978  10.358 -1.0981  0.3963  0.0363
 2029SOL    HW217721   1.316   0.922  10.247 -1.0479 -0.5793 -0.8756
 2030SOL     OW17722   2.538   2.501   7.906 -0.0963 -0.2149  0.3413
 2030SOL    HW117723   2.501   2.579   7.948 -0.1184 -1.1349  2.0394
 2030SOL    HW217724   2.479   2.435   7.944 -1.7622 -0.1424 -2.1120
 2031SOL     OW17725   2.889   3.315   6.338  0.5735 -0.5780 -0.3812
 2031SOL    HW117726   2.818   3.377   6.324 -1.0905 -2.7481 -1.5053
 2031SOL    HW217727   2.866   3.255   6.408 -0.7610 -0.7660 -0.9770
 2032SOL     OW17728   3.207   3.928   5.144  0.2681 -0.0120  0.3667
 2032SOL    HW117729   3.170   4.012   5.171  0.7305  0.0550  0.7926
 2032SOL    HW217730   3.292   3.958   5.112  0.4559  1.0995  1.9039
 2033SOL     OW17731   3.254   0.997  12.762 -0.5696 -0.0803  0.1254
 2033SOL    HW117732   3.257   0.918  12.816 -1.1687 -0.7532 -0.8414
 2033SOL    HW217733   3.190   1.048  12.811 -0.0299 -0.2729  1.0439
 2034SOL     OW17734   4.293   4.258   2.902 -0.0057  0.5867 -0.2786
 2034SOL    HW117735   4.231   4.327   2.881 -1.3204 -0.6679 -0.4569
 2034SOL    HW217736   4.367   4.313   2.930  0.9297 -0.0604 -1.4974
 2035SOL     OW17737   1.024   4.028  14.402  0.2316  0.2135  0.0542
 2035SOL    HW117738   1.067   4.107  14.369 -0.2138  0.1666 -0.6355
 2035SOL    HW217739   0.950   4.070  14.444  0.0414  0.7984 -0.8728
 2036SOL     OW17740   3.749   0.883   2.100  0.3574 -0.7511 -0.6222
 2036SOL    HW117741   3.698   0.808   2.071 -0.5893  0.0330 -1.0079
 2036SOL    HW217742   3.699   0.916   2.175  2.0827  0.5903 -0.0742
 2037SOL     OW17743   4.163   0.104   6.948  0.3210 -0.4916  0.2653
 2037SOL    HW117744   4.128   0.078   6.863  0.1084 -2.9148  1.0737
 2037SOL    HW217745   4.206   0.022   6.973  1.8668  0.8177  1.9391
 2038SOL     OW17746   1.718   2.150   4.103 -0.2921 -0.0165 -0.0265
 2038SOL    HW117747   1.633   2.152   4.145  0.6315  0.2107  1.8158
 2038SOL    HW217748   1.772   2.217   4.146 -0.8483  1.1209 -1.0965
 2039SOL     OW17749   2.711   0.191   2.756  0.0595  0.2822  0.5107
 2039SOL    HW117750   2.774   0.126   2.788 -2.5601 -2.5431 -0.0807
 2039SOL    HW217751   2.740   0.258   2.817  0.7839 -0.8803  1.4582
 2040SOL     OW17752   1.449   0.163  11.202  0.6106  0.1967 -0.2621
 2040SOL    HW117753   1.541   0.175  11.177  0.4873 -1.9518 -1.7762
 2040SOL    HW217754   1.440   0.232  11.268 -0.0589 -0.3829  0.2455
 2041SOL     OW17755   0.356   0.820  17.533 -0.5004 -0.4469 -0.5423
 2041SOL    HW117756   0.333   0.900  17.580  1.4985 -0.4722  0.4700
 2041SOL    HW217757   0.309   0.746  17.571  0.3398  0.2596  1.8937
 2042SOL     OW17758   3.678   3.542   2.915 -0.2676 -0.0964  0.0280
 2042SOL    HW117759   3.638   3.457   2.900 -1.2039  0.5030 -0.8240
 2042SOL    HW217760   3.602   3.593   2.945 -1.0429 -0.7707 -0.7993
 2043SOL     OW17761   0.003   3.551   0.054  0.2982  0.4028 -0.0958
 2043SOL    HW117762   0.039   3.471   0.092  2.2078  1.2491 -0.1128
 2043SOL    HW217763   4.711   3.586   0.139 -0.1239 -0.2636  0.0364
 2044SOL     OW17764   2.299   2.202   6.492 -0.3926  0.3456 -0.1927
 2044SOL    HW117765   2.265   2.252   6.418  1.1888 -0.9474 -1.8073
 2044SOL    HW217766   2.353   2.273   6.527  0.3114 -0.5175  0.4726
 2045SOL     OW17767   3.262   3.690   6.874  0.1480 -0.5456  0.3131
 2045SOL    HW117768   3.187   3.640   6.905 -0.3105  0.4680  0.8449
 2045SOL    HW217769   3.271   3.640   6.792  2.9056 -1.0438  0.9339
 2046SOL     OW17770   1.698   0.317   2.404 -0.1322 -0.6368  0.1221
 2046SOL    HW117771   1.610   0.344   2.429  0.8522  2.0666  0.7080
 2046SOL    HW217772   1.749   0.398   2.401 -0.0210 -0.6790  1.1058
 2047SOL     OW17773   1.359   2.822  13.764 -0.2769 -0.2584 -0.4920
 2047SOL    HW117774   1.420   2.777  13.705  0.1202  0.1392 -0.3925
 2047SOL    HW217775   1.372   2.760  13.835 -1.1514 -2.6879 -2.4732
 2048SOL     OW17776   2.723   2.017   8.807  0.2738  0.0906  0.2608
 2048SOL    HW117777   2.653   2.034   8.744  0.6700  0.5788 -0.0416
 2048SOL    HW217778   2.672   1.982   8.880 -0.7966  3.9191  1.3133
 2049SOL     OW17779   2.785   2.765  12.062  0.5135  0.1331  0.3209
 2049SOL    HW117780   2.796   2.825  12.136 -1.3305  0.2776  0.4635
 2049SOL    HW217781   2.844   2.695  12.090 -1.2455 -2.0061 -1.3840
 2050SOL     OW17782   1.444   0.782  10.253 -0.4385  0.5011 -0.2509
 2050SOL    HW117783   1.403   0.771  10.166  0.8814  1.3450 -0.9764
 2050SOL    HW217784   1.483   0.697  10.274  0.7126  0.7481 -1.3783
 2051SOL     OW17785   3.042   2.047   6.662 -0.0403 -0.2857 -0.3917
 2051SOL    HW117786   3.127   2.077   6.696 -0.0809 -2.7242  1.8712
 2051SOL    HW217787   3.024   2.108   6.591 -1.5855  0.5115  0.6934
 2052SOL     OW17788   4.074   4.131   0.162 -0.1955 -0.3429 -0.4289
 2052SOL    HW117789   3.985   4.135   0.198 -0.8682 -0.2925 -2.0767
 2052SOL    HW217790   4.097   4.224   0.164  1.6798 -0.8686  1.3635
 2053SOL     OW17791   4.501   4.311   1.923  0.2006  0.0864 -0.0156
 2053SOL    HW117792   4.579   4.286   1.873  0.4291 -0.8516  0.8001
 2053SOL    HW217793   4.469   4.381   1.867  1.5352  0.7294  0.0158
 2054SOL     OW17794   0.270   2.533   8.385  0.0988  0.0912  0.1740
 2054SOL    HW117795   0.195   2.547   8.328  0.7432  3.7331  0.2573
 2054SOL    HW217796   0.234   2.521   8.473  1.5139  1.3247  0.9283
 2055SOL     OW17797   2.768   3.250   7.310  0.4519 -0.2252  0.4158
 2055SOL    HW117798   2.743   3.207   7.228  0.4577  1.9073 -0.6973
 2055SOL    HW217799   2.739   3.185   7.375 -0.3261  0.5534  0.8416
 2056SOL     OW17800   2.349   1.230   8.928  0.5125 -0.5809  0.0822
 2056SOL    HW117801   2.316   1.315   8.956 -0.9463 -1.6147  1.4545
 2056SOL    HW217802   2.334   1.238   8.833 -1.4957 -0.5500  0.4057
 2057SOL     OW17803   2.330   0.697  15.415  0.7865  0.2922 -0.5984
 2057SOL    HW117804   2.403   0.695  15.477  0.4241  0.2694 -0.1788
 2057SOL    HW217805   2.293   0.782  15.441  1.3889  0.6308 -0.8294
 2058SOL     OW17806   3.023   2.179  17.154  0.1337  0.2909  0.0751
 2058SOL    HW117807   2.980   2.126  17.087 -0.2188  0.8503 -0.1463
 2058SOL    HW217808   3.041   2.111  17.219  1.6613 -0.3683 -1.0365
 2059SOL     OW17809   1.174   2.888   4.006 -0.2399 -0.1431 -0.4720
 2059SOL    HW117810   1.212   2.914   4.089  0.8866  0.5871 -1.2124
 2059SOL    HW217811   1.227   2.810   3.986 -2.8002 -2.2351  0.8447
 2060SOL     OW17812   2.410   4.623   7.356 -0.1366  0.2536  0.3456
 2060SOL    HW117813   2.386   4.534   7.330  0.3797  0.4624 -0.8490
 2060SOL    HW217814   2.451   4.649   7.273 -0.3426  1.4189  0.6022
 2061SOL     OW17815   1.411   1.738   9.314  1.1063 -0.7929 -0.2104
 2061SOL    HW117816   1.450   1.780   9.390 -0.8433  3.1522 -1.3716
 2061SOL    HW217817   1.356   1.812   9.287  1.3954 -0.7568 -0.7149
 2062SOL     OW17818   0.528   4.221   4.536 -0.0129  0.8052 -0.0367
 2062SOL    HW117819   0.519   4.159   4.608 -1.9295 -1.7159 -2.4558
 2062SOL    HW217820   0.487   4.178   4.461  0.0448 -0.7353  0.8192
 2063SOL     OW17821   0.915   1.183   5.471  0.3285 -0.0501  0.2960
 2063SOL    HW117822   0.957   1.113   5.420  0.4578 -0.0646  0.4239
 2063SOL    HW217823   0.907   1.255   5.409  2.8561  0.3974  0.4678
 2064SOL     OW17824   0.996   1.099   1.152 -0.4509 -0.1595  0.2057
 2064SOL    HW117825   0.932   1.028   1.159 -0.8828 -0.0194 -2.4284
 2064SOL    HW217826   0.951   1.177   1.183 -2.6713 -1.1478 -0.5806
 2065SOL     OW17827   0.913   1.797   0.123  0.0132 -0.0971 -0.9563
 2065SOL    HW117828   0.890   1.720   0.175 -1.8639  3.1106  2.9266
 2065SOL    HW217829   0.988   1.836   0.169 -0.1904 -1.5557  0.5873
 2066SOL     OW17830   2.684   0.939  17.374  0.0661 -0.1613 -0.3050
 2066SOL    HW117831   2.619   0.989  17.424  0.9702 -1.2413  1.9321
 2066SOL    HW217832   2.760   0.936  17.431 -0.1625  0.3719  0.0249
 2067SOL     OW17833   4.047   3.669   5.831 -0.3881  0.1372  0.2087
 2067SOL    HW117834   3.966   3.714   5.807  0.9974  1.7312 -1.4677
 2067SOL    HW217835   4.102   3.745   5.850  0.9794 -0.5471 -1.1005
 2068SOL     OW17836   2.560   0.548   6.394  0.2782 -0.2115  0.3504
 2068SOL    HW117837   2.561   0.505   6.309  0.8927 -1.0927  0.7954
 2068SOL    HW217838   2.594   0.481   6.455  1.8543 -0.8237 -1.1866
 2069SOL     OW17839   0.992   1.510   1.485  0.1398  0.1434  0.0978
 2069SOL    HW117840   1.080   1.546   1.475 -0.5518  1.6175 -0.6610
 2069SOL    HW217841   0.934   1.585   1.499  0.0373  0.1038 -0.1220
 2070SOL     OW17842   1.434   4.035   6.684  0.4532  0.1824  0.7480
 2070SOL    HW117843   1.428   4.102   6.617 -0.3015 -1.5252 -0.8926
 2070SOL    HW217844   1.383   3.964   6.645  1.0029 -0.3650  1.0394
 2071SOL     OW17845   3.203   0.764   7.210  0.6776 -0.1389  0.1826
 2071SOL    HW117846   3.225   0.734   7.298  0.2627 -1.7626 -0.2639
 2071SOL    HW217847   3.222   0.686   7.158 -1.5634 -2.0242  2.1986
 2072SOL     OW17848   1.440   3.345   6.527  0.0834 -0.5135 -0.2207
 2072SOL    HW117849   1.492   3.315   6.602  1.7133  0.5427 -0.9370
 2072SOL    HW217850   1.503   3.358   6.455  0.1917 -0.4855 -0.1213
 2073SOL     OW17851   2.800   4.087   5.745 -0.1072 -0.1120 -0.1728
 2073SOL    HW117852   2.868   4.144   5.709  0.4168 -0.3284  0.4918
 2073SOL    HW217853   2.776   4.032   5.670  1.2224  0.3040 -0.9080
 2074SOL     OW17854   3.613   4.163   4.046 -0.2436  0.0435 -0.4588
 2074SOL    HW117855   3.664   4.243   4.035  0.7438 -0.6963 -1.3226
 2074SOL    HW217856   3.539   4.176   3.988 -0.9109  0.7614  0.5521
 2075SOL     OW17857   4.726   1.656   8.340  1.4208 -0.3074  0.2627
 2075SOL    HW117858   0.083   1.663   8.358  1.5096 -0.6106 -0.0700
 2075SOL    HW217859   4.730   1.594   8.267 -0.8089 -0.4187  0.2295
 2076SOL     OW17860   0.154   0.444  12.878 -0.5269 -0.4507 -0.3646
 2076SOL    HW117861   0.163   0.463  12.972 -1.9145 -1.9106  0.0601
 2076SOL    HW217862   0.059   0.452  12.866 -0.3975  1.2180 -0.3534
 2077SOL     OW17863   1.974   0.913   2.356  0.0779 -0.0264  0.0239
 2077SOL    HW117864   1.887   0.877   2.336 -0.8020  1.9022  0.3152
 2077SOL    HW217865   2.014   0.910   2.269 -0.7523  1.5868 -0.4351
 2078SOL     OW17866   2.914   2.178   4.327  0.0523 -1.0160 -0.4731
 2078SOL    HW117867   2.870   2.152   4.408 -2.1104  1.3331 -0.8991
 2078SOL    HW217868   2.943   2.262   4.362 -0.6716 -1.5013  1.3118
 2079SOL     OW17869   3.094   3.622   2.160  0.1823 -0.0838 -0.1847
 2079SOL    HW117870   3.180   3.625   2.202 -0.1454 -1.5404  0.5987
 2079SOL    HW217871   3.123   3.650   2.073 -2.0784  1.2445 -0.4969
 2080SOL     OW17872   0.325   1.823   9.388  0.3153  0.3202  0.3141
 2080SOL    HW117873   0.282   1.881   9.325  0.4020  0.3008  0.2385
 2080SOL    HW217874   0.402   1.795   9.339  0.3117 -2.6221  1.9969
 2081SOL     OW17875   4.461   3.259   7.490 -0.2901  0.2971  0.1568
 2081SOL    HW117876   4.406   3.181   7.485  1.8998 -1.1090 -2.0756
 2081SOL    HW217877   4.443   3.292   7.578 -0.6154 -2.0698  0.9581
 2082SOL     OW17878   0.586   4.697   3.608  0.8066  0.1708 -0.2661
 2082SOL    HW117879   0.526   0.033   3.595 -0.2811 -0.6885 -0.0346
 2082SOL    HW217880   0.527   4.622   3.604  0.8516  0.1008  0.4070
 2083SOL     OW17881   4.619   3.971   7.065 -0.1105  0.1071  0.7000
 2083SOL    HW117882   4.615   3.910   6.992  1.1569  0.6703  0.1704
 2083SOL    HW217883   4.575   3.918   7.132  2.0075 -1.9657  0.4671
 2084SOL     OW17884   1.254   3.493   3.181  0.0819  0.0918  0.4304
 2084SOL    HW117885   1.227   3.582   3.158  2.8437  0.6789 -0.6110
 2084SOL    HW217886   1.299   3.454   3.106 -0.6761  0.3245 -0.1428
 2085SOL     OW17887   0.047   3.089  16.109 -0.1015  0.1875  0.0503
 2085SOL    HW117888   0.088   3.039  16.038 -0.3212 -0.6280  0.4956
 2085SOL    HW217889   4.732   3.161  16.073 -0.5247 -1.1496 -2.0828
 2086SOL     OW17890   0.801   2.805   8.671 -0.2945 -0.3344 -0.3466
 2086SOL    HW117891   0.708   2.798   8.692 -0.1963 -2.1813 -0.4470
 2086SOL    HW217892   0.832   2.739   8.733 -0.5852 -0.0502  0.0952
 2087SOL     OW17893   2.533   2.779   4.253  0.2855  0.6249 -0.5144
 2087SOL    HW117894   2.461   2.793   4.192  1.7592  1.4690 -2.0493
 2087SOL    HW217895   2.497   2.717   4.316 -3.0153  3.9747  0.8958
 2088SOL     OW17896   2.108   4.520  16.790 -0.7672  0.3737 -0.1211
 2088SOL    HW117897   2.159   4.466  16.729 -0.0152  1.4760 -0.4604
 2088SOL    HW217898   2.179   4.525  16.854 -0.1565 -1.3848 -0.6730
 2089SOL     OW17899   1.833   4.314   4.137 -0.3693 -0.0960  0.0067
 2089SOL    HW117900   1.748   4.281   4.167  1.6364 -2.6117  2.9433
 2089SOL    HW217901   1.819   4.311   4.043  1.4050  3.0710 -0.3680
 2090SOL     OW17902   2.454   1.045   6.347  0.1911 -0.2033 -0.2552
 2090SOL    HW117903   2.537   1.001   6.370 -0.2653 -1.1000 -0.3016
 2090SOL    HW217904   2.464   1.123   6.401  3.1940 -0.5417 -0.2983
 2091SOL     OW17905   2.725   0.459   2.006 -0.2213 -0.2487  0.1338
 2091SOL    HW117906   2.702   0.372   1.973 -4.0758  0.2636  1.4992
 2091SOL    HW217907   2.797   0.439   2.066  0.5982  1.3784 -0.3192
 2092SOL     OW17908   0.023   1.231   2.370 -0.4550 -0.1962 -0.5663
 2092SOL    HW117909   0.008   1.187   2.453  0.2639  0.3414 -0.1588
 2092SOL    HW217910   0.104   1.280   2.383  0.4364 -1.4503 -1.3954
 2093SOL     OW17911   1.096   0.775   3.804 -0.0312 -0.3745  0.5980
 2093SOL    HW117912   1.018   0.799   3.853 -0.7880 -1.4671 -0.0549
 2093SOL    HW217913   1.097   0.845   3.739 -0.5190  1.7449  2.8767
 2094SOL     OW17914   2.951   4.299   8.582 -0.3900  0.3684  0.3555
 2094SOL    HW117915   2.857   4.280   8.584 -0.1450 -0.8633  0.2571
 2094SOL    HW217916   2.978   4.207   8.587 -0.9476  0.2475  1.1847
 2095SOL     OW17917   3.319   0.515  11.861 -0.1006  0.2947  0.4305
 2095SOL    HW117918   3.293   0.526  11.953  1.0077 -1.5672  0.9568
 2095SOL    HW217919   3.236   0.482  11.826 -0.1765  0.6200  0.3082
 2096SOL     OW17920   1.010   2.180  13.783 -0.0835  0.2803  0.3271
 2096SOL    HW117921   1.048   2.259  13.745 -0.3104 -0.2320 -0.9359
 2096SOL    HW217922   1.068   2.161  13.857  0.3801  0.5825  0.0441
 2097SOL     OW17923   1.720   1.417   8.433  0.0289  0.4935 -0.0511
 2097SOL    HW117924   1.652   1.472   8.472 -1.3250  0.2801 -2.0745
 2097SOL    HW217925   1.701   1.329   8.465 -0.9155  0.9061  0.5046
 2098SOL     OW17926   0.021   4.610  17.399  0.2853  0.0044  0.5727
 2098SOL    HW117927   0.072   4.530  17.386 -1.6730 -1.1406 -0.2602
 2098SOL    HW217928   4.666   4.587  17.380  0.7082  0.6419 -2.2465
 2099SOL     OW17929   1.827   1.620  15.293 -0.5166 -0.1019  0.1356
 2099SOL    HW117930   1.786   1.621  15.206 -1.9892 -1.4172  0.7921
 2099SOL    HW217931   1.882   1.542  15.295 -0.8755 -0.3542  0.3022
 2100SOL     OW17932   2.144   2.755   3.881 -0.5255 -0.4522  0.1469
 2100SOL    HW117933   2.122   2.783   3.792 -0.0113  0.0504  0.1794
 2100SOL    HW217934   2.060   2.781   3.919 -0.4639  1.5164 -1.0303
 2101SOL     OW17935   3.133   4.130  10.849 -0.1378  0.3334  0.4994
 2101SOL    HW117936   3.098   4.071  10.916 -0.8366  1.0682  0.7954
 2101SOL    HW217937   3.150   4.076  10.773  0.6716  1.3625 -0.0458
 2102SOL     OW17938   1.127   4.663  10.208 -0.3142  0.3040  0.0148
 2102SOL    HW117939   1.093   0.014  10.223 -0.7247  0.0817  0.3627
 2102SOL    HW217940   1.172   4.632  10.287 -0.0611  0.3061 -0.1257
 2103SOL     OW17941   3.132   3.001   8.704  0.0058  0.1122  0.0125
 2103SOL    HW117942   3.151   3.049   8.784  1.7039 -1.4254  0.5161
 2103SOL    HW217943   3.201   2.935   8.698  1.8332  1.7789  2.9290
 2104SOL     OW17944   3.354   2.663   4.515  0.5513  0.4450  0.2432
 2104SOL    HW117945   3.431   2.610   4.498  1.7325  1.8652  1.1937
 2104SOL    HW217946   3.303   2.604   4.571 -0.2039 -0.8352 -1.8001
 2105SOL     OW17947   1.761   0.714   6.382 -0.3931  0.2838 -0.0459
 2105SOL    HW117948   1.857   0.712   6.372 -0.1898  1.3480  1.7170
 2105SOL    HW217949   1.757   0.679   6.471  1.2666 -0.4380 -0.2497
 2106SOL     OW17950   3.442   0.381   4.090 -0.3837 -0.0761 -0.0479
 2106SOL    HW117951   3.503   0.419   4.153 -0.8719 -1.4958  1.2826
 2106SOL    HW217952   3.380   0.454   4.090  0.2779  0.4846  0.7962
 2107SOL     OW17953   1.375   4.385  13.747 -0.3532  0.2936  0.1939
 2107SOL    HW117954   1.333   4.383  13.833 -1.4732  0.1837 -0.3674
 2107SOL    HW217955   1.375   4.295  13.713 -0.3446  0.9088 -1.3967
 2108SOL     OW17956   2.851   2.544   6.241  0.4538  0.0232  0.5256
 2108SOL    HW117957   2.911   2.476   6.270 -1.2315 -1.2862  0.9303
 2108SOL    HW217958   2.865   2.622   6.295 -1.4004 -0.6312  1.9408
 2109SOL     OW17959   0.862   2.315  13.367 -0.4359  0.0148 -0.3862
 2109SOL    HW117960   0.866   2.226  13.332  2.6692 -0.8356  2.1539
 2109SOL    HW217961   0.866   2.297  13.461  0.5167  1.7084 -0.1131
 2110SOL     OW17962   3.066   1.118   1.522 -0.3344 -0.2835  0.2580
 2110SOL    HW117963   3.112   1.102   1.605 -4.0554 -0.8280  2.2055
 2110SOL    HW217964   2.983   1.147   1.560 -1.4109 -1.4582 -1.1691
 2111SOL     OW17965   2.533   0.531  17.403  0.2636 -0.6274  0.3394
 2111SOL    HW117966   2.444   0.531  17.368  0.6162 -0.2435 -0.5465
 2111SOL    HW217967   2.537   0.461  17.468  0.6887 -0.6336  0.3057
 2112SOL     OW17968   0.533   3.329   1.511 -0.5245 -0.0258  0.1367
 2112SOL    HW117969   0.469   3.276   1.463  0.8892 -2.0220  0.4571
 2112SOL    HW217970   0.601   3.263   1.523 -1.0187 -0.7839 -1.1721
 2113SOL     OW17971   3.864   2.755   9.091  0.0441 -0.2025  0.2889
 2113SOL    HW117972   3.794   2.728   9.150  1.4717  0.6330  2.3480
 2113SOL    HW217973   3.922   2.678   9.085  0.2909 -0.0756  1.1273
 2114SOL     OW17974   2.419   3.438   6.386  0.2524  0.4162 -0.4005
 2114SOL    HW117975   2.434   3.351   6.351 -1.0631  1.0038 -2.4282
 2114SOL    HW217976   2.341   3.422   6.439  0.2920 -0.4895 -0.6134
 2115SOL     OW17977   3.484   2.971   3.609 -0.1957 -0.8317  0.0627
 2115SOL    HW117978   3.407   3.007   3.564  0.3089 -0.0337 -0.1686
 2115SOL    HW217979   3.470   2.877   3.602  1.1320 -0.9572 -0.9295
 2116SOL     OW17980   2.467   1.049  10.542 -0.1504  0.0228  0.1217
 2116SOL    HW117981   2.543   1.079  10.592 -1.3980  1.4041  1.2024
 2116SOL    HW217982   2.484   1.072  10.450 -2.1145  0.6437 -0.0890
 2117SOL     OW17983   1.578   3.681   1.899  0.0914  0.2148 -0.3441
 2117SOL    HW117984   1.547   3.623   1.969 -0.7501  1.3604  0.2212
 2117SOL    HW217985   1.624   3.750   1.946 -0.8195  0.3200  0.3952
 2118SOL     OW17986   0.898   0.182   5.423  0.0047 -0.6253 -0.7294
 2118SOL    HW117987   0.872   0.264   5.381 -1.8048 -1.4560 -1.2137
 2118SOL    HW217988   0.812   0.160   5.459  0.1082  1.6713  0.9780
 2119SOL     OW17989   0.627   0.851   6.666 -0.1128  0.1109 -0.7729
 2119SOL    HW117990   0.613   0.912   6.738 -0.7565 -0.4834 -0.3847
 2119SOL    HW217991   0.627   0.910   6.591  1.1349  1.5371  0.3455
 2120SOL     OW17992   3.702   0.457   4.995  0.2203  0.1979  0.4463
 2120SOL    HW117993   3.656   0.421   4.919  1.0694  1.4213 -0.6344
 2120SOL    HW217994   3.756   0.384   5.025  0.3269  0.4777  0.9334
 2121SOL     OW17995   3.418   3.698   0.942 -0.4065  0.9777  0.1407
 2121SOL    HW117996   3.400   3.677   1.033  0.8045 -1.1779 -0.1163
 2121SOL    HW217997   3.328   3.685   0.911 -0.7221  2.4077  0.4318
 2122SOL     OW17998   0.141   2.786   5.139 -0.0097  0.1389  0.2207
 2122SOL    HW117999   0.201   2.835   5.195 -1.4960  0.8652  1.1865
 2122SOL    HW218000   0.081   2.747   5.202 -0.0725 -0.7117 -0.3753
 2123SOL     OW18001   3.450   2.447  12.743  0.4007  0.5478  0.6457
 2123SOL    HW118002   3.388   2.377  12.724  2.5951 -0.4970 -2.5280
 2123SOL    HW218003   3.525   2.419  12.690 -0.4418 -0.4910  0.0217
 2124SOL     OW18004   0.363   4.688   2.944 -0.0769  0.3858 -0.5494
 2124SOL    HW118005   0.268   4.691   2.956 -0.1962 -0.6406 -1.3104
 2124SOL    HW218006   0.379   0.021   3.008 -1.1050 -0.8675  1.0613
 2125SOL     OW18007   2.880   3.084   5.251  0.0644  0.6013  0.0942
 2125SOL    HW118008   2.931   3.164   5.235  0.4710  0.0499 -1.3987
 2125SOL    HW218009   2.860   3.062   5.160 -1.2533  2.7360 -0.1393
 2126SOL     OW18010   0.226   3.051   5.312  0.3104  0.6652 -0.5881
 2126SOL    HW118011   0.261   3.082   5.229  1.0289  0.1196 -0.4984
 2126SOL    HW218012   0.163   3.119   5.334  0.7663  0.5891  1.0127
 2127SOL     OW18013   3.642   4.597   2.395 -0.5439  0.2185  0.2074
 2127SOL    HW118014   3.557   4.620   2.431 -1.6477  0.2795 -2.4642
 2127SOL    HW218015   3.671   4.523   2.449 -0.4311  0.1292  0.0255
 2128SOL     OW18016   0.585   4.514  14.632 -0.3805 -0.1128  0.0882
 2128SOL    HW118017   0.508   4.540  14.582  0.2381  4.2339  1.4267
 2128SOL    HW218018   0.565   4.561  14.713 -0.5217  0.6929 -0.4104
 2129SOL     OW18019   3.690   3.490   4.821 -0.0037  0.2025 -0.7459
 2129SOL    HW118020   3.649   3.435   4.888 -1.6314  0.4158 -1.5484
 2129SOL    HW218021   3.694   3.574   4.865  0.8513 -0.2898  0.1035
 2130SOL     OW18022   3.974   2.049  17.567 -0.1032  0.2974 -0.1279
 2130SOL    HW118023   3.927   2.020  17.645  0.7945  1.1668  0.7362
 2130SOL    HW218024   3.901   2.039  17.506 -0.7510  0.8018  0.5581
 2131SOL     OW18025   2.653   3.058   5.027 -0.1193 -0.0765  0.4488
 2131SOL    HW118026   2.687   3.017   4.948 -3.8445  0.4379 -1.4443
 2131SOL    HW218027   2.567   3.016   5.022  0.1222 -0.5742  0.4743
 2132SOL     OW18028   3.505   3.253  10.480 -0.5032 -0.0899 -0.5810
 2132SOL    HW118029   3.410   3.264  10.474 -0.6098 -1.1582 -0.8596
 2132SOL    HW218030   3.521   3.209  10.563  1.8649  1.1998 -0.3500
 2133SOL     OW18031   4.178   3.256  10.185 -0.0247 -0.3085  0.2460
 2133SOL    HW118032   4.139   3.246  10.272  0.2792 -1.0902  0.2918
 2133SOL    HW218033   4.106   3.234  10.126 -0.2755  1.9060 -0.2782
 2134SOL     OW18034   3.651   4.445   1.919  0.0175 -0.0085  0.1737
 2134SOL    HW118035   3.600   4.424   1.841  1.1885  1.0568 -0.8768
 2134SOL    HW218036   3.633   4.535   1.946  0.7019 -0.1434  1.0966
 2135SOL     OW18037   1.857   1.083   4.384 -0.3262  0.7226 -0.0343
 2135SOL    HW118038   1.948   1.083   4.356 -0.1618 -0.3690  0.5049
 2135SOL    HW218039   1.813   1.068   4.300  0.2341  0.5494 -0.2940
 2136SOL     OW18040   1.498   0.405   3.997  0.3404 -0.2037 -0.4642
 2136SOL    HW118041   1.516   0.421   4.089 -0.0516  0.6466 -0.5350
 2136SOL    HW218042   1.569   0.455   3.957  1.9021 -2.1070 -0.0750
 2137SOL     OW18043   1.035   0.430  16.330 -0.8064  0.1314  0.2513
 2137SOL    HW118044   1.115   0.391  16.295 -0.7705  0.2808  0.1656
 2137SOL    HW218045   0.966   0.369  16.305 -0.0272 -0.5616 -0.1898
 2138SOL     OW18046   1.102   0.745   6.822 -0.0624 -0.3200 -0.6360
 2138SOL    HW118047   1.087   0.773   6.732  0.3478  0.8323 -0.3484
 2138SOL    HW218048   1.042   0.802   6.871  1.5704  0.6293  0.2629
 2139SOL     OW18049   3.457   0.134  13.930  0.0388 -0.4762  0.1993
 2139SOL    HW118050   3.484   0.225  13.916 -2.7398  0.2825 -0.3152
 2139SOL    HW218051   3.485   0.124  14.021 -4.3871  0.6877  1.6897
 2140SOL     OW18052   1.954   3.677   7.515  0.5742  0.1894  0.4765
 2140SOL    HW118053   2.013   3.603   7.503  0.2967  0.3771 -2.2836
 2140SOL    HW218054   1.986   3.735   7.445 -0.8825  0.3929 -0.0213
 2141SOL     OW18055   2.991   2.194   7.385 -0.3357 -0.5835  0.5447
 2141SOL    HW118056   2.927   2.172   7.453  1.2615  0.3991  2.3446
 2141SOL    HW218057   2.933   2.216   7.312  1.5173  0.1860 -0.6783
 2142SOL     OW18058   4.243   4.084   7.760 -0.2660 -0.5340  0.5250
 2142SOL    HW118059   4.312   4.136   7.801 -0.6106 -0.9040  1.5733
 2142SOL    HW218060   4.220   4.143   7.688  1.7967  1.2972  1.3805
 2143SOL     OW18061   2.750   4.622  14.573 -0.0207 -0.1350  0.0483
 2143SOL    HW118062   2.669   4.670  14.554 -0.5610 -0.7478  0.8325
 2143SOL    HW218063   2.743   4.553  14.507 -2.5239  1.5678 -1.5100
 2144SOL     OW18064   0.655   3.421   5.176  0.5522  0.7160 -0.2788
 2144SOL    HW118065   0.688   3.381   5.257 -0.6152 -1.0595 -0.6709
 2144SOL    HW218066   0.732   3.413   5.120  0.9363 -2.3010  0.6582
 2145SOL     OW18067   3.960   2.574   6.815  0.1797 -0.3847 -0.4698
 2145SOL    HW118068   4.034   2.519   6.841 -0.7026 -1.7187 -0.7942
 2145SOL    HW218069   3.907   2.585   6.894  0.2345  1.6826 -0.7069
 2146SOL     OW18070   0.619   2.210   9.146  0.0501 -0.5670  0.1928
 2146SOL    HW118071   0.647   2.257   9.068  0.3716  0.4768  0.9334
 2146SOL    HW218072   0.654   2.124   9.124  0.6961  0.3779 -2.4135
 2147SOL     OW18073   0.003   2.596   3.943 -0.5556 -0.2750  0.7956
 2147SOL    HW118074   0.063   2.667   3.922 -0.9345 -0.4188 -0.7468
 2147SOL    HW218075   0.050   2.538   4.003  0.5646  0.9256  1.0788
 2148SOL     OW18076   1.319   0.838  15.316 -0.5647  0.6980 -0.4214
 2148SOL    HW118077   1.248   0.790  15.274  0.9469 -0.0244 -2.1436
 2148SOL    HW218078   1.387   0.787  15.272  1.6710  1.5078  2.1201
 2149SOL     OW18079   0.858   4.563  14.702  0.5306 -0.2376 -0.7081
 2149SOL    HW118080   0.766   4.552  14.680  0.1328  0.8244  0.4266
 2149SOL    HW218081   0.847   4.618  14.779  2.3969  2.2201 -2.2072
 2150SOL     OW18082   4.360   2.694   8.432  0.0514 -0.2400  0.1620
 2150SOL    HW118083   4.316   2.705   8.516 -2.5559 -0.3316 -1.1653
 2150SOL    HW218084   4.444   2.730   8.459  0.6031 -0.4703 -1.2763
 2151SOL     OW18085   3.463   2.270   8.654 -0.2156 -0.0681 -0.3435
 2151SOL    HW118086   3.460   2.193   8.598 -0.7856  1.5524 -2.5883
 2151SOL    HW218087   3.463   2.230   8.740  0.2378  1.5941  0.4382
 2152SOL     OW18088   1.810   0.822  11.013  0.4872  0.5029  0.4218
 2152SOL    HW118089   1.899   0.828  10.979  0.1658  1.1008 -0.3059
 2152SOL    HW218090   1.748   0.847  10.944 -0.0120  0.2637  0.7811
 2153SOL     OW18091   3.227   2.061   3.580 -0.2529  0.0729 -0.7449
 2153SOL    HW118092   3.272   2.086   3.499 -0.1979  2.3061 -0.0016
 2153SOL    HW218093   3.208   2.150   3.609 -0.5410 -0.3980  0.5160
 2154SOL     OW18094   0.001   3.393   8.415  0.6484  0.5734  0.1597
 2154SOL    HW118095   4.687   3.448   8.476 -1.0131 -0.7910  0.0246
 2154SOL    HW218096   4.723   3.431   8.329 -2.0054  1.4729  1.0077
 2155SOL     OW18097   2.068   3.084   3.693  0.8870 -0.7223  0.1286
 2155SOL    HW118098   2.146   3.070   3.747  0.2580 -0.6628  1.0443
 2155SOL    HW218099   2.026   2.999   3.703  2.5092 -1.4757  0.4616
 2156SOL     OW18100   4.316   4.674   4.514 -0.5758 -0.2126 -0.3171
 2156SOL    HW118101   4.409   4.698   4.515 -1.2745  2.4176  0.6498
 2156SOL    HW218102   4.309   4.593   4.565  0.6461 -1.2916 -1.8690
 2157SOL     OW18103   3.898   1.991   2.298  0.3391 -0.0212  0.4463
 2157SOL    HW118104   3.855   2.029   2.222  0.0088  0.9861  1.1447
 2157SOL    HW218105   3.858   1.904   2.297 -0.4266  0.3520 -0.5520
 2158SOL     OW18106   1.292   2.479  10.945  0.1801 -0.3169  0.2372
 2158SOL    HW118107   1.278   2.521  10.861  2.3030  0.8460  0.4686
 2158SOL    HW218108   1.207   2.461  10.984  0.2411 -0.6621  0.2156
 2159SOL     OW18109   1.993   1.549  11.699 -0.0914  0.3823 -0.4922
 2159SOL    HW118110   2.028   1.463  11.720  1.2989  0.6510 -1.7142
 2159SOL    HW218111   2.069   1.606  11.715 -0.9570  0.8789  1.9770
 2160SOL     OW18112   3.628   0.953  11.581 -0.0299 -0.0939 -0.4582
 2160SOL    HW118113   3.710   0.929  11.539  0.3031 -0.8216  0.5921
 2160SOL    HW218114   3.658   0.951  11.672 -2.8439 -1.0855  0.4388
 2161SOL     OW18115   3.517   0.102   5.940  0.5927  0.2004  0.2125
 2161SOL    HW118116   3.494   0.081   6.030  2.9119  1.6834  1.1531
 2161SOL    HW218117   3.453   0.173   5.931  0.0182 -0.3724 -0.2094
 2162SOL     OW18118   1.079   4.497   8.314 -0.0992 -0.2506  0.5718
 2162SOL    HW118119   1.073   4.443   8.393 -0.6029  1.0062  1.4019
 2162SOL    HW218120   1.154   4.455   8.274  1.2496 -0.8517  3.7183
 2163SOL     OW18121   1.724   1.549  16.551 -0.4058  0.4198  0.0642
 2163SOL    HW118122   1.722   1.642  16.529  1.0468  0.5176  0.3183
 2163SOL    HW218123   1.632   1.525  16.537 -0.2052 -0.2224 -0.1405
 2164SOL     OW18124   4.404   4.337  13.728 -0.4802  0.5589 -0.2323
 2164SOL    HW118125   4.495   4.327  13.754 -0.7430  0.9644  0.8623
 2164SOL    HW218126   4.392   4.427  13.759 -1.3061 -0.1705  1.5498
 2165SOL     OW18127   1.067   2.670   0.281  0.3929 -0.6129 -0.1810
 2165SOL    HW118128   1.096   2.657   0.191 -3.8436 -0.4438 -1.5325
 2165SOL    HW218129   1.003   2.599   0.282  0.3807 -0.6513 -4.2726
 2166SOL     OW18130   3.319   0.565  16.872  0.0984 -0.0992  0.6459
 2166SOL    HW118131   3.285   0.599  16.955 -0.9451  2.3543 -0.7920
 2166SOL    HW218132   3.412   0.568  16.896  0.0002 -3.9088  1.4973
 2167SOL     OW18133   3.397   0.002   2.162  0.4037  0.5031 -0.1907
 2167SOL    HW118134   3.486   4.714   2.140 -0.0940  0.0123 -1.6637
 2167SOL    HW218135   3.347   4.659   2.144  0.8887  0.3009 -0.6639
 2168SOL     OW18136   0.528   1.669   6.193 -0.4477 -0.2495 -0.2184
 2168SOL    HW118137   0.517   1.590   6.247  3.0896 -2.1270 -2.2574
 2168SOL    HW218138   0.471   1.731   6.238  1.8993  2.4035 -0.9258
 2169SOL     OW18139   2.906   1.224   4.910 -0.3462 -0.1834 -0.6217
 2169SOL    HW118140   2.964   1.298   4.890 -1.5929  0.7528 -0.7593
 2169SOL    HW218141   2.829   1.281   4.904 -1.8584 -2.2130 -0.3929
 2170SOL     OW18142   0.256   2.154   7.414  0.3060  0.1226 -0.2232
 2170SOL    HW118143   0.214   2.068   7.405 -0.0935  0.4780 -1.9120
 2170SOL    HW218144   0.340   2.113   7.432  1.5481  3.1290  0.7480
 2171SOL     OW18145   3.319   3.303  10.768  0.1728  0.1371 -0.3461
 2171SOL    HW118146   3.402   3.259  10.751  1.1472  2.1064 -0.7394
 2171SOL    HW218147   3.320   3.317  10.862  0.5312  2.6004 -0.7135
 2172SOL     OW18148   1.091   3.321   2.854  0.0739 -0.5563  0.4093
 2172SOL    HW118149   1.052   3.346   2.938  0.0510  0.1411  0.1890
 2172SOL    HW218150   1.127   3.237   2.882 -0.7111 -0.2981  2.1862
 2173SOL     OW18151   1.466   3.888   3.738 -0.1948  0.4176  0.3631
 2173SOL    HW118152   1.402   3.858   3.674 -0.2693 -2.0157  1.5512
 2173SOL    HW218153   1.500   3.962   3.688  0.8560  0.0806  0.5693
 2174SOL     OW18154   2.591   1.341   4.459 -0.2747 -0.3617 -0.0034
 2174SOL    HW118155   2.655   1.279   4.493  1.3781  0.7897 -1.0013
 2174SOL    HW218156   2.619   1.346   4.367  1.7959  0.6615  0.6990
 2175SOL     OW18157   4.107   0.221   8.957 -0.3522 -0.3985  0.0487
 2175SOL    HW118158   4.028   0.272   8.938 -0.0071 -0.6816 -2.0977
 2175SOL    HW218159   4.171   0.271   8.907 -0.6497 -0.7118 -0.6397
 2176SOL     OW18160   4.530   4.596   9.449 -0.3303 -0.2940 -0.3679
 2176SOL    HW118161   4.623   4.581   9.468 -0.6800  1.2560  2.6017
 2176SOL    HW218162   4.496   4.515   9.486 -0.3795  0.5956  1.5149
 2177SOL     OW18163   1.552   1.956   2.218 -0.1500 -0.3640  0.8669
 2177SOL    HW118164   1.498   2.020   2.171 -0.4643  0.8971  2.9705
 2177SOL    HW218165   1.492   1.933   2.289 -0.8586  0.4579  0.5313
 2178SOL     OW18166   3.460   0.319   2.564 -0.6331  0.6299 -0.0701
 2178SOL    HW118167   3.548   0.349   2.539 -0.9393  0.0403 -1.8645
 2178SOL    HW218168   3.448   0.249   2.500 -0.5439  0.9920 -0.4848
 2179SOL     OW18169   0.543   2.396  12.242 -0.2441  0.4503  0.1191
 2179SOL    HW118170   0.493   2.424  12.319  1.1113  3.6541 -0.1609
 2179SOL    HW218171   0.497   2.315  12.219 -1.2749  0.8099  0.9009
 2180SOL     OW18172   0.258   2.727   6.430 -0.4455 -0.3336  0.2766
 2180SOL    HW118173   0.259   2.651   6.488 -1.1397 -0.0518  0.6625
 2180SOL    HW218174   0.163   2.732   6.420 -0.5249 -1.1759  0.6269
 2181SOL     OW18175   2.108   4.448   1.630 -0.2949  0.0331 -0.7282
 2181SOL    HW118176   2.059   4.519   1.670 -0.9713  0.6493 -2.6779
 2181SOL    HW218177   2.182   4.503   1.604 -0.6280 -0.0500 -1.8633
 2182SOL     OW18178   1.225   2.834   8.804  0.0094  0.1601  0.7431
 2182SOL    HW118179   1.206   2.810   8.714 -1.6913  0.0137  1.1308
 2182SOL    HW218180   1.312   2.795   8.810  1.2844  2.6500 -1.3726
 2183SOL     OW18181   3.332   4.083  10.502 -0.2662 -0.0747 -0.1568
 2183SOL    HW118182   3.418   4.056  10.534 -0.5324  0.8774  1.3337
 2183SOL    HW218183   3.272   4.065  10.574  0.3257  3.4503  1.1682
 2184SOL     OW18184   1.355   1.809   8.421 -0.3953 -0.5176  0.3722
 2184SOL    HW118185   1.360   1.719   8.389  1.8630 -0.2424 -0.0096
 2184SOL    HW218186   1.408   1.799   8.500 -0.1605 -0.0014  0.2796
 2185SOL     OW18187   2.971   1.243   1.936 -0.1405  0.3281  0.2062
 2185SOL    HW118188   3.023   1.215   2.012  0.4571  0.8270 -0.0193
 2185SOL    HW218189   2.882   1.242   1.970  0.2333 -0.9589  1.1603
 2186SOL     OW18190   4.716   4.602   5.429 -0.0548 -0.6288  0.3132
 2186SOL    HW118191   0.019   4.519   5.402  1.4326  0.3953 -0.6246
 2186SOL    HW218192   0.022   4.611   5.514  1.6988  1.4396 -0.8088
 2187SOL     OW18193   1.351   1.595  12.624  0.4390  0.1114 -0.9989
 2187SOL    HW118194   1.373   1.666  12.563  0.5125 -0.6462 -1.8496
 2187SOL    HW218195   1.321   1.533  12.558 -0.8228  1.5606 -1.7873
 2188SOL     OW18196   1.605   3.761   4.891  0.0987 -0.5725  0.0080
 2188SOL    HW118197   1.646   3.740   4.976  0.0535  2.0784  0.6738
 2188SOL    HW218198   1.514   3.735   4.900 -0.2322  0.6320  0.0124
 2189SOL     OW18199   1.687   2.317   6.724  0.2641  0.8061 -0.1164
 2189SOL    HW118200   1.638   2.299   6.805 -0.7822  0.0149 -0.9368
 2189SOL    HW218201   1.680   2.412   6.726  1.0745  0.8742 -0.7901
 2190SOL     OW18202   3.132   0.304   5.014 -0.2817  0.0533 -0.2188
 2190SOL    HW118203   3.213   0.262   5.044 -0.2185  0.1351 -0.2722
 2190SOL    HW218204   3.168   0.387   4.983  0.0030  0.9596  2.5540
 2191SOL     OW18205   2.153   1.048   7.007 -0.4181  0.0600 -0.8319
 2191SOL    HW118206   2.138   1.029   6.914  0.7633  1.5124 -1.3191
 2191SOL    HW218207   2.064   1.042   7.043 -0.7464  0.0203 -1.6410
 2192SOL     OW18208   3.341   0.694   8.807  0.1802  0.1250  0.6245
 2192SOL    HW118209   3.328   0.769   8.865 -2.7693  0.2188 -0.1337
 2192SOL    HW218210   3.301   0.718   8.723 -0.3889 -2.0987  0.2471
 2193SOL     OW18211   0.916   1.343   7.180 -0.4552 -0.5730 -0.2136
 2193SOL    HW118212   0.874   1.428   7.189 -0.6765 -0.9196  2.1108
 2193SOL    HW218213   1.002   1.370   7.211 -0.2436  0.3282 -1.6322
 2194SOL     OW18214   1.509   2.982   3.669 -0.0988  0.3815 -0.1392
 2194SOL    HW118215   1.432   3.021   3.709  1.8729  0.6059  3.4552
 2194SOL    HW218216   1.467   2.950   3.590 -1.9657 -0.1568  1.0700
 2195SOL     OW18217   2.791   1.903   6.957 -0.4634 -0.6102 -0.4531
 2195SOL    HW118218   2.874   1.870   6.922  0.0381  0.3138 -0.1224
 2195SOL    HW218219   2.752   1.819   6.982  0.1100 -0.3168  1.3822
 2196SOL     OW18220   1.302   3.679  15.235  1.1524 -0.6208 -0.0849
 2196SOL    HW118221   1.310   3.614  15.164  0.2505 -0.3622 -0.4174
 2196SOL    HW218222   1.211   3.702  15.218  1.8483  1.1492 -1.3948
 2197SOL     OW18223   1.478   0.902   5.119 -0.5127  0.0855 -0.2711
 2197SOL    HW118224   1.387   0.900   5.149 -0.2326 -1.8427  0.4508
 2197SOL    HW218225   1.529   0.934   5.194  1.7553 -2.8713 -0.5249
 2198SOL     OW18226   0.657   4.676   7.555 -1.1666 -0.3949  0.0836
 2198SOL    HW118227   0.599   4.677   7.632 -0.0151 -1.5530  0.9703
 2198SOL    HW218228   0.729   4.728   7.590 -3.5546  1.6413  1.9819
 2199SOL     OW18229   0.220   4.726  11.642  0.3059 -0.3816 -0.0781
 2199SOL    HW118230   0.212   0.065  11.700 -0.8171 -0.3688 -0.2468
 2199SOL    HW218231   0.248   0.034  11.562 -0.6468 -0.1826 -0.2993
 2200SOL     OW18232   3.446   2.320   2.131  0.3000 -0.3826  0.1487
 2200SOL    HW118233   3.538   2.344   2.142 -0.0309  0.8537  0.1128
 2200SOL    HW218234   3.413   2.369   2.056 -0.7861 -2.5020 -0.7590
 2201SOL     OW18235   3.994   0.857   3.846 -0.0564  0.4211 -0.1415
 2201SOL    HW118236   3.916   0.908   3.867  0.8690  1.7309  0.1191
 2201SOL    HW218237   3.950   0.772   3.847  0.3214  0.1923 -1.8018
 2202SOL     OW18238   3.734   4.479   4.580 -0.1580 -0.5797  0.6421
 2202SOL    HW118239   3.825   4.504   4.561  0.3027 -1.3513  1.8783
 2202SOL    HW218240   3.690   4.548   4.530  0.2285  0.7530  2.1642
 2203SOL     OW18241   4.512   4.292   6.686 -0.0496  0.5559 -0.2768
 2203SOL    HW118242   4.510   4.196   6.683 -0.9184  0.5345  0.8840
 2203SOL    HW218243   4.535   4.298   6.779  2.5388  4.6917 -1.2307
 2204SOL     OW18244   0.692   4.141   5.940  0.2946  0.2531  0.5083
 2204SOL    HW118245   0.737   4.061   5.969  1.4079  0.8254  0.3493
 2204SOL    HW218246   0.642   4.107   5.865  0.7549 -0.2270  0.4160
 2205SOL     OW18247   0.365   1.860   3.689  0.0583 -0.1781  0.2362
 2205SOL    HW118248   0.389   1.834   3.600 -0.2670 -3.1842  1.0065
 2205SOL    HW218249   0.305   1.929   3.661 -0.3827 -1.0796 -1.0472
 2206SOL     OW18250   4.068   4.060  16.529  0.5124 -0.1025 -0.0120
 2206SOL    HW118251   3.999   4.118  16.563  0.0497  0.1847 -1.4162
 2206SOL    HW218252   4.016   3.982  16.551 -0.9613  0.9497  0.2746
 2207SOL     OW18253   2.229   4.103   4.376  0.6869  0.3568 -0.0378
 2207SOL    HW118254   2.155   4.092   4.435  0.5077 -0.8744 -0.4816
 2207SOL    HW218255   2.214   4.194   4.352 -0.9413 -0.0181 -0.4534
 2208SOL     OW18256   4.129   4.425  13.189 -0.3327 -0.4057  0.3210
 2208SOL    HW118257   4.137   4.332  13.168  1.7360  0.2060 -1.5673
 2208SOL    HW218258   4.147   4.463  13.103 -0.2376 -0.3761  0.3541
 2209SOL     OW18259   2.524   3.775   4.506  0.5269 -0.1346  0.1742
 2209SOL    HW118260   2.599   3.791   4.565 -1.0419  1.9265  1.6086
 2209SOL    HW218261   2.486   3.861   4.488 -2.3808 -1.6018 -0.6548
 2210SOL     OW18262   2.851   4.520   6.345  0.2507 -0.6022  0.0929
 2210SOL    HW118263   2.925   4.557   6.296  0.8545  3.4962  4.1554
 2210SOL    HW218264   2.809   4.597   6.383 -0.4147 -1.1863  0.5404
 2211SOL     OW18265   1.257   1.879  14.161  0.0610 -0.4800  0.3310
 2211SOL    HW118266   1.276   1.957  14.214 -4.1068  0.7009  0.0994
 2211SOL    HW218267   1.197   1.826  14.214  0.1639 -0.6505  0.2760
 2212SOL     OW18268   0.622   0.722  15.341  0.3335 -0.0773  0.0037
 2212SOL    HW118269   0.602   0.713  15.434  2.8757 -1.1980  0.4600
 2212SOL    HW218270   0.548   0.689  15.290  0.1510 -0.8928  0.7917
 2213SOL     OW18271   0.649   1.472   5.897  0.0423 -0.0569  0.2237
 2213SOL    HW118272   0.679   1.383   5.881 -1.2006 -0.2921 -0.7894
 2213SOL    HW218273   0.662   1.471   5.992  0.5381 -1.2130  0.1394
 2214SOL     OW18274   2.300   2.664  17.564  0.1927  0.3992  0.5426
 2214SOL    HW118275   2.345   2.747  17.548  0.2673  0.3224  0.3564
 2214SOL    HW218276   2.367   2.602  17.534  0.0447 -0.0894  1.2111
 2215SOL     OW18277   4.451   0.584   4.772  0.0410 -0.4744  0.1505
 2215SOL    HW118278   4.397   0.573   4.695  1.5958 -1.3442 -0.8196
 2215SOL    HW218279   4.443   0.494   4.804 -1.0091  0.7290  3.2927
 2216SOL     OW18280   2.048   2.365   6.493  0.0066  0.3890  0.1908
 2216SOL    HW118281   2.034   2.302   6.422  0.0715  1.0932 -0.4468
 2216SOL    HW218282   2.040   2.450   6.449 -2.3454  0.0827  0.0386
 2217SOL     OW18283   2.974   1.705  10.101 -0.0635  0.1907  0.0983
 2217SOL    HW118284   2.986   1.639  10.033 -1.1544 -0.3140  0.4126
 2217SOL    HW218285   2.962   1.790  10.058  0.8270 -0.1683 -0.8808
 2218SOL     OW18286   2.353   3.855   3.303 -0.4376  0.1659 -0.1140
 2218SOL    HW118287   2.418   3.829   3.237  0.3253 -1.2521  1.1934
 2218SOL    HW218288   2.268   3.846   3.261 -1.5027  0.1881  2.0705
 2219SOL     OW18289   3.234   2.409   7.650 -0.3372  0.2946 -0.3748
 2219SOL    HW118290   3.224   2.398   7.555  2.5786 -1.2692 -0.4983
 2219SOL    HW218291   3.149   2.379   7.682  0.8133 -2.5146  0.0265
 2220SOL     OW18292   2.726   0.065   6.311 -0.2228 -0.4772  0.4314
 2220SOL    HW118293   2.771   0.146   6.337  2.7846 -1.6104 -1.2800
 2220SOL    HW218294   2.675   0.065   6.392 -0.4384  1.9723  0.3146
 2221SOL     OW18295   4.465   3.859  16.725 -0.3744  0.1567 -0.2552
 2221SOL    HW118296   4.415   3.924  16.775  2.1974  1.2375  0.8644
 2221SOL    HW218297   4.446   3.891  16.637  1.0867 -3.7846 -1.9891
 2222SOL     OW18298   0.837   4.663  12.114  0.0853  0.0207  0.4848
 2222SOL    HW118299   0.823   0.017  12.088  0.9055  0.5659  1.9488
 2222SOL    HW218300   0.851   4.616  12.032 -1.2097 -2.9730  1.9847
 2223SOL     OW18301   1.523   2.923   5.157  0.5328  0.0466 -0.2651
 2223SOL    HW118302   1.514   2.851   5.094  0.8500 -1.6691  1.6388
 2223SOL    HW218303   1.614   2.949   5.146 -0.0284  2.0618 -0.1650
 2224SOL     OW18304   0.116   2.474   5.570  0.2142  0.3373  0.3932
 2224SOL    HW118305   0.172   2.479   5.648 -1.8127 -1.2681  1.9560
 2224SOL    HW218306   0.066   2.393   5.576  1.7760 -0.6295  0.1854
 2225SOL     OW18307   0.200   3.954   4.956  0.4586 -0.2859 -0.0517
 2225SOL    HW118308   0.127   3.908   4.914 -0.2877 -1.2079  2.2513
 2225SOL    HW218309   0.266   3.885   4.952 -0.2593 -0.9282 -0.7594
 2226SOL     OW18310   2.060   1.033  11.497  0.2419 -0.0827  0.3477
 2226SOL    HW118311   2.042   1.126  11.487 -0.2077 -0.4458 -2.1563
 2226SOL    HW218312   1.985   0.987  11.460 -0.3375 -0.6979  2.2968
 2227SOL     OW18313   1.444   1.463  10.104 -0.4036  0.0852  0.5775
 2227SOL    HW118314   1.363   1.447  10.152 -0.6136  0.5778  0.3842
 2227SOL    HW218315   1.489   1.379  10.115  3.3325  1.8376 -1.3208
 2228SOL     OW18316   1.982   1.483   3.534  0.3943 -0.4088  0.5804
 2228SOL    HW118317   1.889   1.466   3.552  0.0044 -0.5825 -1.6720
 2228SOL    HW218318   2.023   1.416   3.588  0.1817 -2.1341 -1.4203
 2229SOL     OW18319   4.384   4.610   2.328  0.2525 -0.0287  0.1634
 2229SOL    HW118320   4.385   4.514   2.328 -1.2771 -0.0270  0.8450
 2229SOL    HW218321   4.469   4.615   2.373 -0.5406 -0.7054  1.7159
 2230SOL     OW18322   1.698   1.593  15.042  0.1225  0.1966 -0.2777
 2230SOL    HW118323   1.691   1.683  15.009 -0.3072  0.5362  0.7381
 2230SOL    HW218324   1.608   1.564  15.053 -0.1187  1.1808  0.3465
 2231SOL     OW18325   1.545   3.712   5.669 -0.0810  0.0342  0.4957
 2231SOL    HW118326   1.600   3.634   5.678 -0.2783 -0.1628  0.0074
 2231SOL    HW218327   1.481   3.692   5.737 -0.7923 -0.0304 -0.1868
 2232SOL     OW18328   3.975   4.030   6.800  0.5680 -0.1399 -0.0676
 2232SOL    HW118329   4.046   3.966   6.791 -0.2381 -1.0399  0.0208
 2232SOL    HW218330   4.034   4.105   6.792 -0.1473  0.4389  0.1223
 2233SOL     OW18331   3.549   4.032   7.185 -0.6423  0.0253  0.1661
 2233SOL    HW118332   3.465   4.031   7.139 -1.0289  1.7346  0.8466
 2233SOL    HW218333   3.596   3.965   7.135  2.1318  0.9492  1.5565
 2234SOL     OW18334   3.100   2.922   6.475  0.0430 -0.1649 -0.6815
 2234SOL    HW118335   3.054   2.846   6.439  0.1078 -0.0345 -1.0348
 2234SOL    HW218336   3.187   2.913   6.436 -0.7572 -2.1276 -1.9939
 2235SOL     OW18337   3.948   4.199   3.730  0.4550  0.1158 -0.0084
 2235SOL    HW118338   3.941   4.200   3.825 -1.3789 -0.2637 -0.1490
 2235SOL    HW218339   3.989   4.284   3.717 -1.5957  0.9771 -0.8655
 2236SOL     OW18340   1.487   2.133  17.445  0.2568 -0.3467  0.0055
 2236SOL    HW118341   1.476   2.201  17.379  1.1460 -0.4044 -0.1966
 2236SOL    HW218342   1.416   2.158  17.503 -1.0764 -1.2564 -1.2171
 2237SOL     OW18343   3.245   4.404   0.670 -0.0531  0.2391  0.0932
 2237SOL    HW118344   3.233   4.309   0.675  0.0730  0.2773  1.1223
 2237SOL    HW218345   3.188   4.420   0.595 -1.0372  0.3045  0.8540
 2238SOL     OW18346   2.098   1.119   9.035  0.3750 -0.0104  0.0012
 2238SOL    HW118347   2.128   1.038   9.077  1.6648  0.7877  0.6318
 2238SOL    HW218348   2.178   1.172   9.033 -0.2470  0.9400  0.2923
 2239SOL     OW18349   2.339   2.444  12.638 -0.2377  0.4395 -0.3569
 2239SOL    HW118350   2.351   2.356  12.674 -1.7102  1.0903  1.7567
 2239SOL    HW218351   2.363   2.493  12.717 -3.1493  0.1749  0.7073
 2240SOL     OW18352   2.597   2.281   5.558 -0.4155 -0.0421  0.1995
 2240SOL    HW118353   2.681   2.295   5.515 -0.3094 -0.4595  0.2756
 2240SOL    HW218354   2.562   2.217   5.496 -1.1336  0.1993  0.3480
 2241SOL     OW18355   1.048   2.455   6.911 -0.1848  0.2785  0.0502
 2241SOL    HW118356   1.013   2.522   6.971  1.2933  0.5802  0.5648
 2241SOL    HW218357   0.996   2.467   6.832 -0.0110 -0.3719 -0.1603
 2242SOL     OW18358   1.134   0.252   4.378 -0.6112 -0.1509  0.3433
 2242SOL    HW118359   1.059   0.194   4.380  2.4675 -4.1712 -0.0659
 2242SOL    HW218360   1.148   0.273   4.286  0.3715  0.9874  0.7457
 2243SOL     OW18361   2.918   2.670   4.624 -0.0740  0.0924 -0.2273
 2243SOL    HW118362   2.833   2.708   4.650 -1.0704 -1.7146 -0.8776
 2243SOL    HW218363   2.937   2.704   4.537  2.6379 -0.2089  0.2662
 2244SOL     OW18364   0.914   0.946  17.213  0.7645 -0.4580  1.0562
 2244SOL    HW118365   0.936   0.868  17.162 -1.6077 -0.9834  0.8696
 2244SOL    HW218366   0.828   0.968  17.177  0.9199 -0.5783  0.6158
 2245SOL     OW18367   1.443   3.229  16.849  0.0357 -0.5690  0.1635
 2245SOL    HW118368   1.417   3.148  16.805  1.4157 -0.1484 -1.4327
 2245SOL    HW218369   1.496   3.193  16.920  0.1029 -0.6726  0.0602
 2246SOL     OW18370   3.735   3.662   1.191  0.0720 -0.3254 -0.3453
 2246SOL    HW118371   3.662   3.724   1.199  0.6713  0.1203  1.5901
 2246SOL    HW218372   3.809   3.721   1.176  0.0060 -0.7149 -2.1996
 2247SOL     OW18373   2.259   0.508  17.387 -0.5208 -0.2569 -0.2067
 2247SOL    HW118374   2.201   0.515  17.463  0.2168 -0.7303  0.4130
 2247SOL    HW218375   2.218   0.442  17.332 -0.4062  1.0348 -1.8375
 2248SOL     OW18376   2.170   2.568   8.048  0.2022  0.3889 -0.4173
 2248SOL    HW118377   2.216   2.618   8.115  0.7019  1.4051 -1.5359
 2248SOL    HW218378   2.096   2.530   8.095  0.3110 -0.4416 -0.9215
 2249SOL     OW18379   1.331   3.850   6.922 -0.5333  0.2106 -0.1425
 2249SOL    HW118380   1.248   3.857   6.968 -2.6626 -1.9615 -3.6654
 2249SOL    HW218381   1.304   3.792   6.851  2.0487 -0.6013 -0.4742
 2250SOL     OW18382   1.734   2.603  14.969  0.2053  0.1819  0.4297
 2250SOL    HW118383   1.774   2.642  15.047  0.6289 -0.5250  0.5642
 2250SOL    HW218384   1.810   2.620  14.913 -1.0819  0.3358 -1.2481
 2251SOL     OW18385   1.303   0.350  13.638 -0.0517  0.3737  0.2876
 2251SOL    HW118386   1.230   0.365  13.699  0.5220  0.9653  0.8257
 2251SOL    HW218387   1.321   0.256  13.631  2.4307  1.0441 -1.9858
 2252SOL     OW18388   0.333   0.946   1.449 -0.0872  0.2362 -0.7318
 2252SOL    HW118389   0.278   1.005   1.500 -1.2887 -2.2936  0.8983
 2252SOL    HW218390   0.294   0.957   1.363 -1.3793 -2.7130 -0.5183
 2253SOL     OW18391   1.699   2.770   9.243  0.0086 -0.1857 -0.1704
 2253SOL    HW118392   1.729   2.733   9.160 -0.7156  2.5015 -1.6124
 2253SOL    HW218393   1.694   2.688   9.294 -1.3513  0.8413  1.3542
 2254SOL     OW18394   1.877   0.633  17.362  0.1309  0.2764  0.6267
 2254SOL    HW118395   1.940   0.705  17.350 -1.3719  0.9509 -3.2697
 2254SOL    HW218396   1.849   0.624  17.271 -2.9488  2.2895  1.3555
 2255SOL     OW18397   4.218   3.476   8.827 -0.2586 -0.0754  0.3364
 2255SOL    HW118398   4.205   3.383   8.841 -0.5284  0.0214  0.7351
 2255SOL    HW218399   4.305   3.480   8.786  0.3147 -1.6562  1.4220
 2256SOL     OW18400   0.771   0.619   6.599  0.1032 -0.2051  0.2219
 2256SOL    HW118401   0.804   0.584   6.681  0.0562 -0.5015  0.1164
 2256SOL    HW218402   0.721   0.697   6.621 -0.4383 -0.7390  0.9051
 2257SOL     OW18403   1.939   0.132  16.855  0.1103 -0.0128  0.0172
 2257SOL    HW118404   1.938   0.061  16.791 -2.0809  1.4284 -1.5624
 2257SOL    HW218405   1.952   0.205  16.795  0.5144 -0.1822 -0.1032
 2258SOL     OW18406   3.399   0.726  17.354 -0.5474 -0.1107 -0.5312
 2258SOL    HW118407   3.349   0.644  17.347  0.4997 -0.6955 -1.1307
 2258SOL    HW218408   3.444   0.722  17.270 -0.9014  0.8444 -0.7670
 2259SOL     OW18409   3.626   2.599   5.470 -0.0862  0.1839  0.1372
 2259SOL    HW118410   3.615   2.555   5.554  0.4588 -1.4866 -0.6648
 2259SOL    HW218411   3.554   2.561   5.419  0.4501  1.8054 -1.8237
 2260SOL     OW18412   2.082   2.204  11.842 -0.2626 -0.1034  0.3334
 2260SOL    HW118413   2.144   2.153  11.791  1.1553  0.5378  1.4224
 2260SOL    HW218414   2.006   2.148  11.826  1.0414 -1.3887 -1.2487
 2261SOL     OW18415   3.223   1.834   4.343  0.4847  0.1367  0.3930
 2261SOL    HW118416   3.211   1.928   4.329 -1.2220 -0.2369 -0.6014
 2261SOL    HW218417   3.312   1.827   4.309  0.5419  1.6233  0.2428
 2262SOL     OW18418   2.026   1.240   1.746  0.1172  0.4702  0.4787
 2262SOL    HW118419   1.992   1.330   1.743  2.3853  1.3291  0.7987
 2262SOL    HW218420   2.121   1.248   1.748  0.2579 -1.2587  0.8410
 2263SOL     OW18421   0.639   4.007   6.735  0.3926 -0.0471  0.2117
 2263SOL    HW118422   0.561   4.061   6.748  1.7139  2.1566 -0.8453
 2263SOL    HW218423   0.673   4.004   6.824 -0.2565  0.8568  0.4861
 2264SOL     OW18424   2.010   1.847   4.598 -0.3734 -0.6037  0.1872
 2264SOL    HW118425   1.947   1.919   4.602  1.4794  1.0610 -0.6149
 2264SOL    HW218426   2.014   1.832   4.692  0.5245  1.8805  0.5363
 2265SOL     OW18427   3.272   2.260   5.902  0.2655 -0.1806 -0.3007
 2265SOL    HW118428   3.265   2.325   5.972 -0.6101 -0.4432 -0.1389
 2265SOL    HW218429   3.185   2.281   5.866 -0.2748 -0.8818  0.5873
 2266SOL     OW18430   2.509   0.349   1.100 -0.0230  0.0515  0.3550
 2266SOL    HW118431   2.549   0.285   1.042 -1.6995 -1.3883  0.7746
 2266SOL    HW218432   2.416   0.345   1.077  0.5515 -2.3063 -1.4875
 2267SOL     OW18433   3.458   3.524   4.379  0.0166  0.0538 -0.1102
 2267SOL    HW118434   3.459   3.434   4.345  0.8391 -1.4486  3.8790
 2267SOL    HW218435   3.469   3.576   4.300 -1.3933 -0.1100 -0.4153
 2268SOL     OW18436   3.477   1.980   5.358  0.1752  0.5320  0.3445
 2268SOL    HW118437   3.543   1.944   5.299 -0.8504  0.0085 -0.4750
 2268SOL    HW218438   3.505   1.942   5.441  1.9933 -0.8757 -0.9192
 2269SOL     OW18439   1.031   0.828  11.821 -0.3500 -0.3328  0.0985
 2269SOL    HW118440   1.038   0.829  11.917 -3.8170 -1.3935  0.3319
 2269SOL    HW218441   1.110   0.869  11.785 -0.3415 -0.5988 -0.1819
 2270SOL     OW18442   2.211   0.760   0.685  0.1254  0.3521  0.2342
 2270SOL    HW118443   2.122   0.765   0.718  0.5288  0.5161  1.2999
 2270SOL    HW218444   2.241   0.850   0.677  1.4745 -0.0924  0.1990
 2271SOL     OW18445   1.730   0.574   3.965  0.1106  0.6937  0.1568
 2271SOL    HW118446   1.786   0.540   4.034 -1.6506 -2.8224 -0.1200
 2271SOL    HW218447   1.793   0.642   3.942 -0.0907  1.1132  0.8593
 2272SOL     OW18448   4.698   0.006   6.174  0.4613 -0.1945  0.0558
 2272SOL    HW118449   4.725   0.069   6.241  0.1242  1.6312 -1.5266
 2272SOL    HW218450   0.039   4.687   6.169  0.1080 -0.5436 -1.5826
 2273SOL     OW18451   1.300   0.505   6.378 -0.4940 -0.0671  0.5696
 2273SOL    HW118452   1.244   0.431   6.401  1.2828 -1.9527 -1.2285
 2273SOL    HW218453   1.386   0.468   6.399  0.0287  0.6609 -0.2803
 2274SOL     OW18454   1.724   2.139   9.975  0.2462  0.1173  0.3747
 2274SOL    HW118455   1.778   2.061   9.983  0.7630  0.1701 -2.7020
 2274SOL    HW218456   1.765   2.190  10.045 -0.0641  0.4770  0.2962
 2275SOL     OW18457   2.270   2.495  16.932 -0.1669  0.1418 -0.0525
 2275SOL    HW118458   2.354   2.475  16.891 -0.4460  0.0730 -0.5937
 2275SOL    HW218459   2.300   2.553  17.002 -0.3105  0.0685  0.0693
 2276SOL     OW18460   1.631   0.250   7.391 -0.0863 -0.1497  0.2155
 2276SOL    HW118461   1.663   0.337   7.416 -0.0168  0.0595 -0.6025
 2276SOL    HW218462   1.713   0.206   7.369  1.9168  2.6177  2.1056
 2277SOL     OW18463   1.948   3.267   5.649  0.0915 -0.0295  0.5173
 2277SOL    HW118464   1.902   3.200   5.700  0.1664 -2.3556 -2.4233
 2277SOL    HW218465   2.009   3.291   5.718  0.2731 -0.5370  0.5322
 2278SOL     OW18466   2.476   1.206   2.358 -0.2065 -0.0522 -0.2712
 2278SOL    HW118467   2.410   1.165   2.415 -0.0875 -0.8099 -0.6789
 2278SOL    HW218468   2.549   1.163   2.401  0.2085  1.5284  0.6191
 2279SOL     OW18469   0.307   2.952   4.857 -0.4443 -0.3175  0.0114
 2279SOL    HW118470   0.235   3.003   4.822 -0.2332 -0.8440 -1.1786
 2279SOL    HW218471   0.301   2.866   4.814 -3.2881 -0.7930  1.3891
 2280SOL     OW18472   2.067   0.383   7.020 -0.3288  0.1887 -0.0401
 2280SOL    HW118473   2.086   0.290   7.031  2.0464  0.4273 -2.1202
 2280SOL    HW218474   2.069   0.393   6.925 -2.2773 -1.8777 -0.2864
 2281SOL     OW18475   3.610   3.481   3.951 -0.0533 -0.7167 -0.7609
 2281SOL    HW118476   3.590   3.562   3.998 -0.0082  0.1448 -2.2212
 2281SOL    HW218477   3.602   3.514   3.862 -0.3515 -0.8837 -0.7954
 2282SOL     OW18478   2.101   3.824   3.232  0.3212 -0.0455  0.0681
 2282SOL    HW118479   2.095   3.900   3.174 -0.1379 -0.2136 -0.1101
 2282SOL    HW218480   2.010   3.829   3.261  0.4974  2.3568  0.1499
 2283SOL     OW18481   1.097   0.682  17.328  0.1768 -0.3709 -0.0701
 2283SOL    HW118482   1.146   0.660  17.407  1.8112 -0.6201 -1.1283
 2283SOL    HW218483   1.135   0.768  17.315 -0.8487 -0.1667 -1.7217
 2284SOL     OW18484   2.213   4.367   7.555  0.3666  0.2839 -0.6746
 2284SOL    HW118485   2.146   4.407   7.500  1.0680  2.2326 -0.0860
 2284SOL    HW218486   2.235   4.298   7.492 -0.5354 -1.1473  0.5617
 2285SOL     OW18487   2.250   1.597  10.205 -0.2967  0.1931  0.5914
 2285SOL    HW118488   2.189   1.588  10.278  0.3844 -1.0982  0.9953
 2285SOL    HW218489   2.328   1.613  10.259 -1.6146 -0.1045  2.5837
 2286SOL     OW18490   4.654   0.448  14.727  0.3463  0.1024 -0.5460
 2286SOL    HW118491   4.629   0.487  14.643 -1.4818  0.7081  0.2878
 2286SOL    HW218492   0.002   0.414  14.696  0.2671  0.2626 -0.9409
 2287SOL     OW18493   4.605   0.291   2.187 -0.3365 -0.1643 -0.2672
 2287SOL    HW118494   4.605   0.387   2.185 -1.6352 -0.1767 -1.0659
 2287SOL    HW218495   4.693   0.267   2.159  0.3362  0.3462  1.4099
 2288SOL     OW18496   3.088   1.253  16.270  0.0640  0.1492 -0.0988
 2288SOL    HW118497   3.092   1.253  16.366 -2.2035  1.2079 -0.0006
 2288SOL    HW218498   3.122   1.165  16.257  0.4004  0.4233 -1.0441
 2289SOL     OW18499   3.972   1.771  15.830 -0.6293 -0.4755  0.5653
 2289SOL    HW118500   4.016   1.831  15.890 -0.9512 -1.7101  2.0509
 2289SOL    HW218501   3.892   1.764  15.881 -1.7794  1.2393 -1.0020
 2290SOL     OW18502   3.543   3.442   8.407  0.7421  0.1811 -0.4019
 2290SOL    HW118503   3.570   3.517   8.354  1.4631  0.7891  0.8209
 2290SOL    HW218504   3.470   3.476   8.458  0.2388  2.0491 -2.3565
 2291SOL     OW18505   0.506   2.501   9.612  0.3393  0.0393  0.1165
 2291SOL    HW118506   0.581   2.560   9.622 -0.6385  1.1935  0.7356
 2291SOL    HW218507   0.511   2.441   9.538  0.5370 -0.0118  0.1734
 2292SOL     OW18508   1.148   1.383  10.043  0.2434 -0.2585  0.4333
 2292SOL    HW118509   1.130   1.335  10.124 -0.2036 -0.9684 -0.0791
 2292SOL    HW218510   1.114   1.322   9.977  0.9538  0.6982 -0.8160
 2293SOL     OW18511   0.968   3.509   7.403 -0.2086 -0.0760 -0.5113
 2293SOL    HW118512   0.929   3.565   7.336  0.5446 -1.2914 -1.9541
 2293SOL    HW218513   1.005   3.447   7.341  1.2467 -1.4499  1.7122
 2294SOL     OW18514   3.071   3.284   3.343 -0.1956 -0.2116 -0.4340
 2294SOL    HW118515   3.009   3.223   3.304 -0.7241 -1.7920  2.8546
 2294SOL    HW218516   3.058   3.357   3.282  1.0482  0.8673  0.5819
 2295SOL     OW18517   1.407   4.713   0.480  0.4097 -0.4331 -0.1351
 2295SOL    HW118518   1.399   4.732   0.573 -0.2304 -0.8971 -0.0969
 2295SOL    HW218519   1.501   4.712   0.465  0.6650  0.2106  1.4432
 2296SOL     OW18520   3.425   0.875  12.197 -0.1699 -0.5005  0.1531
 2296SOL    HW118521   3.462   0.839  12.277  2.2482 -1.3404 -1.3424
 2296SOL    HW218522   3.349   0.817  12.193  0.7203 -1.6998  0.6375
 2297SOL     OW18523   0.317   4.389   0.538 -0.4792  0.2307  0.1728
 2297SOL    HW118524   0.389   4.346   0.586 -1.3166  0.8339  1.9772
 2297SOL    HW218525   0.241   4.343   0.576  0.1358 -0.6555  0.3366
 2298SOL     OW18526   2.661   2.751   8.830  0.3428  0.3474 -0.0390
 2298SOL    HW118527   2.579   2.702   8.826  0.6119 -0.0857 -0.2634
 2298SOL    HW218528   2.688   2.728   8.741  0.6294  2.8482 -0.5884
 2299SOL     OW18529   1.081   2.122   5.153  0.6218  0.2483 -0.2776
 2299SOL    HW118530   1.078   2.214   5.124 -1.4075 -0.3065 -1.8503
 2299SOL    HW218531   1.125   2.128   5.238 -2.8873  0.2814  1.5606
 2300SOL     OW18532   0.820   0.321   2.710 -0.3633  0.2794 -0.1566
 2300SOL    HW118533   0.913   0.302   2.726 -0.0124  2.6127  0.4460
 2300SOL    HW218534   0.791   0.244   2.759 -3.2859  1.7066  0.3195
 2301SOL     OW18535   2.656   0.684  15.037 -0.2362 -0.4254 -0.1512
 2301SOL    HW118536   2.672   0.597  15.001  0.4387 -0.0128 -0.8306
 2301SOL    HW218537   2.708   0.731  14.972  0.9806  0.3873  1.4218
 2302SOL     OW18538   1.036   3.800   4.829  0.3206 -0.5213  0.1914
 2302SOL    HW118539   1.025   3.722   4.884 -0.1880 -0.0104  0.8163
 2302SOL    HW218540   0.967   3.787   4.764 -1.4925  2.5604  1.5311
 2303SOL     OW18541   4.418   3.028   8.481  0.1986  0.0581  0.4048
 2303SOL    HW118542   4.454   2.949   8.442 -0.5183 -0.4276  0.7304
 2303SOL    HW218543   4.383   3.074   8.405  0.2493  0.9202  0.8937
 2304SOL     OW18544   0.220   0.933   2.948 -0.0265 -0.5118  0.2768
 2304SOL    HW118545   0.241   0.852   2.993  0.9420 -1.0325 -1.1011
 2304SOL    HW218546   0.147   0.895   2.899  0.3182 -0.6990 -0.0951
 2305SOL     OW18547   2.762   3.810   8.092  0.3644 -0.7119 -0.8562
 2305SOL    HW118548   2.767   3.790   7.999 -0.7394 -1.4818 -0.7516
 2305SOL    HW218549   2.731   3.900   8.077 -1.1565 -1.0068  0.4822
 2306SOL     OW18550   4.010   3.784   9.154  0.2206  0.2846 -0.0389
 2306SOL    HW118551   4.045   3.870   9.180  0.9767 -0.4307  1.3639
 2306SOL    HW218552   4.092   3.734   9.154  0.8439  1.3081 -0.0295
 2307SOL     OW18553   3.536   1.980   7.119  0.5823 -0.3390  0.4704
 2307SOL    HW118554   3.490   1.996   7.201 -0.2909  1.1623 -0.3272
 2307SOL    HW218555   3.479   1.916   7.075 -0.1047  1.4054 -1.1872
 2308SOL     OW18556   3.649   0.328   8.679  0.3772  0.1846  0.6541
 2308SOL    HW118557   3.596   0.318   8.601  2.0047 -0.6941 -0.3432
 2308SOL    HW218558   3.617   0.410   8.716 -0.4551 -0.9715  2.5139
 2309SOL     OW18559   1.829   3.255   7.936 -0.8380  0.4879  0.7381
 2309SOL    HW118560   1.909   3.260   7.990 -2.9099  3.2537  3.5676
 2309SOL    HW218561   1.861   3.304   7.860 -1.8088 -1.9413 -1.2243
 2310SOL     OW18562   2.190   1.993   2.969  0.4283  0.1151 -0.1376
 2310SOL    HW118563   2.217   1.986   2.877 -0.0280 -1.6178 -0.1330
 2310SOL    HW218564   2.104   1.951   2.971 -0.2152  1.3841 -0.5186
 2311SOL     OW18565   2.802   4.582   7.648  0.0851 -0.3366  0.5405
 2311SOL    HW118566   2.838   4.670   7.647  1.1056 -0.7542 -0.2087
 2311SOL    HW218567   2.811   4.565   7.554 -0.7612 -0.8599  0.5555
 2312SOL     OW18568   3.571   1.374  16.211  0.0168 -0.2182  0.6646
 2312SOL    HW118569   3.566   1.299  16.269  2.7707 -0.4204  0.6151
 2312SOL    HW218570   3.480   1.405  16.218 -0.0267 -0.6675  1.9454
 2313SOL     OW18571   1.429   0.919   1.441 -0.0765 -0.5481 -0.3354
 2313SOL    HW118572   1.338   0.948   1.438  0.3967  1.1344  1.8711
 2313SOL    HW218573   1.477   0.994   1.406  1.7516 -0.7796  1.6952
 2314SOL     OW18574   3.050   0.050   6.647 -0.1843 -0.3463  0.3678
 2314SOL    HW118575   2.957   0.030   6.664 -0.2048 -0.0618  0.5982
 2314SOL    HW218576   3.061   0.026   6.555 -2.1469 -0.7804  0.2402
 2315SOL     OW18577   2.994   3.242   4.428 -0.3987  0.2022 -0.8271
 2315SOL    HW118578   2.927   3.184   4.464 -0.8412 -0.6429 -2.9869
 2315SOL    HW218579   2.933   3.288   4.370 -0.2857  3.5946  1.7593
 2316SOL     OW18580   0.179   1.491  11.199  0.0114  0.2023 -0.1940
 2316SOL    HW118581   0.240   1.456  11.264 -0.6753  0.4971  0.6146
 2316SOL    HW218582   0.196   1.434  11.124  0.1169 -0.5749  0.4210
 2317SOL     OW18583   0.161   2.516   4.461 -0.1924  0.0017  0.5608
 2317SOL    HW118584   0.234   2.456   4.442  1.3145  2.3319 -0.9436
 2317SOL    HW218585   0.198   2.602   4.446 -2.0421  1.1308  2.5234
 2318SOL     OW18586   4.446   0.269   2.415 -0.5677  0.0157  0.3673
 2318SOL    HW118587   4.391   0.344   2.391 -1.4648 -0.8642 -0.2994
 2318SOL    HW218588   4.503   0.254   2.340  0.6220  0.1402  1.2497
 2319SOL     OW18589   2.825   3.926   7.809  0.0250  0.4076 -0.0283
 2319SOL    HW118590   2.820   3.995   7.743  0.3599 -0.4305 -0.9240
 2319SOL    HW218591   2.738   3.887   7.801  0.5152 -0.5431 -0.6849
 2320SOL     OW18592   3.421   1.115   2.763  0.4068  0.0781 -0.1233
 2320SOL    HW118593   3.408   1.124   2.858 -1.3255  1.3646 -0.4978
 2320SOL    HW218594   3.389   1.026   2.752  0.8085  0.0548 -1.1028
 2321SOL     OW18595   3.992   1.306  14.405  0.1893 -0.2141  0.8339
 2321SOL    HW118596   4.077   1.351  14.406  0.1079 -0.0514  0.0699
 2321SOL    HW218597   4.016   1.229  14.458  0.5798 -2.0128 -1.9769
 2322SOL     OW18598   3.741   3.086  15.897  0.1652 -0.3027  0.2710
 2322SOL    HW118599   3.769   3.008  15.850  0.3897 -1.4375  2.3060
 2322SOL    HW218600   3.805   3.110  15.964  0.4727  2.2377 -0.9159
 2323SOL     OW18601   0.999   0.117   0.658  0.2168 -0.4383 -0.2172
 2323SOL    HW118602   0.925   0.156   0.610 -0.2084  0.2255  0.9847
 2323SOL    HW218603   1.067   0.183   0.647 -1.3994  1.0148 -1.4413
 2324SOL     OW18604   3.483   1.838   4.285 -0.0972  0.1520  0.4106
 2324SOL    HW118605   3.506   1.931   4.280 -0.1933  0.2532  1.9511
 2324SOL    HW218606   3.532   1.792   4.216 -2.0859 -3.9821  1.7579
 2325SOL     OW18607   1.149   1.395   2.904  0.5534  0.3809  0.0585
 2325SOL    HW118608   1.159   1.426   2.994 -0.6517  4.4901 -1.2296
 2325SOL    HW218609   1.119   1.305   2.921 -0.5685  1.2932  3.0247
 2326SOL     OW18610   0.091   0.010   3.919  0.1171  0.1401  0.5257
 2326SOL    HW118611   0.158   0.075   3.938 -1.2239  1.3616  1.0665
 2326SOL    HW218612   0.122   4.717   3.833 -1.2486 -0.0789  0.1145
 2327SOL     OW18613   0.341   3.918  13.466 -0.1194  0.2396 -0.5641
 2327SOL    HW118614   0.338   4.014  13.471  1.4861  0.3066 -0.7791
 2327SOL    HW218615   0.300   3.890  13.547  1.8429 -0.0909  0.3186
 2328SOL     OW18616   2.784   0.002   6.718  0.3133  0.2178  0.4563
 2328SOL    HW118617   2.783   0.073   6.782 -1.1426 -0.1281  0.8358
 2328SOL    HW218618   2.695   0.011   6.682  0.1617 -0.2936  0.7040
 2329SOL     OW18619   1.690   1.335   1.752 -0.0762 -0.2606  0.5502
 2329SOL    HW118620   1.717   1.376   1.834  0.4641  1.4203 -0.4609
 2329SOL    HW218621   1.690   1.241   1.771 -0.4430 -0.2984  0.3622
 2330SOL     OW18622   2.111   3.571   8.176 -0.2082  0.0878 -0.1213
 2330SOL    HW118623   2.024   3.597   8.145  0.4699  1.6508 -0.6970
 2330SOL    HW218624   2.122   3.614   8.261  1.5429 -1.6235  0.5192
 2331SOL     OW18625   1.917   2.694  11.072 -0.1269  0.2567 -0.0590
 2331SOL    HW118626   1.873   2.624  11.120  0.3240 -1.3124 -1.9251
 2331SOL    HW218627   1.941   2.645  10.994  2.1067  0.6767  0.3632
 2332SOL     OW18628   3.990   3.544   9.857  0.2556  0.3032 -0.5134
 2332SOL    HW118629   3.941   3.626   9.854  0.0581  0.2102  0.0625
 2332SOL    HW218630   4.064   3.560   9.917  1.0500  0.6991 -1.5983
 2333SOL     OW18631   3.213   1.168   9.609  1.1966  0.0169  0.0460
 2333SOL    HW118632   3.299   1.211   9.612  1.0931  0.2693 -0.8005
 2333SOL    HW218633   3.239   1.088   9.563 -0.2008 -0.5888  0.3052
 2334SOL     OW18634   1.692   0.914   7.648 -0.3644  0.3994 -0.2764
 2334SOL    HW118635   1.786   0.917   7.667 -0.2173 -1.9179 -0.6542
 2334SOL    HW218636   1.666   0.926   7.739  0.2868  0.2637 -0.0736
 2335SOL     OW18637   1.274   3.014   4.669 -0.1127 -0.1513  0.2678
 2335SOL    HW118638   1.202   3.058   4.714 -0.3202 -0.4082  0.1855
 2335SOL    HW218639   1.225   2.944   4.627 -0.1685  0.5220 -0.7873
 2336SOL     OW18640   4.477   2.625   9.151 -0.2772 -0.2197  0.1241
 2336SOL    HW118641   4.542   2.694   9.136  0.8411 -0.9843  1.5068
 2336SOL    HW218642   4.399   2.680   9.156 -0.1711 -0.0139 -0.4077
 2337SOL     OW18643   3.251   2.644   6.408  0.2611 -0.9067 -0.4350
 2337SOL    HW118644   3.273   2.621   6.498 -0.7884  2.7777  0.7228
 2337SOL    HW218645   3.298   2.721   6.376 -0.4895  0.3596  1.5676
 2338SOL     OW18646   4.373   2.825   7.178  0.1212 -0.3615  0.1516
 2338SOL    HW118647   4.362   2.817   7.083 -1.5165 -3.3993  0.5688
 2338SOL    HW218648   4.452   2.877   7.190  0.0178 -0.2583  0.3734
 2339SOL     OW18649   0.184   3.852   6.215 -0.0643 -0.0455  0.3645
 2339SOL    HW118650   0.140   3.872   6.297 -0.8426  0.2632 -0.1264
 2339SOL    HW218651   0.165   3.926   6.157  1.2428  1.9402  2.5050
 2340SOL     OW18652   1.696   2.210   9.659 -0.8437 -0.4381  0.3055
 2340SOL    HW118653   1.663   2.264   9.731 -2.3230 -2.0274  0.8248
 2340SOL    HW218654   1.642   2.131   9.668 -2.2866  0.6632  1.4054
 2341SOL     OW18655   0.812   4.727   1.654  0.1224  0.2731  0.3408
 2341SOL    HW118656   0.803   0.072   1.606  0.4178 -0.8670 -1.7139
 2341SOL    HW218657   0.904   4.702   1.640  0.7669  1.8817  1.8026
 2342SOL     OW18658   3.400   4.387   2.487  0.0006  0.0923 -0.4620
 2342SOL    HW118659   3.459   4.461   2.501 -1.8033  1.9470 -2.7231
 2342SOL    HW218660   3.342   4.424   2.420  0.3120  1.2037 -0.1143
 2343SOL     OW18661   3.416   3.221   6.520 -0.3070  0.6534  0.3948
 2343SOL    HW118662   3.389   3.312   6.511  2.0273  1.2130 -1.1440
 2343SOL    HW218663   3.336   3.185   6.558 -0.7924 -1.4356 -2.6218
 2344SOL     OW18664   2.893   3.364   2.948  0.3118  0.4208  0.4667
 2344SOL    HW118665   2.898   3.297   2.880  0.8544  0.8152  0.1133
 2344SOL    HW218666   2.816   3.409   2.913  0.2523  0.4155  0.5927
 2345SOL     OW18667   1.843   3.239  14.833  0.2959  0.3938  0.0420
 2345SOL    HW118668   1.859   3.152  14.870  1.1798 -0.1349 -1.6054
 2345SOL    HW218669   1.881   3.224  14.747  0.5539 -1.1353  0.4112
 2346SOL     OW18670   1.553   1.867   4.413 -0.1851  0.3102  0.3392
 2346SOL    HW118671   1.537   1.946   4.465  3.5058  0.2959  1.4657
 2346SOL    HW218672   1.484   1.813   4.451  2.7713 -3.4358  0.3442
 2347SOL     OW18673   4.715   1.655  11.301  0.2489 -0.1686 -0.0869
 2347SOL    HW118674   4.629   1.645  11.261  0.5087 -0.5290 -0.5618
 2347SOL    HW218675   0.035   1.598  11.249 -1.7305 -0.6031 -1.7943
 2348SOL     OW18676   0.024   4.044   6.395  0.4188 -0.0098  0.0598
 2348SOL    HW118677   0.097   4.077   6.448  1.7476 -0.3748 -1.5595
 2348SOL    HW218678   4.706   3.992   6.454  1.7774 -1.2633  0.2148
 2349SOL     OW18679   3.753   0.322   2.868 -0.7882 -0.1699  0.1361
 2349SOL    HW118680   3.816   0.270   2.817  0.0050  0.5437  0.3926
 2349SOL    HW218681   3.792   0.305   2.953  1.1495 -0.2936 -0.7758
 2350SOL     OW18682   1.838   2.913   5.320 -0.3756  0.2123 -0.6988
 2350SOL    HW118683   1.825   2.994   5.369  1.6524 -0.1900  0.5293
 2350SOL    HW218684   1.769   2.853   5.348 -1.1952  0.9193 -1.2051
 2351SOL     OW18685   0.950   1.065   8.601  0.3089  0.6095  0.2760
 2351SOL    HW118686   1.010   1.039   8.671  1.2820 -1.0643 -1.1638
 2351SOL    HW218687   0.924   0.981   8.562  1.7033  1.0579 -1.6100
 2352SOL     OW18688   1.132   0.012   2.192 -0.3439  0.3835 -0.7446
 2352SOL    HW118689   1.117   4.654   2.195  1.0679  0.1762 -0.0717
 2352SOL    HW218690   1.042   0.044   2.188  0.7790  3.7326  0.8557
 2353SOL     OW18691   3.338   2.363   0.576 -0.6959  0.3934 -0.0697
 2353SOL    HW118692   3.324   2.450   0.539  1.3643  0.1606 -1.3870
 2353SOL    HW218693   3.433   2.365   0.578 -0.7507  2.4899  0.4724
 2354SOL     OW18694   0.893   0.724   6.380 -0.1888 -0.2631 -0.1414
 2354SOL    HW118695   0.835   0.706   6.454  2.0422 -0.7356  1.4877
 2354SOL    HW218696   0.836   0.787   6.336 -0.7431 -0.8462 -0.2637
 2355SOL     OW18697   1.945   3.621   0.394  0.2919 -0.7841  0.1131
 2355SOL    HW118698   1.878   3.690   0.393 -0.5844 -1.6691 -1.2047
 2355SOL    HW218699   1.986   3.630   0.308 -0.3116 -2.6999 -0.3555
 2356SOL     OW18700   4.016   0.380   2.594 -0.0161 -0.0161  0.1053
 2356SOL    HW118701   3.952   0.402   2.526  1.4073 -0.4867 -1.3909
 2356SOL    HW218702   3.985   0.290   2.607 -0.5776  0.2419  0.5470
 2357SOL     OW18703   0.106   1.936   4.753  0.3080  0.0188  0.2997
 2357SOL    HW118704   0.081   1.989   4.828  0.4637 -2.2893  1.9965
 2357SOL    HW218705   0.188   1.976   4.724  1.4215 -0.8116  2.3204
 2358SOL     OW18706   3.810   4.036   8.881  0.0041 -0.7068 -0.0461
 2358SOL    HW118707   3.779   3.945   8.877 -0.4554 -0.6158  1.6158
 2358SOL    HW218708   3.740   4.077   8.830  3.5946  1.8387 -2.9549
 2359SOL     OW18709   4.405   3.510   2.192  0.3094 -1.3432  0.0140
 2359SOL    HW118710   4.407   3.420   2.224  0.7194 -1.5082 -0.4819
 2359SOL    HW218711   4.449   3.544   2.269  0.1009 -3.8678  1.2601
 2360SOL     OW18712   1.397   3.608   5.335  0.0210 -0.2372 -0.1470
 2360SOL    HW118713   1.384   3.641   5.246  1.0022  1.6300  0.3977
 2360SOL    HW218714   1.462   3.670   5.368 -0.7491  0.3664  0.2478
 2361SOL     OW18715   4.454   2.579  16.561  0.2387 -0.3336  0.1384
 2361SOL    HW118716   4.393   2.635  16.610  1.7761  0.6934  0.8714
 2361SOL    HW218717   4.434   2.495  16.602  1.9081 -0.6212  0.3556
 2362SOL     OW18718   0.823   1.080  16.391  0.1080  0.2043 -0.7022
 2362SOL    HW118719   0.796   1.168  16.417  0.1519  0.4687 -1.5483
 2362SOL    HW218720   0.907   1.091  16.345  0.5459  2.1241  0.5534
 2363SOL     OW18721   3.591   3.379   4.587  0.3215  0.0930  0.1608
 2363SOL    HW118722   3.631   3.431   4.657 -0.9535  0.2836  0.7413
 2363SOL    HW218723   3.546   3.446   4.535 -0.1199  0.6768  1.3044
 2364SOL     OW18724   2.433   1.631   1.965 -0.1727  0.2968  0.4294
 2364SOL    HW118725   2.343   1.628   1.931  0.6540 -1.8300 -1.5712
 2364SOL    HW218726   2.463   1.543   1.944  1.3930  1.3572 -1.7700
 2365SOL     OW18727   1.725   0.366   3.689 -0.0339 -0.1092 -0.0431
 2365SOL    HW118728   1.704   0.449   3.732 -0.5439 -0.7380  0.9256
 2365SOL    HW218729   1.666   0.356   3.614 -0.7637 -1.6517  0.7420
 2366SOL     OW18730   4.132   2.467  16.199 -0.3058 -0.0346 -0.3150
 2366SOL    HW118731   4.224   2.460  16.176 -0.0945  0.9086  0.2349
 2366SOL    HW218732   4.090   2.423  16.125  0.1959  0.5488 -0.9355
 2367SOL     OW18733   0.948   1.652  12.546 -0.0338  0.0718 -0.1064
 2367SOL    HW118734   1.023   1.678  12.493 -1.6090  0.3009 -2.2440
 2367SOL    HW218735   0.889   1.723  12.520 -0.9257 -0.3393  0.7934
 2368SOL     OW18736   1.595   0.211  10.075 -0.4653  0.4237 -0.2222
 2368SOL    HW118737   1.559   0.150  10.139  2.3827 -0.7580  0.2838
 2368SOL    HW218738   1.672   0.253  10.114 -0.9924  1.1589  0.0292
 2369SOL     OW18739   0.823   2.975   5.054 -0.3141 -0.0726  0.4465
 2369SOL    HW118740   0.739   2.979   5.006 -0.3543  0.0111  0.5250
 2369SOL    HW218741   0.804   3.014   5.139  1.2120  2.2939 -0.3314
 2370SOL     OW18742   1.047   4.610   2.451  0.6198 -0.1287  0.1952
 2370SOL    HW118743   1.009   4.524   2.467  1.3941 -0.8084 -1.6620
 2370SOL    HW218744   1.131   4.588   2.410 -0.0693 -0.8745 -0.8192
 2371SOL     OW18745   3.248   1.728   5.704 -0.1248 -1.1730 -0.2998
 2371SOL    HW118746   3.256   1.700   5.613  2.3928 -1.3341 -0.0301
 2371SOL    HW218747   3.194   1.807   5.695  1.3828  0.0508  1.4951
 2372SOL     OW18748   2.241   3.043   3.452  0.4260 -0.0208 -0.2432
 2372SOL    HW118749   2.269   3.121   3.406  0.3395  0.6274  0.7929
 2372SOL    HW218750   2.180   3.074   3.519  0.8080 -4.1730  2.0346
 2373SOL     OW18751   1.185   2.063   3.249 -0.1065  0.7999 -0.7361
 2373SOL    HW118752   1.096   2.087   3.273  0.0645  0.6161  0.0796
 2373SOL    HW218753   1.178   2.022   3.162 -1.5506 -0.9254  0.2030
 2374SOL     OW18754   0.608   1.183   4.699 -0.5013  0.1053  0.3384
 2374SOL    HW118755   0.668   1.255   4.679  0.7157 -0.7385  0.9863
 2374SOL    HW218756   0.564   1.184   4.614 -0.7982  0.9338  0.4939
 2375SOL     OW18757   3.881   2.695   5.182 -0.2291  0.0819 -0.0979
 2375SOL    HW118758   3.799   2.646   5.192 -0.2522  0.6511  2.5841
 2375SOL    HW218759   3.940   2.649   5.122  0.0689 -1.9848  1.7707
 2376SOL     OW18760   4.664   2.173   3.067  0.0404 -0.2863 -0.0902
 2376SOL    HW118761   4.687   2.083   3.042 -1.6373 -1.1733  1.5509
 2376SOL    HW218762   4.617   2.209   2.992 -0.2386  0.9815  0.7005
 2377SOL     OW18763   3.242   1.079   1.328 -0.4148 -0.0541 -0.2599
 2377SOL    HW118764   3.193   1.094   1.408 -0.9639  0.8619 -0.7750
 2377SOL    HW218765   3.248   0.984   1.323 -0.4203 -0.0530 -0.2891
 2378SOL     OW18766   4.175   4.502   9.210 -0.2837  0.1631 -0.3060
 2378SOL    HW118767   4.255   4.555   9.214 -1.0229  1.3028 -0.4019
 2378SOL    HW218768   4.128   4.570   9.161  0.0560  0.6476  0.0292
 2379SOL     OW18769   1.025   3.527  17.255 -0.0502  0.0436  0.8673
 2379SOL    HW118770   1.120   3.534  17.258 -0.2238  2.2701  0.7805
 2379SOL    HW218771   1.004   3.619  17.270  1.7716  0.4347  0.9736
 2380SOL     OW18772   1.128   1.800   4.024  0.0942 -0.2076 -0.1587
 2380SOL    HW118773   1.134   1.733   3.956  0.0121 -1.7950  1.3976
 2380SOL    HW218774   1.208   1.848   4.006  0.4388 -0.8150 -0.2401
 2381SOL     OW18775   0.016   3.560  16.207  0.1887  0.5511 -0.0435
 2381SOL    HW118776   4.724   3.477  16.243  2.0658 -0.5401 -1.0736
 2381SOL    HW218777   4.666   3.601  16.201 -1.1719 -2.6666 -1.9131
 2382SOL     OW18778   0.929   4.066  16.321  0.0995  0.0365 -0.0987
 2382SOL    HW118779   0.877   4.088  16.399  1.8969  0.3370  1.0102
 2382SOL    HW218780   0.998   4.015  16.364  1.1705  0.9436 -0.7469
 2383SOL     OW18781   3.544   0.593   6.323  0.6917  0.2167 -0.2104
 2383SOL    HW118782   3.634   0.560   6.330  0.8362  0.5576 -0.5007
 2383SOL    HW218783   3.555   0.687   6.336 -0.7310 -0.0525  3.1326
 2384SOL     OW18784   0.583   4.270   5.530  0.6102 -1.0685  0.5669
 2384SOL    HW118785   0.563   4.208   5.601  0.5621 -0.7643  0.8159
 2384SOL    HW218786   0.596   4.204   5.461  2.9149 -0.1300  0.1342
 2385SOL     OW18787   2.879   1.296   3.490  0.1043  0.4126  0.0994
 2385SOL    HW118788   2.821   1.287   3.566  2.6247 -0.5628  1.8998
 2385SOL    HW218789   2.831   1.363   3.441  2.2560  0.7413 -1.5226
 2386SOL     OW18790   0.675   2.297  13.655 -0.0761  0.1241 -0.2237
 2386SOL    HW118791   0.680   2.220  13.599 -1.0052  0.4658 -0.7911
 2386SOL    HW218792   0.635   2.359  13.594  0.3490 -0.2747 -0.9011
 2387SOL     OW18793   3.995   3.707   7.223  0.0270 -0.0600  0.2270
 2387SOL    HW118794   3.925   3.714   7.288  2.0149  1.3180  2.2312
 2387SOL    HW218795   3.973   3.642   7.156 -0.4832  0.8730 -0.5131
 2388SOL     OW18796   3.947   1.281  12.363  0.4809  0.0772  0.0409
 2388SOL    HW118797   3.960   1.256  12.272 -3.0956 -3.0378  0.3952
 2388SOL    HW218798   4.034   1.272  12.403  1.2052 -0.5921 -1.7132
 2389SOL     OW18799   2.351   1.740   9.072 -0.9765  0.0732 -0.4157
 2389SOL    HW118800   2.411   1.666   9.070 -1.1218 -0.0420 -0.4963
 2389SOL    HW218801   2.309   1.739   9.158 -3.0717 -0.3429 -1.4443
 2390SOL     OW18802   0.950   3.790   6.490  0.1861 -0.5992 -0.1574
 2390SOL    HW118803   1.010   3.718   6.509  0.3889 -1.0818 -2.5804
 2390SOL    HW218804   0.980   3.869   6.536  2.9950 -1.8053  0.0656
 2391SOL     OW18805   0.138   0.860   8.327 -0.4199 -0.0829 -0.3514
 2391SOL    HW118806   0.213   0.878   8.270 -0.4691 -0.2211 -0.4594
 2391SOL    HW218807   0.144   0.943   8.374 -1.2392 -0.4234  0.3517
 2392SOL     OW18808   3.721   1.711  13.687 -0.2264 -0.6129  0.5764
 2392SOL    HW118809   3.755   1.710  13.776 -0.6100 -1.0137  0.7195
 2392SOL    HW218810   3.744   1.628  13.646  0.7345  1.0790 -2.3387
 2393SOL     OW18811   1.303   3.284  16.081  0.0623 -0.1194  0.5516
 2393SOL    HW118812   1.375   3.249  16.029 -0.2690  0.9137 -0.6057
 2393SOL    HW218813   1.349   3.302  16.163 -0.9556  0.5294  0.9823
 2394SOL     OW18814   1.820   2.256   3.598  0.1414  0.1832  0.2139
 2394SOL    HW118815   1.812   2.338   3.647 -0.6228  0.2868 -0.0816
 2394SOL    HW218816   1.806   2.293   3.511 -2.5457 -2.2522 -0.3952
 2395SOL     OW18817   3.908   0.697  13.540  0.1376 -0.1323 -0.1628
 2395SOL    HW118818   3.868   0.638  13.605 -2.0185  0.7984 -0.6354
 2395SOL    HW218819   3.952   0.637  13.480  2.0525  0.7862  0.3386
 2396SOL     OW18820   0.656   1.575   3.838  0.5165  0.0858  0.2527
 2396SOL    HW118821   0.624   1.611   3.755  1.2457  1.7882  0.6975
 2396SOL    HW218822   0.680   1.484   3.819  0.4988  0.3032 -0.8065
 2397SOL     OW18823   3.889   4.417   8.196 -0.4499  0.1523 -0.2816
 2397SOL    HW118824   3.798   4.389   8.196 -0.2406 -0.5375  3.7228
 2397SOL    HW218825   3.885   4.482   8.266  0.7626  0.5588 -0.5898
 2398SOL     OW18826   3.859   0.309   5.180 -0.0701 -0.4979  0.3322
 2398SOL    HW118827   3.843   0.344   5.268  1.5192 -0.1125  0.4609
 2398SOL    HW218828   3.919   0.371   5.140 -2.2380  1.2209 -0.2959
 2399SOL     OW18829   2.325   3.706   5.021 -0.2975 -0.5909  0.5116
 2399SOL    HW118830   2.239   3.687   5.059 -0.3039  0.4257  0.9988
 2399SOL    HW218831   2.346   3.635   4.960  0.2000  1.3702 -1.5946
 2400SOL     OW18832   4.691   3.987   8.800 -0.4321 -0.3418 -0.0191
 2400SOL    HW118833   4.657   4.046   8.732 -0.7093 -0.0901  0.3374
 2400SOL    HW218834   4.735   4.044   8.862 -1.0138 -0.2367  0.2966
 2401SOL     OW18835   3.857   0.731   6.887  0.3881 -0.1792  0.2356
 2401SOL    HW118836   3.926   0.739   6.953  2.0509  0.5910 -1.5927
 2401SOL    HW218837   3.793   0.685   6.942 -0.9942 -1.5152 -2.5033
 2402SOL     OW18838   0.166   2.165  13.234  0.2253  0.0459 -0.9051
 2402SOL    HW118839   0.161   2.174  13.329 -0.4477 -1.0188 -0.8412
 2402SOL    HW218840   0.083   2.202  13.206  0.0416 -0.6023 -1.2216
 2403SOL     OW18841   2.257   0.725   0.119  0.0055  0.0982 -0.1142
 2403SOL    HW118842   2.258   0.812   0.078  1.3220  0.3592  0.4550
 2403SOL    HW218843   2.249   0.735   0.214 -0.2351 -2.0103  0.0943
 2404SOL     OW18844   4.541   3.875   6.481 -0.4515  0.3800  0.0647
 2404SOL    HW118845   4.524   3.903   6.571  1.7256  1.3410  0.1930
 2404SOL    HW218846   4.453   3.885   6.445 -0.2149  1.7344 -0.1373
 2405SOL     OW18847   3.356   4.155   5.893 -0.2599 -0.1593  0.3558
 2405SOL    HW118848   3.383   4.212   5.822  0.2309 -1.3279 -0.4020
 2405SOL    HW218849   3.261   4.157   5.901 -0.4500 -1.5652 -1.4177
 2406SOL     OW18850   2.233   4.714  14.046 -0.5085 -0.1338 -0.6226
 2406SOL    HW118851   2.279   4.660  14.109 -1.4125  0.5372  0.6177
 2406SOL    HW218852   2.279   0.059  14.065  1.0217 -1.8236  2.9804
 2407SOL     OW18853   3.473   4.161   7.441 -0.5475 -0.5968  0.5148
 2407SOL    HW118854   3.489   4.156   7.347 -0.8853 -0.3921  0.4502
 2407SOL    HW218855   3.444   4.250   7.459 -1.4869 -0.5098 -1.3860
 2408SOL     OW18856   1.532   3.443   4.377  0.0328 -0.5321 -0.7279
 2408SOL    HW118857   1.589   3.459   4.452 -1.7286  2.6447 -0.0669
 2408SOL    HW218858   1.584   3.445   4.297  0.9572 -0.6802 -0.1249
 2409SOL     OW18859   0.758   4.286   8.211 -0.7880 -0.1768  0.2105
 2409SOL    HW118860   0.729   4.195   8.224 -1.7267 -0.1020 -1.3689
 2409SOL    HW218861   0.809   4.296   8.291  0.2393  1.6376 -0.6776
 2410SOL     OW18862   3.400   0.195   0.671 -0.1881 -0.0844  0.3486
 2410SOL    HW118863   3.434   0.278   0.706 -0.7043 -0.0321  0.7244
 2410SOL    HW218864   3.346   0.219   0.596 -0.5928  0.1456  0.7163
 2411SOL     OW18865   3.873   0.276   5.531 -0.4808 -0.7961  0.3709
 2411SOL    HW118866   3.782   0.289   5.503  0.2531  1.9911 -0.6748
 2411SOL    HW218867   3.845   0.254   5.620 -1.6516  0.3934  0.3071
 2412SOL     OW18868   1.707   2.656   5.610  0.1339 -0.2104 -0.2270
 2412SOL    HW118869   1.800   2.666   5.631  0.5120  0.3880 -2.1571
 2412SOL    HW218870   1.672   2.655   5.699 -0.6856 -1.0486 -0.5580
 2413SOL     OW18871   0.731   0.528   3.549  0.1258 -0.0711  0.3333
 2413SOL    HW118872   0.731   0.624   3.549  3.5017 -0.0782  0.5156
 2413SOL    HW218873   0.820   0.505   3.522  0.2705  1.5758 -0.5912
 2414SOL     OW18874   0.837   1.261   5.914 -0.1932 -0.4066  0.5231
 2414SOL    HW118875   0.869   1.202   5.982 -2.0691  0.3713  2.0525
 2414SOL    HW218876   0.896   1.335   5.929 -0.4420 -0.0255 -0.3457
 2415SOL     OW18877   0.720   4.684   4.132 -0.4271 -0.6311  0.0082
 2415SOL    HW118878   0.768   4.636   4.064 -1.9281  2.4505 -3.2445
 2415SOL    HW218879   0.638   4.683   4.084  0.3851  3.1964 -1.4162
 2416SOL     OW18880   3.243   1.083  13.677  0.4147  0.7150 -0.2800
 2416SOL    HW118881   3.313   1.101  13.614  1.3481  1.8943  1.1022
 2416SOL    HW218882   3.221   1.171  13.708 -0.9305  0.1658  0.3383
 2417SOL     OW18883   0.511   1.903  10.068  0.1320  0.1724 -0.0851
 2417SOL    HW118884   0.520   1.871   9.978  0.6309 -0.6290  0.2482
 2417SOL    HW218885   0.599   1.942  10.071  0.6824 -1.1894  1.2752
 2418SOL     OW18886   2.362   1.020  14.672 -0.3209 -0.1825  0.4482
 2418SOL    HW118887   2.379   1.106  14.634  0.8191 -0.6268 -0.0300
 2418SOL    HW218888   2.318   0.981  14.596  1.2472  2.0483 -1.5944
 2419SOL     OW18889   3.523   1.369  14.224 -0.2260 -0.3376  0.7838
 2419SOL    HW118890   3.618   1.377  14.216 -0.1994  0.4256  1.8319
 2419SOL    HW218891   3.499   1.374  14.131  2.9739  0.8994  0.0066
 2420SOL     OW18892   3.230   0.523   3.897  0.3354 -0.0997 -0.3237
 2420SOL    HW118893   3.154   0.578   3.879 -1.0724 -2.0584 -0.3319
 2420SOL    HW218894   3.258   0.566   3.978  0.7963  0.8124 -0.9658
 2421SOL     OW18895   1.427   0.578   0.785  0.3459  0.3355  0.3656
 2421SOL    HW118896   1.519   0.595   0.764  0.1377  0.0543 -0.7735
 2421SOL    HW218897   1.394   0.668   0.786  1.6012  0.8132 -3.1147
 2422SOL     OW18898   4.300   3.729  13.087 -0.4980 -0.0972 -0.7469
 2422SOL    HW118899   4.345   3.644  13.082  0.0065  0.1313 -0.0876
 2422SOL    HW218900   4.264   3.724  13.176 -0.6410  1.7827 -0.7027
 2423SOL     OW18901   0.641   3.371   3.318 -0.6732 -0.7646 -0.1171
 2423SOL    HW118902   0.727   3.330   3.328 -0.5161 -0.4751 -0.2622
 2423SOL    HW218903   0.596   3.320   3.251  0.5915 -0.6780 -1.0387
 2424SOL     OW18904   4.420   1.745   6.914  0.3131  0.5055 -0.1305
 2424SOL    HW118905   4.424   1.823   6.860  0.6449  0.2237 -0.5127
 2424SOL    HW218906   4.513   1.728   6.926  0.2941  0.6215  0.1776
 2425SOL     OW18907   0.683   4.295  12.100 -0.2919 -0.2067 -0.0537
 2425SOL    HW118908   0.661   4.372  12.047 -2.5653 -0.0000  1.1954
 2425SOL    HW218909   0.773   4.282  12.071  0.1787  2.7655  0.0746
 2426SOL     OW18910   1.800   0.033   9.722  0.6514 -0.2118 -0.3468
 2426SOL    HW118911   1.846   0.078   9.793  0.9731 -1.0966 -0.0028
 2426SOL    HW218912   1.717   0.081   9.725  0.9207  0.1695  0.8643
 2427SOL     OW18913   0.199   4.206   9.250 -0.2567 -0.1106 -0.9183
 2427SOL    HW118914   0.165   4.208   9.339  0.0765  2.6845 -0.8461
 2427SOL    HW218915   0.182   4.295   9.218 -0.2221 -0.0913 -0.8829
 2428SOL     OW18916   1.862   4.238   3.280  0.1010 -0.2908  0.2610
 2428SOL    HW118917   1.902   4.294   3.214  0.6573 -0.8920  0.0983
 2428SOL    HW218918   1.868   4.149   3.246  0.1118 -0.6226  1.1111
 2429SOL     OW18919   3.708   0.689   1.448  0.1936 -0.1852 -0.2042
 2429SOL    HW118920   3.687   0.762   1.506 -0.8488 -1.6507  1.2961
 2429SOL    HW218921   3.630   0.633   1.447 -0.0571  0.1057  2.1898
 2430SOL     OW18922   2.998   0.022   2.466  0.7514 -0.7510 -0.1923
 2430SOL    HW118923   3.001   4.681   2.521  1.1123  0.8753  2.1445
 2430SOL    HW218924   2.932   0.067   2.519 -0.0462  1.1663 -2.8504
 2431SOL     OW18925   2.532   0.834   8.399 -0.6546 -0.0205  0.6638
 2431SOL    HW118926   2.585   0.793   8.468 -0.4465 -1.9345 -0.6231
 2431SOL    HW218927   2.465   0.767   8.389 -2.1177  1.4546  0.6758
 2432SOL     OW18928   1.444   3.434   8.488  0.1717 -0.1406 -0.1450
 2432SOL    HW118929   1.525   3.396   8.455  0.9402  0.2406  1.3187
 2432SOL    HW218930   1.463   3.490   8.563  0.2747  0.7870 -0.8649
 2433SOL     OW18931   0.968   2.401   5.466  0.0260 -0.3331 -0.0574
 2433SOL    HW118932   0.966   2.376   5.374  1.0801 -0.5802 -0.0185
 2433SOL    HW218933   0.962   2.497   5.473  3.0416 -0.1625  0.0497
 2434SOL     OW18934   3.374   0.904   4.214  0.1139 -0.2448  0.5353
 2434SOL    HW118935   3.432   0.976   4.240  0.1104  0.0274 -0.1910
 2434SOL    HW218936   3.326   0.891   4.296  1.1279  0.1389  1.1896
 2435SOL     OW18937   0.001   2.211   6.547  0.0222 -0.4967 -0.3031
 2435SOL    HW118938   4.716   2.211   6.640 -1.0356  0.3627 -0.5562
 2435SOL    HW218939   4.665   2.163   6.508 -1.1474  0.7592  0.3647
 2436SOL     OW18940   0.487   3.960   7.078 -0.0308  0.1698  0.2585
 2436SOL    HW118941   0.505   3.996   7.165 -0.4881  0.9053  0.0556
 2436SOL    HW218942   0.391   3.959   7.081  0.0241  1.2461  2.3284
 2437SOL     OW18943   2.370   0.054  17.263 -0.2884 -0.1186 -0.3432
 2437SOL    HW118944   2.289   0.055  17.211  0.4100  1.8655 -1.3975
 2437SOL    HW218945   2.436   0.024  17.202  1.0358 -0.2967  1.1771
 2438SOL     OW18946   4.567   3.462   3.442 -0.2703 -0.5587 -0.3256
 2438SOL    HW118947   4.482   3.446   3.483  1.3367 -0.6024  2.9714
 2438SOL    HW218948   4.618   3.512   3.505 -0.7708 -1.1440  0.5401
 2439SOL     OW18949   0.634   1.031   6.845 -0.5455 -0.0450  0.1037
 2439SOL    HW118950   0.683   1.106   6.810  0.6690 -1.0686 -0.4134
 2439SOL    HW218951   0.562   1.075   6.890 -0.6330 -0.7734  0.6716
 2440SOL     OW18952   2.971   4.269   5.594  0.1040 -0.7370  0.1491
 2440SOL    HW118953   3.065   4.288   5.593  0.0193 -0.5385 -3.3097
 2440SOL    HW218954   2.940   4.341   5.539  1.3373 -0.4450 -0.1621
 2441SOL     OW18955   0.535   1.914   8.023 -0.4075 -0.0588 -0.1838
 2441SOL    HW118956   0.486   1.883   8.099 -1.7040  1.1285 -0.5330
 2441SOL    HW218957   0.589   1.835   8.020  0.3397  0.5322 -2.3145
 2442SOL     OW18958   2.390   1.402  10.642 -0.0152  0.1099  0.1499
 2442SOL    HW118959   2.479   1.368  10.650  0.0177  0.4015  1.0324
 2442SOL    HW218960   2.396   1.466  10.571  3.8180  0.3332  0.6938
 2443SOL     OW18961   0.320   2.609  12.800 -0.4587 -0.3918  0.7709
 2443SOL    HW118962   0.389   2.560  12.845 -0.6507  0.6853  2.2450
 2443SOL    HW218963   0.239   2.575  12.840 -1.6036  0.9273 -0.4451
 2444SOL     OW18964   4.486   1.388   5.533 -0.1939  0.8584  0.1072
 2444SOL    HW118965   4.561   1.447   5.533  1.1318 -0.8410 -0.3141
 2444SOL    HW218966   4.521   1.323   5.594 -0.2140  1.0239  0.2948
 2445SOL     OW18967   4.148   1.626  12.546 -0.0743 -0.0433  0.4610
 2445SOL    HW118968   4.149   1.530  12.541 -1.2517  0.0846 -2.1434
 2445SOL    HW218969   4.206   1.650  12.474 -0.5146 -0.6504 -0.0951
 2446SOL     OW18970   1.908   2.280   6.271  0.1999 -0.0597  0.3830
 2446SOL    HW118971   1.908   2.296   6.176 -0.2635  0.7276  0.5192
 2446SOL    HW218972   1.889   2.186   6.268  0.0662 -0.0505  1.0566
 2447SOL     OW18973   2.594   3.109  15.964 -0.3615  0.6498  0.0182
 2447SOL    HW118974   2.566   3.077  16.050  1.6693 -0.5590  0.2166
 2447SOL    HW218975   2.657   3.178  15.985  1.5116 -1.0683  0.0856
 2448SOL     OW18976   1.384   2.481   2.900 -0.2279 -0.0731 -0.3229
 2448SOL    HW118977   1.320   2.412   2.882  1.0477 -1.6383  1.1312
 2448SOL    HW218978   1.468   2.441   2.878  0.8443  2.8622 -1.5884
 2449SOL     OW18979   0.581   0.175   2.470  0.1045  0.1066 -0.1669
 2449SOL    HW118980   0.542   0.111   2.529  1.3963 -0.7422 -0.2258
 2449SOL    HW218981   0.641   0.120   2.420 -1.2153 -2.2009  0.8235
 2450SOL     OW18982   2.194   2.575   8.471  0.0234 -0.0325  0.0153
 2450SOL    HW118983   2.119   2.582   8.530 -1.3933 -0.8770 -1.6936
 2450SOL    HW218984   2.212   2.481   8.482 -0.0381 -0.1304 -0.7288
 2451SOL     OW18985   0.381   3.309   4.521  0.4213 -1.0142  0.0089
 2451SOL    HW118986   0.417   3.326   4.433 -0.0571 -1.4237 -0.2659
 2451SOL    HW218987   0.361   3.216   4.520  2.5839 -1.4842 -2.1575
 2452SOL     OW18988   4.239   1.132   7.658  0.1523  0.1074 -0.0293
 2452SOL    HW118989   4.245   1.218   7.616  1.1354 -0.1363 -0.3864
 2452SOL    HW218990   4.149   1.110   7.631 -0.8132  1.2908  2.2073
 2453SOL     OW18991   3.663   0.642   7.093 -0.2522 -0.1674 -0.0648
 2453SOL    HW118992   3.591   0.601   7.046  0.8998  0.2213 -2.1671
 2453SOL    HW218993   3.721   0.571   7.120  0.4884  0.9070  1.2064
 2454SOL     OW18994   3.641   1.039   5.202  0.2564  0.3765  0.2270
 2454SOL    HW118995   3.560   1.018   5.249 -0.4597  1.7784 -0.3639
 2454SOL    HW218996   3.689   1.085   5.271 -0.7631  2.1465 -0.2323
 2455SOL     OW18997   2.410   1.729   2.906  0.0521  0.2261  0.8505
 2455SOL    HW118998   2.363   1.802   2.947 -0.1685 -0.7033  2.2585
 2455SOL    HW218999   2.350   1.655   2.914 -0.4418  0.6229  0.8224
 2456SOL     OW19000   3.370   0.404   9.911 -0.3100 -0.3520 -0.1222
 2456SOL    HW119001   3.293   0.449   9.876 -1.0626 -2.6061 -1.4022
 2456SOL    HW219002   3.430   0.427   9.840 -0.8523  0.9387 -0.1450
 2457SOL     OW19003   0.448   1.283   7.442 -0.2193  0.1439  0.4565
 2457SOL    HW119004   0.450   1.267   7.536 -4.0517  0.8905  0.6875
 2457SOL    HW219005   0.521   1.345   7.444  2.2192 -2.7518  1.3977
 2458SOL     OW19006   3.733   1.220   5.013  0.4646 -0.2081 -0.3752
 2458SOL    HW119007   3.683   1.152   5.057  0.6289 -0.6864 -0.9174
 2458SOL    HW219008   3.662   1.279   4.987  1.0099  0.8883  0.6911
 2459SOL     OW19009   2.749   4.429   2.789 -0.3438 -0.1835 -0.2128
 2459SOL    HW119010   2.839   4.405   2.810 -0.9794 -0.1940  2.4444
 2459SOL    HW219011   2.721   4.346   2.749  1.5691 -0.5092 -0.8473
 2460SOL     OW19012   2.445   0.059   8.085 -0.2748  0.3387  0.3395
 2460SOL    HW119013   2.385   0.018   8.023 -1.0847  1.1271  0.6082
 2460SOL    HW219014   2.485   0.139   8.049 -0.9940  0.5795  0.0791
 2461SOL     OW19015   0.117   4.170  10.605 -0.2234 -0.3410  0.1004
 2461SOL    HW119016   0.053   4.145  10.671  0.7087 -2.1682  0.3187
 2461SOL    HW219017   0.179   4.236  10.637 -1.8846  0.8661  0.8622
 2462SOL     OW19018   4.308   1.699  15.896  0.0212 -0.0290  0.0356
 2462SOL    HW119019   4.255   1.621  15.909 -0.0077  0.1467  1.0007
 2462SOL    HW219020   4.248   1.772  15.910 -0.2562 -0.0960 -0.8241
 2463SOL     OW19021   0.900   1.180   6.899 -0.3892  0.9048 -1.0581
 2463SOL    HW119022   0.994   1.161   6.898 -0.8231 -1.2477 -2.0199
 2463SOL    HW219023   0.893   1.226   6.982 -0.0593 -2.6748  0.9895
 2464SOL     OW19024   2.253   1.096   8.269  0.2625  0.3619  0.9851
 2464SOL    HW119025   2.311   1.171   8.252  0.4800  0.2681  1.3081
 2464SOL    HW219026   2.280   1.041   8.196 -2.3624  1.4706 -0.8076
 2465SOL     OW19027   2.795   4.177   6.050 -0.5439 -0.8378  0.1462
 2465SOL    HW119028   2.820   4.266   6.026  1.8548 -1.2443  1.2302
 2465SOL    HW219029   2.819   4.192   6.141  0.6490  3.0696 -0.8068
 2466SOL     OW19030   1.988   1.039  16.538  0.1598  0.0877 -0.5523
 2466SOL    HW119031   1.967   0.962  16.591 -0.7141  0.0547 -0.9483
 2466SOL    HW219032   2.025   1.083  16.614 -0.8723 -0.5767  0.3402
 2467SOL     OW19033   4.349   2.066   1.376  0.1693 -0.4077 -0.3822
 2467SOL    HW119034   4.294   1.997   1.414  1.1282 -0.6422  0.5917
 2467SOL    HW219035   4.310   2.140   1.423  0.1240 -0.1407 -0.8404
 2468SOL     OW19036   2.368   2.797   4.044 -0.2850 -0.2320 -0.1787
 2468SOL    HW119037   2.278   2.780   4.018 -0.3968  2.0219 -1.2702
 2468SOL    HW219038   2.415   2.754   3.972  1.2466  2.6494 -0.8744
 2469SOL     OW19039   2.852   3.143   4.148  0.5237 -0.1256 -0.6922
 2469SOL    HW119040   2.884   3.218   4.198 -2.2075 -0.0677  0.9619
 2469SOL    HW219041   2.759   3.156   4.165  1.0255  0.0597  1.9787
 2470SOL     OW19042   1.386   2.520  16.284  0.6555  0.3328  0.0295
 2470SOL    HW119043   1.315   2.490  16.226 -0.0476  2.6110 -0.2806
 2470SOL    HW219044   1.420   2.592  16.231 -1.4288  1.2775 -0.0339
 2471SOL     OW19045   0.835   0.539   6.843  0.3088  0.4107 -0.0387
 2471SOL    HW119046   0.819   0.472   6.909  1.3541  2.4112  2.2358
 2471SOL    HW219047   0.913   0.580   6.880  1.3119 -1.7763  0.2693
 2472SOL     OW19048   2.444   0.051   7.760  0.8777 -0.2662 -0.2384
 2472SOL    HW119049   2.362   0.090   7.730  0.4985 -0.1328  0.9624
 2472SOL    HW219050   2.422   4.698   7.784 -1.2532 -0.2992 -2.3027
 2473SOL     OW19051   0.666   4.429  13.717 -0.0862 -0.2727  0.6929
 2473SOL    HW119052   0.583   4.475  13.718 -0.9187 -1.6750 -2.3019
 2473SOL    HW219053   0.694   4.439  13.626 -0.2807 -1.1132  0.5331
 2474SOL     OW19054   3.629   1.573  14.467 -0.3181 -0.5021 -0.0284
 2474SOL    HW119055   3.557   1.608  14.414 -2.4076 -1.6068  2.1061
 2474SOL    HW219056   3.681   1.526  14.402 -0.2665  0.9175 -1.0107
 2475SOL     OW19057   0.488   3.148   7.777  0.1640 -0.8053  0.5169
 2475SOL    HW119058   0.523   3.155   7.689 -3.6480 -0.6230 -0.9837
 2475SOL    HW219059   0.396   3.121   7.772  0.0926  0.0068 -2.1894
 2476SOL     OW19060   0.377   1.130  11.461  0.3513  0.5319  0.0240
 2476SOL    HW119061   0.305   1.067  11.460  0.9003 -0.1130  0.3246
 2476SOL    HW219062   0.444   1.076  11.418  1.8020  2.2035  0.1942
 2477SOL     OW19063   1.128   2.672  12.327 -0.6082 -0.8979 -0.5964
 2477SOL    HW119064   1.135   2.694  12.234  0.5595 -0.1272 -0.3282
 2477SOL    HW219065   1.181   2.746  12.357 -1.2003 -1.4955  1.9250
 2478SOL     OW19066   1.981   4.660   6.656 -0.0432 -0.0459 -0.9797
 2478SOL    HW119067   2.005   0.002   6.608 -2.2709  0.3076 -1.5234
 2478SOL    HW219068   1.903   4.618   6.618 -0.7721 -2.3011  3.0142
 2479SOL     OW19069   3.809   0.181   2.204  0.0522 -0.1005  0.0522
 2479SOL    HW119070   3.823   0.214   2.293 -1.7664  1.9477 -0.4113
 2479SOL    HW219071   3.896   0.145   2.187  0.4308  0.6676  0.3636
 2480SOL     OW19072   3.470   0.554   1.413 -0.0453  0.2318 -0.1185
 2480SOL    HW119073   3.497   0.500   1.487  0.9642  3.0186  1.5639
 2480SOL    HW219074   3.425   0.486   1.364  0.9096 -1.9291  1.9970
 2481SOL     OW19075   2.417   3.980   5.943 -0.2670 -0.8880  0.3425
 2481SOL    HW119076   2.413   3.900   5.889 -1.3361 -1.2044  0.8884
 2481SOL    HW219077   2.460   3.950   6.023 -1.0839 -1.2767  0.6317
 2482SOL     OW19078   4.185   1.876   3.845  0.3291 -0.8473  0.1688
 2482SOL    HW119079   4.208   1.791   3.808  0.1011  0.4216 -2.9253
 2482SOL    HW219080   4.273   1.913   3.855 -0.1942  0.6433 -0.7379
 2483SOL     OW19081   2.973   0.804   9.171 -0.0233 -0.4706  0.0113
 2483SOL    HW119082   3.048   0.756   9.205  1.5250  0.7043 -1.7303
 2483SOL    HW219083   3.016   0.870   9.117  0.9344 -0.7818  0.4009
 2484SOL     OW19084   2.897   3.779   5.792 -0.3350 -0.3129  0.1484
 2484SOL    HW119085   2.909   3.867   5.828  0.7353 -1.0331  1.5567
 2484SOL    HW219086   2.972   3.770   5.733 -0.2449 -0.6487  0.3111
 2485SOL     OW19087   3.651   1.623   8.524 -0.4475  0.1054 -0.2671
 2485SOL    HW119088   3.661   1.688   8.455  0.3776 -0.3077 -0.5345
 2485SOL    HW219089   3.559   1.595   8.516 -0.4744  0.2288 -0.3910
 2486SOL     OW19090   0.806   0.025   9.520 -0.1731 -0.2099  0.1603
 2486SOL    HW119091   0.721   4.725   9.494 -0.2439  0.9655 -1.2715
 2486SOL    HW219092   0.850   4.684   9.556  0.7008  0.1994 -0.0372
 2487SOL     OW19093   2.483   0.849   2.658 -0.7841 -0.1445 -0.3384
 2487SOL    HW119094   2.576   0.870   2.645 -0.7596 -0.9145 -1.4340
 2487SOL    HW219095   2.460   0.796   2.582  2.1576 -1.7540 -0.1120
 2488SOL     OW19096   1.082   3.482   0.547 -0.4962 -0.0278  0.7007
 2488SOL    HW119097   1.113   3.531   0.470 -0.8435  0.5671  0.9330
 2488SOL    HW219098   1.077   3.396   0.505 -4.8398  0.3595  0.4255
 2489SOL     OW19099   3.367   3.960   8.387  0.2010  0.0623  0.1328
 2489SOL    HW119100   3.354   4.055   8.379  0.9896  0.1687  0.0709
 2489SOL    HW219101   3.434   3.957   8.455  1.1895  0.9880 -0.7893
 2490SOL     OW19102   2.973   3.913   4.617  0.4414 -0.0309 -0.3469
 2490SOL    HW119103   3.024   3.935   4.539  0.0957  0.6562 -0.3833
 2490SOL    HW219104   2.896   3.966   4.595 -0.7254 -0.5860  2.3977
 2491SOL     OW19105   0.839   3.630   3.208 -0.1313  0.2543 -0.3415
 2491SOL    HW119106   0.884   3.546   3.204 -0.1129  0.2056  0.7828
 2491SOL    HW219107   0.844   3.648   3.302  2.0034 -0.3057 -0.3469
 2492SOL     OW19108   4.109   1.127  14.596 -0.7202  0.2661  0.4705
 2492SOL    HW119109   4.107   1.034  14.618 -1.4629  0.0847 -0.3804
 2492SOL    HW219110   4.088   1.172  14.678 -0.4932 -1.5113  1.5010
 2493SOL     OW19111   0.762   0.747   2.626  0.6805 -0.0171 -0.4659
 2493SOL    HW119112   0.713   0.674   2.589 -2.0195  0.4760  2.1565
 2493SOL    HW219113   0.694   0.801   2.666  1.7297 -0.3671  1.7931
 2494SOL     OW19114   0.672   3.319  16.343  0.1537  0.0694  0.6015
 2494SOL    HW119115   0.731   3.245  16.329 -1.5017 -0.8962 -1.3100
 2494SOL    HW219116   0.713   3.385  16.287 -1.3511 -0.8876 -1.6386
 2495SOL     OW19117   4.301   0.385  14.793 -0.5981  0.0264  0.1128
 2495SOL    HW119118   4.386   0.398  14.750 -1.7083  1.4839 -1.6456
 2495SOL    HW219119   4.317   0.445  14.866 -0.4649  0.8924 -0.6181
 2496SOL     OW19120   1.103   4.097   2.101  0.2708  0.1145  0.3285
 2496SOL    HW119121   1.032   4.059   2.049 -0.7567 -0.7405  2.3509
 2496SOL    HW219122   1.151   4.135   2.028  1.0875 -1.9626 -0.2100
 2497SOL     OW19123   3.228   1.191   4.543  0.4905  0.0979  0.2955
 2497SOL    HW119124   3.155   1.212   4.485  1.0216  0.6137 -0.1767
 2497SOL    HW219125   3.187   1.146   4.617 -3.6573  0.1435 -1.9713
 2498SOL     OW19126   1.451   1.742  17.742  1.0322 -0.1684 -0.1896
 2498SOL    HW119127   1.446   1.741  17.647  0.6580 -1.5576 -0.1582
 2498SOL    HW219128   1.358   1.729   0.017  0.7210  1.1094 -0.7942
 2499SOL     OW19129   0.388   1.085   2.726 -0.0384 -0.2192 -0.2364
 2499SOL    HW119130   0.325   1.057   2.660 -0.0774 -0.3136 -0.1588
 2499SOL    HW219131   0.373   1.174   2.693 -2.3542  0.1730  1.8942
 2500SOL     OW19132   4.637   1.109   9.793  0.0809 -0.3292  0.5022
 2500SOL    HW119133   4.583   1.187   9.809  1.7056  0.6729  1.0625
 2500SOL    HW219134   4.694   1.135   9.722 -1.3899  0.7692 -0.2834
 2501SOL     OW19135   0.687   0.556   6.097 -0.4176 -0.0115 -0.1538
 2501SOL    HW119136   0.761   0.516   6.051  1.1058  1.5262  0.9489
 2501SOL    HW219137   0.713   0.555   6.189 -2.2899  1.8310  0.3999
 2502SOL     OW19138   4.059   1.538   4.023 -1.0161  0.2869 -0.9025
 2502SOL    HW119139   4.075   1.445   4.042  2.0249  0.5307 -2.1903
 2502SOL    HW219140   4.139   1.588   4.039 -2.2241  2.6562 -2.3222
 2503SOL     OW19141   1.679   0.035  12.056  0.2454  0.3911  0.6809
 2503SOL    HW119142   1.697   0.085  12.136  0.9536  1.3138 -0.0418
 2503SOL    HW219143   1.612   4.712  12.085 -2.2846  2.7189 -0.3446
 2504SOL     OW19144   1.500   0.324   8.913 -0.1903 -0.5920  0.0483
 2504SOL    HW119145   1.540   0.248   8.871  2.3481  0.2110  1.0170
 2504SOL    HW219146   1.433   0.350   8.850 -0.4469  1.6266  1.2308
 2505SOL     OW19147   1.889   2.976   5.804 -0.4044 -0.3500  0.4010
 2505SOL    HW119148   1.883   2.988   5.899  0.4164  0.4728  0.3453
 2505SOL    HW219149   1.962   2.915   5.800 -0.8680 -1.0537  2.8221
 2506SOL     OW19150   2.302   3.680   2.362 -0.2612 -0.0988  0.1861
 2506SOL    HW119151   2.322   3.692   2.269 -3.2737 -0.4610 -0.4997
 2506SOL    HW219152   2.327   3.765   2.399  1.5086 -0.1294 -0.9284
 2507SOL     OW19153   4.453   0.702  10.066  0.1757 -0.3298 -0.2465
 2507SOL    HW119154   4.459   0.613  10.031 -1.5743 -0.2176 -0.8346
 2507SOL    HW219155   4.386   0.699  10.135  0.0066  0.1570 -0.3866
 2508SOL     OW19156   4.276   1.715   4.392 -0.3032  0.1268 -0.3180
 2508SOL    HW119157   4.338   1.761   4.336  1.0664 -1.3507 -0.0160
 2508SOL    HW219158   4.303   1.623   4.388 -1.3900 -0.0658 -2.8588
 2509SOL     OW19159   2.264   0.666   6.170  0.1865 -0.4733  0.8262
 2509SOL    HW119160   2.357   0.641   6.172  0.5864  1.0118  0.3315
 2509SOL    HW219161   2.244   0.664   6.076 -2.3019 -1.3678  1.3854
 2510SOL     OW19162   2.500   0.754   1.402 -0.0086  0.4369 -0.0245
 2510SOL    HW119163   2.553   0.834   1.391  0.3509  0.1583 -0.3093
 2510SOL    HW219164   2.504   0.715   1.315 -0.2853  0.5209 -0.0730
 2511SOL     OW19165   2.462   2.518   5.621 -0.3952 -0.2866 -0.1861
 2511SOL    HW119166   2.376   2.480   5.638 -0.5322  0.1020 -0.0060
 2511SOL    HW219167   2.511   2.441   5.594 -2.1235 -0.9734 -1.3819
 2512SOL     OW19168   4.126   3.998   4.127 -0.0547 -0.7296 -0.0277
 2512SOL    HW119169   4.077   3.932   4.076 -1.9296  0.8018 -0.1999
 2512SOL    HW219170   4.208   4.003   4.079 -1.7138  1.3832 -2.6339
 2513SOL     OW19171   0.886   1.651   6.773  0.2454  0.1876 -0.0076
 2513SOL    HW119172   0.865   1.677   6.863  1.7984 -1.1512  0.7380
 2513SOL    HW219173   0.935   1.731   6.753  0.6832  0.3620  1.7426
 2514SOL     OW19174   3.250   3.038   0.183  0.6419 -0.5182  0.3539
 2514SOL    HW119175   3.232   2.970   0.248  0.1348 -0.0423  0.7048
 2514SOL    HW219176   3.257   2.980   0.107  0.7267  2.2500 -1.7365
 2515SOL     OW19177   1.893   4.427  11.751 -0.1302 -0.0016 -0.1168
 2515SOL    HW119178   1.925   4.439  11.662  1.5490  1.7969  0.7235
 2515SOL    HW219179   1.809   4.472  11.746 -0.2518 -0.3728 -1.3409
 2516SOL     OW19180   2.011   3.211  15.772 -0.8574 -0.4321 -0.2558
 2516SOL    HW119181   1.921   3.178  15.782 -0.6001 -0.8235  0.7589
 2516SOL    HW219182   2.063   3.144  15.816  0.7653  0.6093 -0.6236
 2517SOL     OW19183   1.981   2.983  11.151  0.1358  0.3291  0.0038
 2517SOL    HW119184   2.046   2.987  11.221  1.1274  1.2514 -0.9773
 2517SOL    HW219185   1.969   2.891  11.127 -1.1355  0.1710  1.2136
 2518SOL     OW19186   1.273   2.269  17.653  0.0775 -0.2518 -0.0510
 2518SOL    HW119187   1.318   2.225  17.726 -0.5391  0.7626  0.9419
 2518SOL    HW219188   1.312   2.356  17.646 -3.0540  1.1466 -0.0371
 2519SOL     OW19189   0.620   3.982   9.258 -0.2726 -0.0983  0.4487
 2519SOL    HW119190   0.546   3.990   9.318  0.5289 -1.3995  1.5973
 2519SOL    HW219191   0.579   3.925   9.192  0.5260  0.9686 -0.9712
 2520SOL     OW19192   2.562   3.404  11.586 -0.2385  0.4107 -0.2156
 2520SOL    HW119193   2.474   3.367  11.600 -0.1760  0.1742 -0.4468
 2520SOL    HW219194   2.545   3.495  11.565  0.4900  0.5632 -0.1215
 2521SOL     OW19195   3.775   4.424   9.170 -0.0314  0.0577 -0.0018
 2521SOL    HW119196   3.741   4.512   9.153  0.9074  0.7141  1.5835
 2521SOL    HW219197   3.863   4.442   9.203  0.5329 -0.9754 -0.9242
 2522SOL     OW19198   1.572   3.691   6.218  0.3941 -0.1861  0.7393
 2522SOL    HW119199   1.623   3.653   6.147 -2.8132 -0.3040 -1.4966
 2522SOL    HW219200   1.520   3.752   6.165 -0.0076 -1.9956 -0.9575
 2523SOL     OW19201   2.833   2.107   7.189  0.3497  0.6151 -0.2106
 2523SOL    HW119202   2.791   2.037   7.139  1.1166 -2.3496  3.2837
 2523SOL    HW219203   2.754   2.153   7.218  0.3537 -0.1721  1.0788
 2524SOL     OW19204   3.354   1.045   1.979 -0.3773  0.3555  0.0681
 2524SOL    HW119205   3.415   1.116   1.997  1.7851 -1.7252  0.9063
 2524SOL    HW219206   3.407   0.968   1.999  0.3193  1.1431  1.2135
 2525SOL     OW19207   1.250   2.371  17.112  0.0063  0.0279 -0.4752
 2525SOL    HW119208   1.179   2.367  17.175  0.9476 -1.6846  0.4768
 2525SOL    HW219209   1.318   2.399  17.173 -1.0194  1.1177  0.1655
 2526SOL     OW19210   3.853   3.600   7.966  0.6229 -0.0606 -0.3714
 2526SOL    HW119211   3.782   3.653   8.002 -1.4587 -2.6326 -0.6954
 2526SOL    HW219212   3.905   3.588   8.046  0.0500  0.5028  0.0855
 2527SOL     OW19213   1.643   3.049   5.658  0.4659  0.5286 -0.3666
 2527SOL    HW119214   1.564   3.039   5.710  0.2500  0.9875 -0.5972
 2527SOL    HW219215   1.709   3.002   5.708 -0.0440  0.4898  0.2727
 2528SOL     OW19216   1.096   2.768   8.243 -0.0251 -0.2321  0.4273
 2528SOL    HW119217   1.089   2.864   8.249 -2.5807 -0.4195  0.3296
 2528SOL    HW219218   1.142   2.754   8.326 -0.7800 -1.1366  0.6846
 2529SOL     OW19219   1.348   0.422   3.413  0.6900  0.1040  0.4742
 2529SOL    HW119220   1.396   0.413   3.331  1.9894  1.0735  1.1093
 2529SOL    HW219221   1.283   0.491   3.398 -0.3246 -0.8053  0.7147
 2530SOL     OW19222   1.090   2.064   6.084  0.4909  0.3390  0.5916
 2530SOL    HW119223   1.003   2.059   6.124  0.4066  1.8083  0.5945
 2530SOL    HW219224   1.142   2.013   6.146 -1.1420 -0.0786  1.6051
 2531SOL     OW19225   1.705   1.458   3.600 -0.0170  0.1549  0.2510
 2531SOL    HW119226   1.628   1.403   3.581 -0.3184  0.6621  0.0066
 2531SOL    HW219227   1.722   1.445   3.693 -2.0528  0.8194  0.7115
 2532SOL     OW19228   2.055   1.097  15.307 -0.7648  0.2769 -0.3339
 2532SOL    HW119229   2.000   1.020  15.316 -0.7200  0.0839 -1.8130
 2532SOL    HW219230   2.106   1.062  15.234 -0.7405  0.2961 -0.3263
 2533SOL     OW19231   2.556   1.673   6.079 -0.5616  0.4832  0.7573
 2533SOL    HW119232   2.479   1.730   6.077 -0.1537  1.1578  4.0022
 2533SOL    HW219233   2.600   1.697   5.997  1.3014 -1.2841  1.2523
 2534SOL     OW19234   3.957   0.465  11.652 -0.9158 -0.4297 -0.3525
 2534SOL    HW119235   4.008   0.389  11.679  0.1240  0.9165  1.5345
 2534SOL    HW219236   3.993   0.483  11.566  1.4197 -0.1391  0.6792
 2535SOL     OW19237   2.010   3.126  14.052  0.0699  0.1670  0.1135
 2535SOL    HW119238   2.029   3.196  14.114 -1.4761  0.6753  0.0077
 2535SOL    HW219239   1.916   3.141  14.042  0.1187  0.1752 -0.3212
 2536SOL     OW19240   3.716   0.906  12.767 -0.5410  0.2941  0.6192
 2536SOL    HW119241   3.742   0.955  12.689  0.1386 -1.6374 -0.3719
 2536SOL    HW219242   3.730   0.819  12.730  0.5448  0.2199  1.1844
 2537SOL     OW19243   4.683   2.152  14.096 -0.1124  0.5561  0.2845
 2537SOL    HW119244   4.723   2.162  14.182 -0.6616 -0.6478  0.6917
 2537SOL    HW219245   4.693   2.058  14.077  1.2597  1.1056 -1.7175
 2538SOL     OW19246   4.492   3.898   2.342 -0.1149  0.4280 -0.3616
 2538SOL    HW119247   4.424   3.920   2.406 -1.0063 -1.1748 -0.7628
 2538SOL    HW219248   4.479   3.959   2.269 -1.3936  0.9263  0.2706
 2539SOL     OW19249   0.101   2.647   3.218  0.3118  0.1341  0.4536
 2539SOL    HW119250   0.013   2.684   3.226 -0.6460 -2.5279  2.3218
 2539SOL    HW219251   0.073   2.556   3.233  0.4277 -0.3815 -2.3879
 2540SOL     OW19252   1.457   1.638   4.776 -0.0656 -0.1785 -0.2871
 2540SOL    HW119253   1.543   1.607   4.805 -1.0735 -3.1589 -0.5008
 2540SOL    HW219254   1.411   1.663   4.856  2.9045  1.3396  0.9503
 2541SOL     OW19255   0.616   0.217   9.803 -0.4567 -0.0670  0.1346
 2541SOL    HW119256   0.687   0.236   9.742 -0.0462 -1.0007  0.3131
 2541SOL    HW219257   0.606   0.299   9.852  2.0657 -0.1644  0.8038
 2542SOL     OW19258   4.699   4.372   3.958 -0.0657 -0.0014 -0.1414
 2542SOL    HW119259   4.730   4.349   3.871 -1.2023  1.2899 -0.8923
 2542SOL    HW219260   0.026   4.438   3.986  0.4868 -0.7538  0.3525
 2543SOL     OW19261   3.129   0.129   7.250  0.1645  0.1715 -0.3349
 2543SOL    HW119262   3.105   0.161   7.337 -0.6056  1.8620 -1.1703
 2543SOL    HW219263   3.145   0.036   7.267  1.5260  0.3488 -0.6400
 2544SOL     OW19264   1.922   2.109  17.417  0.1210  0.2360  0.6249
 2544SOL    HW119265   1.856   2.089  17.483  0.0533  0.2677  0.5671
 2544SOL    HW219266   1.910   2.028  17.367  1.1600  0.4349  0.0538
 2545SOL     OW19267   0.667   1.788  16.826 -0.3011  0.1662 -0.6506
 2545SOL    HW119268   0.659   1.716  16.888  3.3229  0.5292  0.2516
 2545SOL    HW219269   0.576   1.801  16.800 -0.5546 -0.8988 -0.2682
 2546SOL     OW19270   0.450   1.826   8.923  0.6303 -0.7267 -0.4295
 2546SOL    HW119271   0.485   1.899   8.873 -0.5239  0.9087  1.1322
 2546SOL    HW219272   0.497   1.754   8.882  0.7526  0.7000 -2.8159
 2547SOL     OW19273   3.096   3.753   4.813  0.1566 -0.0937  0.2312
 2547SOL    HW119274   3.053   3.816   4.755  0.3328 -1.8029 -1.7524
 2547SOL    HW219275   3.149   3.707   4.748 -1.8270 -1.5806 -0.2893
 2548SOL     OW19276   4.676   4.688  11.556  0.3853 -0.2922  0.1296
 2548SOL    HW119277   4.733   4.661  11.628  1.2092  1.8190  0.2954
 2548SOL    HW219278   4.700   0.044  11.555  1.7525 -0.6440 -0.1549
 2549SOL     OW19279   0.592   2.280  12.732  0.6596 -0.0577  0.0139
 2549SOL    HW119280   0.527   2.254  12.667 -0.0633  1.0759  0.2840
 2549SOL    HW219281   0.658   2.323  12.678  0.1425  2.3119  1.2571
 2550SOL     OW19282   0.061   3.090  14.234  0.1594  0.9140  0.1178
 2550SOL    HW119283   4.705   3.107  14.245 -0.1768  0.7225 -2.3908
 2550SOL    HW219284   0.068   3.084  14.138  0.1534 -0.5938  0.2008
 2551SOL     OW19285   4.335   1.657   4.035  0.0388  0.0238  0.3312
 2551SOL    HW119286   4.407   1.609   4.076  0.3314 -0.3307 -0.6147
 2551SOL    HW219287   4.353   1.644   3.942  0.4411 -2.0115  0.6829
 2552SOL     OW19288   1.777   3.734   1.312 -0.4170  0.0669 -0.1147
 2552SOL    HW119289   1.863   3.773   1.296  0.3624 -1.3097  0.6677
 2552SOL    HW219290   1.734   3.811   1.348  0.1820  0.2217  0.2715
 2553SOL     OW19291   1.481   0.472  17.627 -0.1098  0.0415  0.2258
 2553SOL    HW119292   1.456   0.537  17.694 -5.0150 -0.9574 -0.6408
 2553SOL    HW219293   1.426   0.398  17.653  0.4341 -0.6626 -0.6690
 2554SOL     OW19294   1.942   0.105  14.601  0.2056  0.1624 -0.3702
 2554SOL    HW119295   1.969   0.108  14.693  0.9497  1.5144 -0.6169
 2554SOL    HW219296   1.857   0.062  14.599 -0.1226  0.8354 -1.2173
 2555SOL     OW19297   4.106   4.227   6.104  0.3080 -0.0471 -0.4641
 2555SOL    HW119298   4.185   4.267   6.140  0.4008  0.8330 -1.6502
 2555SOL    HW219299   4.052   4.217   6.183  0.7151  0.3300 -0.1401
 2556SOL     OW19300   2.725   0.186   7.334 -0.0716  0.1607  0.3562
 2556SOL    HW119301   2.808   0.197   7.379  0.0643  0.7115 -0.0401
 2556SOL    HW219302   2.722   0.267   7.282 -0.6805  1.2270  2.0703
 2557SOL     OW19303   1.678   3.237   8.471 -0.0312  0.2861 -0.1406
 2557SOL    HW119304   1.623   3.210   8.544 -1.7330 -0.7235 -1.8187
 2557SOL    HW219305   1.748   3.172   8.474  0.2808  0.5901 -0.9035
 2558SOL     OW19306   0.351   1.696   3.927  0.1396 -0.1336  0.0404
 2558SOL    HW119307   0.371   1.706   3.834  1.3179 -1.3765  0.1610
 2558SOL    HW219308   0.262   1.728   3.940  0.2507  0.1870 -0.0042
 2559SOL     OW19309   1.327   3.686   4.838 -0.8426 -0.6574 -0.4687
 2559SOL    HW119310   1.265   3.631   4.790 -1.6271 -0.8686  0.7840
 2559SOL    HW219311   1.334   3.766   4.785  0.4564  0.8820  2.0433
 2560SOL     OW19312   2.409   3.346   4.010 -0.3812 -0.1057 -0.0532
 2560SOL    HW119313   2.316   3.365   3.998 -0.7884 -1.3233  1.0845
 2560SOL    HW219314   2.411   3.261   4.054 -3.1264 -0.6654 -1.0055
 2561SOL     OW19315   1.471   3.164   4.579 -0.0631  0.1440  0.7183
 2561SOL    HW119316   1.414   3.096   4.616 -2.9824  1.9328 -0.4755
 2561SOL    HW219317   1.431   3.188   4.496  1.6764 -0.3590 -0.2534
 2562SOL     OW19318   1.796   4.342   3.872 -0.8137 -0.0923  0.0091
 2562SOL    HW119319   1.844   4.298   3.802 -1.4346  0.2627 -0.6345
 2562SOL    HW219320   1.810   4.436   3.860 -1.2852  0.1453  1.3722
 2563SOL     OW19321   1.965   4.427   7.434  0.2948 -0.1799 -0.3001
 2563SOL    HW119322   1.924   4.386   7.357 -0.7885 -0.4066  0.4037
 2563SOL    HW219323   1.895   4.416   7.499  1.6328 -0.8361  1.0207
 2564SOL     OW19324   4.567   4.390   9.179  0.4860  0.3679 -0.3168
 2564SOL    HW119325   4.558   4.429   9.266 -2.5539  4.4812 -2.4371
 2564SOL    HW219326   4.477   4.369   9.151  0.6548 -0.3558 -0.3196
 2565SOL     OW19327   2.477   0.445   5.538 -0.0600  0.8745 -0.1895
 2565SOL    HW119328   2.399   0.392   5.527  0.1490  1.4816 -4.4054
 2565SOL    HW219329   2.500   0.454   5.446  1.1441 -0.4046 -0.0162
 2566SOL     OW19330   4.667   4.692   0.836  0.2000  0.8149 -0.1284
 2566SOL    HW119331   4.611   0.020   0.880 -1.0676  0.0249 -0.5745
 2566SOL    HW219332   4.650   4.714   0.744 -1.6730 -0.7498 -0.1564
 2567SOL     OW19333   3.467   3.658   7.042 -0.4689 -0.0387  0.0303
 2567SOL    HW119334   3.401   3.670   7.110 -1.0411  0.1624 -0.5593
 2567SOL    HW219335   3.411   3.645   6.965 -0.8581 -0.0466  0.3129
 2568SOL     OW19336   4.232   3.175   8.893  0.0773  0.2383  0.3853
 2568SOL    HW119337   4.214   3.135   8.807 -0.3243 -1.2632  1.1637
 2568SOL    HW219338   4.151   3.157   8.941 -1.1521 -0.8520 -2.0901
 2569SOL     OW19339   2.961   3.276  11.546 -0.5308  0.1997 -0.2494
 2569SOL    HW119340   2.949   3.232  11.461 -1.4670 -1.1637  0.5880
 2569SOL    HW219341   3.048   3.313  11.539 -0.0046 -1.5728 -3.1369
 2570SOL     OW19342   1.722   3.495  17.219  0.6075 -0.0964 -0.5186
 2570SOL    HW119343   1.634   3.530  17.234  1.7514  0.8482  3.9351
 2570SOL    HW219344   1.742   3.447  17.299 -0.1301 -0.8334 -0.7804
 2571SOL     OW19345   1.942   1.147   6.046  0.7375  0.1537 -0.0674
 2571SOL    HW119346   1.917   1.090   6.119 -1.5295  0.5563 -0.5189
 2571SOL    HW219347   2.027   1.107   6.027 -0.1538 -2.4489  1.3300
 2572SOL     OW19348   2.417   1.621  10.467 -0.2037 -0.2633 -0.1886
 2572SOL    HW119349   2.426   1.691  10.402 -0.4200  1.1497  1.3086
 2572SOL    HW219350   2.477   1.640  10.538  0.0051  0.5797 -0.5907
 2573SOL     OW19351   4.175   1.803   1.951  0.0923 -0.3078  0.4117
 2573SOL    HW119352   4.159   1.857   2.028  0.4393 -0.4177  0.5645
 2573SOL    HW219353   4.271   1.794   1.947  0.0067 -0.7998 -0.4948
 2574SOL     OW19354   4.371   0.958   8.226 -0.4464 -0.2649 -0.2275
 2574SOL    HW119355   4.381   0.912   8.309 -1.1752 -0.5696 -0.3001
 2574SOL    HW219356   4.452   0.925   8.189  0.0833  1.8428 -0.9728
 2575SOL     OW19357   4.009   0.921   6.206  0.5167 -0.3892 -0.0453
 2575SOL    HW119358   3.989   0.840   6.253  0.9698 -1.1411 -1.1493
 2575SOL    HW219359   3.974   0.906   6.118  0.6124 -0.2086 -0.1137
 2576SOL     OW19360   3.221   2.877   4.273 -0.2751 -0.3949  0.3191
 2576SOL    HW119361   3.256   2.912   4.355  1.2927 -0.3983 -0.3407
 2576SOL    HW219362   3.232   2.955   4.219 -1.5269 -1.0405 -0.8760
 2577SOL     OW19363   1.197   0.804  16.529 -0.1516  0.5075  0.3429
 2577SOL    HW119364   1.115   0.853  16.534 -0.6837 -0.4958  1.3853
 2577SOL    HW219365   1.181   0.758  16.446  0.3467  1.2644 -0.1830
 2578SOL     OW19366   3.451   3.055   3.022 -0.5766  0.2849  0.7304
 2578SOL    HW119367   3.415   3.001   3.093  0.7113  0.2411  1.3507
 2578SOL    HW219368   3.542   3.037   3.043 -0.4519  2.1050  1.8176
 2579SOL     OW19369   2.540   3.550   2.755 -0.6779 -0.6913 -0.5250
 2579SOL    HW119370   2.509   3.468   2.716  2.5762 -0.1735 -4.1527
 2579SOL    HW219371   2.525   3.540   2.849  0.8181  1.4743 -0.0540
 2580SOL     OW19372   4.439   1.846  14.177 -0.1607 -0.4248 -0.5067
 2580SOL    HW119373   4.418   1.938  14.196 -3.3867 -1.6764  1.8406
 2580SOL    HW219374   4.534   1.848  14.192 -0.2323  2.6413 -0.4511
 2581SOL     OW19375   0.049   4.426   9.466  0.0164  0.1502  0.7498
 2581SOL    HW119376   0.020   4.335   9.472  0.3799 -0.1722 -2.0725
 2581SOL    HW219377   0.067   4.437   9.559  1.0375  1.1161  0.4362
 2582SOL     OW19378   2.502   2.538   8.328 -0.3813  0.5818 -0.3948
 2582SOL    HW119379   2.428   2.599   8.325  0.0203  1.2159  2.4778
 2582SOL    HW219380   2.467   2.460   8.371  0.7363 -0.5254 -1.4910
 2583SOL     OW19381   0.004   1.630   3.948  0.6881 -0.2284 -0.5254
 2583SOL    HW119382   0.053   1.704   3.985  0.4657  0.2121 -1.1099
 2583SOL    HW219383   0.016   1.648   3.855 -0.6224  2.8804 -0.0941
 2584SOL     OW19384   0.698   0.265   0.775 -0.1898 -0.0252  0.2494
 2584SOL    HW119385   0.726   0.199   0.838 -2.1797 -0.4503  0.6997
 2584SOL    HW219386   0.778   0.311   0.748 -1.7081  2.3618 -0.2294
 2585SOL     OW19387   1.487   3.815   4.130  0.2236 -0.1289  0.0448
 2585SOL    HW119388   1.408   3.868   4.143 -0.3889 -1.4187  1.6055
 2585SOL    HW219389   1.538   3.888   4.094  2.0108 -0.3823  2.0585
 2586SOL     OW19390   4.058   3.008   4.046  0.0580 -0.3031  0.0789
 2586SOL    HW119391   4.020   2.946   4.108 -0.5328 -1.2412 -1.2245
 2586SOL    HW219392   3.979   3.060   4.031  0.5639  0.2916 -0.4850
 2587SOL     OW19393   4.340   2.265   3.711  0.2876 -0.3690  0.0745
 2587SOL    HW119394   4.354   2.247   3.618  2.1015  2.8732 -0.2991
 2587SOL    HW219395   4.426   2.282   3.749 -0.1879  1.3966  0.3829
 2588SOL     OW19396   2.581   2.848   3.025 -0.3290 -0.3815  0.2173
 2588SOL    HW119397   2.613   2.790   2.956  0.3493 -0.1587  0.3435
 2588SOL    HW219398   2.600   2.929   2.978 -1.0138 -0.8993 -0.9573
 2589SOL     OW19399   4.245   3.785   7.157 -0.3425  0.1525 -0.1043
 2589SOL    HW119400   4.156   3.764   7.184 -0.0711 -2.0363 -0.8857
 2589SOL    HW219401   4.237   3.880   7.164  0.8726  0.5089 -3.9052
 2590SOL     OW19402   2.396   0.114   1.638  0.1039 -0.1346 -0.8841
 2590SOL    HW119403   2.479   0.083   1.675  0.1763  0.9611 -0.1367
 2590SOL    HW219404   2.355   0.030   1.615 -0.6321 -0.0210 -0.0126
 2591SOL     OW19405   2.316   4.021   6.716  0.1590  0.2180  0.5112
 2591SOL    HW119406   2.333   4.087   6.649  2.1800 -0.6542  0.1907
 2591SOL    HW219407   2.402   3.981   6.720  0.3310  0.6532  1.2035
 2592SOL     OW19408   2.394   4.651   8.955 -0.1100 -0.0048  0.0332
 2592SOL    HW119409   2.303   4.643   8.984  0.4802  0.8365  2.0920
 2592SOL    HW219410   2.414   0.004   8.983 -2.4029  1.1962 -2.1957
 2593SOL     OW19411   3.158   4.387   7.248 -0.2355 -0.0715 -0.1115
 2593SOL    HW119412   3.196   4.329   7.182 -1.1639  1.0196 -1.6161
 2593SOL    HW219413   3.080   4.415   7.200  1.5211  2.3286 -1.5562
 2594SOL     OW19414   0.478   4.118   2.549  0.5795 -0.2495 -0.0384
 2594SOL    HW119415   0.410   4.150   2.490 -0.3355 -0.7104  0.7471
 2594SOL    HW219416   0.545   4.114   2.482  2.0312  1.5362  1.3137
 2595SOL     OW19417   4.590   2.852   3.161  0.6217  0.8685  0.7357
 2595SOL    HW119418   4.542   2.893   3.090  0.4181  0.9464  0.9174
 2595SOL    HW219419   4.540   2.881   3.237  1.4891  0.5661  1.4312
 2596SOL     OW19420   2.804   3.700   7.238  0.2830 -0.0535 -0.0649
 2596SOL    HW119421   2.860   3.707   7.316 -1.5632 -1.5682  1.4196
 2596SOL    HW219422   2.747   3.774   7.257  0.3472 -0.0123 -0.0300
 2597SOL     OW19423   0.215   3.159  10.969  0.1411  0.5063  0.5237
 2597SOL    HW119424   0.195   3.116  10.886  1.4429  1.6243 -0.3679
 2597SOL    HW219425   0.302   3.194  10.953  0.5618 -0.4210  0.7569
 2598SOL     OW19426   0.737   2.574   9.913  0.1931 -0.0680 -0.5720
 2598SOL    HW119427   0.754   2.494   9.863 -0.0212 -0.2422 -0.3651
 2598SOL    HW219428   0.723   2.650   9.856 -0.6483  0.0732 -0.1800
 2599SOL     OW19429   2.932   1.347  15.121  0.0835  0.6135 -0.3523
 2599SOL    HW119430   3.018   1.377  15.093 -0.0952  2.1130  0.7063
 2599SOL    HW219431   2.961   1.326  15.210 -3.0893  2.2500  1.0992
 2600SOL     OW19432   3.776   3.766   9.002  0.5257 -0.8742  0.0847
 2600SOL    HW119433   3.781   3.670   9.002  0.0024 -0.8966  0.7583
 2600SOL    HW219434   3.843   3.792   9.065  1.3512 -2.3859 -0.1454
 2601SOL     OW19435   3.355   0.461  14.960 -0.0416  0.0854 -0.2512
 2601SOL    HW119436   3.362   0.459  15.056 -0.0350 -1.6422 -0.2851
 2601SOL    HW219437   3.397   0.378  14.936  0.2518 -0.1367  1.0251
 2602SOL     OW19438   1.606   2.700   2.884  0.7208 -0.3529  0.4221
 2602SOL    HW119439   1.591   2.607   2.867  0.4030 -0.7480  2.8049
 2602SOL    HW219440   1.641   2.724   2.799  0.8746  0.1387  0.6247
 2603SOL     OW19441   1.667   4.637   3.637 -0.2431  0.2746  0.1604
 2603SOL    HW119442   1.701   4.705   3.695 -1.1813  1.3168 -0.5099
 2603SOL    HW219443   1.639   4.700   3.570  0.4113  0.3407 -0.0606
 2604SOL     OW19444   3.547   4.212   9.083 -0.6658  0.1063 -0.1524
 2604SOL    HW119445   3.502   4.214   9.168 -1.9922 -0.8015 -0.8348
 2604SOL    HW219446   3.613   4.281   9.097 -0.6054  0.4006 -1.9228
 2605SOL     OW19447   0.882   1.793   8.940  0.5537  0.1626  0.2476
 2605SOL    HW119448   0.954   1.814   8.881 -0.1104 -1.5874 -1.1814
 2605SOL    HW219449   0.819   1.765   8.874  1.3132 -0.5498 -0.1743
 2606SOL     OW19450   0.779   3.252   2.660 -0.0894 -0.1541 -0.0333
 2606SOL    HW119451   0.821   3.337   2.646 -0.9770  0.1840 -0.6399
 2606SOL    HW219452   0.759   3.241   2.753 -2.1531 -1.0207 -0.5869
 2607SOL     OW19453   4.631   0.436   1.351  0.0472  0.3117  0.0442
 2607SOL    HW119454   4.699   0.401   1.293  0.6500  1.0569  0.3053
 2607SOL    HW219455   4.551   0.402   1.311  0.6832 -1.0156 -0.1045
 2608SOL     OW19456   2.361   2.106   3.159 -0.0983 -0.2154 -0.2363
 2608SOL    HW119457   2.305   2.065   3.094 -0.2227 -1.6830  0.8125
 2608SOL    HW219458   2.431   2.042   3.171 -1.8329 -2.4277 -1.9614
 2609SOL     OW19459   0.080   2.841   6.098 -0.0324 -0.1870  0.6946
 2609SOL    HW119460   0.029   2.911   6.139 -1.5855 -1.7334  1.3907
 2609SOL    HW219461   0.044   2.762   6.139  0.5760 -0.6536  0.3257
 2610SOL     OW19462   3.418   2.687  15.401  0.5680 -0.0546  0.2583
 2610SOL    HW119463   3.370   2.704  15.482 -1.5402 -2.5060 -0.5045
 2610SOL    HW219464   3.487   2.753  15.407  0.0731  0.5010 -0.2247
 2611SOL     OW19465   3.731   4.169   1.856  0.0816  0.0210 -0.1575
 2611SOL    HW119466   3.793   4.148   1.926 -0.5153  0.6583  0.5560
 2611SOL    HW219467   3.752   4.262   1.846 -1.0848  0.0798 -2.0702
 2612SOL     OW19468   4.068   4.456   3.272 -0.1730 -0.5766 -0.0288
 2612SOL    HW119469   4.142   4.492   3.222 -0.5568 -2.3344 -1.8158
 2612SOL    HW219470   4.112   4.405   3.340 -0.9447 -1.0851  0.0821
 2613SOL     OW19471   3.678   2.509  12.226  0.3475  0.4212  0.0485
 2613SOL    HW119472   3.648   2.560  12.301 -0.7425  0.8109 -0.6327
 2613SOL    HW219473   3.772   2.523  12.237  0.0126  0.8219  2.2870
 2614SOL     OW19474   0.564   2.997  15.669 -0.4403  0.8248 -0.5378
 2614SOL    HW119475   0.508   3.074  15.675 -0.2591  1.1199 -2.9256
 2614SOL    HW219476   0.612   3.001  15.753  2.3887 -2.6266 -1.9879
 2615SOL     OW19477   2.255   2.005   2.359 -0.3779 -0.1062 -0.0472
 2615SOL    HW119478   2.210   1.977   2.279  0.4822 -1.4841 -0.0552
 2615SOL    HW219479   2.340   2.038   2.330 -0.9494  1.3177 -0.1168
 2616SOL     OW19480   4.204   2.475   4.777  0.3745 -0.5252 -0.0132
 2616SOL    HW119481   4.233   2.566   4.790  2.1293 -1.1597  0.6265
 2616SOL    HW219482   4.240   2.445   4.694 -0.7900  1.6734 -1.3280
 2617SOL     OW19483   0.873   3.418   6.933 -0.0791  1.1961  0.0240
 2617SOL    HW119484   0.900   3.356   6.865 -0.0019  1.0920  0.1499
 2617SOL    HW219485   0.861   3.494   6.875  1.6077  3.2509  2.3453
 2618SOL     OW19486   4.082   1.798   4.096  0.3949 -0.2756 -0.2967
 2618SOL    HW119487   4.119   1.845   4.022 -0.7874  1.9995  0.5190
 2618SOL    HW219488   4.165   1.771   4.135 -0.1587  0.0647  1.1324
 2619SOL     OW19489   1.854   2.688   4.616 -0.0363  0.2127 -0.0996
 2619SOL    HW119490   1.863   2.768   4.666 -0.8541 -1.0164  2.0033
 2619SOL    HW219491   1.938   2.652   4.644 -0.3469  0.0519  0.6309
 2620SOL     OW19492   2.133   1.934   4.373  0.1350  0.3830 -0.3063
 2620SOL    HW119493   2.211   1.959   4.422  0.6710  2.6152 -2.3249
 2620SOL    HW219494   2.083   1.898   4.446  1.3029 -0.9524 -0.1809
 2621SOL     OW19495   0.446   3.179  14.859  0.0482  0.2151  0.1065
 2621SOL    HW119496   0.426   3.238  14.786 -1.7841  1.1910  1.4079
 2621SOL    HW219497   0.462   3.095  14.818  0.4368 -0.1706  1.0365
 2622SOL     OW19498   1.104   3.970  10.893  0.0403  0.6356  0.0539
 2622SOL    HW119499   1.149   4.024  10.829  1.2031 -0.2884  0.1007
 2622SOL    HW219500   1.158   3.969  10.972 -1.1328  0.1801  0.8683
 2623SOL     OW19501   1.731   1.460   2.019 -0.5216  0.5986 -0.3995
 2623SOL    HW119502   1.675   1.401   2.070 -1.8152  1.6365 -0.6087
 2623SOL    HW219503   1.685   1.543   2.034  0.3484  0.6956  1.6576
 2624SOL     OW19504   1.786   0.845   5.899  0.2490 -0.1803  0.0613
 2624SOL    HW119505   1.691   0.839   5.893  0.1609 -0.1696  1.5123
 2624SOL    HW219506   1.805   0.861   5.991 -0.3415 -0.7734  0.2848
 2625SOL     OW19507   0.377   1.045   8.134  0.1905  0.1320 -0.0156
 2625SOL    HW119508   0.350   1.062   8.224  0.6772  0.7124  0.0239
 2625SOL    HW219509   0.402   0.954   8.122  0.8059  0.5432 -1.9066
 2626SOL     OW19510   4.496   4.181  11.040  0.5597  0.1751 -0.6221
 2626SOL    HW119511   4.421   4.127  11.015  1.1788  0.2649 -2.6420
 2626SOL    HW219512   4.473   4.268  11.008 -1.2437  0.5267  1.5797
 2627SOL     OW19513   0.687   4.163   8.645 -0.2440  0.0534 -0.0554
 2627SOL    HW119514   0.605   4.190   8.604 -1.6595 -3.4852  0.4305
 2627SOL    HW219515   0.681   4.068   8.632  0.6168 -0.0343  0.1893
 2628SOL     OW19516   4.314   3.321   4.078 -0.0414 -0.3283 -0.0413
 2628SOL    HW119517   4.244   3.365   4.030 -0.2765 -1.1600 -0.4554
 2628SOL    HW219518   4.368   3.283   4.009 -0.8448 -0.3662 -0.6547
 2629SOL     OW19519   2.911   0.344   0.904  0.4057  0.6403  0.0826
 2629SOL    HW119520   2.999   0.315   0.930  0.5168  0.3535 -0.5996
 2629SOL    HW219521   2.875   0.386   0.981  0.3287  1.8646 -0.6118
 2630SOL     OW19522   4.224   4.459   4.996 -0.8374  0.4407  0.2885
 2630SOL    HW119523   4.173   4.463   4.915  0.9367 -3.3655 -1.0464
 2630SOL    HW219524   4.194   4.540   5.036  1.3864  0.4208  1.9934
 2631SOL     OW19525   4.254   2.399   4.521 -0.1779  0.1558  0.0419
 2631SOL    HW119526   4.321   2.367   4.460 -0.2138  1.2504 -0.5889
 2631SOL    HW219527   4.177   2.391   4.464 -1.9809 -0.5171  2.5700
 2632SOL     OW19528   4.556   0.013  11.992 -0.0606  0.0167  0.2449
 2632SOL    HW119529   4.487   4.714  11.936  1.2797 -0.4810 -1.0875
 2632SOL    HW219530   4.621   0.032  11.924 -1.5996 -2.6020 -1.9592
 2633SOL     OW19531   2.987   3.918   6.726  0.0693  0.3435 -0.1582
 2633SOL    HW119532   2.941   3.891   6.805 -0.7566 -1.1639 -1.1425
 2633SOL    HW219533   2.919   3.981   6.702 -0.5665  0.3880  1.7564
 2634SOL     OW19534   2.167   4.531  15.661  0.8216 -0.2887 -0.3552
 2634SOL    HW119535   2.112   4.454  15.679 -0.9381  0.7327 -1.4529
 2634SOL    HW219536   2.207   4.542  15.748 -0.8622  2.6503  0.0370
 2635SOL     OW19537   1.913   1.201   7.616 -0.2933  0.0539 -0.5905
 2635SOL    HW119538   1.918   1.285   7.571 -0.6487 -0.8504 -2.3079
 2635SOL    HW219539   1.823   1.190   7.645 -0.2409  1.2090  0.0214
 2636SOL     OW19540   0.454   4.454   2.869 -0.5485  0.0269  0.2638
 2636SOL    HW119541   0.457   4.547   2.893 -3.1142 -0.1647  1.3813
 2636SOL    HW219542   0.384   4.418   2.924 -1.4608  0.6220 -0.4887
 2637SOL     OW19543   2.476   4.039  12.787  0.1964 -0.3991  0.2397
 2637SOL    HW119544   2.509   3.996  12.708  1.7090  0.5394  0.3500
 2637SOL    HW219545   2.501   4.126  12.755  1.4887 -1.3501 -1.3672
 2638SOL     OW19546   0.507   0.032   2.704  0.6188 -0.1142  0.2383
 2638SOL    HW119547   0.454   0.025   2.783  1.9598  1.8155  1.2790
 2638SOL    HW219548   0.482   4.692   2.651  2.6330 -0.5879 -0.0349
 2639SOL     OW19549   1.102   0.915   7.205  0.2212 -0.4695 -0.2642
 2639SOL    HW119550   1.156   0.836   7.209 -0.7566 -1.1444 -0.5446
 2639SOL    HW219551   1.150   0.979   7.259 -1.1302  0.7459 -0.4922
 2640SOL     OW19552   2.956   2.069  11.731 -0.5360  0.0136 -0.4354
 2640SOL    HW119553   3.013   2.143  11.710 -2.7928  1.3904 -1.6863
 2640SOL    HW219554   3.023   2.006  11.759 -0.2249  0.6731  0.3143
 2641SOL     OW19555   3.957   0.632   6.640 -0.0937 -0.0928 -0.2180
 2641SOL    HW119556   4.050   0.641   6.659 -0.3780 -2.5436  2.4221
 2641SOL    HW219557   3.935   0.611   6.731 -1.5472  2.6008  0.0482
 2642SOL     OW19558   0.822   2.408   2.107 -0.2524  0.0964  0.2891
 2642SOL    HW119559   0.807   2.498   2.137 -1.8224 -0.2085  0.4143
 2642SOL    HW219560   0.881   2.382   2.178 -0.1135  1.3596  0.6361
 2643SOL     OW19561   1.737   1.907   3.384  0.3557  0.2512 -0.0069
 2643SOL    HW119562   1.828   1.922   3.358 -0.2823  0.0559 -2.3023
 2643SOL    HW219563   1.694   1.897   3.299 -0.6463  3.2830  0.1529
 2644SOL     OW19564   1.912   1.786   2.371 -0.2717  0.3829  0.0599
 2644SOL    HW119565   1.893   1.849   2.302 -0.0488  1.6036  1.1012
 2644SOL    HW219566   2.005   1.806   2.385 -0.4380  2.0524 -1.2845
 2645SOL     OW19567   2.411   4.720  15.246 -0.2104  0.0234  0.1992
 2645SOL    HW119568   2.496   0.010  15.282  0.8282 -1.7181 -0.9424
 2645SOL    HW219569   2.359   4.688  15.320  0.0848 -0.8807  0.0185
 2646SOL     OW19570   2.093   1.145   2.457  0.5504 -0.5780  0.4190
 2646SOL    HW119571   2.055   1.078   2.400 -0.4353 -0.0024  0.3913
 2646SOL    HW219572   2.179   1.111   2.479  0.2389 -0.2980  2.0817
 2647SOL     OW19573   2.335   0.939  11.446 -0.6555  0.4151  0.3367
 2647SOL    HW119574   2.242   0.951  11.466 -0.8114  1.2046 -0.8753
 2647SOL    HW219575   2.364   1.030  11.453 -2.4381  0.8986  1.5516
 2648SOL     OW19576   2.311   4.509   4.149 -0.2410 -0.7890  0.1474
 2648SOL    HW119577   2.363   4.448   4.097 -1.3988 -0.5251 -1.3456
 2648SOL    HW219578   2.275   4.443   4.208  0.5131 -0.3446  1.1038
 2649SOL     OW19579   3.427   2.835   6.654 -0.4343 -0.2024  0.5867
 2649SOL    HW119580   3.427   2.906   6.719 -2.1238  2.6898 -2.5039
 2649SOL    HW219581   3.436   2.757   6.708 -2.1402 -2.0439 -1.8255
 2650SOL     OW19582   1.858   3.473  16.739  0.4691  0.1219  0.0464
 2650SOL    HW119583   1.899   3.560  16.738 -0.7696  0.7014 -0.2153
 2650SOL    HW219584   1.774   3.477  16.785  0.1078  1.5929 -0.7458
 2651SOL     OW19585   1.785   3.322  11.571 -0.0886  0.1143 -0.3850
 2651SOL    HW119586   1.728   3.350  11.500  0.8293 -0.9953 -1.5531
 2651SOL    HW219587   1.834   3.254  11.524 -2.1272 -1.3586 -0.3533
 2652SOL     OW19588   0.496   4.663   6.604 -0.1331 -0.1866 -0.6180
 2652SOL    HW119589   0.583   4.694   6.630 -0.3663  1.1850 -1.4791
 2652SOL    HW219590   0.481   4.715   6.525 -1.6473 -0.2135 -0.3307
 2653SOL     OW19591   0.259   2.870  10.784  0.3036 -0.1680  0.2210
 2653SOL    HW119592   0.221   2.801  10.730  1.4589  0.2934 -1.1853
 2653SOL    HW219593   0.216   2.949  10.750 -1.0589 -0.4583  1.2536
 2654SOL     OW19594   1.603   2.873   8.658 -0.0482 -0.0007 -0.5681
 2654SOL    HW119595   1.662   2.798   8.668 -1.4989 -0.8499  1.4842
 2654SOL    HW219596   1.593   2.904   8.748 -2.8205 -1.6116 -0.3306
 2655SOL     OW19597   0.249   0.162   5.088  0.6965 -0.2326  0.6327
 2655SOL    HW119598   0.180   0.224   5.068  1.8152  1.4051  1.8548
 2655SOL    HW219599   0.197   0.083   5.104 -1.2246  0.8366 -0.3325
 2656SOL     OW19600   0.991   4.482  11.424  0.5388 -0.1056 -0.2441
 2656SOL    HW119601   1.046   4.554  11.456  0.6908 -0.3004 -0.0677
 2656SOL    HW219602   1.035   4.405  11.457  0.8752  0.1979  0.0077
 2657SOL     OW19603   3.530   2.091   0.495 -0.8525 -0.2053  0.1128
 2657SOL    HW119604   3.621   2.119   0.502 -1.1662  1.0950 -0.8681
 2657SOL    HW219605   3.508   2.123   0.407 -0.2901 -1.0424 -0.3325
 2658SOL     OW19606   0.908   3.900  17.581  0.3279  0.2986 -0.0967
 2658SOL    HW119607   0.890   3.991  17.557 -2.8015 -0.0874  0.8867
 2658SOL    HW219608   0.901   3.865  17.492 -1.7603 -0.6055  0.4397
 2659SOL     OW19609   4.161   1.321   5.278 -0.0120 -0.2837 -0.3892
 2659SOL    HW119610   4.231   1.255   5.280  1.4385  1.2704 -0.1884
 2659SOL    HW219611   4.212   1.398   5.253 -0.8531  0.7000  0.9145
 2660SOL     OW19612   0.601   1.959   3.791 -0.2239 -0.1575  0.1589
 2660SOL    HW119613   0.520   1.912   3.770  0.6202 -0.6842 -1.8957
 2660SOL    HW219614   0.564   2.030   3.844 -1.4942 -0.4626 -0.3049
 2661SOL     OW19615   2.003   0.151   5.688  0.4077  0.2405  0.3272
 2661SOL    HW119616   2.026   0.059   5.705 -0.3934  0.1403  0.8475
 2661SOL    HW219617   2.072   0.185   5.631 -0.9100 -0.2046 -1.5428
 2662SOL     OW19618   1.933   3.914  14.739 -0.6246 -0.1337  0.1224
 2662SOL    HW119619   1.874   3.978  14.699  0.7913  1.4029  0.5076
 2662SOL    HW219620   2.016   3.961  14.736 -0.9071  0.5116  2.4146
 2663SOL     OW19621   1.856   2.798   3.338 -0.0918 -0.0615  0.4426
 2663SOL    HW119622   1.874   2.872   3.280 -0.4782  0.9866  1.6680
 2663SOL    HW219623   1.808   2.853   3.400  0.0992 -0.1688  0.6860
 2664SOL     OW19624   2.932   2.305   4.818  0.1312  0.4123 -0.6815
 2664SOL    HW119625   2.996   2.233   4.827 -0.2435  0.0274 -1.0732
 2664SOL    HW219626   2.958   2.350   4.898 -2.5695  1.2296 -0.2865
 2665SOL     OW19627   3.519   3.499   6.046  0.1481 -0.1590 -0.1892
 2665SOL    HW119628   3.600   3.516   5.999  1.4518 -3.0203  1.0394
 2665SOL    HW219629   3.452   3.519   5.980  1.1335  0.8686 -0.8712
 2666SOL     OW19630   1.556   1.850  12.194 -0.1978  0.2055 -0.2028
 2666SOL    HW119631   1.529   1.817  12.280 -1.8111 -0.5655 -0.9986
 2666SOL    HW219632   1.480   1.901  12.164 -1.2296 -2.1689 -1.5718
 2667SOL     OW19633   3.170   2.171   1.697 -0.6910 -0.3925 -0.0187
 2667SOL    HW119634   3.251   2.138   1.736  0.0570  1.7386  0.2474
 2667SOL    HW219635   3.145   2.104   1.633 -2.1277 -2.8159  3.1255
 2668SOL     OW19636   1.034   1.671  17.444  0.0021  0.4345  0.3576
 2668SOL    HW119637   1.054   1.735  17.375 -0.7481  0.8672  0.5388
 2668SOL    HW219638   1.061   1.586  17.411  0.8856  0.2718  1.4939
 2669SOL     OW19639   1.351   2.957   6.660  0.0120  0.2194  0.2825
 2669SOL    HW119640   1.418   2.900   6.622 -1.0078 -1.6051  1.2318
 2669SOL    HW219641   1.406   3.001   6.725  0.7672 -2.9220  1.7717
 2670SOL     OW19642   1.716   1.767  17.456 -0.4673  0.1934 -0.0239
 2670SOL    HW119643   1.641   1.726  17.500  0.2080 -2.0242 -0.9221
 2670SOL    HW219644   1.679   1.804  17.376  3.0931  2.6467 -0.5103
 2671SOL     OW19645   3.251   1.555  17.546  0.9019 -0.0485  0.4486
 2671SOL    HW119646   3.326   1.541  17.604  0.0112  1.8267  2.0403
 2671SOL    HW219647   3.242   1.650  17.541  1.6023  0.0358  0.7290
 2672SOL     OW19648   1.791   3.900   5.039  0.9983 -0.0089  0.8172
 2672SOL    HW119649   1.861   3.947   5.085  2.4470  1.2511 -2.6810
 2672SOL    HW219650   1.787   3.812   5.075 -2.5959 -0.2370 -0.1850
 2673SOL     OW19651   1.856   0.254   8.757  0.9119  0.0483  0.1577
 2673SOL    HW119652   1.787   0.299   8.710 -0.6128 -2.0235  0.4060
 2673SOL    HW219653   1.928   0.254   8.694 -1.2854  2.4232 -2.3529
 2674SOL     OW19654   4.131   1.527   2.554  0.3407  0.0629  0.2014
 2674SOL    HW119655   4.095   1.561   2.636  4.6066  0.1050  2.0702
 2674SOL    HW219656   4.129   1.433   2.567 -0.1044  0.1378  0.6620
 2675SOL     OW19657   1.324   4.108  14.188 -0.6053  0.6508  0.5270
 2675SOL    HW119658   1.292   4.089  14.100  1.0606  0.4440 -0.0312
 2675SOL    HW219659   1.255   4.171  14.211  1.9191  3.6268 -0.0572
 2676SOL     OW19660   4.278   4.421   1.447  0.0351 -0.0421  0.0033
 2676SOL    HW119661   4.336   4.390   1.377 -2.3623 -0.0400 -1.9631
 2676SOL    HW219662   4.252   4.503   1.407  2.4660  0.6501 -0.1667
 2677SOL     OW19663   3.699   2.498   5.744 -0.8074  0.6740 -0.3319
 2677SOL    HW119664   3.615   2.517   5.786 -0.8225  0.5534 -0.3066
 2677SOL    HW219665   3.701   2.402   5.737  0.1548  0.5693  1.3391
 2678SOL     OW19666   2.604   1.836   2.708  0.0833 -0.0522  0.0187
 2678SOL    HW119667   2.580   1.834   2.615  3.3131 -0.6301 -0.8218
 2678SOL    HW219668   2.544   1.772   2.746  0.7522  0.6683  2.2655
 2679SOL     OW19669   1.637   1.904   6.754  0.0047 -0.2675  0.7449
 2679SOL    HW119670   1.657   1.975   6.693 -1.2893 -1.1599 -0.7150
 2679SOL    HW219671   1.724   1.889   6.788  1.6229  1.7659 -2.4723
 2680SOL     OW19672   3.218   4.483   2.307  0.2675 -0.6094  0.2161
 2680SOL    HW119673   3.151   4.544   2.278  0.3174  0.5277  2.4695
 2680SOL    HW219674   3.180   4.398   2.283 -1.6548 -0.1915  1.7620
 2681SOL     OW19675   4.684   4.506   9.774  0.3268  0.0507 -0.3008
 2681SOL    HW119676   4.609   4.516   9.716 -0.5513 -2.2186  0.4509
 2681SOL    HW219677   4.666   4.424   9.820 -0.7867 -0.0545 -0.9351
 2682SOL     OW19678   2.263   2.369   4.945  0.0678 -0.2984  0.4190
 2682SOL    HW119679   2.203   2.435   4.979 -0.6579 -0.2327 -1.0171
 2682SOL    HW219680   2.217   2.285   4.946  2.4382 -1.6089  1.2521
 2683SOL     OW19681   1.874   3.354   5.928 -0.5219  0.3531 -0.2845
 2683SOL    HW119682   1.958   3.320   5.898 -1.5640 -1.8633 -0.7030
 2683SOL    HW219683   1.857   3.305   6.008  2.1183 -1.3801 -0.7810
 2684SOL     OW19684   4.272   1.873   6.522  0.5468  0.4903 -0.2978
 2684SOL    HW119685   4.184   1.835   6.533  0.4596  1.6788  3.1481
 2684SOL    HW219686   4.259   1.925   6.442 -1.3384  0.8147  0.2215
 2685SOL     OW19687   3.189   3.300   8.388 -0.5324  0.3283  0.2429
 2685SOL    HW119688   3.204   3.208   8.410 -2.5148 -0.1140 -0.2496
 2685SOL    HW219689   3.264   3.336   8.435  0.6732 -0.2879 -1.1920
 2686SOL     OW19690   0.742   2.574  17.732 -0.2112 -0.3782 -0.6148
 2686SOL    HW119691   0.713   2.616  17.651  2.1836  1.0131 -0.7634
 2686SOL    HW219692   0.695   2.619   0.056 -1.4018  1.8832 -2.8714
 2687SOL     OW19693   1.105   2.329  12.621  0.0630 -0.4678 -0.6729
 2687SOL    HW119694   1.071   2.403  12.570 -0.6028 -0.3367 -0.0301
 2687SOL    HW219695   1.022   2.294  12.654 -0.5323  2.8510  1.3605
 2688SOL     OW19696   4.141   0.013   3.884 -0.7048 -0.3436 -0.1310
 2688SOL    HW119697   4.160   4.724   3.794  0.5571 -2.3745  0.7133
 2688SOL    HW219698   4.048   4.735   3.901 -0.4759 -0.2173  1.2204
 2689SOL     OW19699   3.953   2.127   0.261 -0.1730  0.2055  0.2180
 2689SOL    HW119700   3.879   2.170   0.220 -0.4471  0.2138  0.7202
 2689SOL    HW219701   3.996   2.078   0.191  0.1615 -1.1113  1.3561
 2690SOL     OW19702   4.027   2.110   0.732 -0.8107 -0.1114 -0.1381
 2690SOL    HW119703   3.959   2.082   0.794 -0.1749 -2.2069 -0.3773
 2690SOL    HW219704   4.096   2.045   0.747 -0.1206  0.7448  0.4282
 2691SOL     OW19705   3.580   0.442  16.951  0.0532 -0.1676  0.7952
 2691SOL    HW119706   3.571   0.437  16.856 -2.7743  0.6500  1.0257
 2691SOL    HW219707   3.675   0.436  16.961  0.3615  0.4270 -1.7357
 2692SOL     OW19708   3.187   4.517   6.767  0.6264 -0.1498  0.3418
 2692SOL    HW119709   3.122   4.448   6.777 -1.6716  1.8167 -1.2086
 2692SOL    HW219710   3.136   4.592   6.736 -1.2465 -1.1284  1.0571
 2693SOL     OW19711   2.071   2.178   8.188 -0.2965 -0.1458 -0.2220
 2693SOL    HW119712   2.031   2.266   8.188  0.7938  0.3340 -2.2022
 2693SOL    HW219713   1.991   2.128   8.204 -1.0775  1.2322  0.2406
 2694SOL     OW19714   0.813   3.027   3.823 -0.1984 -0.1120 -0.1607
 2694SOL    HW119715   0.811   3.097   3.889  2.9718 -0.2309  0.0714
 2694SOL    HW219716   0.762   3.062   3.751  1.8256 -0.4056 -1.7193
 2695SOL     OW19717   3.651   2.378   8.956 -0.0411  0.2516  0.0862
 2695SOL    HW119718   3.647   2.359   9.050 -0.1698  0.0394  0.0367
 2695SOL    HW219719   3.596   2.457   8.956 -0.6261 -0.1542  0.0044
 2696SOL     OW19720   1.144   0.977   2.384  0.7405 -0.1822  0.8296
 2696SOL    HW119721   1.060   1.019   2.364  1.5830 -0.4891 -3.2987
 2696SOL    HW219722   1.114   0.887   2.393  0.8538 -0.2167  0.8569
 2697SOL     OW19723   0.002   0.535   9.433  0.1628  0.0708  0.2361
 2697SOL    HW119724   4.668   0.542   9.498  1.6416  0.1465  1.8581
 2697SOL    HW219725   4.692   0.521   9.351 -0.5636 -0.8713  0.7981
 2698SOL     OW19726   0.666   0.463  10.585  0.4316  0.0737  0.4228
 2698SOL    HW119727   0.619   0.546  10.599 -0.5021 -0.3379 -0.2370
 2698SOL    HW219728   0.751   0.492  10.552  0.5677 -0.0955  0.6254
 2699SOL     OW19729   4.151   0.940  11.578  0.3343  0.4008 -0.1569
 2699SOL    HW119730   4.077   0.983  11.536  0.5591  1.1649  0.2255
 2699SOL    HW219731   4.110   0.882  11.643 -0.2209  0.2841 -0.6134
 2700SOL     OW19732   2.405   2.875   4.939  0.4030  0.8068 -0.3603
 2700SOL    HW119733   2.319   2.911   4.961 -0.7044 -0.9937 -1.6520
 2700SOL    HW219734   2.377   2.817   4.867 -0.8846  0.7669  0.1660
 2701SOL     OW19735   3.183   1.886   5.271 -0.1130  0.1624  0.4840
 2701SOL    HW119736   3.112   1.925   5.219  0.5709  0.9855  0.1733
 2701SOL    HW219737   3.138   1.830   5.335 -0.2688  0.1691  0.3819
 2702SOL     OW19738   0.560   2.307   2.061 -0.3791  0.8711  0.5007
 2702SOL    HW119739   0.644   2.351   2.074 -0.4437  0.9920  0.5144
 2702SOL    HW219740   0.513   2.321   2.143  2.0677 -0.0219  2.0425
 2703SOL     OW19741   2.290   2.775   1.842 -0.0927  0.2963  0.4007
 2703SOL    HW119742   2.356   2.714   1.810  1.7276  1.6019  1.6678
 2703SOL    HW219743   2.291   2.749   1.934  2.0378  1.3694  0.6669
 2704SOL     OW19744   3.530   1.800   3.737  0.7037  0.4458  0.1947
 2704SOL    HW119745   3.534   1.713   3.777  1.3165  0.7402  0.7767
 2704SOL    HW219746   3.586   1.776   3.663  1.4650 -0.4935  1.0794
 2705SOL     OW19747   1.071   1.166   0.655 -0.6754 -0.0234 -0.1698
 2705SOL    HW119748   1.048   1.120   0.735 -0.7400  0.6540  0.2051
 2705SOL    HW219749   1.139   1.225   0.688 -0.7192 -0.2184  0.2654
 2706SOL     OW19750   3.815   3.333  16.223 -0.1626 -0.3304 -0.4388
 2706SOL    HW119751   3.837   3.417  16.263 -1.9752  0.0097 -0.1524
 2706SOL    HW219752   3.724   3.349  16.200 -1.0666 -2.9187  1.4097
 2707SOL     OW19753   0.417   1.466   9.309  0.6089  0.1011 -0.0593
 2707SOL    HW119754   0.496   1.428   9.347  0.2680  0.5843  1.1708
 2707SOL    HW219755   0.449   1.519   9.236 -2.5016  1.4377 -0.4524
 2708SOL     OW19756   0.464   4.414   3.588 -0.0461 -0.2938 -0.4373
 2708SOL    HW119757   0.542   4.431   3.535 -0.8072  1.0882 -1.0969
 2708SOL    HW219758   0.425   4.343   3.536 -1.3292 -1.0738  1.5528
 2709SOL     OW19759   0.456   2.328   7.987  0.1521 -0.3397  0.0915
 2709SOL    HW119760   0.482   2.315   7.896  0.1775  2.1429 -0.2573
 2709SOL    HW219761   0.364   2.349   7.974 -0.5643 -3.7143 -0.1853
 2710SOL     OW19762   0.063   1.069   3.138  0.3584  0.2821  0.1622
 2710SOL    HW119763   0.114   1.023   3.072 -1.7985 -1.7723 -0.0574
 2710SOL    HW219764   4.726   1.101   3.087  1.5337  1.6878 -0.6327
 2711SOL     OW19765   3.721   0.484   9.319 -0.2828 -0.3138  0.1933
 2711SOL    HW119766   3.725   0.425   9.244 -2.8216 -0.9336  0.5349
 2711SOL    HW219767   3.703   0.429   9.395 -1.0670 -0.8031 -0.3451
 2712SOL     OW19768   2.145   2.871  14.926 -0.4598 -0.5541 -0.0618
 2712SOL    HW119769   2.207   2.848  14.857 -1.8977  1.0423 -1.8532
 2712SOL    HW219770   2.200   2.846  15.001 -2.1500 -1.2438  0.9498
 2713SOL     OW19771   3.928   2.018  14.276 -0.0126  0.7175  0.2885
 2713SOL    HW119772   3.878   2.053  14.350  0.8605 -0.1204  1.2746
 2713SOL    HW219773   3.994   2.083  14.251  0.1062  0.2795 -0.5226
 2714SOL     OW19774   2.500   1.104   3.485  0.0274  0.7521 -0.6462
 2714SOL    HW119775   2.516   1.181   3.430  0.5057  0.5779 -0.7513
 2714SOL    HW219776   2.588   1.099   3.523 -0.0746  0.1950 -0.4879
 2715SOL     OW19777   4.580   1.901  10.766  0.6881 -0.3749 -1.0146
 2715SOL    HW119778   4.591   1.992  10.739 -0.0899  0.1518  0.4803
 2715SOL    HW219779   4.606   1.854  10.687 -0.5641  0.4271 -1.9058
 2716SOL     OW19780   3.249   0.414   9.544  0.0551 -0.2315 -0.5422
 2716SOL    HW119781   3.284   0.336   9.500 -1.0863 -0.6787 -0.6662
 2716SOL    HW219782   3.181   0.378   9.600  1.3387 -0.9911  0.5180
 2717SOL     OW19783   1.428   1.182   4.088  0.6772  0.0206  0.7303
 2717SOL    HW119784   1.451   1.237   4.163  3.0042  1.0457 -0.7492
 2717SOL    HW219785   1.347   1.139   4.115 -0.1171 -0.1092 -1.8831
 2718SOL     OW19786   2.057   3.190   5.023 -0.5639  0.0790 -0.0373
 2718SOL    HW119787   2.139   3.159   5.061  0.8842  2.1569 -1.5304
 2718SOL    HW219788   1.990   3.167   5.088 -0.8338 -0.3504 -0.4658
 2719SOL     OW19789   3.307   3.090  12.248  0.1674 -0.0618  0.4909
 2719SOL    HW119790   3.354   3.018  12.289 -0.5689 -1.0276 -0.3672
 2719SOL    HW219791   3.218   3.056  12.257 -0.4881  1.1731 -1.2141
 2720SOL     OW19792   4.334   0.799  15.591 -0.5429 -0.4108 -0.0206
 2720SOL    HW119793   4.374   0.886  15.585  1.1942 -1.2200 -0.3353
 2720SOL    HW219794   4.279   0.799  15.512 -0.6893  0.5328  0.0839
 2721SOL     OW19795   4.380   1.508   6.200  0.0167  0.1600 -0.1697
 2721SOL    HW119796   4.369   1.413   6.199  3.0312 -0.1560 -0.7029
 2721SOL    HW219797   4.404   1.522   6.108 -1.1587  0.3802 -0.4517
 2722SOL     OW19798   3.972   1.952   7.875 -0.7759 -0.2127  0.0326
 2722SOL    HW119799   3.981   2.036   7.830 -0.4206  0.0092  0.5158
 2722SOL    HW219800   3.968   1.987   7.964 -1.3292  0.8066 -0.3975
 2723SOL     OW19801   3.443   1.481   9.077  0.1966 -0.4052 -0.0394
 2723SOL    HW119802   3.486   1.456   9.159  0.5369  2.7026  0.7329
 2723SOL    HW219803   3.453   1.408   9.017 -0.3970 -0.6042  0.1105
 2724SOL     OW19804   4.694   4.487   8.941  0.0301 -0.0210  0.3092
 2724SOL    HW119805   4.650   4.461   9.022 -0.5103  0.4766  0.1694
 2724SOL    HW219806   4.645   4.566   8.922  0.5999  0.1309 -0.5659
 2725SOL     OW19807   2.680   1.976   2.929  0.6382 -0.4526  0.3335
 2725SOL    HW119808   2.666   1.950   2.838  0.0200  0.2088  0.2408
 2725SOL    HW219809   2.609   1.945   2.984  0.0701  0.6404  0.2226
 2726SOL     OW19810   4.169   2.120   7.168  0.5300 -0.8956  0.1508
 2726SOL    HW119811   4.192   2.143   7.257  0.4882  1.0947 -0.3550
 2726SOL    HW219812   4.257   2.131   7.131  2.0859  0.0720  4.1384
 2727SOL     OW19813   0.439   1.612   2.307  0.0643 -0.6189  0.6064
 2727SOL    HW119814   0.489   1.572   2.378  1.6196  2.4468  1.2067
 2727SOL    HW219815   0.354   1.612   2.350  1.1643  0.0338  2.7657
 2728SOL     OW19816   0.862   3.352   5.774  0.3790 -0.1270 -0.2882
 2728SOL    HW119817   0.921   3.332   5.846 -1.1553 -1.1841  0.6917
 2728SOL    HW219818   0.904   3.307   5.701 -0.3324  0.3916 -1.0166
 2729SOL     OW19819   1.842   1.229   0.473  0.3794 -0.4436 -0.1637
 2729SOL    HW119820   1.896   1.151   0.467  0.7824 -0.0586 -1.4705
 2729SOL    HW219821   1.875   1.289   0.406  0.7111 -0.2154  0.2002
 2730SOL     OW19822   2.939   4.086   3.295  0.3171 -0.0751  0.3665
 2730SOL    HW119823   2.945   4.015   3.359 -0.1078  0.8734  1.4525
 2730SOL    HW219824   2.850   4.081   3.259  0.2632 -0.0560  0.4969
 2731SOL     OW19825   4.460   1.119   3.605  0.0987  0.5007  0.0300
 2731SOL    HW119826   4.400   1.130   3.531  2.0366 -1.4923 -1.8381
 2731SOL    HW219827   4.539   1.158   3.568 -0.1866  1.1481  0.1106
 2732SOL     OW19828   2.710   1.518  15.484  0.2292 -0.0505  0.3343
 2732SOL    HW119829   2.786   1.554  15.529  0.9453  1.1794 -1.8676
 2732SOL    HW219830   2.647   1.590  15.493  1.3587  0.8853  0.7091
 2733SOL     OW19831   0.704   3.832   7.923  0.1425 -0.5428 -0.1746
 2733SOL    HW119832   0.643   3.760   7.909  0.6737 -0.4871 -2.8296
 2733SOL    HW219833   0.785   3.799   7.884  1.5424  1.1271  1.2742
 2734SOL     OW19834   3.014   3.257  11.096  0.7636  0.0745 -0.3322
 2734SOL    HW119835   3.010   3.212  11.180  0.4047 -0.7587 -0.8008
 2734SOL    HW219836   2.938   3.315  11.103  1.2290  0.5535  0.8099
 2735SOL     OW19837   0.302   3.506   7.424  0.1673 -0.1751  0.7256
 2735SOL    HW119838   0.322   3.412   7.423  1.3955  0.1387 -1.5887
 2735SOL    HW219839   0.251   3.526   7.346 -1.7649 -1.0405  1.7576
 2736SOL     OW19840   0.260   3.321   7.112  0.4439 -0.0760 -0.4714
 2736SOL    HW119841   0.331   3.347   7.054  0.5299  0.1759 -0.2533
 2736SOL    HW219842   0.247   3.396   7.170  0.6222  0.4938 -1.1742
 2737SOL     OW19843   0.058   4.141   7.199  0.8204 -0.1657  0.2204
 2737SOL    HW119844   4.726   4.088   7.158  1.4156 -1.4609  0.9015
 2737SOL    HW219845   0.133   4.082   7.197 -0.8948 -2.3426 -1.4201
 2738SOL     OW19846   4.647   0.303   6.042  0.4049 -0.1176  0.2232
 2738SOL    HW119847   4.625   0.304   5.949  1.3895 -2.1112 -0.0176
 2738SOL    HW219848   4.733   0.346   6.039  0.6906 -0.6792  0.4494
 2739SOL     OW19849   1.050   4.450   1.810  0.7317  0.1219 -0.0077
 2739SOL    HW119850   1.101   4.421   1.885 -3.6959 -0.8594  2.6120
 2739SOL    HW219851   1.025   4.368   1.769 -0.6195  1.1126 -1.1668
 2740SOL     OW19852   2.399   1.253   5.000 -0.6001  0.7235  0.4768
 2740SOL    HW119853   2.388   1.343   4.967  0.1681  0.7882  0.3927
 2740SOL    HW219854   2.310   1.220   5.015 -0.9884  1.3506 -0.3949
 2741SOL     OW19855   1.193   1.267  16.522  0.2872 -0.1711 -0.0816
 2741SOL    HW119856   1.237   1.335  16.471  2.2596 -0.1675  1.6054
 2741SOL    HW219857   1.166   1.213  16.448  0.3379  1.4259 -1.2665
 2742SOL     OW19858   2.825   2.776   6.449  0.0395 -0.3620 -0.2874
 2742SOL    HW119859   2.891   2.790   6.517  0.7047 -1.2236 -0.7650
 2742SOL    HW219860   2.771   2.852   6.470  0.0614 -1.0351  2.2361
 2743SOL     OW19861   4.733   4.495  10.848 -0.1054 -0.3048 -0.3676
 2743SOL    HW119862   4.701   4.584  10.831  2.1067  0.5866  0.1314
 2743SOL    HW219863   4.699   4.490  10.937  0.4118 -1.4998 -0.2439
 2744SOL     OW19864   0.656   3.270   1.008  0.2888  0.1639 -0.3717
 2744SOL    HW119865   0.719   3.292   0.939  0.3366 -1.7510 -0.9366
 2744SOL    HW219866   0.680   3.324   1.084 -0.3827  1.3378 -0.9853
 2745SOL     OW19867   2.321   2.409  10.456 -0.1655  0.1240  0.1563
 2745SOL    HW119868   2.284   2.321  10.447  1.1579 -0.2893 -1.4219
 2745SOL    HW219869   2.248   2.463  10.425  0.4135  0.4751 -0.6117
 2746SOL     OW19870   3.747   3.297   3.725  0.3454  0.2952  0.6001
 2746SOL    HW119871   3.814   3.365   3.729 -0.7436  1.5156 -2.2367
 2746SOL    HW219872   3.672   3.343   3.763  0.0429 -1.1662  1.7551
 2747SOL     OW19873   1.109   4.244  14.275  0.1214  0.4586 -0.4349
 2747SOL    HW119874   1.084   4.305  14.205  0.0359  2.8915  1.6933
 2747SOL    HW219875   1.134   4.313  14.337 -0.4208  0.1170  0.1557
 2748SOL     OW19876   0.509   0.323   4.874  0.1774 -0.3079  0.7483
 2748SOL    HW119877   0.600   0.295   4.886  0.4391 -0.3453 -1.3672
 2748SOL    HW219878   0.515   0.402   4.820  2.3776 -1.7543 -1.1122
 2749SOL     OW19879   3.493   4.081   4.746  0.3052  0.1651 -0.2370
 2749SOL    HW119880   3.467   4.126   4.666  1.7623  0.6324 -0.4408
 2749SOL    HW219881   3.497   4.145   4.817  0.2951 -1.6136  1.3741
 2750SOL     OW19882   3.853   0.425  16.945  0.2596 -0.2799 -0.6240
 2750SOL    HW119883   3.886   0.426  17.035 -0.7027 -1.9873 -0.2647
 2750SOL    HW219884   3.886   0.502  16.897  1.0457 -0.1360  0.1529
 2751SOL     OW19885   1.370   3.148   5.085  0.2668 -0.8500 -0.3145
 2751SOL    HW119886   1.365   3.198   5.166  0.7940 -0.6593 -0.3950
 2751SOL    HW219887   1.423   3.069   5.098  0.3608 -0.5203  1.2890
 2752SOL     OW19888   2.933   0.747   6.268 -0.1392 -0.1882  0.8005
 2752SOL    HW119889   2.875   0.727   6.342 -1.3903  0.8939  0.1120
 2752SOL    HW219890   2.876   0.788   6.203 -0.4416  1.4696  2.1336
 2753SOL     OW19891   2.724   0.943  17.692  0.1974  0.1174 -0.3676
 2753SOL    HW119892   2.711   0.852  17.667 -1.1138  0.2724 -0.2382
 2753SOL    HW219893   2.632   0.968  17.688 -0.0235 -0.6915 -0.3947
 2754SOL     OW19894   0.865   2.848   7.133  0.2183 -0.2353  0.4354
 2754SOL    HW119895   0.859   2.860   7.228 -1.5095 -0.7166  0.3854
 2754SOL    HW219896   0.813   2.925   7.108 -0.3328 -0.3962  1.0879
 2755SOL     OW19897   2.895   2.786  15.653 -0.2501 -0.1454 -0.4589
 2755SOL    HW119898   2.854   2.840  15.721  0.3187 -1.6583  1.0889
 2755SOL    HW219899   2.863   2.834  15.576 -0.2875 -1.4142 -1.2276
 2756SOL     OW19900   1.301   0.434  11.651  0.0492 -0.3995  0.0344
 2756SOL    HW119901   1.298   0.340  11.630  1.7639 -0.0005 -2.0029
 2756SOL    HW219902   1.250   0.429  11.732 -0.3856  0.5444 -0.1764
 2757SOL     OW19903   4.367   1.246   0.977 -0.8119  0.0959  0.3471
 2757SOL    HW119904   4.337   1.159   0.951 -1.5112  0.0156  1.4287
 2757SOL    HW219905   4.344   1.235   1.069  0.2648  1.2865  0.7718
 2758SOL     OW19906   0.549   1.614  11.061  0.6669 -0.5427 -0.2216
 2758SOL    HW119907   0.480   1.667  11.102 -0.2413 -0.0197 -2.4181
 2758SOL    HW219908   0.627   1.657  11.095 -0.2538  1.3570 -0.5149
 2759SOL     OW19909   3.594   2.895   6.027 -0.4859 -0.2472 -0.2945
 2759SOL    HW119910   3.673   2.898   6.080  1.4666 -1.2857 -3.1172
 2759SOL    HW219911   3.532   2.939   6.084  1.0454  1.5109 -0.0115
 2760SOL     OW19912   4.263   2.178   3.962 -0.0383 -0.3584  0.6058
 2760SOL    HW119913   4.172   2.203   3.950  0.1852  0.4340  0.5856
 2760SOL    HW219914   4.306   2.206   3.881  0.7963 -0.7287  0.9197
 2761SOL     OW19915   3.655   0.567   3.979 -0.4417 -0.5568  0.0668
 2761SOL    HW119916   3.643   0.579   4.073  0.6011 -0.6789  0.2087
 2761SOL    HW219917   3.585   0.508   3.950 -3.4871  2.5956  1.0345
 2762SOL     OW19918   4.374   1.194   4.264  0.0565 -0.7537  0.2521
 2762SOL    HW119919   4.347   1.276   4.306 -0.6462 -1.0362  0.3536
 2762SOL    HW219920   4.443   1.225   4.205 -0.8433 -1.8520 -1.3781
 2763SOL     OW19921   1.358   3.126   3.834  0.4968 -0.1726  0.1226
 2763SOL    HW119922   1.390   3.146   3.922 -1.1214  0.2118  0.6377
 2763SOL    HW219923   1.339   3.218   3.815  1.8125  0.2844  1.0185
 2764SOL     OW19924   3.144   4.608   4.654  0.2638  0.4532  0.6822
 2764SOL    HW119925   3.158   4.556   4.733 -2.3230  2.5155  2.4824
 2764SOL    HW219926   3.129   4.693   4.695 -1.1579  0.3789  0.3209
 2765SOL     OW19927   4.341   1.836   7.262 -0.0739  0.3277 -0.3415
 2765SOL    HW119928   4.300   1.871   7.183  1.5409 -1.0910 -1.8146
 2765SOL    HW219929   4.327   1.910   7.321 -0.5652 -1.5213  1.8547
 2766SOL     OW19930   4.187   0.726   7.942  0.4369  0.6599 -0.1257
 2766SOL    HW119931   4.093   0.722   7.926  0.0439  3.6557  1.5882
 2766SOL    HW219932   4.209   0.789   7.874  2.5525  1.3007  1.1480
 2767SOL     OW19933   1.779   4.249   4.896  0.1728  0.4946  0.1048
 2767SOL    HW119934   1.715   4.178   4.887  1.9203 -1.0451 -0.2721
 2767SOL    HW219935   1.725   4.320   4.932  1.0774  1.9467 -1.4465
 2768SOL     OW19936   0.423   0.983  12.992 -0.2848 -0.0617  0.3515
 2768SOL    HW119937   0.477   1.050  13.033  1.4934  0.3623 -2.6661
 2768SOL    HW219938   0.437   1.010  12.901  1.8635  2.5789  1.4707
 2769SOL     OW19939   3.151   2.161   4.956 -0.4261  0.2156 -0.1772
 2769SOL    HW119940   3.211   2.137   4.885 -1.1498 -0.2875 -0.6133
 2769SOL    HW219941   3.142   2.075   4.998  1.4621  0.2339  0.2578
 2770SOL     OW19942   1.787   4.681   6.423 -0.2075  0.1031  0.5195
 2770SOL    HW119943   1.794   4.641   6.336  1.2666  0.3799  0.5150
 2770SOL    HW219944   1.804   0.035   6.400  1.0861 -0.0118  1.0360
 2771SOL     OW19945   4.608   2.031   6.344 -0.4063 -0.8883  0.0954
 2771SOL    HW119946   4.525   2.033   6.392 -0.4523  0.6338 -0.0467
 2771SOL    HW219947   4.581   2.059   6.256 -1.0621 -1.0841  0.2354
 2772SOL     OW19948   3.273   3.736   2.528  0.0157  0.1818  0.3647
 2772SOL    HW119949   3.185   3.703   2.507 -0.0434  0.6811 -0.1480
 2772SOL    HW219950   3.254   3.824   2.561  1.2723  1.2161 -1.6661
 2773SOL     OW19951   3.338   3.701   4.979 -0.0048  0.7867 -0.4208
 2773SOL    HW119952   3.250   3.739   4.977 -1.2488 -2.0622  0.4935
 2773SOL    HW219953   3.383   3.747   4.908  1.7227  1.5521  1.1866
 2774SOL     OW19954   2.084   0.327   9.670 -0.5868 -0.6057 -0.3646
 2774SOL    HW119955   2.091   0.234   9.650 -0.9784 -0.5484 -0.7519
 2774SOL    HW219956   2.165   0.344   9.720 -1.7568  0.3133  1.2325
 2775SOL     OW19957   1.681   3.062   6.415 -0.0299  0.0270 -0.2472
 2775SOL    HW119958   1.681   3.068   6.511  2.5925 -0.2003 -0.2160
 2775SOL    HW219959   1.591   3.071   6.386 -0.4506  0.5390  1.1979
 2776SOL     OW19960   3.908   3.476   5.586  0.2907  0.5918 -0.6729
 2776SOL    HW119961   3.958   3.440   5.659 -1.0849  1.2228  0.5807
 2776SOL    HW219962   3.843   3.408   5.572 -0.5894  1.3358 -0.2073
 2777SOL     OW19963   1.761   1.818   7.863  0.1467 -0.0776 -0.5537
 2777SOL    HW119964   1.687   1.756   7.858 -0.6338  0.8654 -0.6492
 2777SOL    HW219965   1.754   1.835   7.957 -1.1317 -0.6592 -0.5332
 2778SOL     OW19966   0.825   0.993   7.347  0.3273 -0.0492 -0.2079
 2778SOL    HW119967   0.902   0.972   7.294 -0.2678  1.6958 -1.7778
 2778SOL    HW219968   0.792   0.903   7.354 -1.2970  0.7002  1.6292
 2779SOL     OW19969   0.473   1.194   8.708  0.6413 -0.5906 -0.2261
 2779SOL    HW119970   0.463   1.270   8.650 -0.4088  0.7489  1.7176
 2779SOL    HW219971   0.566   1.201   8.729  0.7715 -0.0284 -0.9559
 2780SOL     OW19972   2.417   4.425   2.442  0.1330 -0.0057  0.6059
 2780SOL    HW119973   2.352   4.375   2.393 -0.9859  1.6453  0.4076
 2780SOL    HW219974   2.503   4.388   2.421 -1.4089 -2.2565 -1.6471
 2781SOL     OW19975   4.386   3.763   4.064  0.3458  0.4161  0.4508
 2781SOL    HW119976   4.420   3.688   4.113  2.1947  0.5927 -0.5740
 2781SOL    HW219977   4.292   3.747   4.076 -0.1182  2.1202 -0.8745
 2782SOL     OW19978   3.317   2.482  13.190 -0.2601 -0.1179 -0.0761
 2782SOL    HW119979   3.265   2.521  13.120  0.2418  1.2067  0.2860
 2782SOL    HW219980   3.310   2.386  13.191 -0.4886 -0.0940  0.7845
 2783SOL     OW19981   0.406   1.419   3.971 -0.6246  0.4755 -0.1553
 2783SOL    HW119982   0.425   1.511   3.953  1.2663  0.4432  1.6688
 2783SOL    HW219983   0.337   1.435   4.036 -1.4082  3.4558 -1.7281
 2784SOL     OW19984   0.232   0.134   3.354  0.0972 -0.3019 -0.3311
 2784SOL    HW119985   0.167   0.204   3.355  0.8904  0.4255  0.1876
 2784SOL    HW219986   0.172   0.077   3.306  1.9630 -3.7352  1.3800
 2785SOL     OW19987   1.268   2.661   4.263 -0.0895  0.7066 -0.2760
 2785SOL    HW119988   1.312   2.636   4.182  0.7549  3.0414 -0.5302
 2785SOL    HW219989   1.184   2.615   4.259  1.0495 -1.4851  0.5013
 2786SOL     OW19990   0.492   1.574   7.134 -0.0136 -0.0501  0.9630
 2786SOL    HW119991   0.406   1.554   7.171  0.7247 -0.9642  2.2077
 2786SOL    HW219992   0.525   1.602   7.219  1.6831  1.0173 -0.0537
 2787SOL     OW19993   4.094   0.297  13.888  0.3000  0.1733  0.6099
 2787SOL    HW119994   4.069   0.337  13.805 -1.2887  0.2208  1.1135
 2787SOL    HW219995   4.022   0.316  13.947 -1.2311 -1.5575 -0.7066
 2788SOL     OW19996   3.038   3.800   5.386 -0.7671 -0.2900  0.1706
 2788SOL    HW119997   3.093   3.875   5.409 -0.1953  0.0702 -2.2870
 2788SOL    HW219998   3.031   3.807   5.290  2.7932 -0.8117 -0.1347
 2789SOL     OW19999   0.200   3.343  13.634  0.1114 -0.5167 -0.3188
 2789SOL    HW120000   0.221   3.323  13.543 -0.7969 -0.3356 -0.5737
 2789SOL    HW220001   0.128   3.283  13.654  2.0233 -2.2955  1.2483
 2790SOL     OW20002   3.767   2.934   9.484 -0.1489 -0.4887  0.1019
 2790SOL    HW120003   3.857   2.948   9.456 -0.1893 -4.0838 -1.8722
 2790SOL    HW220004   3.723   3.000   9.429  0.7307  0.8537  1.0272
 2791SOL     OW20005   1.357   4.475   9.328 -0.1652 -0.3584  0.4521
 2791SOL    HW120006   1.334   4.516   9.412 -0.4945 -0.6331  0.4963
 2791SOL    HW220007   1.320   4.387   9.339  0.3411 -0.6727 -0.3720
 2792SOL     OW20008   1.354   2.046   2.694 -0.4399  0.5814 -0.0462
 2792SOL    HW120009   1.379   2.006   2.610  0.9775  2.2114 -0.4112
 2792SOL    HW220010   1.365   1.970   2.751  2.1322 -0.2300 -1.5960
 2793SOL     OW20011   0.621   0.266  10.790 -0.0634  0.0585 -0.3726
 2793SOL    HW120012   0.619   0.322  10.712  0.1930  1.1230  0.3808
 2793SOL    HW220013   0.711   0.285  10.818  1.1215 -2.6658 -2.3577
 2794SOL     OW20014   0.713   3.056  12.346 -0.0975 -0.5418  0.5841
 2794SOL    HW120015   0.747   2.971  12.320  1.3622  0.0470  0.6030
 2794SOL    HW220016   0.620   3.038  12.360  0.0034 -0.8258  0.8852
 2795SOL     OW20017   2.102   3.772   2.829  0.0392 -0.4985  0.0694
 2795SOL    HW120018   2.091   3.817   2.745 -1.5797 -1.0850 -0.0451
 2795SOL    HW220019   2.046   3.822   2.889  0.2965 -1.6799  1.2873
 2796SOL     OW20020   3.982   1.482   2.233 -0.1418  0.0331 -0.3846
 2796SOL    HW120021   3.988   1.421   2.160 -0.5772  1.4213 -1.5759
 2796SOL    HW220022   4.044   1.445   2.297 -1.1855  0.8637  1.1138
 2797SOL     OW20023   1.631   0.160   6.878  0.4207  0.4030  0.0574
 2797SOL    HW120024   1.538   0.154   6.901  0.2491  0.7094 -0.5682
 2797SOL    HW220025   1.653   0.250   6.901  2.4927  0.5238 -2.4344
 2798SOL     OW20026   2.416   3.369   8.798 -0.7963 -0.6632 -0.1398
 2798SOL    HW120027   2.394   3.280   8.769 -1.3576 -0.2975 -0.8188
 2798SOL    HW220028   2.371   3.375   8.883 -0.2933  0.7966  0.0241
 2799SOL     OW20029   0.421   2.702  16.250  0.2528  0.1277  0.1038
 2799SOL    HW120030   0.468   2.724  16.330 -1.2287 -0.8406  1.2346
 2799SOL    HW220031   0.444   2.769  16.186  0.5660 -2.1393 -2.1758
 2800SOL     OW20032   0.681   0.531   9.550 -0.1388  0.1181  0.0801
 2800SOL    HW120033   0.591   0.547   9.524 -0.3560 -1.2632  0.0022
 2800SOL    HW220034   0.693   0.436   9.552  0.5325  0.2002  0.1756
 2801SOL     OW20035   2.233   2.697   8.798  0.5695 -0.1109  0.2134
 2801SOL    HW120036   2.298   2.633   8.770 -0.0545  0.2018 -1.9464
 2801SOL    HW220037   2.263   2.735   8.881 -0.0183  0.3641  0.2117
 2802SOL     OW20038   2.164   4.501   8.422 -0.3768  0.3132 -0.7529
 2802SOL    HW120039   2.075   4.531   8.443  0.1954  0.8648  0.8380
 2802SOL    HW220040   2.217   4.562   8.473 -1.5893  0.2262  0.6078
 2803SOL     OW20041   3.794   4.086   7.847 -0.1694 -0.2093 -0.2512
 2803SOL    HW120042   3.849   4.142   7.901 -0.7074 -0.1042  0.1902
 2803SOL    HW220043   3.711   4.131   7.856 -0.1498  0.1857 -2.0625
 2804SOL     OW20044   4.593   2.928   3.761 -0.3931  0.0531 -0.1057
 2804SOL    HW120045   4.586   3.022   3.746  2.4021  0.1926 -0.4737
 2804SOL    HW220046   4.641   2.900   3.684  0.3160 -1.2250  0.7908
 2805SOL     OW20047   3.517   0.883   6.402 -0.2550  0.0041 -0.1815
 2805SOL    HW120048   3.427   0.858   6.381 -0.4712 -0.3985  1.1993
 2805SOL    HW220049   3.502   0.954   6.465 -1.7766 -0.5948  0.1490
 2806SOL     OW20050   0.554   2.130  11.905  0.0118  0.0764 -0.0344
 2806SOL    HW120051   0.482   2.186  11.876 -2.3081 -2.1765  1.3452
 2806SOL    HW220052   0.536   2.121  11.999  0.4100 -1.0191 -0.0532
 2807SOL     OW20053   4.655   1.088   8.860 -0.2490  0.0479  0.3497
 2807SOL    HW120054   4.731   1.109   8.914  1.4602 -0.1707 -1.9800
 2807SOL    HW220055   4.611   1.173   8.869 -1.2926 -0.7164  2.6871
 2808SOL     OW20056   1.591   4.307  17.101 -0.0429 -0.1811 -0.4858
 2808SOL    HW120057   1.515   4.294  17.157  2.2984 -1.9588  2.3077
 2808SOL    HW220058   1.557   4.244  17.038 -1.1245  0.0353 -0.1151
 2809SOL     OW20059   0.399   0.541   6.291 -0.3286  0.0979 -0.0034
 2809SOL    HW120060   0.436   0.629   6.290  0.8471 -0.3536  3.2596
 2809SOL    HW220061   0.418   0.507   6.204  0.7015  2.5835 -0.7274
 2810SOL     OW20062   4.598   0.451  16.881 -0.6153 -0.3752 -0.1778
 2810SOL    HW120063   4.679   0.425  16.923  0.2231 -1.3023 -2.3978
 2810SOL    HW220064   4.554   0.367  16.870  2.3860 -1.6941 -1.9044
 2811SOL     OW20065   0.577   1.660  13.277 -0.0948 -0.3761 -0.1427
 2811SOL    HW120066   0.625   1.742  13.290  0.6760 -0.6963 -1.0145
 2811SOL    HW220067   0.599   1.620  13.361  0.0332 -0.8177 -0.3880
 2812SOL     OW20068   4.217   1.201   7.248 -0.6465  0.8398  0.1334
 2812SOL    HW120069   4.157   1.216   7.176  0.1975  1.0624 -0.5255
 2812SOL    HW220070   4.217   1.288   7.287  1.1318  1.6839 -1.7740
 2813SOL     OW20071   3.612   3.915   6.425  0.4841  0.0596 -0.9008
 2813SOL    HW120072   3.622   3.989   6.485  0.6248 -0.6774 -0.0172
 2813SOL    HW220073   3.544   3.941   6.364 -0.4886 -0.9684 -0.2561
 2814SOL     OW20074   2.627   0.997   3.008 -0.0051  0.4342  0.2198
 2814SOL    HW120075   2.563   1.067   2.994  0.2552  0.3649 -1.3469
 2814SOL    HW220076   2.571   0.927   2.975 -0.0664  1.2509 -1.4213
 2815SOL     OW20077   1.399   4.402   3.698  0.3337  0.0754 -0.3481
 2815SOL    HW120078   1.422   4.466   3.765 -1.8286 -0.3150  0.7663
 2815SOL    HW220079   1.488   4.403   3.663  0.4829  0.7560  0.0415
 2816SOL     OW20080   4.293   1.819   7.859  0.4735 -0.6403 -0.2933
 2816SOL    HW120081   4.286   1.908   7.895 -0.1795 -0.1669 -1.6015
 2816SOL    HW220082   4.213   1.812   7.807 -0.3458 -1.2044  1.0257
 2817SOL     OW20083   2.815   3.478   0.448  0.2282  0.0047 -0.2162
 2817SOL    HW120084   2.736   3.515   0.410  1.0780  1.5919 -0.4704
 2817SOL    HW220085   2.790   3.388   0.469 -0.1713  0.3324  0.6909
 2818SOL     OW20086   4.138   0.747   5.112  0.4390  0.6636  0.1270
 2818SOL    HW120087   4.103   0.783   5.031 -2.7154 -0.4715  1.0065
 2818SOL    HW220088   4.089   0.794   5.179 -2.3383 -1.2373 -0.5595
 2819SOL     OW20089   2.657   2.843   0.261 -0.3362 -0.4022 -0.0177
 2819SOL    HW120090   2.708   2.798   0.328  0.9385  0.5425 -0.3497
 2819SOL    HW220091   2.728   2.878   0.208 -0.7727  1.0376  0.3437
 2820SOL     OW20092   0.920   2.083   2.350  0.2329 -0.3286  0.0998
 2820SOL    HW120093   0.970   2.034   2.285 -2.4598  0.2568 -2.4541
 2820SOL    HW220094   0.859   2.121   2.286  1.3285 -2.1684 -2.0416
 2821SOL     OW20095   0.856   0.481   7.686 -0.2754 -0.5446  0.0784
 2821SOL    HW120096   0.833   0.424   7.759 -0.0341 -2.0689 -1.0337
 2821SOL    HW220097   0.876   0.566   7.726  2.3980 -1.7597  1.2935
 2822SOL     OW20098   4.605   2.224   8.090  0.5615  0.1166 -0.1766
 2822SOL    HW120099   4.588   2.194   8.000 -0.6369  1.8270 -0.5245
 2822SOL    HW220100   4.555   2.158   8.138  2.1421 -1.0013 -0.0674
 2823SOL     OW20101   0.867   0.662   9.688  0.5776 -0.4090  0.0352
 2823SOL    HW120102   0.800   0.629   9.627  2.0521 -0.5203 -1.5306
 2823SOL    HW220103   0.851   0.592   9.751  0.8797  0.8464  1.5166
 2824SOL     OW20104   2.555   2.770   5.685  0.2482 -0.5130  0.3506
 2824SOL    HW120105   2.640   2.763   5.642 -0.5691  2.2802 -1.7169
 2824SOL    HW220106   2.509   2.693   5.652 -1.0868 -0.6227  2.4546
 2825SOL     OW20107   3.773   0.065   1.697  0.0415  0.6110 -0.5182
 2825SOL    HW120108   3.693   0.071   1.645 -0.7247  1.5716  0.7507
 2825SOL    HW220109   3.738   0.075   1.786  2.7136 -0.7290  0.6926
 2826SOL     OW20110   2.817   1.559   9.130  0.0234  0.0080 -0.1678
 2826SOL    HW120111   2.911   1.557   9.146 -0.1459  0.4207  0.8788
 2826SOL    HW220112   2.783   1.641   9.166  2.4668  1.9996 -2.4496
 2827SOL     OW20113   3.526   1.325  17.101  0.0197 -0.2938 -0.1851
 2827SOL    HW120114   3.466   1.378  17.048 -1.2583 -0.2613  1.3216
 2827SOL    HW220115   3.501   1.237  17.071  1.2844 -1.1304  1.2477
 2828SOL     OW20116   2.983   2.562  12.370  0.5897 -0.3419  0.4874
 2828SOL    HW120117   2.984   2.524  12.457 -0.8175 -1.9718 -0.2171
 2828SOL    HW220118   2.899   2.529  12.339  0.6825 -1.0419  0.9906
 2829SOL     OW20119   3.053   2.369   5.761  0.4906 -0.2498 -0.0909
 2829SOL    HW120120   2.980   2.426   5.784  0.4540 -1.2877  2.2768
 2829SOL    HW220121   3.090   2.416   5.686  1.6984 -0.5757  0.3017
 2830SOL     OW20122   2.206   0.471   5.363 -0.2967  0.2298 -0.0707
 2830SOL    HW120123   2.195   0.517   5.280 -0.1637 -1.3694 -0.9581
 2830SOL    HW220124   2.211   0.552   5.415  0.6169  0.3055 -0.2784
 2831SOL     OW20125   2.778   3.274   3.857  0.6314  0.1221 -0.1677
 2831SOL    HW120126   2.805   3.281   3.949 -0.7576  0.7752  0.1933
 2831SOL    HW220127   2.699   3.329   3.855  2.2123  2.3492 -1.6790
 2832SOL     OW20128   1.058   4.651   1.629  0.4055 -0.0908 -0.5722
 2832SOL    HW120129   1.079   4.597   1.705  1.5264 -1.3421 -1.7771
 2832SOL    HW220130   1.035   4.581   1.568  0.3011 -0.3527 -0.2377
 2833SOL     OW20131   2.077   3.993   5.664 -0.4716 -0.1549  0.3667
 2833SOL    HW120132   2.094   3.960   5.576  1.8664 -0.2997  0.8629
 2833SOL    HW220133   2.113   4.082   5.660 -1.3645  0.1594 -0.7010
 2834SOL     OW20134   3.623   3.842   2.626  0.5441 -0.2763 -1.0419
 2834SOL    HW120135   3.551   3.892   2.588  0.2575  0.2881  0.2209
 2834SOL    HW220136   3.606   3.757   2.586 -0.2895 -0.2082 -0.8377
 2835SOL     OW20137   1.415   1.982   8.747 -0.4040 -0.4162  0.0671
 2835SOL    HW120138   1.473   1.923   8.699 -0.3773 -0.5556  0.2705
 2835SOL    HW220139   1.444   1.953   8.833  1.8335  1.8277  0.0269
 2836SOL     OW20140   3.792   1.417   7.101 -0.4536  0.2890  0.2637
 2836SOL    HW120141   3.730   1.490   7.096 -0.3819  0.2907 -0.5370
 2836SOL    HW220142   3.840   1.445   7.179  2.7271  1.5620 -2.2183
 2837SOL     OW20143   2.513   2.906  13.924  0.4449  0.5641  0.3903
 2837SOL    HW120144   2.447   2.888  13.991 -0.0873  0.8549 -0.0641
 2837SOL    HW220145   2.471   2.866  13.848  1.8285  0.2029 -0.1965
 2838SOL     OW20146   2.414   2.263   8.821 -0.1057 -0.2028  0.0318
 2838SOL    HW120147   2.440   2.215   8.742 -3.7004  0.8829 -1.8033
 2838SOL    HW220148   2.340   2.211   8.852  0.7862 -0.2181  2.1688
 2839SOL     OW20149   0.920   2.441   2.373 -0.2964  0.2684 -0.1305
 2839SOL    HW120150   0.951   2.526   2.405  0.0193  0.4368 -0.9048
 2839SOL    HW220151   0.969   2.385   2.434  2.7281  0.9842 -1.9326
 2840SOL     OW20152   0.124   4.322   8.513  0.6285  0.3794 -0.3514
 2840SOL    HW120153   0.206   4.368   8.533  1.7425 -1.9881  0.6705
 2840SOL    HW220154   0.059   4.368   8.566 -0.6095 -0.5534 -1.0578
 2841SOL     OW20155   2.189   1.040   3.195 -0.3519  0.6359 -0.0980
 2841SOL    HW120156   2.263   1.002   3.243  0.3748 -0.4522 -2.0850
 2841SOL    HW220157   2.167   1.100   3.265 -2.2398 -0.4014  0.1865
 2842SOL     OW20158   0.642   0.507   8.861  0.3174  0.3220  0.1224
 2842SOL    HW120159   0.605   0.590   8.890  0.4178  0.1737  0.6753
 2842SOL    HW220160   0.738   0.509   8.860  0.2678  1.5554 -1.5005
 2843SOL     OW20161   3.563   3.374  16.153 -0.3574 -0.2360  0.5290
 2843SOL    HW120162   3.515   3.328  16.222  1.5184 -2.8136  0.1465
 2843SOL    HW220163   3.509   3.452  16.147  0.3986  0.4028  2.0497
 2844SOL     OW20164   0.599   3.723   1.791 -0.3245 -0.2575  0.1954
 2844SOL    HW120165   0.604   3.786   1.863 -0.4520 -1.4530  1.2475
 2844SOL    HW220166   0.689   3.694   1.804  0.7774  4.3027  2.8224
 2845SOL     OW20167   2.808   3.132   6.129  0.0924  0.4283  0.6176
 2845SOL    HW120168   2.829   3.185   6.052  1.6646 -0.7548  0.2304
 2845SOL    HW220169   2.843   3.182   6.202 -0.6905  0.0989  1.2249
 2846SOL     OW20170   1.727   2.510   6.330 -0.1934 -0.3030  0.1264
 2846SOL    HW120171   1.700   2.559   6.407 -0.8482  1.4336 -1.2118
 2846SOL    HW220172   1.770   2.434   6.368 -1.0188 -0.4879  0.6915
 2847SOL     OW20173   1.036   2.489   7.295  0.6269 -0.1717  0.0422
 2847SOL    HW120174   0.987   2.502   7.215  0.7936  1.2736  0.1824
 2847SOL    HW220175   1.033   2.572   7.342  2.3406 -1.5266  2.5725
 2848SOL     OW20176   4.667   3.879   9.905  0.0425  0.0926 -0.3251
 2848SOL    HW120177   4.614   3.816   9.856  0.1390  0.8311 -1.3605
 2848SOL    HW220178   4.613   3.898   9.982 -1.9531 -0.2276 -1.6531
 2849SOL     OW20179   3.872   1.475  17.376  0.0623  0.1303 -0.2773
 2849SOL    HW120180   3.921   1.533  17.434 -1.5529 -0.8483  2.1055
 2849SOL    HW220181   3.803   1.439  17.433  0.8746 -0.5872  0.2582
 2850SOL     OW20182   3.301   1.860   1.806  0.2788  0.0850 -0.1289
 2850SOL    HW120183   3.239   1.901   1.865  0.1736  1.6625 -1.3560
 2850SOL    HW220184   3.360   1.931   1.782  0.9193  0.0091  1.2224
 2851SOL     OW20185   2.323   1.918   8.235 -0.0218 -0.3110  0.1590
 2851SOL    HW120186   2.247   1.862   8.250 -0.3926  0.2018  0.1899
 2851SOL    HW220187   2.335   1.912   8.140  3.8163  1.4809  0.5560
 2852SOL     OW20188   4.297   1.189   8.804 -0.0867  0.5943  0.9685
 2852SOL    HW120189   4.362   1.222   8.743 -0.6129  1.0747  0.6594
 2852SOL    HW220190   4.222   1.242   8.776 -0.1336 -0.0197 -0.0233
 2853SOL     OW20191   3.100   2.779  13.242  0.2830  0.2846  0.0618
 2853SOL    HW120192   3.043   2.758  13.168 -0.8149 -0.8711  1.2472
 2853SOL    HW220193   3.100   2.694  13.286 -1.0581 -0.6049 -1.6594
 2854SOL     OW20194   4.609   2.545   8.573  0.6814  0.6415 -0.4955
 2854SOL    HW120195   4.618   2.611   8.642 -1.6044  0.8348 -0.3646
 2854SOL    HW220196   4.617   2.467   8.627  1.5725  0.7725 -0.4524
 2855SOL     OW20197   4.684   2.588   1.906 -0.2767  0.0259  0.4960
 2855SOL    HW120198   4.721   2.512   1.951 -0.3135  0.5290  1.3809
 2855SOL    HW220199   0.028   2.630   1.877  0.3576 -1.6200 -0.0959
 2856SOL     OW20200   4.050   2.881   5.642 -0.1426  0.1745  0.2792
 2856SOL    HW120201   4.000   2.832   5.707 -0.0082 -0.7752 -0.3281
 2856SOL    HW220202   3.996   2.868   5.564 -0.2519  0.8164  0.2501
 2857SOL     OW20203   4.170   4.403   4.094  0.5939  0.0906 -0.6238
 2857SOL    HW120204   4.248   4.419   4.042  0.2629  3.2526 -0.1694
 2857SOL    HW220205   4.212   4.367   4.172  0.7744 -0.7391 -1.1131
 2858SOL     OW20206   1.839   0.560   6.607  0.3105  0.7890  0.1061
 2858SOL    HW120207   1.850   0.466   6.611 -0.1187  0.8685  3.4526
 2858SOL    HW220208   1.927   0.594   6.593  0.6653 -0.4235 -0.5886
 2859SOL     OW20209   4.348   4.017   3.938 -0.2922  0.1563  0.0908
 2859SOL    HW120210   4.286   3.988   3.871 -1.5514 -0.5698  1.5462
 2859SOL    HW220211   4.415   4.047   3.878 -1.6340  0.2250 -1.3753
 2860SOL     OW20212   3.194   3.791   0.393  0.1795  0.1555 -0.2197
 2860SOL    HW120213   3.161   3.881   0.392 -1.7880 -0.5895 -3.1313
 2860SOL    HW220214   3.266   3.785   0.329  0.1302 -1.6220 -0.1211
 2861SOL     OW20215   0.324   1.017   5.314 -0.3996  0.1465  0.2277
 2861SOL    HW120216   0.236   1.000   5.279 -0.8904  0.3669  1.3668
 2861SOL    HW220217   0.312   0.966   5.394  3.8382 -1.3150 -0.0857
 2862SOL     OW20218   0.954   2.082  14.271  0.1313  0.1098  0.4051
 2862SOL    HW120219   0.902   2.042  14.340  0.8278 -1.9326 -0.2622
 2862SOL    HW220220   0.893   2.105  14.200 -1.5259  0.4434  1.9420
 2863SOL     OW20221   3.736   2.349  14.086 -0.2925 -0.5512  0.1364
 2863SOL    HW120222   3.823   2.360  14.047  0.8922  0.3330  3.0612
 2863SOL    HW220223   3.743   2.403  14.164  1.9959 -2.1830  1.0542
 2864SOL     OW20224   1.006   1.901   6.820  0.6556  0.2112 -0.4830
 2864SOL    HW120225   1.066   1.868   6.887 -0.9340 -2.4326 -0.3927
 2864SOL    HW220226   0.980   1.981   6.866 -3.9717 -1.2288 -0.6261
 2865SOL     OW20227   0.989   1.014  11.484 -0.1787  0.2002 -0.4149
 2865SOL    HW120228   0.999   0.921  11.505 -0.2412 -0.1665 -1.9794
 2865SOL    HW220229   1.071   1.054  11.513  1.7732 -1.1908 -3.9666
 2866SOL     OW20230   3.098   0.732  12.764 -0.0973  0.3520  0.4014
 2866SOL    HW120231   3.136   0.674  12.831 -0.1084  1.8842  1.7159
 2866SOL    HW220232   3.029   0.677  12.728 -0.5592 -0.7653  2.9731
 2867SOL     OW20233   3.571   3.412   5.092  0.5226 -0.0772  0.1593
 2867SOL    HW120234   3.477   3.430   5.088 -0.0565 -3.1683 -0.8391
 2867SOL    HW220235   3.595   3.405   5.184  0.4930 -3.5624 -0.0715
 2868SOL     OW20236   4.395   2.899   1.392 -0.2402  0.1789 -0.2323
 2868SOL    HW120237   4.460   2.890   1.461  0.8620 -1.0086 -1.4290
 2868SOL    HW220238   4.366   2.990   1.404 -1.6670 -0.4184  0.7582
 2869SOL     OW20239   0.122   0.549   3.458 -0.2345 -0.2206 -0.0180
 2869SOL    HW120240   0.058   0.598   3.405  0.1257 -0.7617 -0.9604
 2869SOL    HW220241   0.122   0.589   3.545 -1.3443 -0.8754  0.2816
 2870SOL     OW20242   0.936   2.002   0.768  0.5305 -0.0255 -0.4183
 2870SOL    HW120243   1.026   1.991   0.737  2.1322  2.6047  3.4006
 2870SOL    HW220244   0.893   1.946   0.703  1.6522 -0.0174 -1.1826
 2871SOL     OW20245   1.253   0.868  17.566 -0.1192  0.6094 -0.3533
 2871SOL    HW120246   1.177   0.875  17.624  1.0076  0.9000  1.0706
 2871SOL    HW220247   1.242   0.951  17.520  2.3709  1.5356  0.7263
 2872SOL     OW20248   0.087   1.748   1.554  0.2142 -0.1348  0.2621
 2872SOL    HW120249   0.165   1.702   1.584  0.0038  0.0786  1.1541
 2872SOL    HW220250   0.095   1.752   1.459  0.3624 -0.6912  0.2526
 2873SOL     OW20251   4.683   3.581  13.691  0.4286  0.4994  0.1820
 2873SOL    HW120252   4.714   3.503  13.738 -0.0555 -0.2735 -0.7727
 2873SOL    HW220253   4.609   3.604  13.747 -0.2338  0.7635 -0.8119
 2874SOL     OW20254   2.720   0.854   9.424  0.8890 -0.5714 -0.6283
 2874SOL    HW120255   2.728   0.767   9.385  0.6347 -1.2682  0.8430
 2874SOL    HW220256   2.654   0.894   9.368  0.0334 -0.4645  0.4548
 2875SOL     OW20257   0.040   4.263  14.653  0.6095  0.1978  0.4793
 2875SOL    HW120258   0.117   4.317  14.666  2.1196 -1.6494 -0.8035
 2875SOL    HW220259   4.705   4.322  14.676  1.3031  0.5060  1.8921
 2876SOL     OW20260   4.431   2.818  15.302  0.0395  0.1022 -0.1584
 2876SOL    HW120261   4.500   2.858  15.355 -1.2117  1.0116  0.7926
 2876SOL    HW220262   4.363   2.880  15.327  1.2455  1.9796 -1.4741
 2877SOL     OW20263   3.402   2.080   7.338  0.0472 -0.2921  0.0003
 2877SOL    HW120264   3.351   2.056   7.416  0.7893  1.1108  0.9192
 2877SOL    HW220265   3.471   2.143   7.361 -0.2551  0.0663 -0.0748
 2878SOL     OW20266   2.491   4.173  15.251 -0.2410  0.1754 -0.1231
 2878SOL    HW120267   2.411   4.195  15.300 -0.7876 -1.8678 -0.0821
 2878SOL    HW220268   2.548   4.134  15.317  0.9980  1.2214 -0.5784
 2879SOL     OW20269   2.262   0.278   6.129 -0.0695 -0.8030  0.4053
 2879SOL    HW120270   2.233   0.250   6.042  0.9593  0.5817 -0.3810
 2879SOL    HW220271   2.333   0.216   6.145  2.5937  2.5231  1.4277
 2880SOL     OW20272   2.228   2.088  17.194 -0.6428  0.0498 -0.5796
 2880SOL    HW120273   2.253   2.170  17.153  1.1704 -1.2458 -2.0605
 2880SOL    HW220274   2.289   2.085  17.267 -1.2635 -0.3703 -0.0788
 2881SOL     OW20275   4.432   1.473   8.324 -0.5393  0.2637  0.3393
 2881SOL    HW120276   4.520   1.507   8.311 -0.2716 -0.6592 -0.2151
 2881SOL    HW220277   4.410   1.446   8.235 -1.4445 -1.9051  1.2011
 2882SOL     OW20278   1.303   0.975   0.109  0.1493 -0.5738  0.4338
 2882SOL    HW120279   1.208   0.975   0.103  0.0162  0.4523  2.7257
 2882SOL    HW220280   1.325   0.940   0.022 -1.7555 -0.1903 -0.1893
 2883SOL     OW20281   3.146   1.957   2.005 -0.0375 -0.3999  0.2196
 2883SOL    HW120282   3.125   1.868   2.034  0.1463  0.4857  3.1655
 2883SOL    HW220283   3.204   1.999   2.070  0.1413  0.4159 -0.4717
 2884SOL     OW20284   0.901   1.246   1.504  0.0115 -0.3401  0.1300
 2884SOL    HW120285   0.904   1.256   1.409  2.1869 -1.6675  0.0717
 2884SOL    HW220286   0.924   1.338   1.515  1.2788 -0.8295  1.5561
 2885SOL     OW20287   3.124   0.737   5.800 -0.4583  0.5016 -0.4900
 2885SOL    HW120288   3.064   0.781   5.740 -2.2952 -0.9104  0.3404
 2885SOL    HW220289   3.111   0.645   5.779  1.5783 -0.8802  4.2812
 2886SOL     OW20290   4.485   0.347   3.485  0.0569 -0.3047 -0.0456
 2886SOL    HW120291   4.415   0.384   3.433 -1.0600  0.2645  1.8783
 2886SOL    HW220292   4.441   0.301   3.556  0.7751  0.3351  0.8210
 2887SOL     OW20293   0.044   2.776   7.103  0.3350 -0.2497  0.1913
 2887SOL    HW120294   0.087   2.775   7.017 -0.6852 -3.0091 -0.2610
 2887SOL    HW220295   4.723   2.849   7.079  0.0541  0.1171  1.9967
 2888SOL     OW20296   0.414   3.027   7.462  0.1411  0.7573 -0.5417
 2888SOL    HW120297   0.393   2.987   7.378  2.1639  0.5368 -0.9495
 2888SOL    HW220298   0.465   2.960   7.508 -0.7762 -0.8543 -1.8729
 2889SOL     OW20299   0.832   0.854   1.163 -0.3544 -0.2295  0.1218
 2889SOL    HW120300   0.798   0.777   1.209 -0.5256  0.9693  2.0117
 2889SOL    HW220301   0.908   0.809   1.126 -2.0178 -2.1959 -0.9493
 2890SOL     OW20302   4.490   3.198  12.948 -0.0111 -0.4318  0.1532
 2890SOL    HW120303   4.430   3.260  12.988 -1.5171 -0.8407 -1.5019
 2890SOL    HW220304   4.565   3.254  12.928  0.7618 -0.4056  3.2004
 2891SOL     OW20305   4.589   4.347   4.554 -0.3736  0.5191  0.2266
 2891SOL    HW120306   4.571   4.261   4.515 -4.3933  1.1805  0.6839
 2891SOL    HW220307   4.589   4.398   4.473 -0.4634 -0.2518 -0.2590
 2892SOL     OW20308   3.684   4.418  15.233  0.5523  0.3070 -0.0234
 2892SOL    HW120309   3.683   4.377  15.320  0.1959  0.0721 -0.1342
 2892SOL    HW220310   3.737   4.494  15.255  0.5557  0.5406 -0.8345
 2893SOL     OW20311   0.270   2.033   9.218  0.1911 -0.8267  0.0458
 2893SOL    HW120312   0.217   2.085   9.278 -0.6123  1.3595 -2.5269
 2893SOL    HW220313   0.324   2.100   9.175 -0.6179 -1.2708 -1.6941
 2894SOL     OW20314   4.706   3.829   9.047  0.2004  0.0477  0.1226
 2894SOL    HW120315   4.639   3.865   9.104 -2.2667 -2.4425 -1.2140
 2894SOL    HW220316   4.671   3.857   8.962 -0.0093  0.6925  0.4230
 2895SOL     OW20317   1.583   1.343   5.694  0.1394 -0.1190 -0.3031
 2895SOL    HW120318   1.650   1.305   5.751 -1.5831 -0.5480  1.4436
 2895SOL    HW220319   1.583   1.284   5.619  0.9572 -0.1937 -0.2498
 2896SOL     OW20320   1.973   3.275   0.351 -0.6455  0.3393  0.2458
 2896SOL    HW120321   1.997   3.182   0.357  1.0823  0.7498 -0.1367
 2896SOL    HW220322   1.998   3.301   0.439  2.0910  2.4858 -1.1462
 2897SOL     OW20323   1.467   0.275   5.042  0.2032 -0.7215  0.3645
 2897SOL    HW120324   1.497   0.323   5.119 -1.5806 -0.0408  0.6316
 2897SOL    HW220325   1.425   0.198   5.080 -3.0508  0.5843 -0.6131
 2898SOL     OW20326   1.825   0.534  17.056 -0.0500  0.5131 -0.2425
 2898SOL    HW120327   1.779   0.572  16.981  0.0966 -0.1003 -0.6461
 2898SOL    HW220328   1.810   0.439  17.055  1.5729  0.2468  1.0703
 2899SOL     OW20329   1.668   1.498   7.730  0.4631  0.5219  0.2202
 2899SOL    HW120330   1.664   1.464   7.819  2.0681  0.8550  0.4215
 2899SOL    HW220331   1.595   1.560   7.726  0.1221  0.0250 -1.2411
 2900SOL     OW20332   4.513   2.931  12.229  0.6387  0.4526  0.1061
 2900SOL    HW120333   4.595   2.961  12.189  1.4684 -0.7299  0.9309
 2900SOL    HW220334   4.505   2.998  12.297 -0.4784 -1.6065  2.0018
 2901SOL     OW20335   0.839   4.122   2.681  0.0203  0.1663 -0.0610
 2901SOL    HW120336   0.831   4.039   2.730  2.2340 -0.4439 -0.7305
 2901SOL    HW220337   0.782   4.185   2.726 -1.2881 -1.0820  0.0475
 2902SOL     OW20338   0.432   2.401  12.518 -0.5244  0.2461  0.0234
 2902SOL    HW120339   0.485   2.469  12.559 -0.2102 -0.5644  0.9462
 2902SOL    HW220340   0.351   2.404  12.569 -0.2053  0.0202  0.5417
 2903SOL     OW20341   2.652   1.917   3.946 -0.2733  0.1319  0.6550
 2903SOL    HW120342   2.619   1.946   3.860 -0.0459 -0.5209  0.3550
 2903SOL    HW220343   2.582   1.916   4.012  1.4862 -1.3372  2.4774
 2904SOL     OW20344   3.010   0.543   6.087 -0.0156  0.4932 -0.2023
 2904SOL    HW120345   3.099   0.526   6.120 -0.5163 -0.0473  0.8900
 2904SOL    HW220346   2.992   0.609   6.155  2.0171 -0.2521  1.0771
 2905SOL     OW20347   4.669   3.592  11.884 -0.3055  0.1390 -0.4380
 2905SOL    HW120348   4.656   3.595  11.789 -0.2922  0.2524 -0.4370
 2905SOL    HW220349   0.022   3.624  11.870 -0.2567 -0.1451 -0.7852
 2906SOL     OW20350   0.953   4.577   6.635 -0.4045 -0.0410 -0.5396
 2906SOL    HW120351   0.995   4.647   6.685 -2.1612  1.0328 -0.5652
 2906SOL    HW220352   1.029   4.518   6.630 -0.5297 -0.1150 -1.5978
 2907SOL     OW20353   0.774   1.510   0.854  0.7113  0.1876  0.5099
 2907SOL    HW120354   0.744   1.592   0.814 -0.9200 -0.9546 -0.6197
 2907SOL    HW220355   0.749   1.442   0.790  1.6724  1.0939 -0.8352
 2908SOL     OW20356   3.455   2.018   8.539 -0.6639  0.1693  0.0581
 2908SOL    HW120357   3.374   1.966   8.547 -0.2549 -0.6355 -1.1676
 2908SOL    HW220358   3.503   1.977   8.467 -0.3760  0.5260  0.0532
 2909SOL     OW20359   4.018   2.679  17.013  0.6110  0.4217  0.4488
 2909SOL    HW120360   4.021   2.695  17.107 -3.3218  0.3479  0.5610
 2909SOL    HW220361   3.951   2.612  17.000  0.7312  0.7882 -2.0620
 2910SOL     OW20362   2.944   0.524   7.273  0.3474 -0.0858 -0.3899
 2910SOL    HW120363   2.882   0.548   7.341  0.4577  0.3431 -0.4411
 2910SOL    HW220364   3.031   0.530   7.311 -0.0455 -1.0557  0.6794
 2911SOL     OW20365   2.551   4.318   4.465  0.3399  0.8399  0.3033
 2911SOL    HW120366   2.630   4.303   4.414  0.7478  2.6998  0.3913
 2911SOL    HW220367   2.527   4.404   4.430  0.7929  0.5086 -0.8026
 2912SOL     OW20368   1.232   0.259   9.108 -0.0466 -0.0763  0.3450
 2912SOL    HW120369   1.294   0.290   9.042 -0.1940 -2.1095 -0.7436
 2912SOL    HW220370   1.161   0.224   9.053  2.1457 -0.3690 -2.3277
 2913SOL     OW20371   2.023   1.229   6.453 -0.3373 -0.2946 -0.4874
 2913SOL    HW120372   1.992   1.273   6.532  1.2306 -1.4942  0.8023
 2913SOL    HW220373   2.061   1.302   6.405 -0.5976  0.8354  1.0254
 2914SOL     OW20374   4.242   2.927   2.314 -0.0890  0.0953  0.0945
 2914SOL    HW120375   4.187   3.003   2.330 -0.9350 -0.8132  1.4671
 2914SOL    HW220376   4.184   2.865   2.271  1.0024 -1.8752  1.4640
 2915SOL     OW20377   1.308   0.800   2.891  0.2609  0.0988 -0.2042
 2915SOL    HW120378   1.330   0.716   2.931 -2.7168 -1.0759 -1.0044
 2915SOL    HW220379   1.353   0.855   2.955  2.3654 -1.2770 -0.5022
 2916SOL     OW20380   3.059   4.501   8.298 -0.0285 -0.0649  0.0405
 2916SOL    HW120381   3.071   4.516   8.392  3.9198 -0.8980 -0.3033
 2916SOL    HW220382   3.015   4.416   8.303 -0.7390  0.3928  1.6084
 2917SOL     OW20383   1.985   4.706  16.680  0.4071  0.0576 -0.1140
 2917SOL    HW120384   1.961   4.643  16.612 -0.2278 -2.7159  2.6838
 2917SOL    HW220385   2.026   4.642  16.738  1.6240 -1.1695 -2.3460
 2918SOL     OW20386   2.820   4.717  11.967  0.2176 -0.0755  0.2567
 2918SOL    HW120387   2.797   0.069  11.993  0.9814  0.0436  0.5243
 2918SOL    HW220388   2.784   4.713  11.878 -3.8478  0.8098  1.8281
 2919SOL     OW20389   3.542   0.755   3.537 -0.2156 -0.0609  0.2771
 2919SOL    HW120390   3.605   0.781   3.469 -0.9623  1.3673  0.1436
 2919SOL    HW220391   3.559   0.661   3.541 -2.4988 -0.4877 -0.1846
 2920SOL     OW20392   1.552   4.518   9.128  0.3901 -0.0770 -0.3146
 2920SOL    HW120393   1.535   4.610   9.111 -1.7193 -0.2231  0.9886
 2920SOL    HW220394   1.496   4.509   9.205  0.7907 -0.8345 -0.1006
 2921SOL     OW20395   0.863   1.860  13.562 -0.7878  0.6194 -0.2465
 2921SOL    HW120396   0.776   1.829  13.538 -0.7620  0.7411 -0.4987
 2921SOL    HW220397   0.859   1.850  13.657  1.9904  1.6519 -0.0028
 2922SOL     OW20398   1.686   3.296  15.719  0.2377 -0.2833 -0.2132
 2922SOL    HW120399   1.674   3.239  15.643  0.9295 -0.8160  0.0820
 2922SOL    HW220400   1.633   3.371  15.690  1.6809  0.0409 -2.0685
 2923SOL     OW20401   2.421   0.662  14.263 -0.0651 -0.2187  0.3253
 2923SOL    HW120402   2.490   0.692  14.322  1.5842 -1.6575 -0.8662
 2923SOL    HW220403   2.400   0.741  14.215  2.8358  0.5181  0.2834
 2924SOL     OW20404   1.563   2.531   5.078  0.3385  0.0447 -0.2926
 2924SOL    HW120405   1.633   2.562   5.022  0.3644 -0.8606 -0.7621
 2924SOL    HW220406   1.605   2.458   5.122 -0.9516 -0.0682  0.7808
 2925SOL     OW20407   4.486   4.212   3.399  0.5056  0.2552 -0.3936
 2925SOL    HW120408   4.517   4.303   3.401 -0.7226  0.6752 -0.5369
 2925SOL    HW220409   4.395   4.233   3.381  0.9833  0.9018 -2.0701
 2926SOL     OW20410   3.001   3.011   6.975 -0.2462 -0.0905 -0.6208
 2926SOL    HW120411   3.061   3.053   7.037  0.5872 -0.8101 -0.9435
 2926SOL    HW220412   3.019   2.919   6.994 -0.5429  0.3414  1.7892
 2927SOL     OW20413   0.203   0.453   1.928 -0.2191  0.0632 -0.0533
 2927SOL    HW120414   0.186   0.365   1.963 -0.0732  0.8239  1.9241
 2927SOL    HW220415   0.297   0.470   1.929 -0.3608  0.8190 -0.7641
 2928SOL     OW20416   2.676   3.098  13.531  0.1674 -0.3367  0.3093
 2928SOL    HW120417   2.747   3.150  13.570  1.9445 -1.2756 -1.6186
 2928SOL    HW220418   2.603   3.150  13.563 -1.0699 -2.4088  0.8124
 2929SOL     OW20419   0.788   4.469  12.768 -0.0017  0.0934 -0.4984
 2929SOL    HW120420   0.871   4.493  12.809 -0.1810  0.1812 -0.1855
 2929SOL    HW220421   0.766   4.547  12.717  1.1588  1.2976  0.8481
 2930SOL     OW20422   1.297   1.900  12.136 -0.5251  0.3348  0.3849
 2930SOL    HW120423   1.284   1.949  12.054 -2.2051  2.0828  1.7106
 2930SOL    HW220424   1.217   1.936  12.175 -1.3127 -0.2425 -0.6664
 2931SOL     OW20425   4.213   3.909   4.903 -0.0759  0.4473 -0.2237
 2931SOL    HW120426   4.281   3.856   4.946  0.0043 -1.3293 -2.5496
 2931SOL    HW220427   4.213   3.989   4.956  0.6701  0.2598  0.0589
 2932SOL     OW20428   0.556   2.438   8.743 -0.9971 -0.1396  0.0100
 2932SOL    HW120429   0.477   2.480   8.779  0.2715  0.0855  2.5884
 2932SOL    HW220430   0.571   2.483   8.660  0.7046 -2.2763 -0.8226
 2933SOL     OW20431   4.076   3.409   1.932 -0.0685  0.4547  0.0727
 2933SOL    HW120432   3.994   3.446   1.900  1.1647  1.0141 -2.4520
 2933SOL    HW220433   4.067   3.424   2.026 -0.6511 -2.2688  0.4660
 2934SOL     OW20434   0.814   3.870  11.180 -0.1163  0.8230  0.3593
 2934SOL    HW120435   0.763   3.889  11.101 -1.5095  0.3199  1.1241
 2934SOL    HW220436   0.769   3.932  11.238 -0.6378 -0.3781  1.2424
 2935SOL     OW20437   3.806   1.949   5.234 -0.4318  0.0772  0.0502
 2935SOL    HW120438   3.802   1.945   5.329 -0.4072 -0.1578  0.0396
 2935SOL    HW220439   3.858   1.872   5.212 -1.3349 -0.3161 -0.7118
 2936SOL     OW20440   4.580   4.496   4.318  0.1095 -0.0154  0.3561
 2936SOL    HW120441   4.507   4.554   4.299 -0.4906 -1.8166 -2.8229
 2936SOL    HW220442   4.649   4.543   4.272  0.5933  0.0611  1.1559
 2937SOL     OW20443   3.883   2.628  10.992  0.1327  0.9258  0.4472
 2937SOL    HW120444   3.787   2.636  10.993 -0.0051 -1.0114  1.0263
 2937SOL    HW220445   3.917   2.660  10.909 -0.4405  0.7171  0.1304
 2938SOL     OW20446   3.396   2.506   2.645 -0.1279 -0.1620  0.1072
 2938SOL    HW120447   3.345   2.475   2.720  0.5154  3.2192  1.9161
 2938SOL    HW220448   3.348   2.462   2.575 -2.0553  1.2479  0.5457
 2939SOL     OW20449   3.308   1.579   3.975  0.2893 -0.4422  0.3543
 2939SOL    HW120450   3.386   1.572   3.920 -0.0057 -1.7159  0.1048
 2939SOL    HW220451   3.287   1.672   3.964  1.9886 -0.3518 -2.0713
 2940SOL     OW20452   0.566   2.623  12.599 -0.0668  0.6981 -0.0345
 2940SOL    HW120453   0.647   2.674  12.606 -0.5623  1.5161 -0.2528
 2940SOL    HW220454   0.500   2.692  12.593 -0.5430  0.2206 -0.2729
 2941SOL     OW20455   1.420   0.896   3.411  0.1117  0.1306  0.2353
 2941SOL    HW120456   1.496   0.948   3.386 -1.9396  3.7816  1.6166
 2941SOL    HW220457   1.442   0.868   3.500  2.5934  0.3866 -0.2973
 2942SOL     OW20458   2.141   2.513  14.778 -0.0406  0.2518 -0.6783
 2942SOL    HW120459   2.235   2.498  14.780 -0.3266 -1.2230  1.9365
 2942SOL    HW220460   2.123   2.527  14.685 -1.3953 -0.0900 -0.4767
 2943SOL     OW20461   1.254   2.028  11.907  0.3223  0.2015  0.1164
 2943SOL    HW120462   1.301   2.088  11.849  3.0745 -1.8899  0.1772
 2943SOL    HW220463   1.176   2.021  11.852  0.6162  1.8778 -0.5007
 2944SOL     OW20464   1.533   1.936  14.389 -0.0147 -0.1215  0.2818
 2944SOL    HW120465   1.536   1.863  14.450  0.8833 -0.1616  0.2001
 2944SOL    HW220466   1.444   1.970  14.400  0.0497 -0.8112  2.7816
 2945SOL     OW20467   1.031   2.818  12.617  0.2568 -0.5273 -0.0392
 2945SOL    HW120468   1.077   2.869  12.551 -1.9364  1.1213 -0.2763
 2945SOL    HW220469   1.038   2.879  12.690 -0.3522  0.6246 -0.9587
 2946SOL     OW20470   4.668   2.948   3.475  0.1270  0.4013  0.0823
 2946SOL    HW120471   4.666   3.043   3.464  0.0957  0.4448  0.4492
 2946SOL    HW220472   0.025   2.933   3.487 -0.1918 -1.3007  0.4011
 2947SOL     OW20473   0.504   0.834   0.920 -0.2464 -0.1121 -0.2793
 2947SOL    HW120474   0.478   0.781   0.996 -2.7101  1.0838 -0.2897
 2947SOL    HW220475   0.507   0.764   0.855  0.1193 -1.7857  1.5344
 2948SOL     OW20476   4.428   2.606  11.060 -0.0676 -0.1559 -0.4783
 2948SOL    HW120477   4.376   2.526  11.050 -2.0599  1.0330  0.4137
 2948SOL    HW220478   4.411   2.633  11.150  0.4144 -1.3561 -0.0241
 2949SOL     OW20479   3.318   0.949   3.498  0.6187  0.3808 -0.2532
 2949SOL    HW120480   3.228   0.974   3.515  0.5308 -0.1826  0.1242
 2949SOL    HW220481   3.326   0.960   3.403  1.5436  0.6906 -0.1424
 2950SOL     OW20482   3.748   2.103   7.544  0.3200  0.3528 -0.2105
 2950SOL    HW120483   3.781   2.136   7.460  1.5102  1.6849  0.7734
 2950SOL    HW220484   3.820   2.128   7.602 -0.6093 -1.2888  1.6355
 2951SOL     OW20485   3.163   3.644   0.935  0.1025  0.2433 -0.1476
 2951SOL    HW120486   3.127   3.590   0.864 -1.1943 -2.2478  2.4050
 2951SOL    HW220487   3.091   3.706   0.945 -0.3195 -0.3791  0.6412
 2952SOL     OW20488   2.698   2.114   2.020  0.2242  0.1444 -0.4946
 2952SOL    HW120489   2.709   2.164   1.938  2.5832  1.2762  0.4974
 2952SOL    HW220490   2.605   2.121   2.041  0.0571  0.7783 -1.4424
 2953SOL     OW20491   2.410   0.246   2.703 -0.0973 -0.2817  0.0050
 2953SOL    HW120492   2.504   0.262   2.691 -0.0108 -1.5698 -1.1514
 2953SOL    HW220493   2.408   0.177   2.769 -1.9263 -0.0627  0.1862
 2954SOL     OW20494   1.021   2.609   8.008  0.2402 -0.0906  0.2891
 2954SOL    HW120495   1.057   2.534   8.056 -0.3973 -1.1862 -0.9538
 2954SOL    HW220496   1.025   2.670   8.082  0.8784  2.9363 -2.2211
 2955SOL     OW20497   4.375   2.165   5.619 -0.1608  0.2183 -0.0398
 2955SOL    HW120498   4.444   2.108   5.585  0.8656  1.9295 -0.8514
 2955SOL    HW220499   4.376   2.239   5.559  0.4294 -0.1612 -0.4907
 2956SOL     OW20500   0.809   0.633   5.382  0.3907  0.2937  0.1056
 2956SOL    HW120501   0.762   0.676   5.310 -0.4584 -1.3630 -0.3590
 2956SOL    HW220502   0.775   0.679   5.459  1.0281  1.4231 -0.2888
 2957SOL     OW20503   1.850   0.305   3.394  0.4373  0.1000  0.2804
 2957SOL    HW120504   1.776   0.246   3.408 -1.1883  1.5696 -2.2388
 2957SOL    HW220505   1.896   0.283   3.475 -1.8440 -0.8422  1.3533
 2958SOL     OW20506   1.746   0.982   1.486 -0.2512  0.1652 -0.0619
 2958SOL    HW120507   1.696   0.901   1.493  1.5556 -0.8626  1.0150
 2958SOL    HW220508   1.809   0.966   1.557 -0.4055 -0.5724 -0.0982
 2959SOL     OW20509   2.137   1.157  16.737  0.0975 -0.0652  0.4079
 2959SOL    HW120510   2.167   1.244  16.765  0.0340  0.2187 -0.4076
 2959SOL    HW220511   2.216   1.112  16.705  0.0721 -1.4516  2.2988
 2960SOL     OW20512   2.601   0.334  17.572 -0.1817  0.9791  0.0635
 2960SOL    HW120513   2.682   0.364  17.612  0.2791 -0.3647  0.1112
 2960SOL    HW220514   2.629   0.247  17.547  0.1453  1.3036 -0.6939
 2961SOL     OW20515   0.257   1.127  10.568 -0.1971  0.4257 -0.1995
 2961SOL    HW120516   0.321   1.139  10.498  1.5588 -0.3391  1.2807
 2961SOL    HW220517   0.270   1.203  10.624 -0.3352 -0.8024  1.5203
 2962SOL     OW20518   1.074   1.185  15.547  0.0773  0.7330  0.0379
 2962SOL    HW120519   1.100   1.110  15.600  1.0845  0.4760 -0.8240
 2962SOL    HW220520   0.980   1.179  15.561 -0.1544 -0.7171 -2.2356
 2963SOL     OW20521   2.833   0.928   3.327 -0.2868 -0.3131  0.1072
 2963SOL    HW120522   2.819   0.836   3.306 -0.9454 -0.4967  1.3471
 2963SOL    HW220523   2.831   0.911   3.421  0.8467  1.3088  0.4263
 2964SOL     OW20524   0.158   3.199   6.329  0.3478 -0.2116 -0.6249
 2964SOL    HW120525   0.217   3.234   6.262  1.9157 -1.6822  0.0007
 2964SOL    HW220526   0.082   3.201   6.271  0.9340 -2.2775 -1.4876
 2965SOL     OW20527   3.763   4.507   1.469 -0.1794  0.2048 -0.0644
 2965SOL    HW120528   3.842   4.515   1.523 -0.4463 -0.8036  0.4688
 2965SOL    HW220529   3.749   4.599   1.445 -0.5273  0.2375  0.2486
 2966SOL     OW20530   3.281   2.627  11.186 -0.3713 -0.6703  0.0691
 2966SOL    HW120531   3.352   2.613  11.249 -1.4752  2.2058  1.9595
 2966SOL    HW220532   3.213   2.658  11.245 -0.0841 -0.3870  0.2496
 2967SOL     OW20533   2.695   0.298   7.660  0.1573 -0.0324  0.2433
 2967SOL    HW120534   2.690   0.214   7.706 -0.8813 -0.7054 -1.1228
 2967SOL    HW220535   2.630   0.285   7.592  1.3082 -1.8600 -0.5071
 2968SOL     OW20536   3.120   1.027   6.190  0.6279 -0.0233 -0.1496
 2968SOL    HW120537   3.206   1.048   6.155  0.3583 -2.2613 -2.2092
 2968SOL    HW220538   3.093   0.965   6.122  0.0324  0.0473  0.0229
 2969SOL     OW20539   3.969   0.436  12.640  0.1163  0.1601 -0.5630
 2969SOL    HW120540   3.938   0.519  12.603  0.0669  0.6706  0.5962
 2969SOL    HW220541   3.955   0.382  12.563  1.0651 -1.6603  0.5432
 2970SOL     OW20542   0.858   2.127   6.430  0.6031 -0.8052 -0.2140
 2970SOL    HW120543   0.809   2.183   6.370  1.0008 -0.4582 -0.2169
 2970SOL    HW220544   0.948   2.157   6.420  0.7249 -1.6970 -1.8646
 2971SOL     OW20545   1.492   1.645   6.297 -0.8054 -0.5408 -0.3150
 2971SOL    HW120546   1.470   1.736   6.318  3.1440  0.1028  1.1640
 2971SOL    HW220547   1.480   1.607   6.384 -0.1369 -1.0230 -0.4326
 2972SOL     OW20548   0.428   2.710   4.771  0.3897  0.4631  0.9108
 2972SOL    HW120549   0.439   2.666   4.687  0.0807 -1.9671  2.1576
 2972SOL    HW220550   0.509   2.681   4.812  0.2007 -0.8107  0.3767
 2973SOL     OW20551   3.289   0.950  15.330  0.2377 -0.5354  0.3262
 2973SOL    HW120552   3.290   0.888  15.403  0.8935  0.5985  1.2852
 2973SOL    HW220553   3.195   0.968  15.324  0.4513  1.3497  2.3833
 2974SOL     OW20554   2.199   2.348  15.981 -0.3479  0.1744 -0.0123
 2974SOL    HW120555   2.205   2.256  16.007 -0.6717 -0.8828 -3.7522
 2974SOL    HW220556   2.252   2.392  16.048  1.4798 -0.2095 -1.1926
 2975SOL     OW20557   0.437   0.508  17.083 -0.8931  0.4115  0.0410
 2975SOL    HW120558   0.356   0.560  17.083 -0.1426  1.6087 -0.8142
 2975SOL    HW220559   0.413   0.424  17.122 -2.1270  0.3950 -0.7262
 2976SOL     OW20560   3.400   0.016   3.750  0.2460  0.0219  0.2085
 2976SOL    HW120561   3.369   0.089   3.804  1.9327  0.4784  0.5604
 2976SOL    HW220562   3.435   4.689   3.812 -2.7045 -1.2742  0.5089
 2977SOL     OW20563   0.103   2.142  17.454 -0.0414 -0.4840  0.5996
 2977SOL    HW120564   0.194   2.159  17.479  0.5685 -1.4893 -0.8932
 2977SOL    HW220565   0.072   2.229  17.479  1.1382  0.1617 -0.1369
 2978SOL     OW20566   4.659   4.164   5.754  0.1247 -0.3057  0.8191
 2978SOL    HW120567   0.003   4.157   5.805  0.5324 -1.4955 -0.0002
 2978SOL    HW220568   4.591   4.178   5.820  1.0609 -0.1760  1.7546
 2979SOL     OW20569   2.822   1.735   1.767 -0.2505 -0.0355  0.5314
 2979SOL    HW120570   2.807   1.756   1.859 -0.8323  0.6503  0.2799
 2979SOL    HW220571   2.746   1.781   1.731  0.5769  1.6644  1.0087
 2980SOL     OW20572   0.659   1.888   0.119  0.1112 -0.5221  0.6027
 2980SOL    HW120573   0.662   1.980   0.094 -1.3040 -0.4048  0.8252
 2980SOL    HW220574   0.742   1.853   0.086 -0.0191  0.4605 -0.7732
 2981SOL     OW20575   4.441   2.562  17.064  0.2102 -0.6353 -0.1936
 2981SOL    HW120576   4.423   2.509  16.986  0.9696 -0.3075 -0.5832
 2981SOL    HW220577   4.400   2.647  17.045 -1.5680 -0.7273  3.2067
 2982SOL     OW20578   2.652   1.046   1.675  0.5037 -0.4042  0.4112
 2982SOL    HW120579   2.593   1.111   1.636  2.4326  0.4096 -1.2085
 2982SOL    HW220580   2.740   1.085   1.683  0.1956 -0.1104  2.2998
 2983SOL     OW20581   2.918   3.004   2.821 -0.8078  0.6750 -0.2276
 2983SOL    HW120582   2.942   2.956   2.900 -2.3287  3.0798  1.6895
 2983SOL    HW220583   2.973   3.082   2.833  0.4690 -0.3492  0.5971
 2984SOL     OW20584   4.721   1.907   6.682  0.0905 -0.3087 -0.5189
 2984SOL    HW120585   4.628   1.923   6.667  0.0263  1.6741  1.8706
 2984SOL    HW220586   0.019   1.992   6.711  2.1433 -1.0873 -0.6576
 2985SOL     OW20587   2.070   2.574   6.318 -0.0315  0.8410 -0.1931
 2985SOL    HW120588   1.993   2.630   6.316  0.9285  2.1964  1.3407
 2985SOL    HW220589   2.149   2.628   6.313 -0.3464  1.4919  2.0862
 2986SOL     OW20590   2.489   3.221   1.442 -0.1071 -0.0826  0.1021
 2986SOL    HW120591   2.539   3.240   1.522 -0.6830 -0.3809  0.5279
 2986SOL    HW220592   2.430   3.155   1.476 -0.3401  0.7174  1.2564
 2987SOL     OW20593   3.239   1.113   2.219 -0.2653  0.3335 -0.2969
 2987SOL    HW120594   3.289   1.068   2.151  0.0340 -0.2340  0.2945
 2987SOL    HW220595   3.263   1.204   2.205 -1.7975  0.6760 -0.6825
 2988SOL     OW20596   1.979   0.351  14.343  0.1649 -0.1400 -0.1353
 2988SOL    HW120597   2.001   0.345  14.435 -1.1119 -1.0995  0.1082
 2988SOL    HW220598   2.055   0.314  14.298 -0.1068 -0.0718 -0.6636
 2989SOL     OW20599   4.627   3.532   3.888  0.8417  0.3522 -0.7476
 2989SOL    HW120600   4.652   3.569   3.972 -0.3189 -0.7902  0.1028
 2989SOL    HW220601   4.619   3.438   3.904 -0.1095  0.4181 -0.7981
 2990SOL     OW20602   0.096   2.054   4.354  0.7218 -0.1603 -0.0969
 2990SOL    HW120603   0.159   2.014   4.415  1.7264  3.0126  0.9426
 2990SOL    HW220604   0.054   2.121   4.407  1.2948 -1.0780  1.5375
 2991SOL     OW20605   4.224   2.711   9.168 -0.3500 -0.2157  0.4130
 2991SOL    HW120606   4.173   2.792   9.163 -0.6226 -0.5957 -2.4745
 2991SOL    HW220607   4.198   2.669   9.086 -0.8344 -0.6449  0.7832
 2992SOL     OW20608   1.353   4.503  12.807  0.8667 -0.2636  0.0586
 2992SOL    HW120609   1.313   4.431  12.759  0.5418 -0.4748  0.6462
 2992SOL    HW220610   1.433   4.465  12.843  0.4416 -0.1629  1.1353
 2993SOL     OW20611   0.964   2.658   5.559 -0.0639 -0.2926  0.2472
 2993SOL    HW120612   0.971   2.731   5.498  0.8639 -0.1312  0.5490
 2993SOL    HW220613   1.011   2.687   5.636 -1.7074 -1.7052  1.7858
 2994SOL     OW20614   0.498   3.597   3.389  0.3229  0.5912 -0.0447
 2994SOL    HW120615   0.443   3.570   3.462 -1.3922 -0.5568 -1.7642
 2994SOL    HW220616   0.549   3.517   3.377  1.1758  1.2842 -1.0330
 2995SOL     OW20617   4.604   3.520   7.119 -0.4547  0.2763 -0.1616
 2995SOL    HW120618   4.636   3.475   7.197  0.9475 -1.1639 -1.5635
 2995SOL    HW220619   4.515   3.538   7.147 -1.1512 -2.2727 -0.7853
 2996SOL     OW20620   2.515   4.273  11.889  0.7985 -0.2726  0.2902
 2996SOL    HW120621   2.482   4.292  11.977  0.4229  0.1423  0.0607
 2996SOL    HW220622   2.525   4.365  11.864 -3.9346  0.4993  1.1002
 2997SOL     OW20623   2.018   0.991   5.325  0.1433  1.0098  0.8293
 2997SOL    HW120624   2.020   0.939   5.405  3.9305 -0.9149 -0.5272
 2997SOL    HW220625   2.108   0.989   5.291 -0.8524  0.3529 -1.7443
 2998SOL     OW20626   1.534   2.256   2.392 -0.4431 -0.2945 -0.0321
 2998SOL    HW120627   1.588   2.307   2.332  0.4206 -1.5116 -0.2970
 2998SOL    HW220628   1.592   2.246   2.467  0.4710 -0.2747 -0.7352
 2999SOL     OW20629   0.393   1.752   4.250  0.5511 -0.3992 -0.1010
 2999SOL    HW120630   0.461   1.739   4.184 -0.1538 -3.7527 -0.1265
 2999SOL    HW220631   0.323   1.794   4.200  0.7136 -0.9233 -0.7578
 3000SOL     OW20632   3.971   4.735   4.302  0.1140 -0.2362  0.5746
 3000SOL    HW120633   4.008   0.033   4.384 -0.4982 -0.6261  1.0173
 3000SOL    HW220634   4.039   4.672   4.280  0.1646 -0.5852  1.6859
 3001SOL     OW20635   1.060   1.201  12.217  0.1502  0.1713  0.9676
 3001SOL    HW120636   1.027   1.287  12.243 -0.6836 -0.2905  1.4327
 3001SOL    HW220637   1.060   1.155  12.301 -0.4441  0.4524  1.1166
 3002SOL     OW20638   2.199   1.522   7.137  0.1924  0.3406  0.0356
 3002SOL    HW120639   2.294   1.519   7.141  0.1302 -0.6889  0.7034
 3002SOL    HW220640   2.172   1.485   7.221  1.6444 -1.1187 -0.1486
 3003SOL     OW20641   2.424   2.871  11.041 -0.1554  0.4134  0.4842
 3003SOL    HW120642   2.502   2.901  11.088  2.4935 -1.6453 -2.5416
 3003SOL    HW220643   2.360   2.942  11.036 -1.7294 -1.0343  0.0073
 3004SOL     OW20644   4.728   0.463  15.330  0.1829 -0.1108 -0.2686
 3004SOL    HW120645   0.030   0.523  15.268 -0.3226  1.4197  0.8971
 3004SOL    HW220646   0.074   0.440  15.371 -0.2853 -1.0483  0.1694
 3005SOL     OW20647   3.541   0.223   6.817  0.1019 -0.0623 -0.1613
 3005SOL    HW120648   3.595   0.288   6.862 -1.0725 -0.8188  2.3509
 3005SOL    HW220649   3.543   0.147   6.876 -0.2351  1.0385  1.2817
 3006SOL     OW20650   0.611   4.455   9.195  0.3064  0.1970  0.6872
 3006SOL    HW120651   0.621   4.370   9.152 -0.8517 -0.3446  1.4608
 3006SOL    HW220652   0.543   4.490   9.139  0.0952 -0.3214  0.6159
 3007SOL     OW20653   4.735   4.346   6.122 -0.0426 -0.3239  0.1927
 3007SOL    HW120654   4.644   4.330   6.148 -0.0316 -0.1101  0.3647
 3007SOL    HW220655   0.022   4.381   6.208  1.0133  1.3129 -0.7727
 3008SOL     OW20656   1.949   1.720   5.249 -0.4469 -0.3293 -0.4274
 3008SOL    HW120657   2.041   1.740   5.264 -1.2073  2.8177 -0.0893
 3008SOL    HW220658   1.959   1.625   5.244 -0.0054 -0.2957 -0.1407
 3009SOL     OW20659   0.103   3.392   5.596  0.2490 -0.2274  0.3637
 3009SOL    HW120660   0.054   3.348   5.665 -1.8998  0.9578 -0.3952
 3009SOL    HW220661   0.083   3.345   5.516 -0.8314  1.5640 -0.4265
 3010SOL     OW20662   4.308   1.854   1.536 -0.9302  0.8875  0.1122
 3010SOL    HW120663   4.297   1.761   1.515 -1.7578  1.3375 -1.4788
 3010SOL    HW220664   4.391   1.839   1.582 -1.3298  1.6490  1.1040
 3011SOL     OW20665   1.565   0.868   2.527 -0.1480 -0.4084  0.5651
 3011SOL    HW120666   1.618   0.797   2.562 -0.0516 -1.0770 -0.9533
 3011SOL    HW220667   1.479   0.853   2.565 -0.9491  1.0669 -0.6361
 3012SOL     OW20668   1.716   3.066   7.769 -0.3182 -0.8737  0.4193
 3012SOL    HW120669   1.754   2.984   7.802  1.3397  0.2390  1.2601
 3012SOL    HW220670   1.752   3.131   7.830  0.3438 -1.0462  0.2177
 3013SOL     OW20671   2.932   0.810   7.124  0.1581 -0.1294  0.2519
 3013SOL    HW120672   3.006   0.773   7.172  1.2521  0.0922 -1.2561
 3013SOL    HW220673   2.977   0.845   7.047 -0.0425  1.0083  0.6593
 3014SOL     OW20674   4.395   0.703   5.189 -0.4323 -0.2311 -0.3748
 3014SOL    HW120675   4.300   0.692   5.177 -0.5626  3.3699 -2.5929
 3014SOL    HW220676   4.410   0.724   5.097 -0.7069  0.7220 -0.2082
 3015SOL     OW20677   1.793   1.615   7.173 -0.1365 -0.4486 -0.2943
 3015SOL    HW120678   1.831   1.605   7.261  2.0445 -1.6598 -1.3863
 3015SOL    HW220679   1.739   1.694   7.172 -1.9487 -1.6576  1.9420
 3016SOL     OW20680   4.018   1.572   3.214 -0.0233  0.8270  0.0657
 3016SOL    HW120681   3.925   1.555   3.229  0.0149 -0.2877 -0.9330
 3016SOL    HW220682   4.035   1.658   3.251  0.1902 -0.1649  2.2722
 3017SOL     OW20683   0.556   1.668   7.390  0.2752 -0.2305 -0.0038
 3017SOL    HW120684   0.587   1.616   7.464 -0.2046 -0.9647 -0.3131
 3017SOL    HW220685   0.508   1.735   7.440 -1.1797 -1.3184  0.0649
 3018SOL     OW20686   3.360   2.081  13.903 -0.5940  0.6230  0.1449
 3018SOL    HW120687   3.418   2.119  13.970 -0.1568  1.5464 -0.7564
 3018SOL    HW220688   3.284   2.139  13.904 -0.9563  0.1092  1.6442
 3019SOL     OW20689   1.527   0.787   5.867  0.6020 -0.6365  0.5311
 3019SOL    HW120690   1.479   0.705   5.869  2.8450 -1.9362  0.5695
 3019SOL    HW220691   1.495   0.831   5.947 -0.6533  1.2178 -0.9955
 3020SOL     OW20692   3.822   1.903  10.846  0.3041 -0.0852  0.2954
 3020SOL    HW120693   3.826   1.833  10.911  1.2108  0.1428  0.4869
 3020SOL    HW220694   3.913   1.932  10.851 -0.5007  2.7299 -1.4591
 3021SOL     OW20695   2.308   3.855  11.788  0.1473  0.1812 -0.1219
 3021SOL    HW120696   2.394   3.863  11.830  1.0405 -1.0881 -1.7275
 3021SOL    HW220697   2.288   3.945  11.762 -1.1518 -0.6515 -2.0132
 3022SOL     OW20698   1.788   4.295   7.223  0.1808 -0.6773  0.0733
 3022SOL    HW120699   1.832   4.226   7.174 -2.1835 -2.5422  0.5631
 3022SOL    HW220700   1.740   4.241   7.286  1.0497 -3.9294 -2.0201
 3023SOL     OW20701   1.754   1.382   0.939 -0.0916  0.0501 -0.1669
 3023SOL    HW120702   1.675   1.392   0.993 -1.1085  0.4019 -1.7244
 3023SOL    HW220703   1.817   1.325   0.982  0.0621 -0.0246 -0.4926
 3024SOL     OW20704   4.692   3.037   5.014  0.3049  0.0524 -0.2186
 3024SOL    HW120705   4.637   3.042   5.092 -0.2479  0.9592 -0.6824
 3024SOL    HW220706   4.692   2.946   4.982  0.3295 -0.9111  2.5014
 3025SOL     OW20707   2.968   2.931   3.996 -0.0420 -0.1051 -0.4495
 3025SOL    HW120708   2.885   2.970   4.026  0.4718  0.8669 -0.2749
 3025SOL    HW220709   3.022   2.968   4.066  0.0309  0.1826 -0.6549
 3026SOL     OW20710   1.155   4.551  14.792  0.2285  0.4485 -0.3548
 3026SOL    HW120711   1.175   4.581  14.703  1.3050  1.1975  0.1367
 3026SOL    HW220712   1.089   4.484  14.772  1.4587 -1.1110  0.7977
 3027SOL     OW20713   0.221   1.933  12.816 -0.0329 -0.0013  0.1728
 3027SOL    HW120714   0.245   1.980  12.895 -0.8241  1.0296 -0.2042
 3027SOL    HW220715   0.146   1.883  12.850  0.2192 -0.6508 -0.2061
 3028SOL     OW20716   2.729   3.848   2.889 -0.2523  0.4168  0.1024
 3028SOL    HW120717   2.644   3.845   2.846  0.3345  2.0592 -1.2255
 3028SOL    HW220718   2.718   3.760   2.924 -1.7828 -0.0982 -1.6581
 3029SOL     OW20719   3.411   0.674   5.545 -0.3320  0.1551 -0.3996
 3029SOL    HW120720   3.418   0.591   5.593  0.0765  1.9087  2.5922
 3029SOL    HW220721   3.497   0.677   5.503 -0.0231 -2.8882 -0.0248
 3030SOL     OW20722   1.736   2.301   2.578 -0.4512  0.0220  0.3513
 3030SOL    HW120723   1.747   2.256   2.661 -1.4401  0.0528  0.5001
 3030SOL    HW220724   1.781   2.384   2.591 -0.2153 -0.1231  0.4520
 3031SOL     OW20725   3.796   1.953  13.198 -0.6263  0.2526 -0.1374
 3031SOL    HW120726   3.739   2.024  13.170 -0.1660 -0.0155 -1.7114
 3031SOL    HW220727   3.763   1.925  13.284  1.1068 -0.1831  0.3811
 3032SOL     OW20728   2.897   4.683  15.956 -0.1771  0.2144 -0.4551
 3032SOL    HW120729   2.946   0.028  15.952  1.2960 -0.5234  2.4951
 3032SOL    HW220730   2.962   4.619  15.929 -0.2583 -0.5867  1.1920
 3033SOL     OW20731   3.287   0.052   6.856 -0.1493 -0.0167 -1.0734
 3033SOL    HW120732   3.338   0.133   6.856 -1.5171  0.8308 -0.2131
 3033SOL    HW220733   3.302   0.027   6.764 -3.5859  0.6289 -1.8293
 3034SOL     OW20734   0.640   3.251   7.305  0.8554 -0.6426  0.4634
 3034SOL    HW120735   0.585   3.178   7.277 -0.4905  0.3381  0.5886
 3034SOL    HW220736   0.655   3.225   7.396 -2.0899 -0.5313  0.9565
 3035SOL     OW20737   1.734   3.875   5.999  0.3207  0.4006  0.3337
 3035SOL    HW120738   1.682   3.942   5.955  0.1848  0.4940  0.6395
 3035SOL    HW220739   1.762   3.911   6.083  0.0364  1.6476 -0.1046
 3036SOL     OW20740   1.042   3.136  10.444  0.4007 -0.2376  0.1800
 3036SOL    HW120741   1.045   3.096  10.531 -0.6864  2.5179  1.4923
 3036SOL    HW220742   1.057   3.225  10.477 -0.3785  0.9300 -2.6043
 3037SOL     OW20743   2.236   0.744   5.914 -0.0695 -0.0493 -0.2375
 3037SOL    HW120744   2.268   0.765   5.827  0.5715 -0.5102 -0.1094
 3037SOL    HW220745   2.148   0.713   5.893 -0.5353  0.2134  1.3116
 3038SOL     OW20746   4.364   3.904   1.923 -0.6903 -0.1147 -0.0569
 3038SOL    HW120747   4.309   3.916   1.846 -0.8209 -1.4306 -0.1654
 3038SOL    HW220748   4.308   3.847   1.976 -1.5803 -1.3148 -2.3138
 3039SOL     OW20749   4.662   4.138  15.726  0.0604 -0.2800  0.6470
 3039SOL    HW120750   4.575   4.168  15.755 -1.0913 -1.0240 -2.0884
 3039SOL    HW220751   4.628   4.060  15.682  1.1922  0.7705 -2.0717
 3040SOL     OW20752   2.476   3.703   6.377 -0.3013 -0.0090 -0.1305
 3040SOL    HW120753   2.454   3.611   6.390  0.5891 -0.1189  0.5782
 3040SOL    HW220754   2.474   3.740   6.465 -1.3470 -1.2913  0.3671
 3041SOL     OW20755   2.419   1.531   2.609  0.6164 -0.3777  0.0995
 3041SOL    HW120756   2.329   1.551   2.584  0.7332  0.9973  0.7619
 3041SOL    HW220757   2.459   1.559   2.527  0.9121 -1.2723 -0.0674
 3042SOL     OW20758   4.230   0.317   5.708 -0.7025  0.6572  0.4936
 3042SOL    HW120759   4.211   0.241   5.763 -2.5626  1.5127  1.0412
 3042SOL    HW220760   4.188   0.308   5.623  0.7004 -0.6796 -0.0675
 3043SOL     OW20761   3.254   1.856  13.779  0.6810 -0.3189 -0.1349
 3043SOL    HW120762   3.266   1.947  13.804  0.5824  0.3452 -2.4716
 3043SOL    HW220763   3.324   1.845  13.715  0.2961 -0.6995 -0.4951
 3044SOL     OW20764   2.385   2.512   9.028 -0.0467 -0.4070  0.2194
 3044SOL    HW120765   2.388   2.598   9.069 -2.1507  1.1280 -2.8607
 3044SOL    HW220766   2.295   2.505   8.998 -0.1410  0.2464  0.3569
 3045SOL     OW20767   3.930   4.252  17.031 -0.3091 -0.0469  0.3032
 3045SOL    HW120768   3.991   4.259  16.958  0.5387 -1.0569  0.9191
 3045SOL    HW220769   3.854   4.223  16.980  1.8430  1.2742 -3.6250
 3046SOL     OW20770   4.103   1.169  15.959 -0.4428  0.3310 -0.1974
 3046SOL    HW120771   4.166   1.137  16.023 -1.5523  0.3810  0.9231
 3046SOL    HW220772   4.017   1.140  15.987  0.0131  0.5260  1.3720
 3047SOL     OW20773   0.210   4.491  14.976 -0.1673 -0.6439 -0.3592
 3047SOL    HW120774   0.297   4.531  14.974  0.4149 -1.8714  0.4018
 3047SOL    HW220775   0.199   4.466  14.885 -1.8090 -2.7566  0.4375
 3048SOL     OW20776   2.376   0.912   3.336 -0.3495 -0.1332  0.7770
 3048SOL    HW120777   2.425   0.981   3.381 -0.4188  0.5416 -0.1716
 3048SOL    HW220778   2.412   0.852   3.401  0.7119 -0.6161 -0.2535
 3049SOL     OW20779   0.919   3.028  15.597 -0.1739 -0.2170 -0.4893
 3049SOL    HW120780   0.987   3.060  15.656  0.3052  2.1924 -2.3721
 3049SOL    HW220781   0.839   3.035  15.650 -0.0071  2.3014 -0.5861
 3050SOL     OW20782   4.525   2.509   9.397  0.2428  0.0414 -0.0600
 3050SOL    HW120783   4.468   2.555   9.459 -0.4496 -0.2439 -0.4766
 3050SOL    HW220784   4.511   2.559   9.316 -0.8942 -1.0092 -0.5166
 3051SOL     OW20785   1.018   2.029  10.435  0.4674  1.0676  0.1026
 3051SOL    HW120786   1.061   1.956  10.479 -0.9439 -0.6985 -1.4664
 3051SOL    HW220787   1.037   2.098  10.499 -1.8355 -0.2768  2.2589
 3052SOL     OW20788   0.950   1.116   0.424  0.1715 -0.0012  0.4006
 3052SOL    HW120789   0.992   1.124   0.509  0.9213 -0.0405  0.0335
 3052SOL    HW220790   0.861   1.137   0.453 -0.4164 -0.3040 -1.1947
 3053SOL     OW20791   2.057   3.056   8.214 -0.1813  0.5246 -0.0277
 3053SOL    HW120792   2.042   2.961   8.212 -1.3449  0.7331 -1.1070
 3053SOL    HW220793   1.968   3.089   8.226 -0.5793  0.1241 -1.8579
 3054SOL     OW20794   1.733   3.914   2.867  0.1376  0.6357 -0.2015
 3054SOL    HW120795   1.717   3.846   2.933  0.0412  0.4683 -0.3999
 3054SOL    HW220796   1.794   3.872   2.807 -1.1372  0.0170 -1.0554
 3055SOL     OW20797   2.417   0.355   5.880  0.0793  0.1464  0.8418
 3055SOL    HW120798   2.353   0.413   5.840 -0.2858 -0.9893 -0.2162
 3055SOL    HW220799   2.489   0.398   5.834  0.2595 -1.1259 -0.0650
 3056SOL     OW20800   4.152   0.671   3.728  0.3534  0.6016 -0.0986
 3056SOL    HW120801   4.122   0.750   3.683 -1.4419 -0.8644 -1.5089
 3056SOL    HW220802   4.066   0.636   3.751  0.1042 -0.2320 -2.2923
 3057SOL     OW20803   3.188   3.584   7.900 -0.6374 -0.3345 -0.0235
 3057SOL    HW120804   3.131   3.654   7.935 -1.3711 -0.1306 -1.6225
 3057SOL    HW220805   3.265   3.579   7.957 -1.6117 -1.5609  1.1633
 3058SOL     OW20806   1.196   0.832  11.338 -0.0987  0.4354  0.4882
 3058SOL    HW120807   1.135   0.806  11.269 -1.4174  1.2578  1.3420
 3058SOL    HW220808   1.140   0.825  11.415 -0.4255  1.6670  0.3639
 3059SOL     OW20809   0.612   2.300   3.636  0.0539  0.2590 -0.2218
 3059SOL    HW120810   0.634   2.384   3.596  0.6106 -0.5222 -1.5797
 3059SOL    HW220811   0.632   2.239   3.565  1.5472  0.1389  0.3067
 3060SOL     OW20812   0.184   2.335   7.959  0.0472 -0.2981  0.4993
 3060SOL    HW120813   0.164   2.276   7.887  1.3967  1.2572 -1.1368
 3060SOL    HW220814   0.133   2.298   8.032 -1.2807 -0.3489 -0.4677
 3061SOL     OW20815   4.360   3.489   7.296  0.3951  0.7049 -0.0107
 3061SOL    HW120816   4.419   3.432   7.346 -1.4388 -0.3765  0.9382
 3061SOL    HW220817   4.338   3.554   7.363 -0.6309 -0.0572  0.3962
 3062SOL     OW20818   3.332   0.665   4.113  0.1096 -0.3128  0.3858
 3062SOL    HW120819   3.293   0.637   4.196 -1.7648  0.5839 -0.1839
 3062SOL    HW220820   3.354   0.751   4.149 -0.0336 -0.2281  0.2731
 3063SOL     OW20821   1.319   0.604   4.628  0.7807  0.0743 -0.4718
 3063SOL    HW120822   1.367   0.577   4.706 -2.7640 -2.2781  0.8989
 3063SOL    HW220823   1.346   0.528   4.576 -1.4229 -0.7238 -0.4268
 3064SOL     OW20824   4.723   2.855   6.711 -0.1420 -0.2985  0.5394
 3064SOL    HW120825   4.705   2.815   6.625 -0.3800 -0.5429  0.7018
 3064SOL    HW220826   4.659   2.925   6.721  1.1990  0.9056  0.6119
 3065SOL     OW20827   3.343   1.313   7.448 -0.0462 -0.4672  0.4837
 3065SOL    HW120828   3.426   1.360   7.443  0.0686 -0.7346 -0.2596
 3065SOL    HW220829   3.301   1.354   7.523  0.9843 -0.6969  1.1915
 3066SOL     OW20830   1.764   1.123   2.140 -0.7181 -0.2240 -0.0699
 3066SOL    HW120831   1.725   1.046   2.181  1.3379 -1.6640 -0.8227
 3066SOL    HW220832   1.767   1.105   2.046  0.4493 -0.5416  0.0207
 3067SOL     OW20833   3.264   3.710   0.646 -0.2566 -0.3291 -0.3550
 3067SOL    HW120834   3.245   3.741   0.557 -0.5108  1.3374  0.2811
 3067SOL    HW220835   3.191   3.747   0.695 -1.1353 -1.1937 -1.0144
 3068SOL     OW20836   0.127   4.213   4.205  0.3214 -0.0278  0.1824
 3068SOL    HW120837   0.075   4.141   4.170  0.0644 -0.3753  1.2907
 3068SOL    HW220838   0.072   4.287   4.178 -1.0383 -1.4203 -0.8732
 3069SOL     OW20839   3.350   0.194   9.402  0.1880 -0.0356  0.0298
 3069SOL    HW120840   3.329   0.152   9.319  0.4594  1.3033 -0.7272
 3069SOL    HW220841   3.332   0.130   9.470 -0.4630 -1.4751 -1.5066
 3070SOL     OW20842   4.261   3.346  12.702 -0.2229 -0.1824 -0.3169
 3070SOL    HW120843   4.302   3.433  12.699 -1.2813  0.3407  0.0630
 3070SOL    HW220844   4.297   3.304  12.780  0.2085 -2.3456 -1.7011
 3071SOL     OW20845   4.467   1.697  10.278  0.5897  0.3709  0.5437
 3071SOL    HW120846   4.376   1.718  10.256  0.9115  1.0237 -0.1354
 3071SOL    HW220847   4.451   1.606  10.303 -1.2023  0.2186 -1.1951
 3072SOL     OW20848   3.255   1.272   7.756  0.0840  0.7221  0.4782
 3072SOL    HW120849   3.277   1.358   7.719 -0.0150  0.3211 -0.5125
 3072SOL    HW220850   3.161   1.280   7.766  0.1956  2.7656 -0.1475
 3073SOL     OW20851   2.939   1.815  12.713 -0.1883 -0.4948  0.0121
 3073SOL    HW120852   3.024   1.841  12.748 -0.6896  0.4351  0.5431
 3073SOL    HW220853   2.949   1.720  12.725  0.2657 -0.4677 -0.1818
 3074SOL     OW20854   1.844   0.088   4.590 -0.6997 -0.1176 -0.2386
 3074SOL    HW120855   1.846   0.111   4.683 -0.6054  0.5287 -0.4022
 3074SOL    HW220856   1.883   0.001   4.601 -1.6772 -0.1514  2.7995
 3075SOL     OW20857   0.315   3.017   4.437  0.0163  0.2278 -0.9702
 3075SOL    HW120858   0.226   2.998   4.465  0.8810 -0.6766  1.1340
 3075SOL    HW220859   0.305   3.031   4.343 -0.1691  0.6802 -0.8807
 3076SOL     OW20860   3.713   3.511   6.351  0.2684 -0.5611 -0.1041
 3076SOL    HW120861   3.701   3.416   6.346  0.8924 -0.5327 -2.3001
 3076SOL    HW220862   3.724   3.547   6.263  1.9996 -0.8018  0.0176
 3077SOL     OW20863   2.070   2.747   5.829 -0.1057  0.0388 -0.1289
 3077SOL    HW120864   2.154   2.702   5.832 -0.7149 -1.0815  0.1793
 3077SOL    HW220865   2.018   2.677   5.868 -0.6626  1.3316  1.4225
 3078SOL     OW20866   2.976   2.107   8.601 -0.1670  0.4024 -0.4293
 3078SOL    HW120867   2.912   2.111   8.530  0.2337 -1.7660 -0.8863
 3078SOL    HW220868   2.913   2.125   8.672  0.6190 -0.5688  0.5147
 3079SOL     OW20869   2.653   1.220   9.395  0.0316 -0.2490 -0.0872
 3079SOL    HW120870   2.597   1.143   9.384 -0.4055  0.2833 -1.7070
 3079SOL    HW220871   2.658   1.240   9.301 -0.7428 -1.1598 -0.3331
 3080SOL     OW20872   0.505   0.104   8.064 -0.5645  0.0853  0.0236
 3080SOL    HW120873   0.425   0.089   8.014 -0.5336 -1.1516  0.3465
 3080SOL    HW220874   0.476   0.186   8.106 -1.6861 -0.6626  0.7145
 3081SOL     OW20875   0.855   0.526   3.945  0.1425 -0.1353 -0.1151
 3081SOL    HW120876   0.796   0.601   3.949 -0.7748 -0.8175 -0.9030
 3081SOL    HW220877   0.896   0.520   4.032 -2.2113  3.0455  1.2070
 3082SOL     OW20878   0.722   4.266   9.596 -0.7684 -0.2451  0.3309
 3082SOL    HW120879   0.711   4.348   9.547 -0.3108 -0.7352 -0.5952
 3082SOL    HW220880   0.766   4.220   9.524  1.6170  0.8251  1.1347
 3083SOL     OW20881   4.687   4.724   0.505 -0.3624 -0.0146 -0.3113
 3083SOL    HW120882   4.635   0.067   0.514 -0.3408 -0.0279 -0.0789
 3083SOL    HW220883   0.010   0.007   0.433  0.3520  1.3858  0.6654
 3084SOL     OW20884   0.268   2.849  14.817 -0.3151  0.3081 -0.1704
 3084SOL    HW120885   0.350   2.847  14.867 -0.5114 -0.1445  0.1365
 3084SOL    HW220886   0.298   2.854  14.727  2.5227 -3.0358  0.5809
 3085SOL     OW20887   2.067   3.014   5.575 -0.9246 -0.0950 -0.1937
 3085SOL    HW120888   2.153   3.041   5.541 -0.2592 -2.9696 -0.7756
 3085SOL    HW220889   2.048   3.086   5.635 -1.0149  0.0836 -0.4344
 3086SOL     OW20890   0.739   0.959   5.956 -0.0447  0.0145  0.4713
 3086SOL    HW120891   0.834   0.969   5.966  0.0724 -1.6970  0.9774
 3086SOL    HW220892   0.742   0.979   5.862 -1.8270  1.9745  0.8288
 3087SOL     OW20893   2.075   3.506   8.918 -0.0428  0.5401  0.4709
 3087SOL    HW120894   2.122   3.520   8.836  1.0030 -0.5895  0.8899
 3087SOL    HW220895   2.131   3.437   8.954  0.9319  1.3848  0.5710
 3088SOL     OW20896   1.984   1.960   5.799 -0.1775 -0.1074  0.1323
 3088SOL    HW120897   1.983   1.892   5.866 -1.9755 -0.3321 -0.1346
 3088SOL    HW220898   2.075   1.985   5.815 -0.5942 -0.3736  2.8425
 3089SOL     OW20899   0.742   1.186   8.760  0.4062  0.0348  0.5395
 3089SOL    HW120900   0.788   1.136   8.692 -1.8247 -0.9311 -0.2666
 3089SOL    HW220901   0.758   1.131   8.836 -0.4885 -3.4274 -1.7377
 3090SOL     OW20902   2.961   2.543   2.701 -0.3091  0.0869  0.1538
 3090SOL    HW120903   2.871   2.510   2.699  0.3745 -1.7818  0.0390
 3090SOL    HW220904   2.998   2.480   2.639  1.6175 -0.2945  1.6779
 3091SOL     OW20905   3.056   2.297  10.553  0.1933  0.1976 -0.3800
 3091SOL    HW120906   3.081   2.265  10.640 -2.5399 -0.2326  0.2260
 3091SOL    HW220907   2.962   2.312  10.554  0.0677 -0.5217 -1.1423
 3092SOL     OW20908   0.590   0.146  17.308  0.0761  0.7971  0.2850
 3092SOL    HW120909   0.565   0.161  17.216  0.4223 -1.4777 -0.1695
 3092SOL    HW220910   0.625   0.059  17.290 -0.3707  0.7395 -0.3135
 3093SOL     OW20911   2.722   2.158  15.263 -0.4612  0.5152  0.5316
 3093SOL    HW120912   2.665   2.232  15.243 -0.3571  0.9142  1.7134
 3093SOL    HW220913   2.724   2.129  15.172 -1.0927 -2.5135  1.4538
 3094SOL     OW20914   1.367   0.026  12.720 -0.7334  0.5332 -0.0101
 3094SOL    HW120915   1.411   0.046  12.803 -0.7480  1.4335 -0.2191
 3094SOL    HW220916   1.355   4.671  12.746  1.2919  0.6380  1.3081
 3095SOL     OW20917   2.824   0.855   3.578 -0.2941  0.0718 -0.1948
 3095SOL    HW120918   2.887   0.884   3.645  0.7777  2.1834 -2.1150
 3095SOL    HW220919   2.742   0.853   3.627 -0.7743 -2.0678 -1.0819
 3096SOL     OW20920   1.603   4.473   7.253 -0.3818 -0.2839 -0.3060
 3096SOL    HW120921   1.664   4.400   7.261 -1.4958 -1.2038 -0.2889
 3096SOL    HW220922   1.547   4.442   7.182 -2.5525  1.9326  0.4196
 3097SOL     OW20923   2.966   3.574   6.174  0.2565  0.0087 -0.2112
 3097SOL    HW120924   2.901   3.514   6.136 -0.1502 -0.5277  1.3568
 3097SOL    HW220925   2.948   3.648   6.116  0.7787  0.7766  0.6194
 3098SOL     OW20926   3.383   0.205  14.843  0.3246  0.1900 -0.6671
 3098SOL    HW120927   3.340   0.121  14.858 -0.8710  0.8689 -0.2426
 3098SOL    HW220928   3.472   0.172  14.831  1.0111  2.7622 -2.7450
 3099SOL     OW20929   0.968   2.791   9.633 -0.3420  0.0405 -0.1822
 3099SOL    HW120930   0.994   2.774   9.723 -0.4492 -2.8075 -0.7035
 3099SOL    HW220931   1.042   2.843   9.603  0.9407 -2.5307 -1.4620
 3100SOL     OW20932   3.826   1.397   8.559  0.2785 -0.6934 -0.1001
 3100SOL    HW120933   3.763   1.329   8.534  1.1577 -0.6213 -2.5212
 3100SOL    HW220934   3.770   1.473   8.542  1.1464  0.3454  1.7809
 3101SOL     OW20935   0.471   1.208   6.586 -0.1665 -0.3371 -0.2717
 3101SOL    HW120936   0.540   1.151   6.551  0.7344  0.5531  0.0730
 3101SOL    HW220937   0.395   1.151   6.600 -1.7001  1.3658 -1.6307
 3102SOL     OW20938   1.663   3.077   9.051  0.4902 -0.3792  0.1395
 3102SOL    HW120939   1.661   3.146   8.985 -0.5982 -0.2331  0.3267
 3102SOL    HW220940   1.754   3.088   9.079 -0.6355  0.7412  3.3803
 3103SOL     OW20941   0.169   0.972   3.691 -0.2544  0.6753 -0.6805
 3103SOL    HW120942   0.170   0.951   3.598 -3.7205 -2.5815  0.0009
 3103SOL    HW220943   0.212   0.897   3.732 -1.6316  0.7708  0.9593
 3104SOL     OW20944   3.902   0.987   0.429 -0.1458 -0.1420 -0.4811
 3104SOL    HW120945   3.827   0.985   0.370  0.1412 -0.8441 -0.8133
 3104SOL    HW220946   3.910   0.897   0.461  1.3097 -0.8467 -2.8180
 3105SOL     OW20947   0.808   2.312   9.841 -0.6550 -0.2581 -0.2584
 3105SOL    HW120948   0.797   2.299   9.935  1.0254  0.8597  0.0961
 3105SOL    HW220949   0.793   2.221   9.815  0.1154 -0.6128  0.5451
 3106SOL     OW20950   0.076   4.350   3.371  0.0399 -0.1635 -0.9005
 3106SOL    HW120951   0.111   4.437   3.392  0.6529 -0.8325  0.9066
 3106SOL    HW220952   0.014   4.366   3.300  1.0713  1.0386 -1.5271
 3107SOL     OW20953   2.730   1.284   9.687 -0.3345  0.0403 -0.4136
 3107SOL    HW120954   2.687   1.254   9.607  0.1865 -0.9650 -0.3122
 3107SOL    HW220955   2.817   1.250   9.672 -0.9707 -1.3002 -1.0246
 3108SOL     OW20956   1.082   1.307   7.645  0.5201 -0.2273 -0.2364
 3108SOL    HW120957   1.076   1.220   7.607 -0.8083  0.6890 -2.1097
 3108SOL    HW220958   1.082   1.368   7.571  3.7924  0.1542  0.0989
 3109SOL     OW20959   2.021   0.917   9.406 -0.1996  0.0707  0.5303
 3109SOL    HW120960   1.999   0.844   9.463  1.3226  1.4076  2.8404
 3109SOL    HW220961   1.934   0.955   9.398  1.1056  2.8439 -0.7069
 3110SOL     OW20962   1.692   4.737   0.754  0.2579 -0.1290  0.0071
 3110SOL    HW120963   1.701   0.022   0.847 -1.0993  1.8537 -0.3345
 3110SOL    HW220964   1.712   0.088   0.723  0.5331  0.4884  1.9013
 3111SOL     OW20965   3.253   0.222   2.064  0.1179 -0.7759 -0.0793
 3111SOL    HW120966   3.309   0.147   2.087 -0.2406 -0.9726  0.1511
 3111SOL    HW220967   3.217   0.184   1.983  0.9355  0.3123 -0.9584
 3112SOL     OW20968   2.426   0.038  13.398 -0.2471 -0.2098 -0.0375
 3112SOL    HW120969   2.369   0.106  13.364  3.1993  0.9896 -3.3935
 3112SOL    HW220970   2.391   0.046  13.487 -1.2034 -1.1017 -0.3265
 3113SOL     OW20971   0.075   0.334   8.187 -0.1972  0.5354 -0.7512
 3113SOL    HW120972   0.043   0.418   8.154  3.1369  2.7137  1.4887
 3113SOL    HW220973   0.156   0.357   8.233  0.1739  1.2332 -1.7415
 3114SOL     OW20974   0.336   0.263   8.476  0.3346 -0.9860  0.1913
 3114SOL    HW120975   0.344   0.279   8.570  3.1522  0.1306 -0.2332
 3114SOL    HW220976   0.419   0.215   8.465 -1.3640 -3.9755  0.3597
 3115SOL     OW20977   1.797   3.967   8.326  0.2395 -0.7368 -0.3766
 3115SOL    HW120978   1.787   3.872   8.322 -2.1087 -0.6118  2.7113
 3115SOL    HW220979   1.892   3.965   8.336  0.3092  2.0543 -0.3006
 3116SOL     OW20980   4.296   1.099  10.372 -0.0554  0.6915  0.1884
 3116SOL    HW120981   4.371   1.087  10.313 -0.7473  1.0230 -0.7685
 3116SOL    HW220982   4.231   1.101  10.301  0.0939  3.4725  0.1203
 3117SOL     OW20983   0.137   1.843   4.093 -0.0445  0.3119  0.2088
 3117SOL    HW120984   0.079   1.791   4.149  1.2505  1.5110  2.6860
 3117SOL    HW220985   0.072   1.907   4.064 -0.0213 -0.5699 -1.7641
 3118SOL     OW20986   0.320   0.573  15.536 -0.2416 -0.0964  0.5384
 3118SOL    HW120987   0.405   0.601  15.568  0.1356 -0.2688 -0.3177
 3118SOL    HW220988   0.315   0.614  15.450 -3.1251 -3.3145 -0.8583
 3119SOL     OW20989   4.296   2.636  10.081  0.1201  0.1324  0.3104
 3119SOL    HW120990   4.338   2.590  10.154  0.1527 -0.4147 -0.0530
 3119SOL    HW220991   4.368   2.653  10.021  0.2626 -1.4886  0.0262
 3120SOL     OW20992   3.995   3.684   7.714 -0.4043 -0.9836  0.3969
 3120SOL    HW120993   3.940   3.760   7.697  1.9686  0.0541 -2.5604
 3120SOL    HW220994   3.952   3.657   7.795 -0.1529 -0.8849  0.5628
 3121SOL     OW20995   3.992   1.646   8.099  0.4694  0.3966  0.2211
 3121SOL    HW120996   3.948   1.576   8.148  0.6381 -0.4035 -0.7711
 3121SOL    HW220997   4.034   1.594   8.031 -2.0329 -3.0638  1.3162
 3122SOL     OW20998   2.432   2.328   2.406  0.3413 -0.6232 -0.2658
 3122SOL    HW120999   2.453   2.302   2.496  1.6394  0.4626 -0.2407
 3122SOL    HW221000   2.342   2.297   2.409 -0.1163  0.8486  1.6008
 3123SOL     OW21001   2.695   3.939   5.968  0.0859  0.1383 -0.0240
 3123SOL    HW121002   2.686   3.973   5.879  0.6379 -0.9697 -0.4991
 3123SOL    HW221003   2.742   4.016   6.001  0.6420 -0.0141 -0.4581
 3124SOL     OW21004   4.558   0.497  12.777 -0.6018  0.6479  0.2038
 3124SOL    HW121005   4.483   0.532  12.731 -1.5520 -0.8288  0.6408
 3124SOL    HW221006   4.553   0.559  12.851 -3.6448 -0.7865  1.1801
 3125SOL     OW21007   0.812   2.186   8.825 -0.1595  0.0681 -0.2207
 3125SOL    HW121008   0.750   2.249   8.787 -2.4666 -0.5653  2.5507
 3125SOL    HW221009   0.829   2.129   8.750 -1.9206  0.0337 -0.5852
 3126SOL     OW21010   2.755   3.460   1.184  0.0141  0.0097  0.2338
 3126SOL    HW121011   2.831   3.407   1.162 -0.7845  0.2251 -3.0627
 3126SOL    HW221012   2.683   3.418   1.136 -1.0772  1.9515  0.1532
 3127SOL     OW21013   1.567   3.854   3.456  0.2225  0.1500  0.6410
 3127SOL    HW121014   1.575   3.766   3.420  2.4343  0.5968  0.0593
 3127SOL    HW221015   1.475   3.869   3.435  0.7768  3.3787  0.5772
 3128SOL     OW21016   3.138   2.435   7.382 -0.5975 -0.1820 -0.1074
 3128SOL    HW121017   3.152   2.480   7.298 -2.2323 -1.3454 -0.9930
 3128SOL    HW221018   3.091   2.354   7.366  0.6972 -0.9589  0.0328
 3129SOL     OW21019   2.207   1.186  15.527 -0.3548  0.3953 -0.3830
 3129SOL    HW121020   2.155   1.150  15.456  2.1894  2.4059 -3.2805
 3129SOL    HW221021   2.262   1.251  15.482 -1.6268  1.3497 -0.5457
 3130SOL     OW21022   0.871   0.027  10.158  0.0508 -0.6368  0.8218
 3130SOL    HW121023   0.822   0.043  10.077 -0.2125  2.3539  1.5690
 3130SOL    HW221024   0.854   4.672  10.176 -0.3257 -1.1835 -2.3804
 3131SOL     OW21025   0.708   3.241   7.599  0.1737 -0.6541  0.5821
 3131SOL    HW121026   0.693   3.335   7.589  0.9468 -0.6297 -0.4020
 3131SOL    HW221027   0.798   3.250   7.631  0.2105 -0.7366  0.5049
 3132SOL     OW21028   1.496   1.428   9.015  0.0637 -0.0778 -0.3493
 3132SOL    HW121029   1.512   1.349   9.066 -0.1670 -1.0672 -1.8294
 3132SOL    HW221030   1.517   1.396   8.928 -1.1530 -2.4182  0.2183
 3133SOL     OW21031   0.675   1.773   9.329 -0.0887 -0.7741  0.0412
 3133SOL    HW121032   0.701   1.703   9.390  0.3239  0.5822  1.4135
 3133SOL    HW221033   0.730   1.841   9.367  0.4285 -1.1657 -0.0043
 3134SOL     OW21034   4.137   0.994   2.082  0.1213  0.5061  0.1125
 3134SOL    HW121035   4.100   0.969   1.997  0.2658 -0.8473  0.4502
 3134SOL    HW221036   4.070   0.958   2.140  0.8774 -1.5099 -0.2654
 3135SOL     OW21037   0.998   2.929   5.808  0.3298  0.4022 -0.6326
 3135SOL    HW121038   0.980   2.947   5.716 -0.4233 -1.3834 -0.8320
 3135SOL    HW221039   0.931   2.974   5.860  0.0915 -1.7595  0.9682
 3136SOL     OW21040   2.065   1.842  11.783  0.2861 -0.1060  0.3248
 3136SOL    HW121041   2.090   1.847  11.875 -1.3141  1.0316  0.7018
 3136SOL    HW221042   1.993   1.904  11.795 -0.2269 -0.5441 -0.5059
 3137SOL     OW21043   2.391   1.027   6.095  0.0676 -0.6019  0.3802
 3137SOL    HW121044   2.448   1.101   6.076 -1.5015  0.5184  0.0400
 3137SOL    HW221045   2.395   1.019   6.190  0.0647  1.9696  0.5704
 3138SOL     OW21046   3.679   1.859   8.390 -0.2175  0.2732  0.0781
 3138SOL    HW121047   3.736   1.926   8.427  0.9439 -0.8627  0.3171
 3138SOL    HW221048   3.668   1.881   8.297 -1.0335  0.2961  0.1779
 3139SOL     OW21049   2.342   2.787  14.750 -0.8004 -0.3722 -0.4736
 3139SOL    HW121050   2.429   2.828  14.750 -0.5413 -0.9346  1.6690
 3139SOL    HW221051   2.355   2.713  14.690  0.0225  1.1661 -2.1968
 3140SOL     OW21052   2.030   0.086   7.846  0.4865 -0.2715  0.6578
 3140SOL    HW121053   2.057   0.177   7.858  0.5662 -0.4071  1.5042
 3140SOL    HW221054   2.096   0.065   7.779 -0.3452 -1.1597  0.1235
 3141SOL     OW21055   1.437   2.662   6.807  0.1395  0.3603 -0.3968
 3141SOL    HW121056   1.467   2.712   6.731  1.8926 -0.6591 -0.3726
 3141SOL    HW221057   1.425   2.579   6.761 -1.5800  1.3996 -1.8420
 3142SOL     OW21058   4.135   0.836  11.920  0.0071  0.0424  0.0590
 3142SOL    HW121059   4.082   0.915  11.936 -1.4434 -0.6911 -1.0702
 3142SOL    HW221060   4.075   0.771  11.956  0.0919  1.4924  2.7689
 3143SOL     OW21061   3.547   1.073  15.317 -0.2934  0.2279  0.6896
 3143SOL    HW121062   3.536   1.012  15.390 -0.3588 -2.0897 -1.2696
 3143SOL    HW221063   3.456   1.073  15.286 -0.3115 -0.5587  0.7661
 3144SOL     OW21064   2.994   4.383   2.862  0.4096 -0.8640  0.0066
 3144SOL    HW121065   3.058   4.422   2.921 -0.1535  0.0681 -0.0031
 3144SOL    HW221066   3.043   4.322   2.807  0.1786  0.6221 -1.8291
 3145SOL     OW21067   4.153   2.253   5.235  0.5961  1.4274  0.0211
 3145SOL    HW121068   4.107   2.289   5.159 -1.6931 -0.8908  0.3185
 3145SOL    HW221069   4.197   2.183   5.188 -1.0601 -0.1544  0.8025
 3146SOL     OW21070   2.712   2.587  15.055  0.1505 -0.3454 -0.8007
 3146SOL    HW121071   2.721   2.681  15.071 -0.7643 -0.3224 -0.3821
 3146SOL    HW221072   2.633   2.598  15.003 -1.0484  1.2584  1.3542
 3147SOL     OW21073   1.839   2.671   8.044 -0.1376  0.4346 -0.2216
 3147SOL    HW121074   1.884   2.664   7.960 -1.5893 -0.6855 -0.9048
 3147SOL    HW221075   1.795   2.753   8.019 -1.0911  0.9786  3.2584
 3148SOL     OW21076   0.911   1.583   7.278 -0.3847  0.3715 -0.4635
 3148SOL    HW121077   0.859   1.646   7.228 -3.9096 -2.3512 -0.2098
 3148SOL    HW221078   0.984   1.639   7.305 -0.7781  0.1493  1.0708
 3149SOL     OW21079   4.382   0.948   0.944  0.2399  0.6773  0.3656
 3149SOL    HW121080   4.330   0.969   0.866 -0.2469 -3.2648 -0.3377
 3149SOL    HW221081   4.400   0.855   0.933  2.3803  1.3126 -1.6523
 3150SOL     OW21082   2.383   2.267   7.953  0.0460 -0.6238 -0.0800
 3150SOL    HW121083   2.448   2.218   7.902  0.3669  1.1029 -1.3236
 3150SOL    HW221084   2.299   2.223   7.941 -1.3121  1.9622 -0.1395
 3151SOL     OW21085   2.551   3.607   7.924 -0.2265  0.5430  0.0313
 3151SOL    HW121086   2.559   3.523   7.878  1.4645  2.1214 -2.5858
 3151SOL    HW221087   2.482   3.589   7.987  1.6911 -0.2502  1.8936
 3152SOL     OW21088   2.549   2.667   6.258 -0.8237  0.3334  0.2281
 3152SOL    HW121089   2.472   2.692   6.309 -0.9397  0.6353 -0.0977
 3152SOL    HW221090   2.584   2.754   6.241  0.3317 -0.7204 -2.7095
 3153SOL     OW21091   2.125   1.176   5.035 -0.3594 -0.1563 -0.4332
 3153SOL    HW121092   2.067   1.208   5.104 -0.9569 -1.1782 -0.4589
 3153SOL    HW221093   2.065   1.171   4.961  0.3208 -1.2376 -0.9047
 3154SOL     OW21094   0.270   3.634   1.320 -0.4048  0.0662  0.1971
 3154SOL    HW121095   0.321   3.676   1.251  2.0592 -1.5764  1.0385
 3154SOL    HW221096   0.221   3.710   1.352  0.5479  0.2672  1.1679
 3155SOL     OW21097   3.738   2.878   4.933 -0.1237 -0.1739 -0.2468
 3155SOL    HW121098   3.692   2.886   4.849 -0.7585 -0.1764  0.0997
 3155SOL    HW221099   3.667   2.863   4.995  1.6200 -0.1373  1.7457
 3156SOL     OW21100   0.227   3.567   3.499 -0.3893  0.1934  0.0347
 3156SOL    HW121101   0.156   3.559   3.564  0.3621 -2.2353  0.5841
 3156SOL    HW221102   0.218   3.481   3.457 -0.9292  0.5507 -0.5705
 3157SOL     OW21103   3.189   1.952  17.240  0.9653 -0.3573 -0.1506
 3157SOL    HW121104   3.152   1.916  17.160 -0.7701 -0.8173  0.8775
 3157SOL    HW221105   3.264   2.003  17.207  0.3368 -1.1867 -2.8410
 3158SOL     OW21106   1.158   4.223   6.939 -0.2723 -0.2368  0.1374
 3158SOL    HW121107   1.097   4.282   6.985 -0.3861  0.5153 -0.9709
 3158SOL    HW221108   1.101   4.190   6.869  1.1139 -1.0981 -0.5770
 3159SOL     OW21109   3.485   1.470   4.257 -0.1305  0.5372  0.3142
 3159SOL    HW121110   3.567   1.434   4.291  0.2592 -1.9573 -3.1943
 3159SOL    HW221111   3.524   1.535   4.197 -0.2548  0.5619  0.2608
 3160SOL     OW21112   1.522   4.237   5.222 -0.8729  0.5240 -0.7808
 3160SOL    HW121113   1.428   4.238   5.204 -1.3481  3.7647  1.8491
 3160SOL    HW221114   1.543   4.145   5.209 -0.6618  0.3428  0.8507
 3161SOL     OW21115   1.289   2.100   6.944 -0.0101  0.2887 -0.6853
 3161SOL    HW121116   1.316   2.012   6.919  0.3376 -0.5088  2.4065
 3161SOL    HW221117   1.287   2.092   7.040 -2.6217  0.9952 -0.6773
 3162SOL     OW21118   3.310   3.016  10.421 -0.4738  0.0710 -0.5981
 3162SOL    HW121119   3.404   2.999  10.414 -0.4269 -0.3802  1.1694
 3162SOL    HW221120   3.271   2.929  10.418 -0.9387  0.2056  1.4410
 3163SOL     OW21121   1.320   2.710   9.234  0.0230 -0.0914 -0.0475
 3163SOL    HW121122   1.381   2.661   9.178  1.3138 -1.3929  2.4778
 3163SOL    HW221123   1.361   2.795   9.219  0.4057 -0.4204 -0.8518
 3164SOL     OW21124   0.209   0.465   2.950 -0.1358  0.1317  0.2435
 3164SOL    HW121125   0.266   0.425   2.884  0.3847  0.3411  0.5636
 3164SOL    HW221126   0.264   0.459   3.028  0.7116 -3.0356 -0.6132
 3165SOL     OW21127   1.970   2.143   9.716 -0.2402 -0.2084 -0.8119
 3165SOL    HW121128   1.965   2.089   9.795 -2.2695  1.6452  0.3059
 3165SOL    HW221129   1.886   2.188   9.715  0.8775  1.8589 -0.0853
 3166SOL     OW21130   0.964   4.214  16.589  0.3642 -0.4609  0.1443
 3166SOL    HW121131   1.037   4.268  16.620  1.4609 -1.8578  0.0095
 3166SOL    HW221132   0.946   4.162  16.668  0.4544  1.5187  1.4618
 3167SOL     OW21133   4.735   4.279  14.330 -0.1656 -0.7499 -0.2268
 3167SOL    HW121134   4.704   4.220  14.399  2.7659 -1.3174  0.6200
 3167SOL    HW221135   4.732   4.221  14.253 -2.0684  1.7161 -2.0007
 3168SOL     OW21136   3.807   2.141   0.512  0.1554 -0.8296 -0.3312
 3168SOL    HW121137   3.887   2.135   0.564 -0.4345 -2.6086  0.3963
 3168SOL    HW221138   3.846   2.118   0.427 -3.3963 -3.5914 -1.2133
 3169SOL     OW21139   4.136   1.048  12.493 -0.2745  0.0337  0.2478
 3169SOL    HW121140   4.130   1.029  12.586  1.2589 -1.3031  0.0660
 3169SOL    HW221141   4.203   1.116  12.496  0.0396 -0.2922  0.5627
 3170SOL     OW21142   2.514   4.518   5.198  0.4788  0.0792 -0.0551
 3170SOL    HW121143   2.553   4.434   5.223  0.1709  0.6610  2.4332
 3170SOL    HW221144   2.453   4.496   5.129 -0.3566  1.0176  0.3856
 3171SOL     OW21145   0.454   4.343   3.250 -0.2651  0.0803 -0.1113
 3171SOL    HW121146   0.408   4.306   3.325 -0.0070 -0.8281 -0.4099
 3171SOL    HW221147   0.527   4.281   3.257 -0.7980 -0.8436 -2.8869
 3172SOL     OW21148   4.146   4.434   8.116  0.0409  0.6803 -0.3570
 3172SOL    HW121149   4.182   4.348   8.134  2.5283  1.4559 -1.7409
 3172SOL    HW221150   4.053   4.424   8.139  0.4273  0.4951  1.0917
 3173SOL     OW21151   2.216   0.892   6.571  0.1625 -0.8242  0.5713
 3173SOL    HW121152   2.215   0.947   6.493  0.0899 -1.9350 -0.2178
 3173SOL    HW221153   2.305   0.856   6.560 -0.4972 -2.1967 -0.2848
 3174SOL     OW21154   1.843   3.056  17.088  0.4959  0.3215  0.0575
 3174SOL    HW121155   1.901   2.997  17.041 -0.5899 -0.7715  0.0770
 3174SOL    HW221156   1.766   3.061  17.031 -0.3134  1.8379  1.2616
 3175SOL     OW21157   2.158   3.549   5.755 -0.1602 -0.1589 -0.5077
 3175SOL    HW121158   2.075   3.597   5.755  0.6738  1.2629  0.5064
 3175SOL    HW221159   2.140   3.461   5.790 -1.8101 -0.0797 -1.1710
 3176SOL     OW21160   4.456   4.432   2.576 -0.0394 -0.1464 -0.1259
 3176SOL    HW121161   4.518   4.368   2.609  0.7166 -0.6212 -2.5323
 3176SOL    HW221162   4.510   4.494   2.528 -0.0767  0.9715  1.2725
 3177SOL     OW21163   1.315   3.057   8.269 -0.1922 -0.5201 -0.0568
 3177SOL    HW121164   1.228   3.021   8.288 -0.9826  0.8011 -1.1554
 3177SOL    HW221165   1.290   3.146   8.294 -1.8166 -0.7113 -0.9479
 3178SOL     OW21166   2.305   1.169   3.662 -0.0224 -0.0261  0.1851
 3178SOL    HW121167   2.346   1.158   3.577  1.4650  0.2051  0.8852
 3178SOL    HW221168   2.330   1.261   3.672  0.0459  0.1540 -1.6460
 3179SOL     OW21169   4.063   1.638   4.675 -0.1936  0.4961 -0.2987
 3179SOL    HW121170   4.063   1.719   4.623  1.5022  0.8325  0.2066
 3179SOL    HW221171   3.992   1.642   4.738  0.6499  2.0373  0.5623
 3180SOL     OW21172   3.911   2.101   8.110 -0.3063  0.3501 -0.1953
 3180SOL    HW121173   3.930   2.193   8.093 -0.2808  0.5422  0.8744
 3180SOL    HW221174   3.900   2.113   8.204 -0.3155  0.0589 -0.1576
 3181SOL     OW21175   1.098   0.249   2.755  1.1541 -0.2167  0.0535
 3181SOL    HW121176   1.162   0.318   2.737  1.4374  0.1740  2.5417
 3181SOL    HW221177   1.151   0.187   2.805  0.3322 -0.0508  1.1561
 3182SOL     OW21178   3.179   4.248   8.839  0.2033  0.3975  0.9406
 3182SOL    HW121179   3.223   4.167   8.865 -1.9194 -1.7053 -1.9697
 3182SOL    HW221180   3.095   4.233   8.883 -0.2388  2.2503  0.7218
 3183SOL     OW21181   1.173   1.569   3.512  0.0845 -0.5740 -0.8326
 3183SOL    HW121182   1.254   1.592   3.558 -1.1128 -1.9858  2.0190
 3183SOL    HW221183   1.172   1.474   3.522  0.2649 -0.8059 -3.0976
 3184SOL     OW21184   3.868   2.173   8.808 -0.1687  0.5275 -0.2525
 3184SOL    HW121185   3.826   2.163   8.893  0.0290  1.2614 -0.0713
 3184SOL    HW221186   3.957   2.191   8.837 -0.2768  0.4208  0.1478
 3185SOL     OW21187   3.714   0.578  16.044 -0.1781  0.1795 -0.2483
 3185SOL    HW121188   3.738   0.614  16.130  0.8150 -1.9589  0.3896
 3185SOL    HW221189   3.804   0.563  16.014  0.4417  1.2552  1.0725
 3186SOL     OW21190   1.665   1.289   4.458 -0.0707  0.5863 -0.0697
 3186SOL    HW121191   1.733   1.232   4.423 -0.1344  0.3068  0.2543
 3186SOL    HW221192   1.725   1.350   4.500 -0.1825  0.2230  0.6219
 3187SOL     OW21193   4.616   4.406   0.932  0.3023  0.4430 -0.1667
 3187SOL    HW121194   4.637   4.478   0.873  1.3047  0.8226  0.6725
 3187SOL    HW221195   4.521   4.404   0.918  0.0962 -0.4895  1.3204
 3188SOL     OW21196   2.149   3.404   6.689  0.5146 -0.0584 -0.0705
 3188SOL    HW121197   2.156   3.473   6.623  0.7706  0.1051  0.1252
 3188SOL    HW221198   2.206   3.442   6.756 -1.2395  0.4680  1.1187
 3189SOL     OW21199   3.364   3.099  15.039 -0.3027  0.3989  0.2267
 3189SOL    HW121200   3.338   3.075  14.949 -0.4477  0.4012  0.2670
 3189SOL    HW221201   3.325   3.186  15.046  0.3601  0.5614  1.7026
 3190SOL     OW21202   2.177   4.729   3.195  0.6312  0.4175  0.4515
 3190SOL    HW121203   2.138   0.062   3.142  0.1493  0.1795  0.4880
 3190SOL    HW221204   2.164   4.652   3.139  0.9685 -0.6597  1.8477
 3191SOL     OW21205   2.897   0.731  14.516  0.8443  0.3273  0.3548
 3191SOL    HW121206   2.927   0.756  14.429 -1.2318  0.4678 -0.3422
 3191SOL    HW221207   2.869   0.817  14.549  2.4643  1.3640 -0.9781
 3192SOL     OW21208   3.327   3.133   3.397 -0.1206 -0.0413 -0.0706
 3192SOL    HW121209   3.240   3.100   3.418 -1.4853  4.0290  0.6990
 3192SOL    HW221210   3.318   3.182   3.315  2.0143  0.9577  0.2821
 3193SOL     OW21211   4.714   1.681   2.925  0.8728  0.0183  0.2643
 3193SOL    HW121212   4.639   1.635   2.886  0.1561 -0.5820  2.3234
 3193SOL    HW221213   0.051   1.644   2.878 -0.6182 -1.7258 -0.7258
 3194SOL     OW21214   0.894   3.571   3.502  0.5974 -0.2767 -0.0044
 3194SOL    HW121215   0.867   3.536   3.586 -0.2165  0.0058 -0.1457
 3194SOL    HW221216   0.854   3.658   3.507  0.0245 -0.5357 -0.0386
 3195SOL     OW21217   4.279   3.523   5.639 -0.6265  0.1875 -0.0076
 3195SOL    HW121218   4.233   3.552   5.718 -0.6763 -0.8518  0.3576
 3195SOL    HW221219   4.367   3.517   5.677 -0.2195 -0.9306 -1.1307
 3196SOL     OW21220   0.708   0.961   2.201 -0.0938  0.8769  0.4633
 3196SOL    HW121221   0.715   0.866   2.191  2.7094  1.1785 -0.5104
 3196SOL    HW221222   0.613   0.960   2.193 -0.0568  2.9517 -0.5761
 3197SOL     OW21223   0.736   2.177  14.132 -0.2302  0.1446 -0.1140
 3197SOL    HW121224   0.724   2.160  14.039 -0.2646 -2.2119  0.3170
 3197SOL    HW221225   0.705   2.091  14.161  1.0418  0.3110  1.7340
 3198SOL     OW21226   1.541   1.675   2.583 -0.7624  0.3294  0.4065
 3198SOL    HW121227   1.604   1.605   2.597  0.2994  1.5467  1.7609
 3198SOL    HW221228   1.481   1.647   2.514 -1.4034 -0.5651  1.3459
 3199SOL     OW21229   1.445   0.625   6.694  0.3767  0.1643  0.0823
 3199SOL    HW121230   1.511   0.568   6.656 -0.6456 -1.1924  0.3142
 3199SOL    HW221231   1.415   0.670   6.615 -0.2795  0.9458  0.7755
 3200SOL     OW21232   1.175   1.098   1.430 -0.0837 -0.3129  0.3429
 3200SOL    HW121233   1.175   1.145   1.347  2.0275  2.2004  1.7597
 3200SOL    HW221234   1.091   1.054   1.428 -0.9513  1.4233 -1.2651
 3201SOL     OW21235   3.412   0.290   4.836  0.2685  0.4501  0.3173
 3201SOL    HW121236   3.399   0.272   4.929 -2.0275 -0.6586 -0.2287
 3201SOL    HW221237   3.507   0.287   4.831  0.1488  0.3796 -1.7875
 3202SOL     OW21238   3.227   3.032   8.452  0.1293 -0.1764  0.2144
 3202SOL    HW121239   3.215   2.941   8.427  0.5919 -0.0440 -0.4845
 3202SOL    HW221240   3.188   3.019   8.538  1.7154 -2.2734  0.6030
 3203SOL     OW21241   2.069   1.751   8.982 -0.3554 -0.5688  0.6762
 3203SOL    HW121242   2.062   1.819   8.914  2.2035 -2.9751 -2.0174
 3203SOL    HW221243   2.161   1.754   9.009 -0.9237 -0.0936  2.5371
 3204SOL     OW21244   0.861   3.207   4.558  0.6152 -0.5793 -0.0818
 3204SOL    HW121245   0.782   3.177   4.604  1.2828 -0.1245  1.3532
 3204SOL    HW221246   0.838   3.180   4.469 -2.2165 -0.2499  0.5310
 3205SOL     OW21247   0.774   2.292  10.114  0.0969  0.3996  0.3965
 3205SOL    HW121248   0.718   2.315  10.187  2.3698 -2.2089  2.9700
 3205SOL    HW221249   0.857   2.299  10.162  0.3735  0.0283 -0.0217
 3206SOL     OW21250   2.637   1.417   6.858  0.1454 -0.0827  0.0501
 3206SOL    HW121251   2.550   1.379   6.849 -0.4539  0.4527  3.5371
 3206SOL    HW221252   2.684   1.346   6.816 -1.8571 -1.3757  0.0089
 3207SOL     OW21253   3.837   1.787   4.006 -0.3216 -0.3100  0.2419
 3207SOL    HW121254   3.838   1.879   3.979  0.5474 -0.8686 -1.5916
 3207SOL    HW221255   3.929   1.767   4.021  0.1707  0.6526 -1.4478
 3208SOL     OW21256   1.263   0.262   9.364 -0.0354  0.4274 -0.4832
 3208SOL    HW121257   1.263   0.272   9.269 -0.4446  0.2161 -0.5042
 3208SOL    HW221258   1.173   0.286   9.382  0.0887  0.5822 -0.0584
 3209SOL     OW21259   4.319   2.354   6.963 -0.1140  0.6609  0.3358
 3209SOL    HW121260   4.324   2.260   6.945 -0.2481  0.3831  1.7587
 3209SOL    HW221261   4.290   2.385   6.877  2.8993  3.2341  0.2963
 3210SOL     OW21262   3.103   0.755  17.457 -0.2997 -0.0081 -0.4626
 3210SOL    HW121263   3.142   0.673  17.487 -0.0665  0.6644  1.0468
 3210SOL    HW221264   3.034   0.755  17.524 -1.2441  1.6830 -1.4138
 3211SOL     OW21265   2.614   2.215   4.829  0.3868  0.1042 -0.1002
 3211SOL    HW121266   2.637   2.278   4.897 -0.0866  1.9570 -1.6525
 3211SOL    HW221267   2.674   2.238   4.757 -0.7227  1.2514 -0.6526
 3212SOL     OW21268   0.709   0.417  14.374 -0.1100  0.2013 -0.0088
 3212SOL    HW121269   0.756   0.355  14.318 -0.5877 -0.3884  0.2377
 3212SOL    HW221270   0.777   0.441  14.437 -0.1535  1.8187 -0.5927
 3213SOL     OW21271   1.645   2.699   2.605 -0.7515  0.3116  0.8386
 3213SOL    HW121272   1.567   2.654   2.571  0.1039  0.5823 -1.4384
 3213SOL    HW221273   1.712   2.635   2.583 -0.2583  0.6257  1.4299
 3214SOL     OW21274   2.353   3.197  11.066  0.2389 -0.1654  0.1458
 3214SOL    HW121275   2.445   3.221  11.076 -0.0384  1.1936 -0.6641
 3214SOL    HW221276   2.338   3.213  10.973 -0.2212 -0.1830  0.2155
 3215SOL     OW21277   2.654   2.432   6.418  0.7067  1.0404 -0.9626
 3215SOL    HW121278   2.723   2.479   6.465  0.2155  2.2264 -1.4543
 3215SOL    HW221279   2.640   2.488   6.342  0.0672  1.7174 -0.3410
 3216SOL     OW21280   1.149   1.845  17.605 -0.1454  0.4974  0.2003
 3216SOL    HW121281   1.179   1.788  17.676 -2.3302  0.8435  1.3989
 3216SOL    HW221282   1.116   1.776  17.549  1.5411  0.9364 -1.3530
 3217SOL     OW21283   1.931   4.121   7.079  0.1718 -0.1028  0.0172
 3217SOL    HW121284   1.876   4.049   7.050  0.8533 -0.1604 -1.1606
 3217SOL    HW221285   2.018   4.096   7.045  0.8654  0.3956  1.4252
 3218SOL     OW21286   2.492   3.999   5.492  0.6113 -0.0384  0.2519
 3218SOL    HW121287   2.502   4.069   5.427  0.6417  1.0240  1.4038
 3218SOL    HW221288   2.582   3.983   5.522  1.9003  1.8323 -2.5790
 3219SOL     OW21289   1.462   1.389   2.437  0.0900 -0.1292  0.0937
 3219SOL    HW121290   1.420   1.328   2.499  0.1902 -0.2518  0.0417
 3219SOL    HW221291   1.552   1.372   2.466 -0.1452 -1.6515 -0.0634
 3220SOL     OW21292   2.597   1.925   5.573 -0.7376 -0.2125 -0.2291
 3220SOL    HW121293   2.646   1.941   5.653 -0.2245  3.1160 -1.2176
 3220SOL    HW221294   2.514   1.898   5.611 -0.6843  0.0960  0.1015
 3221SOL     OW21295   4.301   2.175   2.499 -0.0135  0.0447 -0.0687
 3221SOL    HW121296   4.334   2.219   2.577 -2.9035  0.1418  1.1038
 3221SOL    HW221297   4.219   2.133   2.527  0.9866 -1.3984  0.6851
 3222SOL     OW21298   1.206   0.120  16.600  0.4513 -0.0335 -0.2618
 3222SOL    HW121299   1.218   0.066  16.521  2.3891 -0.3141  0.2079
 3222SOL    HW221300   1.129   0.170  16.575 -1.0688 -1.4228  1.6207
 3223SOL     OW21301   4.510   1.079   4.504 -0.0873  0.0282 -0.3191
 3223SOL    HW121302   4.553   1.150   4.552  1.2528  0.1742 -1.7193
 3223SOL    HW221303   4.485   1.139   4.433  2.4930  1.1494 -0.2852
 3224SOL     OW21304   1.739   3.872   1.952 -0.0850  0.2087 -0.3728
 3224SOL    HW121305   1.763   3.906   2.038 -0.4197  2.2280 -1.0965
 3224SOL    HW221306   1.814   3.894   1.896  2.1432 -2.1244  1.6397
 3225SOL     OW21307   1.694   2.661   7.541  0.0393 -0.0617  0.5260
 3225SOL    HW121308   1.747   2.591   7.502 -1.1598 -0.6260 -0.1160
 3225SOL    HW221309   1.764   2.723   7.560 -0.0534  0.9048 -2.2616
 3226SOL     OW21310   0.289   2.708   4.213 -0.8614  0.1563 -0.2909
 3226SOL    HW121311   0.292   2.804   4.211  1.8384  0.1505  2.3820
 3226SOL    HW221312   0.194   2.705   4.209 -0.7844 -2.5260  0.0184
 3227SOL     OW21313   3.872   2.316  13.529  0.4422  0.7717 -0.3327
 3227SOL    HW121314   3.813   2.303  13.454  0.0616 -0.1966  0.1346
 3227SOL    HW221315   3.857   2.410  13.541 -0.2360  0.7743 -1.1904
 3228SOL     OW21316   2.479   4.043   4.498  0.0157 -0.1988  0.0082
 3228SOL    HW121317   2.388   4.059   4.473 -0.2993 -1.8317  0.1061
 3228SOL    HW221318   2.495   4.137   4.485 -0.1907 -0.0821  0.5845
 3229SOL     OW21319   4.448   1.969   2.374 -0.4892  0.1660 -0.1665
 3229SOL    HW121320   4.375   1.934   2.322  0.5794  2.1353 -3.0170
 3229SOL    HW221321   4.420   2.046   2.422  2.1212  0.6632  0.5300
 3230SOL     OW21322   0.581   2.930   4.933  0.3872 -0.3974 -0.5564
 3230SOL    HW121323   0.588   2.835   4.944  0.1023 -0.3814 -0.2271
 3230SOL    HW221324   0.487   2.934   4.913 -0.2505  0.1864  2.4935
 3231SOL     OW21325   0.927   2.795   3.905 -0.1220  0.3369  0.1129
 3231SOL    HW121326   1.020   2.818   3.913 -0.0767  0.2818 -0.2808
 3231SOL    HW221327   0.890   2.861   3.846 -0.0112  1.3578  1.1819
 3232SOL     OW21328   4.620   2.020   2.143  0.0769  0.2703 -0.5135
 3232SOL    HW121329   4.554   1.996   2.079  0.3134  1.2368 -1.1190
 3232SOL    HW221330   4.576   1.992   2.223  1.5172  0.2567  0.2805
 3233SOL     OW21331   1.328   1.736   4.984  0.6586  0.4299 -0.0206
 3233SOL    HW121332   1.341   1.743   5.079  1.2038 -0.4930 -0.0348
 3233SOL    HW221333   1.314   1.827   4.958  2.5825  0.7865  0.1576
 3234SOL     OW21334   4.245   2.734  12.087 -0.4524  0.6125 -0.4701
 3234SOL    HW121335   4.316   2.733  12.022 -0.4763 -0.1043 -0.4822
 3234SOL    HW221336   4.264   2.817  12.130 -1.4026  0.6152 -0.0759
 3235SOL     OW21337   3.176   0.943   4.033  0.3141  0.1060  0.1070
 3235SOL    HW121338   3.172   1.038   4.027  3.4589  0.1589 -0.9513
 3235SOL    HW221339   3.251   0.925   4.089 -0.0754 -2.4139 -0.1734
 3236SOL     OW21340   1.764   3.252  16.549 -0.9595  0.3290 -0.2762
 3236SOL    HW121341   1.832   3.319  16.559 -1.4442  0.9386 -1.1107
 3236SOL    HW221342   1.686   3.303  16.571 -1.6725 -0.8548 -0.0680
 3237SOL     OW21343   1.890   3.355   6.492  0.3368 -0.2282 -0.0518
 3237SOL    HW121344   1.975   3.316   6.475  0.2395  0.2665 -1.6807
 3237SOL    HW221345   1.872   3.301   6.569 -1.0846 -0.9057 -0.8401
 3238SOL     OW21346   0.094   3.096  10.702  0.7724  0.1421 -0.2267
 3238SOL    HW121347   0.055   3.182  10.684 -1.6615 -0.7198  0.8652
 3238SOL    HW221348   0.017   3.054  10.742 -0.1930  0.9000 -1.2735
 3239SOL     OW21349   1.220   0.565  17.540  0.0177 -0.0299  0.1763
 3239SOL    HW121350   1.277   0.633  17.573 -1.1170  0.9634  0.0925
 3239SOL    HW221351   1.212   0.506  17.616  0.8292  0.8581  0.9468
 3240SOL     OW21352   0.918   2.847   1.763 -0.2376 -0.3952 -0.0006
 3240SOL    HW121353   0.945   2.937   1.745 -0.8746  0.1733  1.8342
 3240SOL    HW221354   0.862   2.860   1.839 -1.1156 -1.3954 -0.4888
 3241SOL     OW21355   0.028   1.223  14.093 -0.0556  0.7789  0.3794
 3241SOL    HW121356   0.011   1.254  14.003 -2.0928  0.0926  0.5214
 3241SOL    HW221357   0.082   1.148  14.068 -1.1440 -0.5991  2.1947
 3242SOL     OW21358   1.269   2.633  12.053  0.0602 -0.2745  0.2010
 3242SOL    HW121359   1.271   2.538  12.067  2.1381 -0.3058 -0.2867
 3242SOL    HW221360   1.348   2.654  12.004  0.9729  1.9916  2.6590
 3243SOL     OW21361   2.615   1.429   5.851  0.2748 -0.1415 -0.2353
 3243SOL    HW121362   2.592   1.352   5.903 -1.6175 -0.0625 -0.9609
 3243SOL    HW221363   2.570   1.416   5.768 -2.3150 -1.0127  1.2993
 3244SOL     OW21364   0.402   2.969   7.204  0.1310  0.3647 -0.4182
 3244SOL    HW121365   0.430   2.895   7.151 -0.6145  0.4840 -0.9815
 3244SOL    HW221366   0.366   3.026   7.136 -0.3573  1.5943  0.8614
 3245SOL     OW21367   3.270   2.853   7.569 -0.5374 -0.1802 -0.3472
 3245SOL    HW121368   3.336   2.829   7.505 -0.2841 -0.2245 -0.0701
 3245SOL    HW221369   3.324   2.910   7.623  0.1712 -0.0541 -1.2105
 3246SOL     OW21370   0.563   4.578   1.683 -0.4862  0.2161 -0.5481
 3246SOL    HW121371   0.623   4.644   1.717  0.5189 -1.0169  0.0322
 3246SOL    HW221372   0.616   4.519   1.629 -0.6065  0.8995 -1.4240
 3247SOL     OW21373   0.641   3.828   5.659  0.4434  0.1340 -0.7325
 3247SOL    HW121374   0.630   3.777   5.740  0.2303  0.3895 -0.5983
 3247SOL    HW221375   0.652   3.917   5.693  1.1793 -0.6622  1.1446
 3248SOL     OW21376   3.577   0.860  14.014  0.1919  0.4943 -0.2348
 3248SOL    HW121377   3.528   0.920  13.959  0.6410  1.4359  0.3882
 3248SOL    HW221378   3.604   0.927  14.078  1.1343 -0.0682 -0.0397
 3249SOL     OW21379   1.254   2.348  12.041 -0.4006  0.2320 -0.0349
 3249SOL    HW121380   1.272   2.254  12.046  0.6252  0.4513  0.3614
 3249SOL    HW221381   1.228   2.355  11.949 -3.7330  0.0117  0.9047
 3250SOL     OW21382   3.937   1.675   5.841  0.2687 -0.0441 -0.5853
 3250SOL    HW121383   3.993   1.751   5.856  0.5068 -0.1527 -0.9364
 3250SOL    HW221384   4.003   1.606   5.845 -1.7482 -1.9196  0.5990
 3251SOL     OW21385   3.020   2.581  11.987 -0.3046  0.0570  0.0039
 3251SOL    HW121386   3.041   2.508  12.046 -0.4172  0.2473  0.2783
 3251SOL    HW221387   3.097   2.634  12.007  0.7642 -1.8117  0.8292
 3252SOL     OW21388   0.271   2.752   2.133 -0.2858  0.2594 -0.3574
 3252SOL    HW121389   0.340   2.815   2.113  0.5750 -0.4878  0.2220
 3252SOL    HW221390   0.248   2.779   2.222  1.1122  1.8903 -0.4898
 3253SOL     OW21391   2.138   0.198   2.170  0.2933  0.4418  0.3983
 3253SOL    HW121392   2.053   0.217   2.211 -1.3958  0.6127 -3.1320
 3253SOL    HW221393   2.177   0.281   2.142 -2.7716  1.4444 -0.9120
 3254SOL     OW21394   1.794   2.279  17.249  0.0259  0.3564  0.3358
 3254SOL    HW121395   1.866   2.270  17.187 -0.2050  1.6853 -0.1144
 3254SOL    HW221396   1.828   2.223  17.320 -0.9663 -1.0985 -0.3248
 3255SOL     OW21397   2.719   4.150   4.218  0.1858 -0.6397  0.0139
 3255SOL    HW121398   2.801   4.101   4.207 -0.7540 -1.7172 -2.0502
 3255SOL    HW221399   2.753   4.236   4.244  0.4077 -0.9233  0.6849
 3256SOL     OW21400   4.690   3.362   4.246 -0.5222 -0.1059  0.2977
 3256SOL    HW121401   4.674   3.302   4.174 -1.7362  2.9476 -1.9904
 3256SOL    HW221402   4.654   3.309   4.317 -1.1916 -0.0390  0.0026
 3257SOL     OW21403   4.434   1.966   6.706  0.3645 -0.0757  0.2487
 3257SOL    HW121404   4.379   1.930   6.637  0.7746  0.0238 -0.1255
 3257SOL    HW221405   4.378   2.024   6.757  0.6615 -0.9368  1.5656
 3258SOL     OW21406   1.402   1.489  14.927 -0.0076 -0.0961 -0.1783
 3258SOL    HW121407   1.436   1.499  15.016  0.1233  2.8686 -0.5666
 3258SOL    HW221408   1.428   1.572  14.886  3.1569 -0.8911  0.2360
 3259SOL     OW21409   0.455   3.865   1.157 -0.1505 -0.2227 -0.1903
 3259SOL    HW121410   0.373   3.910   1.134 -0.0787  0.9749  1.8731
 3259SOL    HW221411   0.508   3.931   1.202  0.1849 -1.2910  0.9732
 3260SOL     OW21412   2.406   3.215  15.740  0.4588  0.0112 -0.5929
 3260SOL    HW121413   2.447   3.172  15.814 -0.9290  0.4322  0.4083
 3260SOL    HW221414   2.490   3.227  15.695  0.9452 -2.3817 -0.3126
 3261SOL     OW21415   4.139   1.207   5.881 -0.4445 -0.0940 -0.1101
 3261SOL    HW121416   4.136   1.300   5.858 -1.0775  0.0676  0.5970
 3261SOL    HW221417   4.156   1.166   5.797 -0.9747  0.8457 -0.6786
 3262SOL     OW21418   3.039   1.185  10.360 -0.1401  0.3041  0.2812
 3262SOL    HW121419   3.029   1.116  10.295 -0.8547 -0.3538  1.0899
 3262SOL    HW221420   3.119   1.158  10.406 -0.0542  0.4718  0.2325
 3263SOL     OW21421   4.281   0.582   3.135  0.0761 -0.2371  0.1252
 3263SOL    HW121422   4.304   0.494   3.162  2.5170  0.6067  0.7969
 3263SOL    HW221423   4.198   0.556   3.096 -1.1176  0.7438  2.0142
 3264SOL     OW21424   0.488   4.708   3.966 -0.6011  0.0717  0.1581
 3264SOL    HW121425   0.432   0.047   3.983  0.8721  1.1683  0.0620
 3264SOL    HW221426   0.442   4.675   3.889 -0.8512  0.2437  0.2330
 3265SOL     OW21427   3.015   2.764   6.103 -0.7052  0.2314 -0.6635
 3265SOL    HW121428   2.927   2.798   6.121 -1.7780 -1.7490 -2.1806
 3265SOL    HW221429   3.002   2.670   6.089 -0.3695  0.0400  0.3120
 3266SOL     OW21430   0.400   4.306   4.206 -0.3552 -0.3866 -0.3183
 3266SOL    HW121431   0.447   4.224   4.215  0.1048 -0.2138 -1.1456
 3266SOL    HW221432   0.312   4.267   4.205  0.8090 -2.9840 -0.6624
 3267SOL     OW21433   3.096   4.192  15.856 -0.1084 -0.1862  0.0359
 3267SOL    HW121434   3.122   4.119  15.912 -1.5213 -0.7171  0.0184
 3267SOL    HW221435   3.164   4.181  15.790 -0.5327 -1.2666 -0.2250
 3268SOL     OW21436   2.127   2.414   2.658  0.5069 -0.3531  0.4753
 3268SOL    HW121437   2.147   2.372   2.574 -2.3139 -1.4885  0.3860
 3268SOL    HW221438   2.074   2.347   2.700 -0.1585 -1.2905 -1.8732
 3269SOL     OW21439   1.240   2.269   8.868 -0.1349 -0.3151  0.1662
 3269SOL    HW121440   1.180   2.333   8.829  2.2327  2.0945  0.4935
 3269SOL    HW221441   1.211   2.278   8.959  0.9369 -3.2614  0.8202
 3270SOL     OW21442   0.095   0.886   6.868  0.6733 -0.4512  0.4781
 3270SOL    HW121443   0.112   0.833   6.945 -0.2489  0.6382  1.4188
 3270SOL    HW221444   0.089   0.975   6.903  1.7282 -0.6640  1.2076
 3271SOL     OW21445   2.750   2.160   9.142  0.0336 -0.3158  0.4208
 3271SOL    HW121446   2.698   2.227   9.097 -1.3334 -0.5535  1.6344
 3271SOL    HW221447   2.796   2.218   9.203  0.4644 -2.0592  1.7492
 3272SOL     OW21448   0.245   4.032  17.371 -0.2978 -0.1799 -0.1901
 3272SOL    HW121449   0.200   3.967  17.425  0.3411  1.1626  1.9764
 3272SOL    HW221450   0.193   4.109  17.394  2.0487  0.9314  1.3814
 3273SOL     OW21451   1.579   0.522   8.564  0.1540 -0.4048 -0.0361
 3273SOL    HW121452   1.499   0.510   8.615 -0.3895 -0.9231 -1.0063
 3273SOL    HW221453   1.604   0.432   8.543 -1.3108 -0.1135 -3.0596
 3274SOL     OW21454   4.034   1.280   6.119  0.4208 -0.1625 -0.7855
 3274SOL    HW121455   3.949   1.236   6.115  0.8520 -0.8271 -3.1293
 3274SOL    HW221456   4.073   1.270   6.032  0.4164  2.2158 -1.0583
 3275SOL     OW21457   2.493   3.267   2.668 -0.0162  0.2535  0.1643
 3275SOL    HW121458   2.422   3.289   2.608  1.0190 -0.1231 -1.1869
 3275SOL    HW221459   2.545   3.201   2.622  1.0074  0.6840  0.7080
 3276SOL     OW21460   2.805   0.766   1.713 -0.1204  0.3062  0.8406
 3276SOL    HW121461   2.771   0.677   1.701  1.7711 -0.2838 -0.2030
 3276SOL    HW221462   2.730   0.824   1.704  1.4755  2.2312 -0.1867
 3277SOL     OW21463   3.711   1.097   6.577 -0.0872 -0.3944  0.3672
 3277SOL    HW121464   3.771   1.100   6.651 -0.4066  1.9442  0.5171
 3277SOL    HW221465   3.772   1.131   6.511  0.4632 -0.1306  1.0094
 3278SOL     OW21466   3.368   1.035   3.254  0.2321 -0.0288 -0.1038
 3278SOL    HW121467   3.381   1.129   3.240  0.8300  0.0433  0.9887
 3278SOL    HW221468   3.408   0.985   3.183 -1.9666 -0.6566 -0.8986
 3279SOL     OW21469   4.692   0.969   6.359  0.1997  0.3358 -0.1235
 3279SOL    HW121470   4.613   1.024   6.359 -2.4240 -3.3889  2.0675
 3279SOL    HW221471   4.696   0.952   6.453 -1.7229 -1.8893 -0.4288
 3280SOL     OW21472   1.747   3.370   9.665 -0.2229  0.3393  0.5388
 3280SOL    HW121473   1.742   3.432   9.738 -0.7194 -2.2237  2.6716
 3280SOL    HW221474   1.681   3.405   9.605  0.2099  1.4726  0.7144
 3281SOL     OW21475   2.369   0.944  15.537  0.0431 -0.2064  0.4641
 3281SOL    HW121476   2.323   1.028  15.540 -0.8602 -0.6329 -1.4844
 3281SOL    HW221477   2.446   0.967  15.485  1.5773 -1.2428  2.2369
 3282SOL     OW21478   1.080   0.215  10.170 -0.0115  0.2737  0.3913
 3282SOL    HW121479   1.028   0.295  10.179  0.5647  0.7910 -0.9075
 3282SOL    HW221480   1.013   0.151  10.147  0.2498 -1.6834  5.2259
 3283SOL     OW21481   1.680   2.014   8.449  0.0717 -0.3735 -0.1294
 3283SOL    HW121482   1.615   1.958   8.491 -0.7162  2.1291  2.0147
 3283SOL    HW221483   1.690   2.092   8.505 -0.1665 -0.8540  0.5833
 3284SOL     OW21484   0.877   4.052   7.632 -0.4435 -0.5257 -0.2077
 3284SOL    HW121485   0.966   4.059   7.597  0.7430 -3.8564  2.1220
 3284SOL    HW221486   0.877   4.113   7.706 -1.9105  2.2055 -2.5108
 3285SOL     OW21487   2.544   0.576   3.973  0.6129  0.1440  0.4893
 3285SOL    HW121488   2.500   0.657   3.945 -1.9310 -0.9206  1.4348
 3285SOL    HW221489   2.570   0.602   4.062  1.6578 -0.7058  0.4274
 3286SOL     OW21490   2.371   1.586   4.440 -0.2465  0.0409 -0.0822
 3286SOL    HW121491   2.459   1.548   4.440  0.3496  1.4298 -0.4657
 3286SOL    HW221492   2.363   1.612   4.349 -1.5012 -1.0696 -0.2892
 3287SOL     OW21493   2.001   0.365   5.058 -0.0213  0.1425  0.1307
 3287SOL    HW121494   2.078   0.421   5.054 -0.1455  0.1704 -1.6305
 3287SOL    HW221495   2.041   0.286   5.096 -0.5149  0.1346  0.6354
 3288SOL     OW21496   1.793   4.165   6.457  0.0807  0.1939  0.4364
 3288SOL    HW121497   1.862   4.221   6.419 -0.3427  1.0729  0.9750
 3288SOL    HW221498   1.761   4.218   6.530 -0.4059  1.9222 -1.0297
 3289SOL     OW21499   0.412   4.234   9.595  0.0525 -0.0928  0.7351
 3289SOL    HW121500   0.355   4.257   9.669 -0.9186 -1.1546  0.3178
 3289SOL    HW221501   0.446   4.318   9.565  2.3797 -1.7887 -1.3710
 3290SOL     OW21502   1.861   1.121   1.019 -0.3656  0.1373  0.6935
 3290SOL    HW121503   1.768   1.106   1.034 -0.4716  0.4660  0.3776
 3290SOL    HW221504   1.898   1.038   1.048 -2.3290 -0.2352  2.1452
 3291SOL     OW21505   0.743   1.391   2.016  0.2411 -0.4839  0.1063
 3291SOL    HW121506   0.688   1.467   2.033  1.5833  0.6309 -0.5704
 3291SOL    HW221507   0.687   1.351   1.949 -0.7081  2.0766 -0.6118
 3292SOL     OW21508   3.917   4.087   2.046 -0.3826  0.2798 -0.1004
 3292SOL    HW121509   3.994   4.030   2.053 -0.4603  0.2604  0.5733
 3292SOL    HW221510   3.851   4.035   2.091 -1.4857  1.8598  0.1132
 3293SOL     OW21511   2.076   4.628   1.279 -0.0303  0.4058  0.0979
 3293SOL    HW121512   2.171   4.618   1.283 -0.0889  0.4708  1.7200
 3293SOL    HW221513   2.070   4.721   1.259  0.2958  0.4998  0.4576
 3294SOL     OW21514   1.786   0.008  14.331 -0.0179 -0.1055  0.4828
 3294SOL    HW121515   1.728   0.044  14.264  3.1689  1.7601 -1.2851
 3294SOL    HW221516   1.864   4.711  14.286  0.1645  1.7998 -0.6582
 3295SOL     OW21517   2.712   1.398  15.937 -0.0697 -0.2370 -0.6907
 3295SOL    HW121518   2.766   1.412  16.014  1.0101 -1.4171 -1.2155
 3295SOL    HW221519   2.621   1.415  15.960  0.3219  0.7680  0.0944
 3296SOL     OW21520   2.013   2.790  15.841  0.5256  1.2540  0.0950
 3296SOL    HW121521   2.068   2.730  15.893 -1.6955 -0.7106  0.1736
 3296SOL    HW221522   1.936   2.759  15.888 -0.9174  0.7424 -2.6001
 3297SOL     OW21523   1.743   3.185  14.064  0.2836 -0.4836  0.0351
 3297SOL    HW121524   1.687   3.262  14.060  1.5649  0.5007  1.2004
 3297SOL    HW221525   1.706   3.132  14.134 -1.3444  1.8947  0.9967
 3298SOL     OW21526   3.076   1.044   8.862  0.3242 -0.8251  0.3590
 3298SOL    HW121527   3.026   1.086   8.793 -0.2387 -1.2425  0.5167
 3298SOL    HW221528   3.046   0.954   8.847  0.9092 -0.8170 -0.8078
 3299SOL     OW21529   0.471   3.914   9.979 -0.5233 -0.4324 -0.0749
 3299SOL    HW121530   0.536   3.850   9.951  0.4773 -0.0644  1.4156
 3299SOL    HW221531   0.394   3.863  10.006 -0.7738  0.8366  1.6218
 3300SOL     OW21532   3.810   2.648   2.257 -0.9878 -0.2012 -0.5823
 3300SOL    HW121533   3.868   2.660   2.333 -2.4339  0.4881  0.3958
 3300SOL    HW221534   3.877   2.655   2.188 -0.2535 -2.2401 -0.0721
 3301SOL     OW21535   2.296   1.144  17.435  1.0014 -0.1258  0.7944
 3301SOL    HW121536   2.215   1.096  17.422  1.2583 -0.2936 -0.1548
 3301SOL    HW221537   2.284   1.204  17.361 -0.8702 -0.4867  0.8047
 3302SOL     OW21538   0.020   3.140   5.840  0.5927 -0.4519 -0.4342
 3302SOL    HW121539   4.704   3.098   5.772 -0.8039 -0.9214  0.9516
 3302SOL    HW221540   0.014   3.080   5.914  1.9070  0.3327  0.3118
 3303SOL     OW21541   2.993   0.022  16.504 -0.1394  0.0737  0.4904
 3303SOL    HW121542   3.030   0.108  16.483 -0.7341  0.0804 -0.5460
 3303SOL    HW221543   3.036   4.718  16.428  0.5398 -1.5607  1.7522
 3304SOL     OW21544   0.003   1.864   6.167  0.3288  0.1295  0.0493
 3304SOL    HW121545   4.679   1.827   6.103  1.6127  0.3039 -1.2572
 3304SOL    HW221546   4.681   1.879   6.241 -2.1892 -0.9706 -1.7393
 3305SOL     OW21547   4.235   3.224   6.708 -0.0054  0.7412 -0.2156
 3305SOL    HW121548   4.300   3.261   6.769 -0.7766  0.3438  0.8451
 3305SOL    HW221549   4.172   3.296   6.700  1.4987  2.0033 -0.8352
 3306SOL     OW21550   3.910   0.342   6.400  0.7349  0.4260 -0.6725
 3306SOL    HW121551   3.857   0.274   6.443  3.5819  0.1546  2.3957
 3306SOL    HW221552   3.965   0.369   6.473  2.4035 -0.6995 -1.5277
 3307SOL     OW21553   0.999   2.565  12.523 -0.0116 -0.0555  0.0682
 3307SOL    HW121554   1.006   2.649  12.568 -1.5121 -0.3303  0.8315
 3307SOL    HW221555   1.038   2.595  12.441 -2.5713  0.1624 -1.0970
 3308SOL     OW21556   0.362   2.713   7.815  0.4325  0.7143  0.6063
 3308SOL    HW121557   0.353   2.749   7.727  2.0110 -2.5521 -0.8905
 3308SOL    HW221558   0.434   2.770   7.842 -0.4884  3.3336 -2.4355
 3309SOL     OW21559   4.459   1.601  14.923  0.1356  0.6240  0.4222
 3309SOL    HW121560   4.547   1.634  14.902  0.0358  1.6206  1.6199
 3309SOL    HW221561   4.437   1.680  14.972  0.0726 -0.4643  2.1454
 3310SOL     OW21562   3.738   0.143   1.948  0.2956 -0.3034  0.3194
 3310SOL    HW121563   3.753   0.173   2.038  1.1425  1.6586 -0.4722
 3310SOL    HW221564   3.649   0.178   1.939  0.0982 -1.1054 -0.8975
 3311SOL     OW21565   0.571   3.666   9.888  0.2216 -0.3188  0.3873
 3311SOL    HW121566   0.647   3.607   9.880  1.1452  0.9340 -0.2127
 3311SOL    HW221567   0.505   3.622   9.835 -1.6520  0.1924  2.3050
 3312SOL     OW21568   0.430   0.353   2.765 -0.1523  0.3750 -0.0159
 3312SOL    HW121569   0.504   0.367   2.707 -0.9692 -1.8572 -1.5893
 3312SOL    HW221570   0.466   0.356   2.854 -0.7196  1.0322  0.1946
 3313SOL     OW21571   4.462   1.150   9.226  0.2889 -0.1484 -0.7914
 3313SOL    HW121572   4.372   1.158   9.194  0.0121 -1.0311 -0.2194
 3313SOL    HW221573   4.490   1.242   9.221 -1.8300  0.6767  1.9661
 3314SOL     OW21574   1.017   0.240   3.684 -0.5698 -0.0994  0.7615
 3314SOL    HW121575   0.958   0.166   3.674 -0.4317  0.1265 -1.7230
 3314SOL    HW221576   1.028   0.233   3.779 -0.2662 -4.5556  0.3975
 3315SOL     OW21577   2.863   0.461   6.560 -0.4002 -0.3825 -0.1911
 3315SOL    HW121578   2.927   0.497   6.620 -0.1834 -1.1656  0.0500
 3315SOL    HW221579   2.791   0.447   6.622  0.5196  1.0686  1.1817
 3316SOL     OW21580   3.690   1.695   3.475 -0.4495  0.4555  0.3117
 3316SOL    HW121581   3.736   1.708   3.391 -0.3910  0.7817  0.3936
 3316SOL    HW221582   3.748   1.624   3.502 -0.1789  0.0280 -1.3640
 3317SOL     OW21583   4.282   1.580   5.299  0.2000 -0.5973 -0.7355
 3317SOL    HW121584   4.272   1.675   5.288 -2.2815 -0.6151  1.5120
 3317SOL    HW221585   4.377   1.571   5.308  0.1823 -0.3354 -0.2407
 3318SOL     OW21586   2.077   3.746   5.125  0.5869 -0.2722  0.9878
 3318SOL    HW121587   2.071   3.778   5.215  2.0260 -0.9162  1.3030
 3318SOL    HW221588   2.075   3.654   5.149  1.8995 -0.6035 -0.2254
 3319SOL     OW21589   3.999   1.043   7.620 -0.1060 -0.5262  0.3958
 3319SOL    HW121590   3.976   0.973   7.558 -1.7408  0.4751 -0.1364
 3319SOL    HW221591   3.946   1.024   7.698  0.1810  0.0073  0.7150
 3320SOL     OW21592   1.056   3.601   7.119 -0.1607 -0.4031  0.4255
 3320SOL    HW121593   0.981   3.543   7.132  0.3527 -1.0489  0.4871
 3320SOL    HW221594   1.085   3.564   7.036  0.3178 -0.2389  0.5192
 3321SOL     OW21595   2.253   3.481  12.573  0.4150 -0.4918 -0.2784
 3321SOL    HW121596   2.337   3.464  12.532  1.2582  0.3223  1.0955
 3321SOL    HW221597   2.231   3.565  12.534  0.2629 -0.6101 -0.4465
 3322SOL     OW21598   3.247   0.409   2.263  0.5940 -0.0500  0.7299
 3322SOL    HW121599   3.263   0.475   2.197 -1.3991 -1.3239 -1.0262
 3322SOL    HW221600   3.218   0.329   2.219 -3.2722  0.8242  1.7435
 3323SOL     OW21601   2.862   1.616   2.517  0.3663 -0.8567  0.2021
 3323SOL    HW121602   2.876   1.609   2.423 -0.0923 -1.4825  0.1821
 3323SOL    HW221603   2.859   1.711   2.525  2.0044 -0.7927  0.0604
 3324SOL     OW21604   1.878   2.587   3.168 -0.3367  0.3495  0.6724
 3324SOL    HW121605   1.848   2.669   3.207 -0.6226  0.6885 -0.2626
 3324SOL    HW221606   1.803   2.535   3.197 -0.5111  0.4336  0.3637
 3325SOL     OW21607   4.622   0.089   4.293 -0.4567 -0.0403 -0.5210
 3325SOL    HW121608   4.629   0.162   4.232  1.1935  0.5770  0.4028
 3325SOL    HW221609   4.711   0.106   4.324 -0.5741 -0.3955  0.0144
 3326SOL     OW21610   1.085   1.388   1.742  0.0446  0.0330 -0.4696
 3326SOL    HW121611   1.008   1.437   1.713 -1.5123 -1.9935  0.2562
 3326SOL    HW221612   1.049   1.323   1.802 -1.4558  1.1348 -0.1614
 3327SOL     OW21613   2.909   3.920   4.193 -0.5992 -0.0478  0.1006
 3327SOL    HW121614   2.886   3.833   4.224  1.3889 -0.9792 -1.0421
 3327SOL    HW221615   2.872   3.930   4.105  0.4401  1.9080 -0.1284
 3328SOL     OW21616   4.009   2.503   1.250  0.5170 -0.5479  0.5005
 3328SOL    HW121617   4.017   2.421   1.299  0.1085 -1.1328 -0.3986
 3328SOL    HW221618   3.913   2.505   1.246  0.4850 -0.6702  1.1423
 3329SOL     OW21619   2.218   0.074  10.669 -0.4772  0.1435 -0.0229
 3329SOL    HW121620   2.230   0.123  10.750 -0.5030  0.8980 -0.4763
 3329SOL    HW221621   2.133   0.030  10.680 -0.3461  0.0563  0.5956
 3330SOL     OW21622   2.702   3.609   5.806  0.0470  0.3059  0.0312
 3330SOL    HW121623   2.759   3.686   5.805 -0.6049  0.8035  1.4492
 3330SOL    HW221624   2.695   3.599   5.711 -0.9553  0.8081  0.0556
 3331SOL     OW21625   0.294   0.458   8.318  0.8865 -0.3311  0.0539
 3331SOL    HW121626   0.311   0.395   8.388  1.0508 -2.5506 -1.9875
 3331SOL    HW221627   0.263   0.532   8.370  2.1155 -0.9221  1.6364
 3332SOL     OW21628   3.762   0.042   8.228 -0.0630 -0.2402  0.2400
 3332SOL    HW121629   3.711   0.111   8.271  2.2127  0.8211  1.2127
 3332SOL    HW221630   3.841   0.088   8.200 -0.6988 -1.3041 -3.3456
 3333SOL     OW21631   3.223   0.111  14.590 -0.1679 -0.3767 -0.5729
 3333SOL    HW121632   3.274   0.079  14.664 -2.5900  0.0059  1.2542
 3333SOL    HW221633   3.152   0.161  14.630  0.9319  0.3413  0.4691
 3334SOL     OW21634   2.003   2.798   8.217  0.4444  0.0269  0.4878
 3334SOL    HW121635   1.950   2.735   8.169  1.4889  0.0304 -0.6847
 3334SOL    HW221636   1.988   2.773   8.308 -0.1566  2.5011  1.0783
 3335SOL     OW21637   1.927   0.700   9.543 -0.0691 -0.4917 -0.6172
 3335SOL    HW121638   1.918   0.615   9.585  1.0750 -0.4402 -0.2632
 3335SOL    HW221639   1.837   0.722   9.517 -0.2922 -0.7280 -0.0265
 3336SOL     OW21640   0.607   3.170   9.250 -0.1939 -0.5361 -0.7022
 3336SOL    HW121641   0.690   3.139   9.287  0.1910  2.2838  0.7967
 3336SOL    HW221642   0.635   3.253   9.211  1.5563  0.2619  2.2360
 3337SOL     OW21643   2.426   1.201   2.987  0.5979 -0.4755 -0.0683
 3337SOL    HW121644   2.442   1.248   2.905  0.9993 -2.4776 -1.1339
 3337SOL    HW221645   2.331   1.209   2.995  0.3521 -0.8379 -2.6085
 3338SOL     OW21646   1.965   3.584   4.847  0.1354 -0.1081  0.9424
 3338SOL    HW121647   1.971   3.664   4.900 -1.1474  0.0031  0.9013
 3338SOL    HW221648   1.890   3.605   4.792  1.1497  0.5304 -0.2182
 3339SOL     OW21649   3.565   3.363   7.654  0.0325  0.6477  0.4860
 3339SOL    HW121650   3.604   3.365   7.742  1.8150  0.5338 -0.3100
 3339SOL    HW221651   3.594   3.276   7.628 -1.7675  0.5558 -1.2091
 3340SOL     OW21652   1.392   4.319   6.837  0.0008 -0.3360 -0.3702
 3340SOL    HW121653   1.322   4.256   6.857  1.1264 -1.1275  1.0842
 3340SOL    HW221654   1.470   4.274   6.871 -0.7364 -2.3944 -1.3809
 3341SOL     OW21655   2.539   4.224   6.254 -0.7402 -0.4200 -0.6768
 3341SOL    HW121656   2.457   4.254   6.214 -2.1599 -0.0165  2.4886
 3341SOL    HW221657   2.544   4.133   6.227  1.2184 -0.1117 -1.3382
 3342SOL     OW21658   3.478   3.983   0.331  0.5644 -0.2999 -0.0246
 3342SOL    HW121659   3.418   3.925   0.285  0.7347 -1.7057  1.5651
 3342SOL    HW221660   3.566   3.953   0.307  0.6634 -0.3385  0.3810
 3343SOL     OW21661   1.146   1.264  17.640  0.1651  0.1166  0.5912
 3343SOL    HW121662   1.134   1.188  17.583  0.5619 -0.2131  0.9395
 3343SOL    HW221663   1.103   1.245  17.723 -1.4061  0.3799 -0.1615
 3344SOL     OW21664   3.800   0.575   5.561  0.3706  0.6187 -0.2059
 3344SOL    HW121665   3.877   0.609   5.514  0.1102  1.0656 -0.3050
 3344SOL    HW221666   3.780   0.643   5.624 -0.2926  0.1464  0.0865
 3345SOL     OW21667   2.295   0.653  13.422  0.1161  0.1496 -0.4985
 3345SOL    HW121668   2.226   0.620  13.479 -0.5147  0.5300 -1.0355
 3345SOL    HW221669   2.265   0.601  13.348 -1.8268  0.4450  0.0953
 3346SOL     OW21670   3.853   4.135   7.015  0.4242  0.2028 -0.1222
 3346SOL    HW121671   3.767   4.093   7.020  1.5837 -1.8461  2.5908
 3346SOL    HW221672   3.889   4.086   6.942  1.5608  0.3560  0.3331
 3347SOL     OW21673   2.001   4.358   6.555  0.4013  0.0173 -0.0894
 3347SOL    HW121674   1.994   4.417   6.629 -1.0381 -0.3763  0.0885
 3347SOL    HW221675   2.003   4.274   6.601  1.1870  0.0169 -0.1274
 3348SOL     OW21676   1.297   4.570   8.120 -0.1592  0.3845  0.1978
 3348SOL    HW121677   1.275   4.661   8.097  0.4898 -0.3180 -3.1924
 3348SOL    HW221678   1.237   4.513   8.072 -0.4548 -0.8784  2.0424
 3349SOL     OW21679   3.460   1.414   1.643  0.3771 -0.2306  0.6857
 3349SOL    HW121680   3.437   1.482   1.706  1.6143 -0.1829  1.0727
 3349SOL    HW221681   3.526   1.467   1.598  0.5237  0.0209  1.2041
 3350SOL     OW21682   0.488   0.498   4.215 -0.2089 -0.4555 -0.4177
 3350SOL    HW121683   0.501   0.479   4.122 -0.3437 -2.8523  0.0464
 3350SOL    HW221684   0.563   0.458   4.260  0.6720  0.7807 -0.7778
 3351SOL     OW21685   1.287   4.571   6.891 -0.1428  0.1453 -0.1768
 3351SOL    HW121686   1.354   4.502   6.892 -2.1288 -1.7733  0.3667
 3351SOL    HW221687   1.230   4.547   6.818  0.5363 -2.2767  0.0848
 3352SOL     OW21688   4.629   4.594   2.445 -0.5209  0.4255 -0.1906
 3352SOL    HW121689   4.687   4.662   2.481 -0.1809  0.2958 -0.4902
 3352SOL    HW221690   4.686   4.552   2.380 -1.4643 -1.5642  0.2962
 3353SOL     OW21691   4.041   0.108   4.595 -0.2904  0.1491 -0.1189
 3353SOL    HW121692   4.000   0.190   4.568 -1.5067 -0.6627 -0.7375
 3353SOL    HW221693   4.130   0.141   4.612 -0.8923  1.8923 -0.4063
 3354SOL     OW21694   4.407   0.564  14.297 -0.3302 -0.0433 -0.8120
 3354SOL    HW121695   4.373   0.588  14.211 -0.9543  0.3343 -0.4665
 3354SOL    HW221696   4.358   0.486  14.323  0.8097 -0.6072 -0.3936
 3355SOL     OW21697   3.620   0.265   6.519 -0.5115  0.1869 -0.4478
 3355SOL    HW121698   3.614   0.300   6.608  3.1895 -0.9475  0.2347
 3355SOL    HW221699   3.679   0.192   6.533  0.3410  0.9709 -0.0090
 3356SOL     OW21700   2.489   2.102  16.935 -0.2689  0.3227 -0.2439
 3356SOL    HW121701   2.443   2.080  16.854  1.3458 -0.8933 -0.8329
 3356SOL    HW221702   2.577   2.072  16.911  0.0969  1.5666 -0.4712
 3357SOL     OW21703   2.393   4.177   8.826  0.0433  0.1644  0.3747
 3357SOL    HW121704   2.300   4.199   8.829 -0.3143 -1.4289  0.8400
 3357SOL    HW221705   2.387   4.090   8.866 -2.3897  0.5343  0.7916
 3358SOL     OW21706   3.201   3.775   8.615  0.3928 -0.3124  0.0746
 3358SOL    HW121707   3.171   3.862   8.590  1.2542  0.0387  0.2794
 3358SOL    HW221708   3.162   3.716   8.550 -0.4259 -1.9735  2.0535
 3359SOL     OW21709   0.318   2.909  14.144  0.3109  0.0910  0.2948
 3359SOL    HW121710   0.360   2.964  14.078  0.5062  1.4950  1.5870
 3359SOL    HW221711   0.232   2.949  14.136  0.4582  0.4566  0.5264
 3360SOL     OW21712   2.585   2.501  10.419 -0.1604  0.1321  0.1444
 3360SOL    HW121713   2.503   2.452  10.428  0.6382 -0.9544  1.5180
 3360SOL    HW221714   2.559   2.593  10.421  2.0878  0.7426  1.4321
 3361SOL     OW21715   3.963   1.305   0.984  0.4096  0.0538 -0.2348
 3361SOL    HW121716   4.040   1.248   0.991  0.1879 -0.1522  0.5820
 3361SOL    HW221717   3.996   1.377   0.930 -0.6155 -1.8567 -3.4053
 3362SOL     OW21718   2.791   4.684   4.166  0.0093  0.0105 -0.2284
 3362SOL    HW121719   2.833   4.650   4.087 -0.8233  1.4863 -1.3294
 3362SOL    HW221720   2.869   4.679   4.221  0.9391 -1.0670 -1.6684
 3363SOL     OW21721   3.021   0.112   6.999 -0.0805  0.3574  0.1887
 3363SOL    HW121722   3.043   0.093   7.090  3.9226 -0.4142 -0.8955
 3363SOL    HW221723   3.088   0.057   6.957  0.5504  0.3373  1.2357
 3364SOL     OW21724   1.969   4.272   3.016  0.0653 -0.4298  0.2587
 3364SOL    HW121725   2.017   4.353   3.034  0.9636 -0.3635 -2.4431
 3364SOL    HW221726   1.922   4.306   2.939  0.6530 -1.5703 -0.6164
 3365SOL     OW21727   3.112   3.271  15.299  0.1540  0.1561  0.4016
 3365SOL    HW121728   3.156   3.267  15.214 -0.0210 -3.5054  0.4678
 3365SOL    HW221729   3.181   3.323  15.340 -0.3617  1.1556 -0.0020
 3366SOL     OW21730   0.021   0.668   3.709  0.2826  0.1908 -0.3783
 3366SOL    HW121731   4.673   0.710   3.706  0.2842  0.1978 -0.3269
 3366SOL    HW221732   0.008   0.574   3.724  0.8696 -0.1093 -1.7067
 3367SOL     OW21733   1.131   0.470  10.027 -0.2750 -0.1617  0.4232
 3367SOL    HW121734   1.189   0.396  10.007  0.6759  0.8784 -0.6508
 3367SOL    HW221735   1.168   0.514  10.103  1.9262 -1.1808 -0.0681
 3368SOL     OW21736   1.541   3.099   7.576 -0.0134  0.6960 -0.3526
 3368SOL    HW121737   1.609   3.093   7.643  0.1597 -0.5418 -0.6434
 3368SOL    HW221738   1.472   3.049   7.618  1.8695 -0.7255  1.0589
 3369SOL     OW21739   2.037   3.460  15.673 -0.6660  0.2789 -0.6522
 3369SOL    HW121740   2.077   3.432  15.591  1.5470  1.8567 -0.0856
 3369SOL    HW221741   2.024   3.378  15.721 -0.4659  0.9736  0.5641
 3370SOL     OW21742   3.969   4.157   4.787 -0.1891 -0.5488 -0.8941
 3370SOL    HW121743   3.893   4.171   4.730  0.4278  0.2260 -1.5240
 3370SOL    HW221744   3.942   4.082   4.839 -3.6147  0.3636 -1.3546
 3371SOL     OW21745   3.724   2.625  15.144 -0.4836 -0.1474 -0.6474
 3371SOL    HW121746   3.765   2.586  15.222 -0.0782  0.3186 -0.6216
 3371SOL    HW221747   3.797   2.652  15.088  0.0179 -0.2705 -0.0542
 3372SOL     OW21748   4.075   0.016   7.412 -0.1936  0.2529 -0.6488
 3372SOL    HW121749   4.126   4.710   7.481  1.4158  2.5392 -0.3792
 3372SOL    HW221750   4.130   0.089   7.382 -1.7860  1.5570 -0.3614
 3373SOL     OW21751   4.610   0.278   7.591 -0.1439 -0.2741 -0.2409
 3373SOL    HW121752   4.652   0.270   7.677 -0.5639 -2.4024 -0.2417
 3373SOL    HW221753   4.671   0.337   7.547  0.2058  0.4157  1.1714
 3374SOL     OW21754   0.520   0.683   5.694  0.6722  0.1815 -0.5382
 3374SOL    HW121755   0.607   0.718   5.674  1.3616 -1.4829 -0.4099
 3374SOL    HW221756   0.549   0.592   5.700 -1.6502 -0.4852  0.5607
 3375SOL     OW21757   3.004   0.401   1.576  0.3416 -0.3826  0.7036
 3375SOL    HW121758   2.926   0.360   1.538 -0.4947  1.6810  0.2209
 3375SOL    HW221759   2.969   0.427   1.661 -0.2700 -0.3136  0.4332
 3376SOL     OW21760   0.857   4.044   1.660 -0.3798 -0.1015  0.0762
 3376SOL    HW121761   0.797   4.095   1.714 -0.2422 -0.9707  1.0498
 3376SOL    HW221762   0.786   3.998   1.616 -0.8465 -0.0097  0.7382
 3377SOL     OW21763   4.551   4.184  12.471  0.0592  0.0363 -0.2057
 3377SOL    HW121764   4.497   4.197  12.549  1.4056 -1.7010  1.0034
 3377SOL    HW221765   4.488   4.134  12.419  0.2622 -0.9771  0.5214
 3378SOL     OW21766   1.912   3.640   9.319  0.6849  0.0160  0.2043
 3378SOL    HW121767   1.954   3.692   9.250 -1.3038  0.4784 -0.6683
 3378SOL    HW221768   1.823   3.676   9.319  0.1763 -1.2270  2.0128
 3379SOL     OW21769   4.378   3.710   9.770 -0.4750  0.1926 -0.2056
 3379SOL    HW121770   4.450   3.672   9.821 -0.2727 -0.3183 -0.8690
 3379SOL    HW221771   4.323   3.769   9.822  0.8848 -0.1223  1.5966
 3380SOL     OW21772   4.290   0.522   4.557  0.4384 -0.2854 -0.6298
 3380SOL    HW121773   4.196   0.539   4.560  0.4988 -0.5730  2.6619
 3380SOL    HW221774   4.286   0.506   4.463 -2.9021 -0.2203 -0.5066
 3381SOL     OW21775   4.343   3.439   3.590  0.1041  0.1523 -0.0803
 3381SOL    HW121776   4.361   3.487   3.671  0.0437  1.1702 -0.6727
 3381SOL    HW221777   4.249   3.452   3.586  0.0608  0.0228  0.5209
 3382SOL     OW21778   0.714   0.384   4.334 -0.0254 -0.9912 -0.3636
 3382SOL    HW121779   0.750   0.295   4.331  1.7438 -0.2999  0.2047
 3382SOL    HW221780   0.702   0.402   4.427  0.1533 -0.9593 -0.3464
 3383SOL     OW21781   3.171   4.735  15.727 -0.6006 -0.0089  0.1479
 3383SOL    HW121782   3.151   4.687  15.646 -3.1329 -0.8490  1.2789
 3383SOL    HW221783   3.141   4.686  15.804 -3.3226 -3.4756 -3.1248
 3384SOL     OW21784   3.737   1.849  12.637 -0.4350 -0.1229 -0.4043
 3384SOL    HW121785   3.765   1.844  12.546 -0.4097 -0.7443 -0.3640
 3384SOL    HW221786   3.801   1.803  12.692 -0.1792  0.5394 -0.1514
 3385SOL     OW21787   2.336   0.420   7.068  0.4160  0.2143  0.1174
 3385SOL    HW121788   2.244   0.447   7.069 -0.5285 -2.9348  1.9244
 3385SOL    HW221789   2.343   0.383   7.156 -0.4487 -1.3969 -0.4846
 3386SOL     OW21790   1.205   0.517  11.408 -0.4730 -0.3390 -0.5969
 3386SOL    HW121791   1.278   0.526  11.346 -1.7967  1.2673 -1.9226
 3386SOL    HW221792   1.253   0.504  11.489 -0.6132 -2.5181 -0.8588
 3387SOL     OW21793   0.612   2.999   6.329 -0.0800  0.4914  0.0776
 3387SOL    HW121794   0.562   3.029   6.253  0.3278  0.1151 -0.3490
 3387SOL    HW221795   0.548   3.011   6.398 -1.5360  0.2590 -1.2350
 3388SOL     OW21796   4.360   2.518  12.411  0.0445 -0.2148  0.2044
 3388SOL    HW121797   4.426   2.560  12.356  0.5802 -0.7685  0.4159
 3388SOL    HW221798   4.281   2.516  12.358  0.1364  1.1485  0.0222
 3389SOL     OW21799   3.229   2.309   8.898  0.5934 -0.1448 -0.0437
 3389SOL    HW121800   3.160   2.245   8.880  0.3055 -0.1208  0.9818
 3389SOL    HW221801   3.302   2.248   8.896  0.6349 -0.0497 -1.2082
 3390SOL     OW21802   4.359   1.955   5.950 -0.5723 -0.1797  0.1116
 3390SOL    HW121803   4.265   1.967   5.964 -0.6291 -0.0303 -0.4081
 3390SOL    HW221804   4.370   1.948   5.855  1.1019 -1.4134  0.4044
 3391SOL     OW21805   0.315   3.231   1.397 -0.4865  0.3975 -0.2678
 3391SOL    HW121806   0.253   3.160   1.382  0.6752 -0.8603  0.8569
 3391SOL    HW221807   0.301   3.283   1.318  0.2986 -1.5317 -1.6853
 3392SOL     OW21808   0.628   4.005   5.428 -0.6579  0.1906  0.1820
 3392SOL    HW121809   0.712   4.015   5.383 -0.4152 -0.6146  0.4734
 3392SOL    HW221810   0.630   3.924   5.479 -0.5312  0.2109  0.2105
 3393SOL     OW21811   0.817   2.022   9.820 -0.0227 -0.1243 -0.1578
 3393SOL    HW121812   0.808   1.965   9.896  1.8528  1.6348  1.4022
 3393SOL    HW221813   0.883   1.981   9.764  1.0446  1.9596 -0.4253
 3394SOL     OW21814   3.550   1.375   9.295  0.2881 -0.4036 -0.0340
 3394SOL    HW121815   3.514   1.289   9.313 -1.4232 -0.1558 -2.2856
 3394SOL    HW221816   3.641   1.381   9.323  0.7961 -0.8369 -1.5714
 3395SOL     OW21817   2.248   1.783   1.313  0.1191  0.1587  0.5041
 3395SOL    HW121818   2.202   1.775   1.229  0.3939  1.6778  0.2165
 3395SOL    HW221819   2.250   1.698   1.357 -2.3461 -0.1851 -0.0474
 3396SOL     OW21820   1.880   1.343   9.051 -0.6116  0.4436  0.1053
 3396SOL    HW121821   1.947   1.275   9.059 -1.7909 -0.5110  1.8997
 3396SOL    HW221822   1.815   1.309   9.113  0.1691  0.1492  0.7605
 3397SOL     OW21823   4.346   0.530   5.473 -0.4399 -0.1803 -0.1043
 3397SOL    HW121824   4.377   0.620   5.474  1.9073 -0.9963  0.9760
 3397SOL    HW221825   4.369   0.479   5.551 -0.2443  1.6328  1.0064
 3398SOL     OW21826   0.181   1.470   4.959  0.6569 -0.4780  0.7939
 3398SOL    HW121827   0.265   1.448   4.920  1.0834  1.8429  0.3690
 3398SOL    HW221828   0.196   1.563   4.980 -0.6590  0.2140 -1.3151
 3399SOL     OW21829   2.372   4.530   2.107  0.0522 -0.2785  0.1783
 3399SOL    HW121830   2.368   4.464   2.176 -2.0406 -0.9527 -0.5620
 3399SOL    HW221831   2.354   4.611   2.153 -0.5065 -0.9387  1.1266
 3400SOL     OW21832   0.563   0.873   3.777  0.1311 -0.4488 -0.0155
 3400SOL    HW121833   0.474   0.845   3.758 -0.1033 -0.9424  1.8079
 3400SOL    HW221834   0.563   0.968   3.768 -0.5211 -0.5315 -0.8715
 3401SOL     OW21835   1.153   0.909   5.069 -0.0343  0.4731  0.3063
 3401SOL    HW121836   1.205   0.934   4.992 -0.0592 -0.0506  0.1206
 3401SOL    HW221837   1.176   0.816   5.061 -1.9028 -0.1281  1.8288
 3402SOL     OW21838   1.169   4.549   3.655 -0.1119  0.3003 -0.1145
 3402SOL    HW121839   1.187   4.637   3.690 -0.6317  1.2359 -2.2273
 3402SOL    HW221840   1.250   4.506   3.684 -0.0152 -0.8341 -2.1027
 3403SOL     OW21841   0.112   3.322   3.877  0.3479  0.3236  0.3310
 3403SOL    HW121842   0.058   3.289   3.949 -0.6481 -0.6557 -0.8657
 3403SOL    HW221843   0.200   3.298   3.906  0.2940 -0.5754 -0.2404
 3404SOL     OW21844   2.935   4.382   3.828 -0.1678  0.1571  0.2358
 3404SOL    HW121845   2.893   4.442   3.767  0.0943 -1.5774 -1.6578
 3404SOL    HW221846   2.897   4.304   3.787 -1.8072  1.6971 -1.1265
 3405SOL     OW21847   1.001   1.730   3.347 -0.7588  0.5020  0.3149
 3405SOL    HW121848   1.055   1.671   3.400 -1.9885 -0.2501  0.7200
 3405SOL    HW221849   0.995   1.800   3.413  0.6188  0.5680  0.3809
 3406SOL     OW21850   0.725   3.068   6.647 -0.0748  0.4139  0.0895
 3406SOL    HW121851   0.773   2.995   6.684  2.1813  1.7875 -0.1703
 3406SOL    HW221852   0.777   3.087   6.569 -0.1575 -4.7372 -1.2056
 3407SOL     OW21853   4.518   4.666  12.870 -0.7502  0.0677  0.1753
 3407SOL    HW121854   4.440   4.664  12.815 -1.4863 -0.5095  1.2362
 3407SOL    HW221855   4.541   4.573  12.876 -1.8064 -0.0923  1.7178
 3408SOL     OW21856   4.036   1.258   2.525 -0.9887 -0.6595 -0.0301
 3408SOL    HW121857   4.076   1.218   2.603  1.6428  1.2398 -0.3936
 3408SOL    HW221858   3.949   1.286   2.554 -0.7776 -0.0171 -0.0333
 3409SOL     OW21859   0.979   4.323   1.546 -0.3020  0.8388  0.2747
 3409SOL    HW121860   0.951   4.234   1.569  1.1784  1.1061  3.2305
 3409SOL    HW221861   1.074   4.315   1.543 -0.1224  2.9343  0.6187
 3410SOL     OW21862   3.109   2.436  16.185 -0.5062  0.8520  0.0822
 3410SOL    HW121863   3.176   2.457  16.249 -0.6645  1.2688  0.1119
 3410SOL    HW221864   3.040   2.404  16.244  0.5306  0.6093  1.1528
 3411SOL     OW21865   2.305   0.791   2.338  0.2668  0.2840 -0.5595
 3411SOL    HW121866   2.255   0.809   2.259 -0.6999  0.5823  0.1147
 3411SOL    HW221867   2.394   0.788   2.304  0.1633 -0.3137 -0.7770
 3412SOL     OW21868   2.308   4.621   5.770 -0.1944 -0.7373  0.0043
 3412SOL    HW121869   2.390   4.575   5.753 -0.1491 -0.1196 -1.5076
 3412SOL    HW221870   2.336   4.685   5.836 -1.8056  0.5495 -0.5579
 3413SOL     OW21871   0.717   2.661   6.429  0.4249  0.0924  0.3146
 3413SOL    HW121872   0.705   2.716   6.506 -2.2109 -1.5387  1.0691
 3413SOL    HW221873   0.651   2.703   6.375 -0.2581  1.1932  2.0025
 3414SOL     OW21874   1.920   4.093  10.267  0.3409 -0.4159 -0.3648
 3414SOL    HW121875   1.838   4.141  10.251 -0.0871 -1.2940 -0.7697
 3414SOL    HW221876   1.915   4.069  10.360  0.8605 -1.2003 -0.5410
 3415SOL     OW21877   2.502   2.653   4.574  0.1043  0.5895  0.2292
 3415SOL    HW121878   2.558   2.653   4.651 -1.1247  0.9261  1.1346
 3415SOL    HW221879   2.546   2.580   4.531  0.3371 -0.2303  1.8534
 3416SOL     OW21880   3.221   4.156  17.166 -0.3205  0.0746 -0.1738
 3416SOL    HW121881   3.249   4.248  17.163  2.0717 -0.4946  4.3147
 3416SOL    HW221882   3.190   4.149  17.257  0.4353 -1.9674 -0.0786
 3417SOL     OW21883   3.963   2.373   0.770  0.0053  0.4127  0.3124
 3417SOL    HW121884   4.040   2.407   0.724  0.3232  0.5541  0.9534
 3417SOL    HW221885   3.985   2.280   0.769 -2.8163 -0.2296 -1.3070
 3418SOL     OW21886   0.786   3.034   8.556  0.2661  0.4495  0.5097
 3418SOL    HW121887   0.798   2.939   8.559  0.8282  0.4622 -1.1802
 3418SOL    HW221888   0.847   3.056   8.626  0.6715 -1.1787  0.6550
 3419SOL     OW21889   3.401   4.440   8.863  0.0255 -0.3259  0.6498
 3419SOL    HW121890   3.432   4.440   8.953 -0.0153  0.0793  0.6618
 3419SOL    HW221891   3.314   4.402   8.870  0.3554 -0.9440  1.4218
 3420SOL     OW21892   0.567   3.750   9.120  0.3228 -0.0956 -0.0523
 3420SOL    HW121893   0.543   3.750   9.027 -0.9987  2.2874  0.3101
 3420SOL    HW221894   0.650   3.704   9.105 -0.4944 -1.4518 -0.4308
 3421SOL     OW21895   1.516   1.116   7.595  0.0510  0.7215  0.0713
 3421SOL    HW121896   1.563   1.034   7.615 -2.4375 -1.2698 -2.1894
 3421SOL    HW221897   1.548   1.150   7.678  2.3361 -3.4204  0.9225
 3422SOL     OW21898   0.060   2.337   8.256  0.0429 -0.5873 -0.5779
 3422SOL    HW121899   0.042   2.323   8.349  1.4157 -1.6649 -0.4605
 3422SOL    HW221900   4.705   2.324   8.235 -0.3190  1.6038 -0.3454
 3423SOL     OW21901   1.874   2.058   3.777  0.4480  0.1901 -0.4148
 3423SOL    HW121902   1.866   2.119   3.704  1.2753 -1.3737 -1.7954
 3423SOL    HW221903   1.851   2.120   3.846 -0.3165 -2.5166  1.7563
 3424SOL     OW21904   1.649   4.414   4.470  0.3036  0.3979  0.0223
 3424SOL    HW121905   1.641   4.320   4.457 -1.0243  0.2844  1.6971
 3424SOL    HW221906   1.676   4.409   4.562  0.8362  0.2408 -0.1408
 3425SOL     OW21907   3.379   0.190  10.084  1.2183  0.0355  0.6806
 3425SOL    HW121908   3.377   0.273  10.036  1.5908 -1.1701 -1.3664
 3425SOL    HW221909   3.342   0.218  10.169  3.2597 -2.3956  2.3675
 3426SOL     OW21910   0.201   1.283   2.943  0.2722 -0.0343  0.4102
 3426SOL    HW121911   0.227   1.191   2.944 -1.9692 -0.6621  0.4891
 3426SOL    HW221912   0.284   1.319   2.911 -0.2057  0.7465  0.0666
 3427SOL     OW21913   1.276   3.342   8.021  0.3569 -0.1653  0.4478
 3427SOL    HW121914   1.278   3.406   8.092  0.2742  0.3516 -0.0131
 3427SOL    HW221915   1.182   3.332   8.003  0.0187  1.2255  1.4564
 3428SOL     OW21916   2.295   2.710   8.265  0.5909  0.4276 -0.2989
 3428SOL    HW121917   2.251   2.665   8.337 -0.5622  2.2497  0.1250
 3428SOL    HW221918   2.336   2.780   8.315  1.8349 -0.4842 -0.0235
 3429SOL     OW21919   3.243   0.937   8.001  0.6133  0.1562 -0.2583
 3429SOL    HW121920   3.319   0.993   7.985  1.9488 -1.3653  0.7935
 3429SOL    HW221921   3.249   0.885   7.920  0.9260  0.0564 -0.1696
 3430SOL     OW21922   3.999   0.754   7.135 -0.5502  0.4115  0.0046
 3430SOL    HW121923   4.046   0.699   7.199  0.0358  0.4963 -0.3580
 3430SOL    HW221924   4.065   0.778   7.071 -0.5559 -1.8158 -0.8403
 3431SOL     OW21925   0.550   1.614   7.986 -0.5349 -0.6057  0.0473
 3431SOL    HW121926   0.459   1.590   8.002 -1.3197  1.8427 -0.7637
 3431SOL    HW221927   0.579   1.536   7.940  0.7095  0.0725 -0.3338
 3432SOL     OW21928   2.338   3.612   3.692 -0.2243  0.4265 -0.2997
 3432SOL    HW121929   2.252   3.644   3.664 -0.8995 -0.8698  0.2430
 3432SOL    HW221930   2.321   3.646   3.780  1.2347 -2.7070  1.1887
 3433SOL     OW21931   1.494   2.910   8.900 -0.0672  0.4950  0.1892
 3433SOL    HW121932   1.538   2.942   8.978  0.3398 -2.1697  1.0638
 3433SOL    HW221933   1.421   2.972   8.900  1.0414  1.7855 -3.2459
 3434SOL     OW21934   3.100   2.479   8.730  0.2607 -0.0513 -0.7189
 3434SOL    HW121935   3.125   2.421   8.802  1.5719  0.2699 -0.9049
 3434SOL    HW221936   3.092   2.566   8.768 -0.7578 -1.4876  2.3445
 3435SOL     OW21937   3.983   1.412   4.545 -0.9641  0.2272 -0.3152
 3435SOL    HW121938   3.975   1.461   4.627  0.1488 -0.1955  0.0479
 3435SOL    HW221939   3.985   1.480   4.478 -0.2980 -0.6308 -1.1559
 3436SOL     OW21940   3.600   4.718   6.949 -0.2788 -0.2285 -0.0117
 3436SOL    HW121941   3.646   4.642   6.913 -1.1634 -2.0561  2.7653
 3436SOL    HW221942   3.513   4.679   6.943 -0.0106 -0.5465 -2.0519
 3437SOL     OW21943   0.108   3.588   6.131 -0.1643 -0.0003 -0.2763
 3437SOL    HW121944   0.123   3.681   6.150 -0.5857 -0.1596  0.8305
 3437SOL    HW221945   0.080   3.556   6.217  2.2361  1.0854  0.9022
 3438SOL     OW21946   0.849   0.846  11.113 -0.1067  0.5952  0.3312
 3438SOL    HW121947   0.873   0.936  11.132 -1.9253  1.1420  0.0306
 3438SOL    HW221948   0.929   0.795  11.128 -0.0852  0.6717  0.4751
 3439SOL     OW21949   4.319   3.390   4.913  0.2099  0.6564 -0.6591
 3439SOL    HW121950   4.285   3.301   4.904  0.8416  0.3716 -0.1577
 3439SOL    HW221951   4.249   3.422   4.970 -1.0711  0.2401 -1.9909
 3440SOL     OW21952   2.781   3.459  11.078  0.0939  0.9624 -0.5217
 3440SOL    HW121953   2.799   3.534  11.136 -0.4036 -0.1466  1.0819
 3440SOL    HW221954   2.726   3.487  11.006 -0.5311 -1.4566 -0.9791
 3441SOL     OW21955   2.809   1.438   8.447  0.0023 -0.2124 -0.0831
 3441SOL    HW121956   2.785   1.485   8.527  1.2327 -2.0639  1.3760
 3441SOL    HW221957   2.836   1.355   8.487 -1.1288  0.1735  1.4840
 3442SOL     OW21958   3.913   3.030   8.576 -0.3482 -0.0159  0.0965
 3442SOL    HW121959   3.911   2.954   8.518  2.2111  1.3119 -1.7200
 3442SOL    HW221960   4.005   3.036   8.601  0.3437  1.3367 -2.7739
 3443SOL     OW21961   3.725   3.872   3.379  0.0744  0.0816 -0.4048
 3443SOL    HW121962   3.745   3.843   3.468  0.3321  0.0244 -0.4811
 3443SOL    HW221963   3.670   3.801   3.347  0.6099 -0.9137  0.8521
 3444SOL     OW21964   2.017   1.012   0.519 -0.1888  0.1598  0.2379
 3444SOL    HW121965   1.997   0.970   0.435  0.2653  0.7007 -0.1415
 3444SOL    HW221966   2.111   0.995   0.527  0.0572  1.3547 -0.1133
 3445SOL     OW21967   3.047   1.239  17.348 -0.7728 -0.2923 -0.1312
 3445SOL    HW121968   3.030   1.302  17.418 -1.1052 -0.7139  0.1637
 3445SOL    HW221969   3.010   1.163  17.393 -1.6283  0.2474  0.0974
 3446SOL     OW21970   0.028   2.073   4.979  0.0249  0.3298 -0.2057
 3446SOL    HW121971   4.705   2.069   5.054  1.5708  3.2080  1.1907
 3446SOL    HW221972   4.721   2.147   4.938 -1.7860 -0.4629  0.3166
 3447SOL     OW21973   1.530   1.258   9.263 -0.1915  0.5440  0.2002
 3447SOL    HW121974   1.522   1.184   9.324  1.3854 -0.8490 -1.2789
 3447SOL    HW221975   1.590   1.308   9.319 -1.9743  1.9871  0.7836
 3448SOL     OW21976   2.788   2.815   5.545  0.4170  0.3785 -0.4836
 3448SOL    HW121977   2.877   2.842   5.520  1.1879 -2.5133 -0.8654
 3448SOL    HW221978   2.755   2.902   5.565  0.2976  0.1455  0.3274
 3449SOL     OW21979   0.936   4.529  16.723 -0.4743 -0.0766 -0.8677
 3449SOL    HW121980   0.861   4.469  16.713 -1.5351  0.8163  1.8258
 3449SOL    HW221981   1.009   4.470  16.703  0.8523  0.0669  3.7042
 3450SOL     OW21982   4.563   0.286   6.951 -0.7269 -0.3465  0.5248
 3450SOL    HW121983   4.600   0.198   6.944 -1.5522 -0.7974  1.7163
 3450SOL    HW221984   4.641   0.336   6.974 -0.9370  0.9570 -1.5496
 3451SOL     OW21985   0.503   1.734   5.297 -0.5099 -0.2998 -0.1077
 3451SOL    HW121986   0.475   1.713   5.386  0.8585  0.8725  0.6081
 3451SOL    HW221987   0.475   1.658   5.246  2.3184 -1.6088  0.2753
 3452SOL     OW21988   0.491   0.805   6.282  0.3629  0.3189 -0.3714
 3452SOL    HW121989   0.575   0.847   6.302  0.2902  0.2839  0.0066
 3452SOL    HW221990   0.476   0.835   6.193 -0.5947  1.2457  0.1069
 3453SOL     OW21991   0.490   0.481  12.446 -0.4704 -0.4795  0.7499
 3453SOL    HW121992   0.427   0.471  12.517  1.1985 -1.6522  2.0582
 3453SOL    HW221993   0.568   0.442  12.486 -0.3825 -0.9105  0.1630
 3454SOL     OW21994   4.188   0.562   6.749  0.2199  0.0989  0.2101
 3454SOL    HW121995   4.255   0.629   6.738 -0.7819  0.4501 -3.5155
 3454SOL    HW221996   4.229   0.517   6.824  1.9763 -4.2616 -3.3576
 3455SOL     OW21997   4.033   3.389   7.356  0.1227 -0.7473  0.5252
 3455SOL    HW121998   4.091   3.464   7.367  1.3944 -1.7140  0.5180
 3455SOL    HW221999   3.961   3.421   7.410  0.3453  1.6370 -0.5879
 3456SOL     OW22000   4.434   1.570   7.321  0.4712 -0.0012  0.1061
 3456SOL    HW122001   4.396   1.652   7.353 -1.9704 -0.5600 -1.2855
 3456SOL    HW222002   4.387   1.570   7.237 -1.9875 -0.3172  1.4740
 3457SOL     OW22003   4.176   0.186   6.057  0.1954  0.3472  0.2121
 3457SOL    HW122004   4.268   0.162   6.044 -0.4218 -1.4089 -0.9004
 3457SOL    HW222005   4.137   0.108   6.019  1.0395 -0.1753  0.4133
 3458SOL     OW22006   1.551   1.907   5.644  0.4540  0.1735 -0.4032
 3458SOL    HW122007   1.467   1.898   5.688  1.2047 -0.5823  0.8749
 3458SOL    HW222008   1.594   1.822   5.652 -1.7307 -0.7362  1.4146
 3459SOL     OW22009   1.857   2.192   4.844  0.5494 -0.2290 -0.5907
 3459SOL    HW122010   1.814   2.107   4.832  1.0916 -0.7848  1.3589
 3459SOL    HW222011   1.949   2.164   4.848 -0.0733 -2.4170 -1.5798
 3460SOL     OW22012   0.889   0.383  13.250 -0.0166  0.0220  0.3000
 3460SOL    HW122013   0.800   0.360  13.222 -0.7692  2.3133  0.8137
 3460SOL    HW222014   0.880   0.475  13.273 -3.2365 -0.0670 -0.5662
 3461SOL     OW22015   0.940   1.729   4.619  0.4013 -0.8610  0.0367
 3461SOL    HW122016   1.010   1.786   4.651  0.2958 -0.3685 -0.6349
 3461SOL    HW222017   0.989   1.658   4.579 -2.7263 -1.4729 -2.7194
 3462SOL     OW22018   2.684   3.021  16.548 -0.1470  0.0845 -0.6660
 3462SOL    HW122019   2.762   2.979  16.514 -0.1885 -0.6237  0.1270
 3462SOL    HW222020   2.652   3.060  16.466  0.8178 -1.2000 -1.6324
 3463SOL     OW22021   2.369   2.906  16.012  0.1262  0.4536 -1.0131
 3463SOL    HW122022   2.427   2.943  16.078  0.0743  0.9762 -1.2575
 3463SOL    HW222023   2.386   2.813  16.024  2.2356  1.0866  1.0092
 3464SOL     OW22024   0.409   0.349   9.307  0.0919  0.1235 -0.1074
 3464SOL    HW122025   0.378   0.385   9.224 -0.0177  1.8973  0.6980
 3464SOL    HW222026   0.419   0.257   9.281  0.7156 -0.2630  1.5231
 3465SOL     OW22027   2.522   0.407   6.168 -0.2235  0.9226  0.2785
 3465SOL    HW122028   2.437   0.364   6.167  0.6785 -0.8033 -2.6885
 3465SOL    HW222029   2.538   0.414   6.074 -2.0971  1.4762  0.0030
 3466SOL     OW22030   1.323   1.878   5.770  0.1658 -0.0671 -0.2155
 3466SOL    HW122031   1.249   1.817   5.771 -1.5568  2.0380  1.5260
 3466SOL    HW222032   1.280   1.959   5.797  0.3303 -0.1660  0.3630
 3467SOL     OW22033   3.049   2.065  10.161 -0.1043 -1.0179  0.2441
 3467SOL    HW122034   3.089   1.995  10.212  2.2913 -0.2550 -0.5817
 3467SOL    HW222035   3.123   2.123  10.145  0.7568 -1.5246  2.4989
 3468SOL     OW22036   2.686   1.442   3.074  0.3524  0.3042 -0.2182
 3468SOL    HW122037   2.734   1.366   3.040  2.0808  2.3006 -2.2849
 3468SOL    HW222038   2.666   1.487   2.992 -1.7482 -0.5219 -0.1550
 3469SOL     OW22039   1.273   1.564   5.850  0.5425  0.0077  0.2746
 3469SOL    HW122040   1.316   1.500   5.793 -0.0420 -1.4938  1.5188
 3469SOL    HW222041   1.210   1.602   5.789  2.4245 -0.2087 -1.7812
 3470SOL     OW22042   2.753   4.419  11.635 -0.4248  0.3951  0.2794
 3470SOL    HW122043   2.746   4.391  11.726  0.0523 -1.4650 -0.2543
 3470SOL    HW222044   2.670   4.387  11.600 -0.9158  2.0048 -0.0569
 3471SOL     OW22045   0.668   2.622  14.325 -0.3898  0.2959  0.9346
 3471SOL    HW122046   0.687   2.626  14.419  1.2423  0.7122  0.5996
 3471SOL    HW222047   0.664   2.528  14.304  1.0322  0.5876 -0.7291
 3472SOL     OW22048   1.821   3.385  15.489 -0.2078 -0.1235 -0.1653
 3472SOL    HW122049   1.884   3.423  15.550 -0.3212  1.4785 -1.0507
 3472SOL    HW222050   1.737   3.419  15.520 -0.3278 -0.1026 -0.5145
 3473SOL     OW22051   1.716   1.138   2.721 -0.1811  0.0568  0.1290
 3473SOL    HW122052   1.641   1.120   2.665  0.4967  1.0368 -1.0753
 3473SOL    HW222053   1.726   1.055   2.769  1.5383  1.7783  2.7513
 3474SOL     OW22054   4.594   2.986   7.314  0.2604 -0.2756 -0.4311
 3474SOL    HW122055   4.651   2.995   7.390 -2.8447 -1.1239  2.0195
 3474SOL    HW222056   4.642   3.054   7.268 -1.3425  0.2059 -1.4063
 3475SOL     OW22057   3.718   1.952  11.347  0.4715  0.0449 -0.0323
 3475SOL    HW122058   3.626   1.976  11.335 -0.2536 -3.6629 -1.9335
 3475SOL    HW222059   3.756   2.028  11.391 -0.9337  1.4914 -1.3355
 3476SOL     OW22060   2.122   0.586  17.109  0.7184  0.8090 -0.3788
 3476SOL    HW122061   2.031   0.574  17.085  0.8786  0.1459 -0.6500
 3476SOL    HW222062   2.151   0.499  17.137  0.3670  0.2465 -1.7938
 3477SOL     OW22063   1.353   2.954  15.766  0.4861  0.1445  0.4567
 3477SOL    HW122064   1.375   2.980  15.677 -1.8499  2.8959  0.6920
 3477SOL    HW222065   1.401   3.019  15.818  1.0799  0.2834 -0.2681
 3478SOL     OW22066   1.125   1.994   8.400 -0.5969 -0.1719 -0.2566
 3478SOL    HW122067   1.152   1.905   8.420  0.7093  0.2365 -0.1983
 3478SOL    HW222068   1.162   2.039   8.476  0.2069 -1.4462  0.1112
 3479SOL     OW22069   1.053   1.065   4.369 -0.6966 -0.0741  0.2023
 3479SOL    HW122070   0.970   1.029   4.341 -0.1659 -0.5308 -0.7671
 3479SOL    HW222071   1.012   1.115   4.440 -0.4052  0.5889 -0.0865
 3480SOL     OW22072   0.253   0.343   3.722  0.2254  0.4096 -0.1669
 3480SOL    HW122073   0.326   0.373   3.776  0.4924 -1.1957  0.3725
 3480SOL    HW222074   0.303   0.289   3.661  0.4790  0.1987  0.2247
 3481SOL     OW22075   0.604   3.825   5.136 -0.2491  0.2427  0.5612
 3481SOL    HW122076   0.671   3.783   5.190  0.6245  2.7293  1.4289
 3481SOL    HW222077   0.662   3.874   5.078 -1.8294  0.0176 -1.1955
 3482SOL     OW22078   4.027   3.063   2.411  0.2859  0.3148 -0.1600
 3482SOL    HW122079   4.057   3.045   2.500  0.6650  2.6496  0.1897
 3482SOL    HW222080   3.955   3.125   2.427 -0.1895  0.3599 -2.4950
 3483SOL     OW22081   2.261   1.220  15.910 -0.2692 -0.5766 -0.2738
 3483SOL    HW122082   2.180   1.211  15.960 -0.4238  0.5684 -0.3197
 3483SOL    HW222083   2.255   1.299  15.856  1.4603 -0.4163 -0.2195
 3484SOL     OW22084   4.503   0.727   2.405  0.2328  0.3648  0.3899
 3484SOL    HW122085   4.535   0.740   2.494  1.7851  0.9086 -0.2516
 3484SOL    HW222086   4.419   0.774   2.404 -0.2672 -0.5948 -3.3809
 3485SOL     OW22087   1.952   3.697  12.705  0.0205 -0.6514  0.3674
 3485SOL    HW122088   1.977   3.625  12.763 -2.0105 -1.4581  0.2513
 3485SOL    HW222089   1.934   3.648  12.624  2.7404 -1.9402  0.5477
 3486SOL     OW22090   0.528   0.386   3.932  0.2759 -0.6932  0.2096
 3486SOL    HW122091   0.616   0.351   3.917  0.3895 -0.6328  0.7038
 3486SOL    HW222092   0.531   0.452   3.863  0.1142  1.9599  2.7305
 3487SOL     OW22093   0.712   2.149   6.698 -0.0036  0.0819 -0.6975
 3487SOL    HW122094   0.743   2.127   6.610 -0.0132 -2.1477 -0.1588
 3487SOL    HW222095   0.679   2.061   6.716 -2.6823  1.4014  0.8105
 3488SOL     OW22096   3.315   1.754   4.725  0.0654  0.3696  0.4995
 3488SOL    HW122097   3.378   1.703   4.775 -0.1434 -0.3907 -0.0019
 3488SOL    HW222098   3.381   1.787   4.664 -1.1986 -2.4503 -2.4229
 3489SOL     OW22099   2.732   1.834   9.182  0.1865 -0.3838  0.3928
 3489SOL    HW122100   2.808   1.888   9.162  1.9562 -2.1914  2.2420
 3489SOL    HW222101   2.663   1.870   9.127 -0.8893  0.7972  2.5355
 3490SOL     OW22102   3.320   0.965   9.081  0.2590 -0.5507  0.9582
 3490SOL    HW122103   3.329   0.905   9.155  0.6601 -1.9268 -0.2028
 3490SOL    HW222104   3.279   1.041   9.123  3.0268  0.9958  0.8793
 3491SOL     OW22105   1.992   0.832   0.320 -0.2742  0.6304  0.9193
 3491SOL    HW122106   2.048   0.762   0.353 -0.3218  1.1154  2.0401
 3491SOL    HW222107   1.955   0.795   0.240  0.9643  0.2074  0.5526
 3492SOL     OW22108   0.977   2.455  11.321 -0.2225  0.0370 -0.3710
 3492SOL    HW122109   0.931   2.372  11.337  0.5391 -0.4798 -0.8264
 3492SOL    HW222110   0.914   2.506  11.270 -0.6667  0.0258  0.1705
 3493SOL     OW22111   2.420   1.136   0.203  0.0587 -0.4250 -0.1378
 3493SOL    HW122112   2.510   1.167   0.217  0.4840 -1.1175 -1.4002
 3493SOL    HW222113   2.367   1.214   0.222  2.1371  1.0246 -0.2095
 3494SOL     OW22114   4.377   3.731   4.989 -0.0056  0.0720  0.5400
 3494SOL    HW122115   4.467   3.698   4.987  0.5574  1.4774  2.2993
 3494SOL    HW222116   4.326   3.665   5.036  1.1115 -1.4604 -0.4072
 3495SOL     OW22117   3.316   1.589   3.124 -0.2890 -0.0450 -0.2152
 3495SOL    HW122118   3.277   1.604   3.038 -1.3386 -1.1418  0.0691
 3495SOL    HW222119   3.383   1.656   3.140  1.0157 -1.8831  1.9690
 3496SOL     OW22120   1.783   3.679   6.880 -0.5070 -0.1801  0.0317
 3496SOL    HW122121   1.690   3.656   6.888 -1.0231  1.4812 -1.1450
 3496SOL    HW222122   1.807   3.634   6.798  0.3419 -0.2072  0.3003
 3497SOL     OW22123   3.600   0.876   4.979 -0.3741  0.5912  0.2879
 3497SOL    HW122124   3.678   0.883   4.924  0.2936 -1.0649  1.0401
 3497SOL    HW222125   3.618   0.920   5.063 -1.3572  0.5482  0.5211
 3498SOL     OW22126   0.485   2.409   6.150 -0.0016  0.3571 -0.1956
 3498SOL    HW122127   0.471   2.363   6.067 -2.6863 -0.3898  0.6774
 3498SOL    HW222128   0.496   2.501   6.126 -0.3682 -0.4349 -3.3960
 3499SOL     OW22129   3.827   1.073   3.984 -0.0697 -0.5239 -0.2346
 3499SOL    HW122130   3.741   1.031   3.985 -0.2377 -0.1786 -0.4100
 3499SOL    HW222131   3.849   1.060   4.076  2.0432 -1.1012 -0.8139
 3500SOL     OW22132   3.354   3.809  15.556 -0.2398  0.5497 -0.2217
 3500SOL    HW122133   3.297   3.867  15.607  0.8756  0.3824  1.2094
 3500SOL    HW222134   3.351   3.850  15.469 -0.1606  1.3178  0.1391
 3501SOL     OW22135   2.796   2.627   6.995  0.0343 -0.8769 -0.1373
 3501SOL    HW122136   2.884   2.658   7.013 -0.5583  0.5631  0.2464
 3501SOL    HW222137   2.813   2.564   6.924  2.8256  0.3248 -0.5314
 3502SOL     OW22138   4.563   2.092   1.225  0.1416  0.7188  0.0892
 3502SOL    HW122139   4.584   2.072   1.316 -0.3125 -2.5034 -0.4870
 3502SOL    HW222140   4.469   2.093   1.244 -0.5383  0.5966 -3.1934
 3503SOL     OW22141   0.838   1.066   4.553  0.3877  0.1418 -0.5045
 3503SOL    HW122142   0.759   1.112   4.579  1.6573  2.0652 -0.0124
 3503SOL    HW222143   0.798   0.983   4.526  1.2057 -0.1479 -0.8335
 3504SOL     OW22144   2.265   3.616   3.161  0.2076  0.4826 -0.9184
 3504SOL    HW122145   2.254   3.566   3.242  2.0835  1.2418 -0.2024
 3504SOL    HW222146   2.194   3.677   3.181 -0.8207 -0.5310 -1.4809
 3505SOL     OW22147   3.978   2.587   8.311 -0.1409 -0.8297  0.0670
 3505SOL    HW122148   3.995   2.519   8.377  0.1642  1.1958  2.0597
 3505SOL    HW222149   3.908   2.548   8.260  0.4974 -0.3764 -1.1583
 3506SOL     OW22150   3.020   1.694   8.849 -0.2655  0.2922 -0.0510
 3506SOL    HW122151   3.048   1.706   8.940 -1.1386  0.7303  0.1619
 3506SOL    HW222152   3.099   1.645   8.826 -1.2802 -1.0500 -0.7487
 3507SOL     OW22153   3.499   0.873   4.628 -0.0095  0.2644 -0.2900
 3507SOL    HW122154   3.459   0.827   4.702 -0.0121 -2.0320 -1.7278
 3507SOL    HW222155   3.417   0.897   4.585 -0.9600 -1.3545  0.6173
 3508SOL     OW22156   2.204   4.210   8.370  0.5325 -0.0410  0.2998
 3508SOL    HW122157   2.203   4.306   8.376 -1.5370 -0.0307 -0.2683
 3508SOL    HW222158   2.115   4.199   8.403  0.3520 -1.3509 -0.6102
 3509SOL     OW22159   3.302   1.497  10.462 -0.2485 -0.5211  0.6664
 3509SOL    HW122160   3.231   1.533  10.515 -0.8384 -2.2175  1.0045
 3509SOL    HW222161   3.247   1.464  10.391  1.4141 -0.2414 -0.7673
 3510SOL     OW22162   3.098   4.602   6.224 -0.5420 -0.6051  0.7454
 3510SOL    HW122163   3.186   4.565   6.233 -0.3986 -0.9463 -2.0617
 3510SOL    HW222164   3.121   4.666   6.291  0.4300  1.4848 -1.6158
 3511SOL     OW22165   3.800   1.740   2.259  0.6321  0.2166  0.0181
 3511SOL    HW122166   3.831   1.649   2.252  3.2507  1.2004 -1.0244
 3511SOL    HW222167   3.803   1.769   2.168 -2.2257  1.8029  0.4318
 3512SOL     OW22168   0.109   0.164   4.442  0.2167  0.2844 -0.1198
 3512SOL    HW122169   0.152   0.140   4.525 -0.4442  0.5484  0.3033
 3512SOL    HW222170   0.123   0.259   4.444  0.0043  0.2830  1.4995
 3513SOL     OW22171   4.527   1.294   1.670  0.3567  0.2188 -0.2581
 3513SOL    HW122172   4.587   1.317   1.741  0.2487  1.0586 -0.4389
 3513SOL    HW222173   4.584   1.312   1.595  0.9735 -2.3550 -0.3945
 3514SOL     OW22174   4.388   1.113   3.879  0.2399  0.1142  0.0236
 3514SOL    HW122175   4.406   1.088   3.788  4.0516 -1.3229  1.1847
 3514SOL    HW222176   4.476   1.137   3.909  0.8092  0.0094 -1.5219
 3515SOL     OW22177   4.417   4.475   7.927 -0.6684 -0.2937  0.0584
 3515SOL    HW122178   4.430   4.393   7.975 -0.3573 -0.3706 -0.1595
 3515SOL    HW222179   4.365   4.523   7.992 -1.4309 -0.6269 -0.3056
 3516SOL     OW22180   4.087   1.186   4.179 -0.0512 -0.1816 -0.0337
 3516SOL    HW122181   4.100   1.221   4.091 -1.8394 -1.0442 -0.6390
 3516SOL    HW222182   4.174   1.196   4.219  0.1573 -3.5170  0.3244
 3517SOL     OW22183   1.085   0.148  17.610 -0.8138  0.1190 -0.9589
 3517SOL    HW122184   1.065   0.177  17.699 -0.4418  0.3713 -0.9552
 3517SOL    HW222185   1.063   0.231  17.567  1.7301  0.7929 -0.9400
 3518SOL     OW22186   1.961   3.081   2.960 -0.4751  0.2308 -0.3940
 3518SOL    HW122187   2.028   3.114   2.900  0.4805 -0.8480  0.0681
 3518SOL    HW222188   1.946   2.998   2.914 -1.1327 -0.9968  2.0632
 3519SOL     OW22189   1.629   4.152   8.432  0.3387  0.2873 -0.6314
 3519SOL    HW122190   1.597   4.100   8.505  0.4888  0.7998 -0.1983
 3519SOL    HW222191   1.678   4.089   8.379 -1.7446 -0.7389 -1.3386
 3520SOL     OW22192   4.509   3.148   3.211 -0.0546  0.0774 -0.2737
 3520SOL    HW122193   4.565   3.224   3.198 -0.6295  0.3678 -1.0433
 3520SOL    HW222194   4.516   3.111   3.123  0.6117  0.0281 -0.1961
 3521SOL     OW22195   1.280   1.638   6.795 -0.2511  0.3571  0.2908
 3521SOL    HW122196   1.362   1.588   6.797 -1.2019 -1.1804  1.1351
 3521SOL    HW222197   1.260   1.648   6.888 -1.8724  1.8295 -0.1991
 3522SOL     OW22198   2.718   2.851   7.138  0.1607  0.1864  0.1452
 3522SOL    HW122199   2.745   2.812   7.222 -0.8339  1.4726  1.0669
 3522SOL    HW222200   2.778   2.799   7.084 -1.0895 -0.5288 -0.5445
 3523SOL     OW22201   4.312   0.509   0.618 -0.2906 -0.0295  0.0206
 3523SOL    HW122202   4.223   0.507   0.582 -0.0476 -2.5787 -0.4048
 3523SOL    HW222203   4.295   0.464   0.700 -0.2549  1.6932  0.9740
 3524SOL     OW22204   0.291   2.809  12.291 -0.1281 -0.1475 -0.1011
 3524SOL    HW122205   0.218   2.809  12.354 -1.4880  1.8609 -1.6608
 3524SOL    HW222206   0.245   2.780  12.212 -1.8101 -0.2948  0.9315
 3525SOL     OW22207   1.938   0.981   1.708  0.1767 -0.1443 -0.0791
 3525SOL    HW122208   1.977   1.066   1.730  1.9323 -1.6493  2.5859
 3525SOL    HW222209   2.012   0.945   1.658  0.1579 -1.3255  0.7439
 3526SOL     OW22210   2.786   2.184   4.602 -0.2774 -0.5342 -0.4940
 3526SOL    HW122211   2.827   2.100   4.619 -0.3585 -1.0062 -2.5718
 3526SOL    HW222212   2.851   2.244   4.637 -0.1770  0.0120 -1.6121
 3527SOL     OW22213   2.865   2.297   0.198  0.1025 -0.5325  0.1444
 3527SOL    HW122214   2.813   2.377   0.206 -0.9995 -1.0869 -1.5397
 3527SOL    HW222215   2.879   2.309   0.104 -2.0669  0.8756 -0.0092
 3528SOL     OW22216   3.396   3.324   7.173 -0.0616  0.2133  0.3793
 3528SOL    HW122217   3.354   3.410   7.179 -0.8420 -0.0184 -1.8198
 3528SOL    HW222218   3.488   3.350   7.168  0.3280 -1.4880 -1.5487
 3529SOL     OW22219   0.242   4.143   7.569  0.2358 -0.1602 -0.0893
 3529SOL    HW122220   0.277   4.222   7.527  0.1111  0.8132  1.5949
 3529SOL    HW222221   0.153   4.177   7.570  0.2422 -0.2319  2.3769
 3530SOL     OW22222   3.257   0.780  15.542 -0.2467 -0.1363 -0.0763
 3530SOL    HW122223   3.169   0.803  15.574 -0.2977 -0.7851  0.2647
 3530SOL    HW222224   3.255   0.691  15.577 -0.3188 -0.1211 -0.0411
 3531SOL     OW22225   3.213   2.890   4.846 -0.0227 -0.0336  0.3097
 3531SOL    HW122226   3.258   2.805   4.849 -0.8087 -0.4265  0.9593
 3531SOL    HW222227   3.221   2.921   4.936 -0.3835  0.6628  0.0964
 3532SOL     OW22228   3.598   0.553   8.832 -0.5542  0.1077 -0.2969
 3532SOL    HW122229   3.507   0.580   8.823 -0.5514 -0.2365 -1.3171
 3532SOL    HW222230   3.612   0.575   8.924  0.0751 -0.8478 -0.1724
 3533SOL     OW22231   3.808   2.807   8.708 -0.3703  0.6678  0.1230
 3533SOL    HW122232   3.846   2.748   8.643 -1.9005  1.5180 -1.5405
 3533SOL    HW222233   3.869   2.878   8.687  0.5849 -0.4893 -1.0274
 3534SOL     OW22234   1.051   3.241  13.775 -0.2895  0.5902 -0.5126
 3534SOL    HW122235   1.137   3.198  13.779 -0.2974  0.7443  1.2449
 3534SOL    HW222236   0.998   3.189  13.714  2.9858 -2.1113 -1.0944
 3535SOL     OW22237   4.166   0.337   3.512 -0.0998  0.1960 -0.7316
 3535SOL    HW122238   4.118   0.305   3.589  2.3441 -0.6780  0.4146
 3535SOL    HW222239   4.152   0.260   3.457 -1.1218 -0.1924  0.0609
 3536SOL     OW22240   2.061   0.625   2.908 -0.3866 -0.0004  0.4484
 3536SOL    HW122241   2.112   0.568   2.851 -0.2893  0.6687 -0.1404
 3536SOL    HW222242   2.122   0.672   2.964  1.2989  0.2056 -1.5640
 3537SOL     OW22243   2.029   4.713   4.147  0.4813  0.1013  0.0290
 3537SOL    HW122244   1.957   4.721   4.085  0.4053  1.9161  0.3619
 3537SOL    HW222245   1.991   4.673   4.226 -1.7703  2.0883 -0.0569
 3538SOL     OW22246   0.243   2.668   9.632 -0.0766 -0.0135 -0.2583
 3538SOL    HW122247   0.314   2.614   9.665  1.8922  2.0310 -1.1475
 3538SOL    HW222248   0.229   2.733   9.701  1.1074  2.4031 -2.2549
 3539SOL     OW22249   2.995   3.256   5.518 -0.0850  0.3503 -0.5041
 3539SOL    HW122250   2.989   3.351   5.520 -1.2025  0.3191 -2.2713
 3539SOL    HW222251   3.014   3.244   5.425  1.8815 -0.0560 -0.0599
 3540SOL     OW22252   3.797   4.231   7.415 -0.5293 -0.5844  0.2635
 3540SOL    HW122253   3.788   4.258   7.506  1.0207 -0.6728  0.4442
 3540SOL    HW222254   3.732   4.160   7.417 -0.6274 -0.5272 -0.6671
 3541SOL     OW22255   1.726   2.995   3.500  0.0772 -0.2024 -0.0680
 3541SOL    HW122256   1.678   2.993   3.417 -1.4094 -0.0851  0.7778
 3541SOL    HW222257   1.652   3.019   3.557  0.1497  1.2214 -0.5801
 3542SOL     OW22258   4.093   4.421   5.311  0.3972 -0.1198 -0.2881
 3542SOL    HW122259   4.041   4.362   5.256  0.1819  0.3624 -0.6040
 3542SOL    HW222260   4.115   4.493   5.251  1.6883 -0.0231  0.3266
 3543SOL     OW22261   0.681   0.995   1.344 -0.2099  0.0534  0.3519
 3543SOL    HW122262   0.648   0.911   1.378  0.0137 -0.3947 -0.5313
 3543SOL    HW222263   0.736   0.957   1.275 -0.4375  0.9543 -0.3231
 3544SOL     OW22264   2.293   2.018  12.205  0.0437  0.1258 -0.2656
 3544SOL    HW122265   2.285   2.069  12.286 -1.4206 -0.2495 -0.1803
 3544SOL    HW222266   2.350   2.084  12.166  1.2571 -1.2371 -0.7901
 3545SOL     OW22267   3.814   4.280   0.584 -0.6508 -0.0425  0.0744
 3545SOL    HW122268   3.749   4.350   0.571 -1.0937 -0.1259  1.8485
 3545SOL    HW222269   3.874   4.318   0.648  0.9615 -0.1613 -1.3485
 3546SOL     OW22270   0.344   0.507   0.934  0.1415 -0.0040 -0.0325
 3546SOL    HW122271   0.387   0.441   0.988 -1.2957 -1.4101 -0.6053
 3546SOL    HW222272   0.252   0.490   0.953 -0.0040  3.1573  1.9809
 3547SOL     OW22273   3.091   4.279   5.130 -0.3249 -0.4745  0.3287
 3547SOL    HW122274   3.184   4.261   5.137 -0.1965  0.3696  0.8085
 3547SOL    HW222275   3.083   4.346   5.198  1.2900 -0.5960  0.6327
 3548SOL     OW22276   2.150   0.924   3.751  0.3428 -0.4199 -0.5173
 3548SOL    HW122277   2.163   0.999   3.694  0.9186 -0.1305 -0.0110
 3548SOL    HW222278   2.124   0.957   3.837 -0.2000 -0.0118 -0.8425
 3549SOL     OW22279   4.203   1.536   8.907 -0.0253 -0.2101  0.0694
 3549SOL    HW122280   4.225   1.610   8.850 -1.6149 -2.0298 -2.9253
 3549SOL    HW222281   4.122   1.570   8.945  1.9682  0.9872  3.2454
 3550SOL     OW22282   3.282   0.152   8.679 -0.3359 -0.2235 -0.0555
 3550SOL    HW122283   3.349   0.135   8.614 -0.4724 -2.1373  0.3175
 3550SOL    HW222284   3.265   0.246   8.683 -0.2215 -0.1947 -0.2670
 3551SOL     OW22285   3.937   2.013   7.200  0.5350  0.4071  0.0192
 3551SOL    HW122286   3.914   2.088   7.255  2.4709  0.1087  1.2606
 3551SOL    HW222287   4.015   2.043   7.154  0.9994  2.1819  1.9447
 3552SOL     OW22288   4.211   3.995   4.516 -0.7758 -0.0739 -0.2044
 3552SOL    HW122289   4.213   4.049   4.595 -0.0966 -0.4925  0.0680
 3552SOL    HW222290   4.281   3.933   4.536  0.1830  1.6953  1.9277
 3553SOL     OW22291   2.764   0.604  10.702  0.0229 -0.2537  0.2355
 3553SOL    HW122292   2.756   0.558  10.786  0.8528 -2.5703 -0.9457
 3553SOL    HW222293   2.714   0.677  10.738 -0.9523 -1.6001  1.6525
 3554SOL     OW22294   1.085   3.812   8.077 -0.0755 -0.6709 -0.4753
 3554SOL    HW122295   1.175   3.841   8.092  0.3080 -1.1990 -1.6751
 3554SOL    HW222296   1.086   3.797   7.982  0.9067  1.3233 -0.7809
 3555SOL     OW22297   1.748   4.170  11.764 -0.3064 -0.1142 -0.1814
 3555SOL    HW122298   1.823   4.113  11.782 -0.6750 -0.9607 -1.3797
 3555SOL    HW222299   1.779   4.260  11.773  1.0958 -0.5748 -0.4705
 3556SOL     OW22300   1.014   1.262   0.911 -0.6693 -0.0616  0.2764
 3556SOL    HW122301   0.968   1.182   0.938 -0.1925 -0.6928 -0.7955
 3556SOL    HW222302   0.947   1.305   0.857 -0.9536 -1.4854 -0.5243
 3557SOL     OW22303   1.404   4.474  11.770 -0.0900 -0.0272 -0.2869
 3557SOL    HW122304   1.392   4.418  11.846  1.4853 -1.0190 -0.7830
 3557SOL    HW222305   1.318   4.518  11.775 -0.3271 -0.3227 -1.7250
 3558SOL     OW22306   0.735   1.251   0.731 -0.3803  0.0842 -0.4039
 3558SOL    HW122307   0.743   1.217   0.641  1.4572  0.1887 -0.2850
 3558SOL    HW222308   0.735   1.168   0.777  0.2778 -0.9097 -2.1710
 3559SOL     OW22309   1.213   2.286   4.521 -0.2217  0.0846  0.4321
 3559SOL    HW122310   1.286   2.312   4.465 -2.6249 -0.0514 -2.7868
 3559SOL    HW222311   1.209   2.195   4.490  1.2081 -0.1517  0.9456
 3560SOL     OW22312   4.487   2.405   9.008 -0.8183 -0.2536  0.0578
 3560SOL    HW122313   4.484   2.493   9.045 -0.8190 -1.4388  2.8440
 3560SOL    HW222314   4.395   2.381   9.014 -1.0173  0.1865 -1.1510
 3561SOL     OW22315   2.030   3.590   2.422 -0.1217 -0.2762  0.1949
 3561SOL    HW122316   2.122   3.613   2.406 -0.6725  2.6836  1.3730
 3561SOL    HW222317   2.034   3.569   2.515 -0.9650 -2.9042 -0.3630
 3562SOL     OW22318   0.810   4.348   6.678  0.4221 -0.3997  0.2634
 3562SOL    HW122319   0.858   4.430   6.694  0.0548  0.2450 -1.8722
 3562SOL    HW222320   0.863   4.281   6.720 -2.2678 -1.5462  1.8567
 3563SOL     OW22321   3.629   4.453   5.919  0.4502 -0.8386  0.0166
 3563SOL    HW122322   3.714   4.495   5.934  0.2818 -0.5756  0.2571
 3563SOL    HW222323   3.622   4.385   5.986 -0.1783  0.8623  1.6906
 3564SOL     OW22324   0.426   3.568   0.908  0.0959  0.7558 -0.1770
 3564SOL    HW122325   0.413   3.474   0.902 -0.7453  0.7868  1.0403
 3564SOL    HW222326   0.383   3.598   0.988 -0.7476  0.6732 -0.5996
 3565SOL     OW22327   1.831   2.322   9.455 -0.1681 -0.2300 -0.0889
 3565SOL    HW122328   1.892   2.251   9.435  1.0302  0.6723  0.3881
 3565SOL    HW222329   1.786   2.284   9.530  0.3561 -0.1980  0.2402
 3566SOL     OW22330   3.661   0.950  10.647 -0.1317  0.2405 -0.2105
 3566SOL    HW122331   3.604   0.898  10.590 -0.7046  1.8830 -1.1382
 3566SOL    HW222332   3.638   0.911  10.731  3.2690 -2.4051 -0.4737
 3567SOL     OW22333   4.425   1.756   4.715 -0.1370 -0.3437  0.7570
 3567SOL    HW122334   4.489   1.759   4.787  0.2733  3.1745  0.2506
 3567SOL    HW222335   4.390   1.844   4.727  0.3886  0.0354 -0.5086
 3568SOL     OW22336   4.289   0.168   9.180 -0.2849  0.1324 -0.1899
 3568SOL    HW122337   4.287   0.263   9.187 -1.0340  0.0767  0.3398
 3568SOL    HW222338   4.241   0.163   9.098 -1.6287  0.4396  0.5883
 3569SOL     OW22339   4.040   3.790   4.659  0.1382 -0.1570 -0.1505
 3569SOL    HW122340   4.107   3.723   4.647  0.6334  0.1939  0.6166
 3569SOL    HW222341   4.088   3.844   4.722  0.0836 -1.5801  1.1110
 3570SOL     OW22342   1.695   0.106   5.414 -0.0245  0.3280 -0.6101
 3570SOL    HW122343   1.614   0.064   5.385 -0.3634  0.1611  0.6089
 3570SOL    HW222344   1.694   0.190   5.367  0.3227  1.2300  1.0131
 3571SOL     OW22345   4.220   4.347   7.408 -0.3473  0.0879 -1.0795
 3571SOL    HW122346   4.173   4.400   7.343  1.7032 -0.4199 -2.9633
 3571SOL    HW222347   4.166   4.371   7.483  1.1335 -3.0265  0.9324
 3572SOL     OW22348   1.989   0.882   0.779 -0.4833  0.0441  0.6425
 3572SOL    HW122349   1.915   0.923   0.825 -0.6901  1.2877 -0.7816
 3572SOL    HW222350   1.970   0.926   0.695  0.8044 -0.1155  0.2794
 3573SOL     OW22351   1.722   4.196  10.664 -0.3599  0.0404  0.2675
 3573SOL    HW122352   1.782   4.264  10.695 -2.1084  0.9916  1.5015
 3573SOL    HW222353   1.775   4.128  10.622 -0.2868  0.6565 -0.6417
 3574SOL     OW22354   1.844   1.146   8.749  0.0498  0.2307  0.0060
 3574SOL    HW122355   1.764   1.162   8.699 -0.3390  0.7388  0.7689
 3574SOL    HW222356   1.809   1.123   8.836  1.3082 -1.5469  0.0332
 3575SOL     OW22357   0.186   0.250   0.604  0.7169  0.0715 -0.1209
 3575SOL    HW122358   0.176   0.223   0.513 -0.9384 -0.9651  0.3704
 3575SOL    HW222359   0.231   0.335   0.600  2.3328 -0.7260  0.6859
 3576SOL     OW22360   4.113   3.143   5.697 -0.0040 -0.4324  0.0311
 3576SOL    HW122361   4.087   3.051   5.699 -1.2496 -0.1328 -2.2727
 3576SOL    HW222362   4.097   3.168   5.606  0.3216  0.3311  0.1811
 3577SOL     OW22363   4.438   4.347   2.281  0.0927  0.2492  0.1504
 3577SOL    HW122364   4.405   4.280   2.222  2.5248  0.6136 -1.6109
 3577SOL    HW222365   4.525   4.308   2.291  0.7200  1.5753 -0.1926
 3578SOL     OW22366   1.350   2.476  16.856  0.2269  0.2447 -0.3888
 3578SOL    HW122367   1.402   2.397  16.874  1.0078  0.4703 -1.6490
 3578SOL    HW222368   1.283   2.486  16.923  2.1498  3.6920  0.9856
 3579SOL     OW22369   4.477   3.002   8.988  0.1018 -0.3899 -0.2344
 3579SOL    HW122370   4.554   3.048   8.955 -2.1321  3.6350  0.1186
 3579SOL    HW222371   4.402   3.043   8.945  0.7079 -1.9323 -2.7698
 3580SOL     OW22372   3.838   0.663  13.928 -0.0615 -0.1737 -0.2006
 3580SOL    HW122373   3.902   0.726  13.961 -1.1485  0.3616  0.8472
 3580SOL    HW222374   3.773   0.709  13.980  0.5153  1.7609 -1.1812
 3581SOL     OW22375   1.628   2.538  13.921  0.7401  0.0194  0.0415
 3581SOL    HW122376   1.634   2.476  13.849  4.0033  0.5746 -0.1771
 3581SOL    HW222377   1.672   2.609  13.874 -0.7917  2.2912  2.0280
 3582SOL     OW22378   3.065   2.050   9.464  0.5440 -0.0545 -0.1315
 3582SOL    HW122379   3.056   2.036   9.369  0.5912  0.6822 -0.2457
 3582SOL    HW222380   2.996   1.995   9.500 -0.2861  0.6596 -0.6412
 3583SOL     OW22381   0.906   3.396   4.223  0.0224 -0.4359 -0.2323
 3583SOL    HW122382   0.817   3.405   4.258  1.0421  0.0423  2.2542
 3583SOL    HW222383   0.922   3.486   4.194 -0.5926 -0.3961 -0.4493
 3584SOL     OW22384   4.035   0.287   8.633 -0.0241 -0.0024  0.3479
 3584SOL    HW122385   4.118   0.332   8.648 -1.7940  3.4489 -0.2465
 3584SOL    HW222386   4.017   0.325   8.548  0.0908  1.4077  0.9609
 3585SOL     OW22387   1.952   0.938   2.970  0.0764 -0.3893 -0.1929
 3585SOL    HW122388   2.009   0.938   3.046 -0.0208 -0.8218 -0.1216
 3585SOL    HW222389   2.023   0.906   2.915  0.0295  0.4911 -0.7695
 3586SOL     OW22390   3.758   3.050   7.897 -0.0241 -0.0419  0.2654
 3586SOL    HW122391   3.798   2.980   7.846  1.2087  1.4789 -0.8382
 3586SOL    HW222392   3.668   3.017   7.896 -0.1453  0.1761  2.9108
 3587SOL     OW22393   1.066   3.682   8.504  0.1638  0.0192  0.3302
 3587SOL    HW122394   1.115   3.694   8.585  0.8135  1.5756 -0.2892
 3587SOL    HW222395   0.980   3.654   8.535  0.4005 -2.7795 -1.5911
 3588SOL     OW22396   1.993   2.630   2.328  0.1525 -0.0643  0.3128
 3588SOL    HW122397   2.075   2.593   2.297  0.4739  1.3270 -0.4852
 3588SOL    HW222398   1.960   2.669   2.247 -1.3055 -0.9086  0.4910
 3589SOL     OW22399   3.185   3.985   7.420 -0.8820  0.0518  0.4471
 3589SOL    HW122400   3.126   3.919   7.457  0.5753 -0.1166  2.4396
 3589SOL    HW222401   3.167   3.977   7.327  1.0703 -2.0411  0.2524
 3590SOL     OW22402   3.389   0.578  10.156  0.0870 -0.2667  0.3451
 3590SOL    HW122403   3.330   0.533  10.095  0.7568 -1.0573  0.2880
 3590SOL    HW222404   3.420   0.637  10.087 -0.1601 -0.5095  0.0237
 3591SOL     OW22405   4.146   3.832   8.330 -0.1300 -0.6647  0.6846
 3591SOL    HW122406   4.236   3.854   8.306  0.0054 -1.4813  0.4643
 3591SOL    HW222407   4.156   3.820   8.424  2.6154 -0.1295  0.4753
 3592SOL     OW22408   1.658   4.064  14.978  0.5129 -0.3476  0.2221
 3592SOL    HW122409   1.571   4.100  14.994  0.1545  0.2920 -2.9967
 3592SOL    HW222410   1.627   3.986  14.932 -0.4202 -0.1997  0.5972
 3593SOL     OW22411   1.796   1.472   3.300 -0.1415 -0.0591  0.0782
 3593SOL    HW122412   1.875   1.490   3.351 -0.4244  0.4951  0.3234
 3593SOL    HW222413   1.739   1.540   3.336  0.2119  0.5759 -0.5493
 3594SOL     OW22414   1.807   1.916   0.792  0.2191 -0.3221 -0.5173
 3594SOL    HW122415   1.752   1.993   0.775  3.0036  1.6807 -0.5048
 3594SOL    HW222416   1.882   1.963   0.830 -0.5538  0.7073 -0.2522
 3595SOL     OW22417   2.001   4.564  13.234 -0.5245  0.2464  0.3818
 3595SOL    HW122418   2.021   4.622  13.307 -1.3671 -0.2131  0.9793
 3595SOL    HW222419   2.073   4.597  13.181 -0.1122  1.7828  1.9361
 3596SOL     OW22420   4.298   3.196   2.824  0.7025 -0.5164 -0.2915
 3596SOL    HW122421   4.321   3.268   2.882  1.6965 -0.0575 -1.2314
 3596SOL    HW222422   4.206   3.214   2.806  0.9318 -0.9781 -1.9416
 3597SOL     OW22423   4.592   1.496   3.567 -0.7869  0.4966  0.4910
 3597SOL    HW122424   4.637   1.564   3.618 -0.5600  1.7166 -1.3181
 3597SOL    HW222425   4.547   1.544   3.497 -0.3597  0.4213  0.1592
 3598SOL     OW22426   3.926   0.092   7.866  0.3523 -0.9331  0.1252
 3598SOL    HW122427   3.970   0.131   7.941 -1.2903 -0.1019  0.6391
 3598SOL    HW222428   3.980   0.014   7.852 -0.8300 -1.4666 -1.4363
 3599SOL     OW22429   2.280   4.174  12.577  0.1754  0.0337  0.3389
 3599SOL    HW122430   2.260   4.081  12.577 -0.7672  0.2318  0.3547
 3599SOL    HW222431   2.355   4.167  12.519 -2.1033 -0.0541 -2.5891
 3600SOL     OW22432   0.906   3.744   1.908 -0.2102 -0.9996 -0.4361
 3600SOL    HW122433   0.951   3.744   1.823  0.3816  1.3152 -0.1199
 3600SOL    HW222434   0.978   3.738   1.971  0.2334 -0.8735 -0.9217
 3601SOL     OW22435   4.222   1.451  14.816  0.6753  0.8712  0.2943
 3601SOL    HW122436   4.248   1.462  14.724 -0.8340  0.0115 -0.2264
 3601SOL    HW222437   4.282   1.509  14.863  2.3457  0.9817 -1.9454
 3602SOL     OW22438   0.386   2.371   5.560 -0.1551 -0.3440  0.4604
 3602SOL    HW122439   0.346   2.437   5.616 -1.9962  0.3534 -1.6820
 3602SOL    HW222440   0.448   2.420   5.505  0.5274 -0.1109  1.4319
 3603SOL     OW22441   3.993   4.007   5.223  0.8211 -0.0304 -0.2410
 3603SOL    HW122442   3.931   3.946   5.183 -0.1753  0.3473  0.6989
 3603SOL    HW222443   4.070   3.957   5.249  1.0733 -0.7192 -2.3646
 3604SOL     OW22444   2.752   0.368   7.137  0.3537  0.5348 -0.0940
 3604SOL    HW122445   2.717   0.433   7.076  1.6265  1.9182  0.6407
 3604SOL    HW222446   2.816   0.426   7.179  0.4258 -2.0229  3.3250
 3605SOL     OW22447   2.244   0.421   6.354 -0.1479 -0.4235  0.4340
 3605SOL    HW122448   2.235   0.360   6.282 -1.5001 -1.7810  1.7429
 3605SOL    HW222449   2.227   0.503   6.308  0.9581 -1.0410 -1.0601
 3606SOL     OW22450   2.745   3.695   6.068 -0.7142  0.0018 -0.1592
 3606SOL    HW122451   2.723   3.659   5.982 -0.0569 -3.6237  1.1677
 3606SOL    HW222452   2.740   3.787   6.040 -1.3494  0.0557  0.1365
 3607SOL     OW22453   0.145   1.967   1.696  0.0479 -0.3422 -0.1647
 3607SOL    HW122454   0.118   1.892   1.643 -1.2425 -0.9200  1.3325
 3607SOL    HW222455   0.200   2.027   1.646 -0.0702 -2.2475 -2.5905
 3608SOL     OW22456   1.778   2.315  10.186  0.3065  0.2071  0.8497
 3608SOL    HW122457   1.732   2.320  10.270  0.4428  0.0029  0.9384
 3608SOL    HW222458   1.845   2.384  10.187 -0.3698  0.8585  0.3372
 3609SOL     OW22459   3.108   3.432   3.597 -0.1103 -0.1221  0.4890
 3609SOL    HW122460   3.104   3.422   3.502 -1.0343 -1.5819  0.6820
 3609SOL    HW222461   3.040   3.369   3.622  0.7190 -1.0816  0.3538
 3610SOL     OW22462   1.384   4.498   9.812  0.5250  0.1393 -0.3835
 3610SOL    HW122463   1.431   4.573   9.848 -0.5048  0.7449 -0.3085
 3610SOL    HW222464   1.441   4.423   9.828 -0.5167 -0.5765 -0.0242
 3611SOL     OW22465   3.156   2.045   4.626  0.1438 -0.2414 -0.9826
 3611SOL    HW122466   3.216   2.008   4.560  0.7647 -0.9146 -0.0439
 3611SOL    HW222467   3.217   2.093   4.681  0.2484 -1.3559 -0.1176
 3612SOL     OW22468   0.092   1.377   0.632 -0.0498  0.3609 -0.3769
 3612SOL    HW122469   0.117   1.324   0.708  0.2057  2.2225  0.8322
 3612SOL    HW222470   0.060   1.451   0.683 -0.4587  0.8290 -1.3163
 3613SOL     OW22471   2.679   3.179   9.592  0.4055  0.3662  0.3250
 3613SOL    HW122472   2.729   3.128   9.655  0.6367 -1.9528 -1.7360
 3613SOL    HW222473   2.592   3.159   9.626 -0.8276  1.3075 -2.2800
 3614SOL     OW22474   4.240   1.755   2.335  0.5001 -0.1423  0.0294
 3614SOL    HW122475   4.304   1.709   2.389 -0.0165 -1.2886 -0.3356
 3614SOL    HW222476   4.180   1.683   2.315  0.6269 -0.0535 -0.6467
 3615SOL     OW22477   2.297   4.496   8.184  0.4514 -0.4830  0.2006
 3615SOL    HW122478   2.389   4.493   8.211  1.0647  1.2068 -1.7033
 3615SOL    HW222479   2.249   4.492   8.267  0.9126  2.2199  0.5738
 3616SOL     OW22480   1.964   3.269   0.625  0.0409 -0.9341  0.4141
 3616SOL    HW122481   2.009   3.342   0.666  2.1357 -2.9603  1.7247
 3616SOL    HW222482   1.947   3.214   0.702  3.0064 -0.6661  1.2509
 3617SOL     OW22483   2.039   1.925  14.110  0.3891 -0.1728  0.0584
 3617SOL    HW122484   1.978   1.916  14.183 -0.5817 -2.5229 -1.0209
 3617SOL    HW222485   2.000   2.000  14.065 -0.2845 -0.8276 -0.4463
 3618SOL     OW22486   2.198   0.917   1.319  0.4550  0.1257  0.8576
 3618SOL    HW122487   2.276   0.954   1.277 -0.9152  1.2059 -0.7142
 3618SOL    HW222488   2.146   0.884   1.245  0.7615  0.3196  0.5541
 3619SOL     OW22489   2.698   2.954   2.034  0.3460 -0.9736  0.3889
 3619SOL    HW122490   2.634   2.888   2.007  0.5217 -1.1801  0.4846
 3619SOL    HW222491   2.718   2.989   1.947  1.8497 -1.5220  0.5142
 3620SOL     OW22492   1.509   3.255  12.272  0.4876 -0.4052 -0.2210
 3620SOL    HW122493   1.535   3.169  12.305  3.8724  1.0844  0.9959
 3620SOL    HW222494   1.416   3.242  12.254 -0.1945  1.6542  1.7404
 3621SOL     OW22495   2.966   2.614   7.780  0.4132  0.2472 -0.0302
 3621SOL    HW122496   3.023   2.659   7.718  1.6514  0.6087  1.3716
 3621SOL    HW222497   2.879   2.626   7.742  0.1201 -0.3548  0.4509
 3622SOL     OW22498   4.105   1.763   0.750  0.0464 -0.1175 -0.4866
 3622SOL    HW122499   4.152   1.768   0.667  0.4203  2.1101 -0.1379
 3622SOL    HW222500   4.151   1.829   0.801  1.2497 -1.4178  0.1379
 3623SOL     OW22501   4.361   3.597  12.727 -0.2006  0.0366  0.1216
 3623SOL    HW122502   4.428   3.627  12.666 -0.2091 -0.7535 -0.2829
 3623SOL    HW222503   4.306   3.675  12.734  0.1728  0.2702  0.4420
 3624SOL     OW22504   3.778   2.325   9.242 -0.2043 -0.4358 -0.4029
 3624SOL    HW122505   3.823   2.240   9.239 -2.3265 -1.5793  0.7758
 3624SOL    HW222506   3.736   2.333   9.327  2.2168  1.3120  0.6348
 3625SOL     OW22507   4.154   3.953   0.450 -0.4986  0.2250 -0.1443
 3625SOL    HW122508   4.189   4.006   0.379  2.2122 -1.3640  0.0039
 3625SOL    HW222509   4.060   3.974   0.451 -0.4187  0.7834 -3.6221
 3626SOL     OW22510   1.255   1.309   2.095  0.4978  0.6101  0.3164
 3626SOL    HW122511   1.265   1.372   2.023  1.7953 -0.3859 -0.3818
 3626SOL    HW222512   1.161   1.297   2.107  0.4682  1.3727  0.9172
 3627SOL     OW22513   2.908   4.089  12.364  0.0501 -0.3687 -0.2486
 3627SOL    HW122514   2.987   4.112  12.315 -0.4681 -0.0108 -0.9205
 3627SOL    HW222515   2.842   4.154  12.338 -0.0670 -0.1680  0.5553
 3628SOL     OW22516   2.093   0.922  13.853 -0.4733  0.0005  0.3566
 3628SOL    HW122517   2.025   0.939  13.919 -0.9216  1.5305 -0.4991
 3628SOL    HW222518   2.090   1.010  13.814  0.0685 -1.2513 -2.4903
 3629SOL     OW22519   3.272   0.139   6.117  0.2293 -0.3938 -0.3134
 3629SOL    HW122520   3.247   0.101   6.201  0.8242 -0.2676 -0.0738
 3629SOL    HW222521   3.332   0.198   6.162 -0.8642 -0.1049  0.7401
 3630SOL     OW22522   1.169   0.948  14.615 -0.4461  0.6998  0.0875
 3630SOL    HW122523   1.248   0.894  14.617  0.1867  1.6680  0.9964
 3630SOL    HW222524   1.102   0.886  14.585  1.4393 -0.3368 -1.9941
 3631SOL     OW22525   3.072   4.049   8.600 -0.8085 -0.0640 -0.5569
 3631SOL    HW122526   3.127   4.096   8.662  0.1178 -2.5118  0.4859
 3631SOL    HW222527   3.115   4.054   8.515  1.7896 -1.7775  0.6509
 3632SOL     OW22528   1.799   2.700   9.003  0.4332 -0.2663 -0.8571
 3632SOL    HW122529   1.847   2.778   8.976  1.8612  0.0437  2.6496
 3632SOL    HW222530   1.735   2.693   8.932 -1.1450 -0.0476  0.5809
 3633SOL     OW22531   4.346   4.316   9.908  0.0271 -0.1548  0.9687
 3633SOL    HW122532   4.280   4.374   9.946 -1.3558 -0.7815 -0.4953
 3633SOL    HW222533   4.281   4.251   9.880  0.9715 -0.9850  0.6829
 3634SOL     OW22534   4.682   0.917   8.652  0.2983 -0.0954 -0.1502
 3634SOL    HW122535   4.678   0.974   8.729  1.2659  0.3656 -0.4437
 3634SOL    HW222536   4.728   0.984   8.601  1.6519 -0.6990  0.3065
 3635SOL     OW22537   4.715   4.071   2.456 -0.1689 -0.2262  0.1786
 3635SOL    HW122538   0.031   3.995   2.430  0.1178 -0.0918  0.3704
 3635SOL    HW222539   4.632   4.032   2.428  0.1352 -1.7325  1.3482
 3636SOL     OW22540   2.200   3.217   3.136  0.8745  0.0023  0.2310
 3636SOL    HW122541   2.270   3.222   3.201 -0.4868  1.8708  1.5679
 3636SOL    HW222542   2.211   3.129   3.101 -2.0555 -0.8983  1.5857
 3637SOL     OW22543   3.486   3.390   3.346  0.7702  0.2262 -0.9529
 3637SOL    HW122544   3.471   3.307   3.392  1.1172 -0.0928 -1.4051
 3637SOL    HW222545   3.434   3.367   3.269 -1.3270 -1.7702  1.0710
 3638SOL     OW22546   0.549   3.097   8.477 -0.6261 -0.1662  0.4062
 3638SOL    HW122547   0.639   3.078   8.502 -0.0731  1.0494 -0.6365
 3638SOL    HW222548   0.571   3.155   8.404 -0.3416  0.2020  0.7884
 3639SOL     OW22549   4.099   2.251  15.862 -0.1650  0.5398  0.2384
 3639SOL    HW122550   4.052   2.333  15.877  0.0147  0.8055 -0.6548
 3639SOL    HW222551   4.045   2.211  15.794  0.6125 -0.9239  0.4846
 3640SOL     OW22552   1.099   1.293   8.674  0.2886  0.7244 -0.3303
 3640SOL    HW122553   1.078   1.208   8.635  2.9815 -0.1796  0.2172
 3640SOL    HW222554   1.089   1.283   8.769  0.0972  0.0285 -0.4262
 3641SOL     OW22555   0.187   1.618  14.288 -0.1824 -0.3178  0.1295
 3641SOL    HW122556   0.275   1.601  14.253 -0.7592  2.9542 -2.9487
 3641SOL    HW222557   0.129   1.609  14.212 -0.4844  0.7514  0.2305
 3642SOL     OW22558   1.923   0.204   2.540  0.4423  0.5744 -0.0066
 3642SOL    HW122559   1.954   0.294   2.533  0.9843  0.4158  0.3827
 3642SOL    HW222560   1.839   0.219   2.496  1.3750 -0.3585 -2.0985
 3643SOL     OW22561   0.496   1.964   7.453  0.1859  0.0862 -0.2737
 3643SOL    HW122562   0.588   1.974   7.428  0.4167 -1.2278  0.0611
 3643SOL    HW222563   0.503   1.947   7.547  2.7182  1.1264 -0.2793
 3644SOL     OW22564   4.185   4.391   7.727  0.6486 -0.4718  0.2262
 3644SOL    HW122565   4.173   4.480   7.692 -0.6703 -0.9022 -0.3890
 3644SOL    HW222566   4.275   4.393   7.762  0.1141 -0.9017  1.6241
 3645SOL     OW22567   0.140   4.606   3.389 -0.8896  0.0672 -0.2158
 3645SOL    HW122568   0.218   4.647   3.353 -1.7401  1.2928 -0.6570
 3645SOL    HW222569   0.071   4.635   3.329 -1.5086 -0.8273  0.0509
 3646SOL     OW22570   1.534   1.161   3.193  0.6601 -0.5075  0.0028
 3646SOL    HW122571   1.615   1.114   3.174 -0.6547 -3.0061  0.5885
 3646SOL    HW222572   1.474   1.100   3.151 -1.9117  2.2296 -0.2791
 3647SOL     OW22573   2.509   0.979   9.295  0.7941  0.1644  0.0070
 3647SOL    HW122574   2.541   1.049   9.238  0.4232 -0.0865 -0.5019
 3647SOL    HW222575   2.428   0.961   9.248  0.1589  0.8742  0.8307
 3648SOL     OW22576   1.143   3.991   6.515  0.3894  1.0557  0.1999
 3648SOL    HW122577   1.139   4.004   6.420  2.8096  0.3906 -0.0082
 3648SOL    HW222578   1.231   3.954   6.525  0.1820  1.2203  2.7379
 3649SOL     OW22579   3.670   3.008   7.140 -0.9051 -0.8256  0.0689
 3649SOL    HW122580   3.707   3.095   7.124  0.3871 -1.2736  0.6136
 3649SOL    HW222581   3.732   2.983   7.208 -0.8502  0.1087  0.3625
 3650SOL     OW22582   0.174   0.580   1.611 -0.6365  0.3685  0.6930
 3650SOL    HW122583   0.180   0.589   1.515  0.7601  1.1447  0.8510
 3650SOL    HW222584   0.154   0.487   1.619 -2.2753  0.5143 -1.6673
 3651SOL     OW22585   3.080   4.728   8.730  0.3948 -0.2700 -0.2493
 3651SOL    HW122586   3.169   0.024   8.724  0.0035  0.9550  0.5666
 3651SOL    HW222587   3.052   0.041   8.807 -2.1438 -1.3721 -0.4349
 3652SOL     OW22588   3.154   2.057   7.855 -0.3273 -0.6650  0.5748
 3652SOL    HW122589   3.151   1.997   7.930 -0.1384 -1.6443 -0.1949
 3652SOL    HW222590   3.146   2.143   7.895  0.8245 -1.1109  1.7646
 3653SOL     OW22591   2.222   3.103   5.271 -0.2569  0.2875  0.0634
 3653SOL    HW122592   2.278   3.168   5.227 -1.2539  2.2564  1.7355
 3653SOL    HW222593   2.277   3.086   5.347  0.7965 -1.3845 -1.0753
 3654SOL     OW22594   1.372   1.491   0.948 -0.0242 -0.6495 -0.2796
 3654SOL    HW122595   1.421   1.495   1.031 -0.7897 -0.9067  0.1845
 3654SOL    HW222596   1.378   1.585   0.929  1.1278 -0.6145  0.2514
 3655SOL     OW22597   1.473   1.185  15.268  0.2038 -0.2682 -0.0166
 3655SOL    HW122598   1.513   1.109  15.311 -0.0183  1.0564  2.5679
 3655SOL    HW222599   1.383   1.170  15.298  0.6589 -0.2849  1.3698
 3656SOL     OW22600   4.644   2.584   3.675 -0.1629 -0.6129 -0.5584
 3656SOL    HW122601   4.729   2.584   3.632  0.0634 -5.2732 -0.1781
 3656SOL    HW222602   4.671   2.568   3.766  2.3865 -0.7878 -1.3658
 3657SOL     OW22603   0.349   3.199  11.881  0.3011  0.6640  0.3262
 3657SOL    HW122604   0.411   3.267  11.853 -0.7944  1.0399 -1.1353
 3657SOL    HW222605   0.353   3.199  11.977  0.3434 -1.4229  0.3082
 3658SOL     OW22606   3.513   2.646  12.511 -0.5590 -0.4289  0.2471
 3658SOL    HW122607   3.459   2.672  12.586 -0.3871 -0.2283  0.3013
 3658SOL    HW222608   3.595   2.613  12.547  0.0917 -1.1701 -1.9285
 3659SOL     OW22609   2.760   4.058   4.568  0.0558  0.0692  0.2205
 3659SOL    HW122610   2.738   4.131   4.626 -0.0335 -0.5643  0.9720
 3659SOL    HW222611   2.673   4.035   4.535  0.9897 -1.0960 -1.4004
 3660SOL     OW22612   4.386   3.298  16.870  0.1962 -0.3053  0.1966
 3660SOL    HW122613   4.301   3.316  16.909  0.2837 -0.4368  0.4444
 3660SOL    HW222614   4.361   3.266  16.783 -0.5429 -1.3170  0.7840
 3661SOL     OW22615   4.353   0.911   6.314 -0.1356 -0.1081 -0.1482
 3661SOL    HW122616   4.306   0.920   6.231 -0.6923 -0.4100  0.1353
 3661SOL    HW222617   4.287   0.892   6.381 -2.4832  1.0312 -2.1065
 3662SOL     OW22618   2.341   0.853   6.989 -0.6676 -0.4763 -0.1426
 3662SOL    HW122619   2.271   0.913   7.015 -1.7046 -1.1014 -1.4519
 3662SOL    HW222620   2.289   0.805   6.924  1.2042 -0.5065 -1.6094
 3663SOL     OW22621   0.328   4.690   8.716 -0.4479 -0.0262 -0.2135
 3663SOL    HW122622   0.271   4.716   8.643  3.5180  2.5518 -2.3878
 3663SOL    HW222623   0.275   4.630   8.769  1.2468 -0.8885  0.4831
 3664SOL     OW22624   1.699   2.171   7.797 -0.3521  1.2896 -0.2205
 3664SOL    HW122625   1.622   2.134   7.840  0.3508  0.6564  0.4897
 3664SOL    HW222626   1.705   2.255   7.842 -0.9373  0.6097  1.1264
 3665SOL     OW22627   0.846   2.934   7.443  0.7557 -0.4560 -0.0306
 3665SOL    HW122628   0.841   3.026   7.471 -2.7550 -1.0605  1.2482
 3665SOL    HW222629   0.823   2.898   7.529  1.3067  1.2670  0.8572
 3666SOL     OW22630   0.533   3.138   5.838 -0.3269  0.1309 -0.6576
 3666SOL    HW122631   0.531   3.225   5.798 -0.1999  0.5483  0.2406
 3666SOL    HW222632   0.454   3.096   5.804  0.2311 -0.6040 -1.0309
 3667SOL     OW22633   2.563   3.355  14.690  0.1439  0.2180 -0.9101
 3667SOL    HW122634   2.587   3.378  14.600 -2.2507  1.5837 -1.2088
 3667SOL    HW222635   2.597   3.432  14.736 -2.2169 -0.4253  1.9531
 3668SOL     OW22636   0.519   2.229  16.643  0.3989 -0.2294  0.6705
 3668SOL    HW122637   0.614   2.218  16.649  0.4254 -0.4282 -0.0890
 3668SOL    HW222638   0.485   2.140  16.653 -4.3143  1.4035 -1.1638
 3669SOL     OW22639   1.886   1.374   2.801 -0.1619  0.3833  0.4803
 3669SOL    HW122640   1.832   1.303   2.767  1.7647 -1.3143  0.9218
 3669SOL    HW222641   1.896   1.339   2.890  1.7307  0.8375  0.4508
 3670SOL     OW22642   3.874   4.120  16.264  0.2775 -0.2477 -0.5706
 3670SOL    HW122643   3.871   4.209  16.231  0.1966  0.4227  1.2429
 3670SOL    HW222644   3.819   4.126  16.341  0.9639  1.2706 -0.2080
 3671SOL     OW22645   2.053   0.715   6.886 -0.7918  0.7035 -0.1446
 3671SOL    HW122646   1.967   0.756   6.872  0.0385  2.3849 -0.3367
 3671SOL    HW222647   2.066   0.675   6.799  0.7751  1.7942 -0.3991
 3672SOL     OW22648   3.373   0.841   2.684 -0.5143  0.2519  0.3933
 3672SOL    HW122649   3.313   0.769   2.705 -0.2119  0.5323  2.1934
 3672SOL    HW222650   3.389   0.821   2.592 -0.2830 -0.4065  0.5736
 3673SOL     OW22651   3.574   3.915  11.351  0.0436  0.3104  0.7394
 3673SOL    HW122652   3.590   4.005  11.379 -0.8394  0.7250 -0.0950
 3673SOL    HW222653   3.549   3.874  11.433  0.5141  1.2336  1.3432
 3674SOL     OW22654   1.310   0.315   3.796  0.0259 -0.1789 -0.1928
 3674SOL    HW122655   1.248   0.385   3.812  0.2628 -0.6713  2.8317
 3674SOL    HW222656   1.378   0.327   3.863  0.1265  0.8485 -0.4798
 3675SOL     OW22657   0.872   2.454   0.279  0.3482 -0.2427 -0.6084
 3675SOL    HW122658   0.902   2.397   0.208 -0.3109  0.1342 -1.1863
 3675SOL    HW222659   0.809   2.516   0.241 -0.2469 -0.8746 -0.6585
 3676SOL     OW22660   2.046   3.855   4.440  0.1278 -0.5695 -0.1958
 3676SOL    HW122661   1.986   3.893   4.504 -0.0901  2.6501 -2.3498
 3676SOL    HW222662   2.007   3.886   4.358  1.6202  0.3088 -0.5651
 3677SOL     OW22663   3.163   0.356  12.805  0.4411  0.1204 -0.0811
 3677SOL    HW122664   3.082   0.400  12.833  0.0079 -1.4016  1.0429
 3677SOL    HW222665   3.186   0.303  12.881  2.5176  0.8257 -0.2257
 3678SOL     OW22666   2.972   2.943   8.969 -0.6550  0.2809  0.9628
 3678SOL    HW122667   3.052   2.997   8.967 -1.0847  0.8451 -1.3987
 3678SOL    HW222668   2.940   2.956   9.058 -1.6770  1.4180  0.4305
 3679SOL     OW22669   3.819   3.523   6.725 -0.3118  0.2022 -0.1901
 3679SOL    HW122670   3.898   3.492   6.681 -0.3750 -0.5442  0.2197
 3679SOL    HW222671   3.788   3.594   6.669  0.7141  0.0554 -0.9438
 3680SOL     OW22672   3.190   3.916  16.488  0.2075 -0.0778  0.0616
 3680SOL    HW122673   3.110   3.969  16.488  0.3024  0.0638 -1.0871
 3680SOL    HW222674   3.208   3.915  16.582  1.7895  0.7601 -0.2415
 3681SOL     OW22675   4.170   4.479  16.500 -0.5672  0.2527 -0.0004
 3681SOL    HW122676   4.083   4.467  16.462 -0.5763  0.4136 -0.0301
 3681SOL    HW222677   4.167   4.449  16.591  0.2928 -1.8604 -0.6685
 3682SOL     OW22678   0.004   1.882  14.154 -0.6965 -0.0814 -0.3545
 3682SOL    HW122679   0.005   1.794  14.117  2.9783 -1.0212  1.8980
 3682SOL    HW222680   0.090   1.886  14.196  0.0292 -0.0208 -1.8384
 3683SOL     OW22681   2.764   2.020   6.707 -0.3423  0.3205  0.5188
 3683SOL    HW122682   2.774   1.992   6.798  2.0066  2.5326  0.9493
 3683SOL    HW222683   2.851   2.011   6.668 -0.4314 -2.1701  0.9287
 3684SOL     OW22684   1.251   1.008  10.547 -0.3376  0.3831 -0.0205
 3684SOL    HW122685   1.278   1.084  10.598 -0.1048  0.6390 -0.5179
 3684SOL    HW222686   1.156   1.006  10.561 -0.5098 -2.2044 -1.4139
 3685SOL     OW22687   3.343   0.787   5.015 -0.1665  0.2570  0.2080
 3685SOL    HW122688   3.369   0.748   5.099 -3.3632  0.8822  1.4750
 3685SOL    HW222689   3.423   0.829   4.985  0.6110 -0.3359  1.4516
 3686SOL     OW22690   3.192   3.931  16.748 -0.2791  0.1346 -0.0334
 3686SOL    HW122691   3.244   3.960  16.823 -1.5071  0.8642  0.5228
 3686SOL    HW222692   3.151   3.850  16.780  2.3276 -2.0664 -2.2320
 3687SOL     OW22693   0.293   4.467   4.792  0.1979  0.4597 -0.2767
 3687SOL    HW122694   0.309   4.380   4.828  2.9229  2.1375  2.6045
 3687SOL    HW222695   0.251   4.447   4.708  4.2521 -1.8823 -1.7195
 3688SOL     OW22696   4.296   0.232   7.293  0.0508 -0.6893 -0.1405
 3688SOL    HW122697   4.275   0.287   7.369  0.4181  0.2449 -0.7133
 3688SOL    HW222698   4.246   0.269   7.220 -0.8492  0.0114  0.8194
 3689SOL     OW22699   3.862   3.523   7.507 -0.0227  0.4044  0.1728
 3689SOL    HW122700   3.871   3.585   7.579 -0.2427 -1.1731  1.5669
 3689SOL    HW222701   3.817   3.582   7.446  0.9074  1.4766  0.5247
 3690SOL     OW22702   1.312   0.530   9.393  0.3718 -0.2374 -0.3386
 3690SOL    HW122703   1.269   0.456   9.349 -2.0003  0.4121  0.8907
 3690SOL    HW222704   1.244   0.554   9.455  1.3504 -2.3579  1.5465
 3691SOL     OW22705   0.256   1.519   7.240  0.4204 -0.1829  0.0333
 3691SOL    HW122706   0.221   1.480   7.320 -2.9563  0.3904 -1.1334
 3691SOL    HW222707   0.185   1.509   7.176 -1.5234 -0.3153  2.1833
 3692SOL     OW22708   2.883   3.435   7.494 -0.5807 -0.0255  0.1153
 3692SOL    HW122709   2.858   3.526   7.510 -2.1375 -0.1294 -1.7439
 3692SOL    HW222710   2.803   3.404   7.452 -0.3422 -2.5043  1.4830
 3693SOL     OW22711   2.555   3.844   6.762  0.3930  0.0386  0.2504
 3693SOL    HW122712   2.478   3.816   6.811 -1.2313  2.9632 -0.6162
 3693SOL    HW222713   2.590   3.765   6.721 -2.3255 -1.3145  0.5692
 3694SOL     OW22714   1.953   1.652   7.743  0.1020  0.4966  0.0132
 3694SOL    HW122715   1.954   1.600   7.824  0.6551  1.3424  0.5420
 3694SOL    HW222716   1.913   1.729   7.783 -2.6186 -0.9396  0.0779
 3695SOL     OW22717   2.573   0.062   6.557 -0.1154  0.4131 -0.2248
 3695SOL    HW122718   2.492   0.026   6.592  0.8904 -2.2009 -0.5544
 3695SOL    HW222719   2.549   0.153   6.539 -0.0636  0.1430 -1.6478
 3696SOL     OW22720   3.398   0.232   5.104  0.2038 -0.1122  0.1061
 3696SOL    HW122721   3.411   0.289   5.179 -0.2001 -0.8055  0.7052
 3696SOL    HW222722   3.461   0.162   5.118  0.3029  0.1511  0.9179
 3697SOL     OW22723   4.586   4.492   6.513 -0.0711 -0.6121 -0.5337
 3697SOL    HW122724   4.546   4.435   6.580  0.8153 -2.5532 -1.6484
 3697SOL    HW222725   4.572   4.567   6.571  1.3949  0.2922 -1.3711
 3698SOL     OW22726   3.726   0.641   6.038 -0.1813 -0.2175 -0.0431
 3698SOL    HW122727   3.745   0.657   6.131  1.9228  0.9555 -0.6763
 3698SOL    HW222728   3.798   0.581   6.015  0.7032  0.6060  0.5487
 3699SOL     OW22729   4.416   3.959   6.190  0.0995 -0.1059 -0.4525
 3699SOL    HW122730   4.456   3.873   6.203  0.3459 -0.0320 -0.7044
 3699SOL    HW222731   4.333   3.952   6.238 -0.2585 -0.8268 -1.1572
 3700SOL     OW22732   2.090   4.034   3.047 -0.0361  0.0215  0.0423
 3700SOL    HW122733   2.163   4.094   3.029 -0.6196  1.2007  1.6477
 3700SOL    HW222734   2.029   4.106   3.029 -0.5209 -0.1791  0.8943
 3701SOL     OW22735   3.076   4.494  15.855 -0.4544 -0.1600  0.0454
 3701SOL    HW122736   3.085   4.401  15.878 -1.7882  0.5494  3.4263
 3701SOL    HW222737   3.046   4.480  15.765 -0.0136  1.4771 -0.3392
 3702SOL     OW22738   0.184   0.514   9.059 -0.6114 -0.2382 -0.4639
 3702SOL    HW122739   0.173   0.540   8.968  2.2606 -2.1811 -1.3476
 3702SOL    HW222740   0.275   0.486   9.060 -1.1785 -2.0673 -0.8710
 3703SOL     OW22741   2.228   3.778  10.634  0.6265 -0.3013  0.2277
 3703SOL    HW122742   2.222   3.689  10.669  0.5347 -0.8260 -1.1308
 3703SOL    HW222743   2.319   3.797  10.657  0.6305  2.3293 -2.0428
 3704SOL     OW22744   4.665   2.636   6.208  0.5684 -0.4505  0.2303
 3704SOL    HW122745   4.679   2.542   6.197 -2.8918 -0.7254 -1.9220
 3704SOL    HW222746   4.588   2.662   6.157  1.1026  0.6683 -0.0120
 3705SOL     OW22747   2.523   0.552   7.343 -0.3164 -0.8575  0.6834
 3705SOL    HW122748   2.500   0.469   7.301 -0.1500 -0.9968  0.8710
 3705SOL    HW222749   2.451   0.603   7.306  1.0508  0.5307 -0.0758
 3706SOL     OW22750   3.290   0.662   3.332 -0.2460  0.6849 -0.3378
 3706SOL    HW122751   3.301   0.709   3.414 -0.4020  0.6722 -0.3088
 3706SOL    HW222752   3.198   0.672   3.307  0.4632  1.2981 -2.7029
 3707SOL     OW22753   4.594   1.883   7.327 -0.2480 -0.3749 -0.1251
 3707SOL    HW122754   4.558   1.841   7.405  3.7784  0.3177  2.0811
 3707SOL    HW222755   4.519   1.860   7.271 -0.3676 -0.9240  0.2610
 3708SOL     OW22756   1.718   3.475   4.586  1.1367  0.9463 -0.1088
 3708SOL    HW122757   1.751   3.561   4.612  0.2560  0.3534  2.9379
 3708SOL    HW222758   1.686   3.434   4.666  3.9232 -0.0804  0.4773
 3709SOL     OW22759   1.258   1.343   9.232  0.2116  0.2774  0.1431
 3709SOL    HW122760   1.328   1.288   9.197 -0.0253  0.3357 -0.4218
 3709SOL    HW222761   1.248   1.294   9.314 -0.9454 -1.6367 -1.1576
 3710SOL     OW22762   3.917   2.170   4.165 -0.1988 -0.1581 -0.5451
 3710SOL    HW122763   3.950   2.110   4.099  0.0398 -0.0658 -0.5106
 3710SOL    HW222764   3.835   2.190   4.120 -0.4182 -2.1938 -1.0386
 3711SOL     OW22765   1.115   0.712  14.855 -0.0279  0.3450 -0.4607
 3711SOL    HW122766   1.210   0.721  14.846 -0.1246  0.6611 -1.1633
 3711SOL    HW222767   1.097   0.649  14.785  0.1576  0.1072 -0.2949
 3712SOL     OW22768   1.500   1.542   8.659 -0.4263  0.4415  0.0227
 3712SOL    HW122769   1.515   1.460   8.706 -0.0353  1.2933  1.3762
 3712SOL    HW222770   1.418   1.567   8.701 -0.0928 -1.4240  1.7615
 3713SOL     OW22771   3.030   2.409   5.049 -0.5550  0.5473  0.1218
 3713SOL    HW122772   3.079   2.457   5.115 -0.1030  1.4850 -0.9054
 3713SOL    HW222773   3.071   2.324   5.033 -0.1351  0.6051  0.9119
 3714SOL     OW22774   4.005   4.501   6.577  0.2723  0.1706  0.4094
 3714SOL    HW122775   4.061   4.492   6.654 -0.2618 -0.3383  0.7450
 3714SOL    HW222776   4.059   4.558   6.523  0.1862 -1.1204 -1.0361
 3715SOL     OW22777   0.243   3.945   8.568 -0.2655  0.2222  0.0509
 3715SOL    HW122778   0.277   3.995   8.642  0.2099  1.4939 -1.0271
 3715SOL    HW222779   0.230   3.862   8.614 -1.1901 -0.0952 -0.7909
 3716SOL     OW22780   1.610   0.173   3.051  0.2604 -0.8839  0.5955
 3716SOL    HW122781   1.611   0.120   2.971  4.1474 -0.5023  0.4000
 3716SOL    HW222782   1.583   0.107   3.115 -0.5033  0.8112  2.0337
 3717SOL     OW22783   0.265   1.032   0.199 -0.1344 -0.2926 -0.2168
 3717SOL    HW122784   0.192   0.973   0.179 -0.3613 -0.1956  0.3252
 3717SOL    HW222785   0.254   1.093   0.126 -1.7078 -0.8470 -0.4474
 3718SOL     OW22786   3.027   3.561   6.975  0.1528 -0.1785  0.3982
 3718SOL    HW122787   2.987   3.506   7.042 -0.3954 -0.2721 -0.0078
 3718SOL    HW222788   3.035   3.499   6.903 -0.5923 -1.0112  1.0414
 3719SOL     OW22789   2.755   2.755   9.107  0.8132 -0.1710  0.1143
 3719SOL    HW122790   2.670   2.798   9.105  1.2186  0.6602  1.0862
 3719SOL    HW222791   2.751   2.722   9.017  2.3137  0.2712 -0.1112
 3720SOL     OW22792   0.404   0.218   5.453 -0.0293  0.0909 -0.0726
 3720SOL    HW122793   0.341   0.251   5.518  1.9610 -0.5974  2.1852
 3720SOL    HW222794   0.357   0.250   5.376 -0.2997 -1.9075 -0.7395
 3721SOL     OW22795   2.870   3.055   9.772 -0.0637 -0.2234 -0.3115
 3721SOL    HW122796   2.879   2.960   9.761 -2.0717 -0.3156 -1.1937
 3721SOL    HW222797   2.912   3.052   9.858  0.6047  0.2882 -0.6255
 3722SOL     OW22798   4.376   0.572   7.103 -0.3690  0.0896  0.1873
 3722SOL    HW122799   4.291   0.603   7.135 -0.3851  1.8866 -1.6084
 3722SOL    HW222800   4.345   0.491   7.062  1.4029 -0.0997 -0.7640
 3723SOL     OW22801   0.750   0.793   5.599  0.5776 -0.3317  0.0647
 3723SOL    HW122802   0.805   0.871   5.606  1.0192 -0.5541 -1.0124
 3723SOL    HW222803   0.780   0.760   5.683 -0.7798  0.6492  0.9472
 3724SOL     OW22804   1.385   1.356   1.311  0.2148 -0.2436 -0.7315
 3724SOL    HW122805   1.342   1.344   1.396  0.5443 -1.1564 -0.6977
 3724SOL    HW222806   1.310   1.400   1.270  1.6652  0.8258 -2.1898
 3725SOL     OW22807   0.387   2.687  15.923 -0.5052 -0.2363  0.1593
 3725SOL    HW122808   0.401   2.596  15.951 -1.6103 -0.0516  1.3400
 3725SOL    HW222809   0.352   2.676  15.835  0.1517  4.2320 -0.6619
 3726SOL     OW22810   2.378   1.582   3.268  0.2911  0.4978 -0.3170
 3726SOL    HW122811   2.284   1.581   3.280  0.3783  0.8919  0.4103
 3726SOL    HW222812   2.393   1.490   3.245 -0.9374 -0.4253  2.6176
 3727SOL     OW22813   2.964   0.656  17.235 -0.1486  0.3463 -0.2830
 3727SOL    HW122814   2.942   0.743  17.204 -1.7471  0.0392 -0.0079
 3727SOL    HW222815   3.016   0.681  17.311  1.0040 -1.4018 -0.4926
 3728SOL     OW22816   0.552   0.914   3.260  0.6453  0.2802 -0.0366
 3728SOL    HW122817   0.514   0.968   3.190  1.1383  0.6889  0.0084
 3728SOL    HW222818   0.645   0.908   3.240  0.4464  1.5051 -1.3944
 3729SOL     OW22819   1.039   1.365   4.732  0.2088  0.0690 -0.7812
 3729SOL    HW122820   1.072   1.419   4.804  0.5199 -0.7432 -0.3018
 3729SOL    HW222821   1.100   1.291   4.729 -0.3470 -0.3726 -1.1618
 3730SOL     OW22822   3.235   2.587   3.873  0.1217  0.2167  0.4818
 3730SOL    HW122823   3.193   2.577   3.959 -2.2379  0.6658 -0.6086
 3730SOL    HW222824   3.301   2.518   3.881 -0.4676 -0.5130 -1.0092
 3731SOL     OW22825   0.197   2.831   7.598 -0.3363  0.2549 -0.6394
 3731SOL    HW122826   0.158   2.888   7.532 -0.2514  2.6565  1.4008
 3731SOL    HW222827   0.248   2.781   7.534  0.9413  1.0384 -0.2072
 3732SOL     OW22828   0.808   1.956   9.479  0.0779  0.1517 -0.2922
 3732SOL    HW122829   0.899   1.930   9.493 -0.5534 -1.4593  0.8506
 3732SOL    HW222830   0.826   2.036   9.430 -0.2799  0.2494 -0.2632
 3733SOL     OW22831   2.688   4.455   8.665  0.2027  0.1038 -0.1472
 3733SOL    HW122832   2.665   4.362   8.659  1.1706 -0.1294 -0.3208
 3733SOL    HW222833   2.601   4.492   8.677  0.0224  0.5138 -2.7998
 3734SOL     OW22834   0.267   4.044   6.525 -0.5876  0.0887  0.4080
 3734SOL    HW122835   0.266   4.082   6.613 -0.6543 -2.1063  1.3639
 3734SOL    HW222836   0.279   3.951   6.547  2.6750  0.5199  0.3194
 3735SOL     OW22837   1.468   0.918   3.090  0.1437 -0.0094 -0.2455
 3735SOL    HW122838   1.473   0.844   3.150  1.1559  1.3237  1.3078
 3735SOL    HW222839   1.542   0.914   3.028  0.9630  1.5460  0.6380
 3736SOL     OW22840   0.411   4.195   8.096  0.1746 -0.3751 -0.2235
 3736SOL    HW122841   0.440   4.157   8.180  0.3205  1.3891  0.5283
 3736SOL    HW222842   0.494   4.235   8.071 -0.1514  0.5128  0.1309
 3737SOL     OW22843   0.617   0.844   4.888 -0.1367  0.1675 -0.4166
 3737SOL    HW122844   0.688   0.811   4.832  0.8051 -0.0353  0.9020
 3737SOL    HW222845   0.541   0.797   4.854  0.3058 -0.5987 -0.3399
 3738SOL     OW22846   4.333   4.361   6.225  0.0304  0.0237 -0.1277
 3738SOL    HW122847   4.412   4.306   6.217 -0.4563 -0.8318  0.9745
 3738SOL    HW222848   4.387   4.437   6.249  2.1395 -0.9095 -1.8821
 3739SOL     OW22849   0.042   1.680  10.006  0.5594  0.5595 -0.2577
 3739SOL    HW122850   0.052   1.670   9.911 -0.4062 -1.4835 -0.1313
 3739SOL    HW222851   0.134   1.673  10.031  0.6458  0.2630 -0.6668
 3740SOL     OW22852   4.618   4.229   9.818 -0.4774  0.2293 -0.6621
 3740SOL    HW122853   4.596   4.210   9.727 -2.9596 -1.6404  0.3389
 3740SOL    HW222854   4.535   4.195   9.853 -0.5055  0.5852 -0.3891
 3741SOL     OW22855   2.547   3.406   3.799  0.1866  0.0780 -0.5418
 3741SOL    HW122856   2.493   3.369   3.868 -1.9671  1.0010 -1.7233
 3741SOL    HW222857   2.475   3.448   3.751  0.1255  1.2213  0.5608
 3742SOL     OW22858   3.379   1.802   8.301 -0.4166 -0.1121  0.2943
 3742SOL    HW122859   3.353   1.775   8.213 -0.9487  1.2471  0.0287
 3742SOL    HW222860   3.414   1.887   8.275 -0.0715 -0.4278 -0.2689
 3743SOL     OW22861   1.084   1.141  16.731  0.0697 -0.3953  0.3417
 3743SOL    HW122862   1.134   1.179  16.659 -0.8537 -1.9028 -1.1141
 3743SOL    HW222863   1.046   1.061  16.692  0.6649 -1.2425  1.5167
 3744SOL     OW22864   1.568   4.319   2.772  0.1384  0.5257 -0.3296
 3744SOL    HW122865   1.625   4.262   2.720 -1.0575 -0.5045 -0.5135
 3744SOL    HW222866   1.510   4.358   2.707 -2.7704 -2.1806  0.6178
 3745SOL     OW22867   3.859   1.935  15.357 -0.0233 -0.1602 -0.2323
 3745SOL    HW122868   3.896   2.019  15.384 -1.7083  0.8699 -1.1171
 3745SOL    HW222869   3.887   1.880  15.430  0.0983  0.7249  0.3791
 3746SOL     OW22870   2.913   0.170   8.007 -0.6466  0.4940 -0.6370
 3746SOL    HW122871   2.924   0.082   8.044  0.6938  1.0649  0.3157
 3746SOL    HW222872   2.858   0.146   7.932 -0.3028 -3.1979  0.2853
 3747SOL     OW22873   1.039   4.383   5.173  0.6086  0.4538  0.8115
 3747SOL    HW122874   1.025   4.419   5.261 -1.2000  3.5991 -0.7463
 3747SOL    HW222875   1.054   4.465   5.125 -1.3808 -0.5146 -1.4476
 3748SOL     OW22876   1.209   1.504  16.378  0.7100  0.6785 -0.0223
 3748SOL    HW122877   1.241   1.559  16.449  0.2512  1.1487 -0.1782
 3748SOL    HW222878   1.124   1.547  16.366  0.3736  0.0712  0.1987
 3749SOL     OW22879   2.573   0.726  17.229 -0.5796  0.2587 -0.3778
 3749SOL    HW122880   2.560   0.665  17.302 -4.2010  2.8369  1.1565
 3749SOL    HW222881   2.592   0.806  17.277 -0.6189 -0.7418  1.3328
 3750SOL     OW22882   2.770   4.461   2.141 -0.1996  0.0864  0.3166
 3750SOL    HW122883   2.823   4.533   2.174 -1.1905  1.3096 -0.7738
 3750SOL    HW222884   2.836   4.415   2.089 -1.3320  1.2761 -2.1631
 3751SOL     OW22885   2.334   0.709   4.753 -0.9109 -0.6353  0.0669
 3751SOL    HW122886   2.379   0.674   4.830  0.1348 -1.6164 -0.9945
 3751SOL    HW222887   2.297   0.787   4.793 -0.4820 -0.1127 -0.5506
 3752SOL     OW22888   2.366   4.158   1.065 -0.2362  0.2188 -0.1592
 3752SOL    HW122889   2.318   4.221   1.117 -3.1698 -2.0147 -0.1427
 3752SOL    HW222890   2.318   4.160   0.982 -1.7529 -0.8862  0.6849
 3753SOL     OW22891   0.307   0.988   6.684 -0.1934  0.3190 -0.4753
 3753SOL    HW122892   0.314   0.914   6.623  1.8437  0.7189 -0.7261
 3753SOL    HW222893   0.237   0.957   6.742  1.4715  0.3509  1.5500
 3754SOL     OW22894   3.630   1.384  17.465 -0.7392  0.0654 -0.0285
 3754SOL    HW122895   3.542   1.350  17.483 -1.6355  1.5575 -1.5927
 3754SOL    HW222896   3.603   1.448  17.399  1.8995  1.3947  0.1802
 3755SOL     OW22897   0.262   3.477  10.796 -1.0330 -0.5689  0.0976
 3755SOL    HW122898   0.332   3.421  10.830 -0.3790  0.3464  0.2549
 3755SOL    HW222899   0.309   3.560  10.802 -1.9002 -0.0452 -0.3316
 3756SOL     OW22900   0.660   4.519   9.765 -0.1670  0.1568  0.2410
 3756SOL    HW122901   0.730   4.497   9.703 -0.3566 -0.5647  0.2843
 3756SOL    HW222902   0.588   4.560   9.715  1.4938  1.0390 -1.4418
 3757SOL     OW22903   3.722   2.896   5.791 -0.1712  0.6527 -0.7296
 3757SOL    HW122904   3.679   2.879   5.875  1.6165 -0.4202 -0.0190
 3757SOL    HW222905   3.790   2.829   5.795 -0.4140  0.3601 -1.5161
 3758SOL     OW22906   3.338   0.378   2.799  0.2357  0.0685 -0.8256
 3758SOL    HW122907   3.312   0.297   2.842 -4.0127  2.0106  0.2623
 3758SOL    HW222908   3.396   0.344   2.730 -0.1251 -2.9494  0.3636
 3759SOL     OW22909   0.646   4.085   7.955  0.6400  0.1592  0.0201
 3759SOL    HW122910   0.590   4.069   8.032  1.3124 -0.1140  0.4494
 3759SOL    HW222911   0.680   3.996   7.947  0.7257  0.3038 -1.1617
 3760SOL     OW22912   1.424   1.559   8.359 -0.4316 -0.7782  0.1182
 3760SOL    HW122913   1.443   1.527   8.447 -1.0127 -1.5417 -0.0385
 3760SOL    HW222914   1.380   1.483   8.322  0.7049  0.3937 -3.6877
 3761SOL     OW22915   2.372   3.229   3.329  0.6437  0.0994 -0.1409
 3761SOL    HW122916   2.460   3.212   3.363  1.0293  1.6040 -0.3769
 3761SOL    HW222917   2.358   3.319   3.357 -1.2682  0.4937 -2.3503
 3762SOL     OW22918   2.671   0.494   8.427  0.1391 -1.2418 -0.1679
 3762SOL    HW122919   2.719   0.414   8.406  2.3348 -0.1014  0.4826
 3762SOL    HW222920   2.630   0.520   8.345 -1.9655  1.2492  1.6441
 3763SOL     OW22921   4.687   3.632   6.461  0.0107  0.4312  0.2413
 3763SOL    HW122922   4.637   3.713   6.465 -1.2156 -0.2866 -0.5425
 3763SOL    HW222923   4.627   3.571   6.418  2.3668 -1.0912 -0.8592
 3764SOL     OW22924   0.133   4.302   3.733 -0.5075  0.7131 -0.2367
 3764SOL    HW122925   0.193   4.348   3.673 -1.8758  1.9666 -0.6718
 3764SOL    HW222926   0.092   4.242   3.670  4.2732 -3.0962  0.3302
 3765SOL     OW22927   0.912   1.499   4.333  0.2636 -0.5554 -0.1857
 3765SOL    HW122928   0.873   1.566   4.277 -0.9542 -0.9274  0.2120
 3765SOL    HW222929   0.935   1.431   4.270  0.7483  0.4933 -1.1335
 3766SOL     OW22930   4.457   1.852   9.042 -0.1172 -0.4009  0.1721
 3766SOL    HW122931   4.412   1.925   9.084  0.5861  1.2856 -1.9962
 3766SOL    HW222932   4.529   1.904   9.007  0.1109 -1.1712 -0.5171
 3767SOL     OW22933   1.874   0.857   6.159  0.2681  0.1153  0.5442
 3767SOL    HW122934   1.866   0.930   6.222  1.1025 -0.1024  0.9006
 3767SOL    HW222935   1.933   0.807   6.215  1.1565  1.7479  1.0671
 3768SOL     OW22936   1.270   1.182   7.771  0.1015  0.2726 -0.0847
 3768SOL    HW122937   1.328   1.180   7.695  1.3029  2.3514  0.7716
 3768SOL    HW222938   1.216   1.258   7.750  0.8161 -0.0451 -3.0409
 3769SOL     OW22939   4.407   0.720   0.805  0.6571  0.2314 -0.2234
 3769SOL    HW122940   4.495   0.716   0.768  1.4657 -1.8136  1.9234
 3769SOL    HW222941   4.360   0.665   0.742  2.8279  1.3153 -2.7888
 3770SOL     OW22942   3.414   1.294   8.812  0.1161  0.3633  0.9798
 3770SOL    HW122943   3.383   1.283   8.722 -0.6026  0.2196  1.2464
 3770SOL    HW222944   3.403   1.204   8.841 -0.2875  0.5353  1.3679
 3771SOL     OW22945   0.231   4.373   7.078  0.1273  0.1417  0.4266
 3771SOL    HW122946   0.168   4.374   7.005 -0.1956  1.4373  0.7145
 3771SOL    HW222947   0.174   4.329   7.141 -0.3192  2.5885  1.7625
 3772SOL     OW22948   4.218   4.456   0.590 -0.4982 -0.2568 -0.2530
 3772SOL    HW122949   4.148   4.490   0.645  0.0857 -0.8963  0.8737
 3772SOL    HW222950   4.178   4.371   0.577 -1.1894 -0.2291  1.7462
 3773SOL     OW22951   1.982   4.691  13.937  0.3289  0.0671 -0.2204
 3773SOL    HW122952   1.981   4.723  13.846  0.0303 -0.2528 -0.3269
 3773SOL    HW222953   2.073   4.711  13.961 -0.4863  0.6061  2.3817
 3774SOL     OW22954   0.597   2.949  16.467 -0.3834 -0.9546 -0.4160
 3774SOL    HW122955   0.542   2.979  16.395 -0.4168 -1.7288 -0.7040
 3774SOL    HW222956   0.653   3.026  16.481  0.4674 -1.9274  1.6858
 3775SOL     OW22957   2.052   4.587   5.025 -0.0471  0.0855  0.2826
 3775SOL    HW122958   1.970   4.605   4.979  0.8804  1.5023 -0.8103
 3775SOL    HW222959   2.108   4.653   4.984 -0.6704  0.5231  0.1432
 3776SOL     OW22960   0.952   0.464  16.603  0.3233 -0.0219 -0.1613
 3776SOL    HW122961   0.948   0.478  16.508 -1.2877 -2.2526 -0.4077
 3776SOL    HW222962   1.047   0.449  16.602  0.3489  0.2524 -1.7519
 3777SOL     OW22963   4.694   0.992   1.189 -0.4478 -0.2082 -0.2816
 3777SOL    HW122964   4.681   1.024   1.100  1.2512 -0.5330 -0.6417
 3777SOL    HW222965   0.051   1.008   1.199 -0.1204 -1.0959 -2.0228
 3778SOL     OW22966   3.333   3.078   8.162 -0.0080  0.1561  0.1419
 3778SOL    HW122967   3.392   3.153   8.151  0.7142 -0.5447 -0.7716
 3778SOL    HW222968   3.318   3.066   8.256 -1.1210 -0.0471 -0.0661
 3779SOL     OW22969   3.041   3.999  11.092  0.0721  0.3813  0.6055
 3779SOL    HW122970   3.129   3.979  11.123 -0.6678 -2.3464  0.9504
 3779SOL    HW222971   3.026   4.074  11.150 -0.6130  0.4426  0.3566
 3780SOL     OW22972   1.607   4.496  16.906  0.5092 -0.2520  0.0460
 3780SOL    HW122973   1.600   4.437  16.980  1.6240 -0.2835  0.1295
 3780SOL    HW222974   1.701   4.489  16.888  0.7484 -1.2586  1.7629
 3781SOL     OW22975   4.325   2.572  15.051 -0.7871  0.2171 -0.0532
 3781SOL    HW122976   4.317   2.521  15.132  1.1347 -0.7644 -0.4861
 3781SOL    HW222977   4.348   2.654  15.094 -0.6549 -0.4879  1.2408
 3782SOL     OW22978   0.209   2.921   2.370 -0.1320 -0.0750  0.1237
 3782SOL    HW122979   0.216   3.016   2.359  1.3262 -0.3590 -1.2874
 3782SOL    HW222980   0.249   2.917   2.457  1.2578  0.3319 -0.5105
 3783SOL     OW22981   1.971   1.604   8.045 -0.3555  0.4124 -0.2450
 3783SOL    HW122982   1.901   1.550   8.083 -0.0984  1.2449  1.4023
 3783SOL    HW222983   2.045   1.544   8.052 -1.0780 -0.6647 -1.8490
 3784SOL     OW22984   4.122   2.106   5.525  0.0116  0.1284 -0.6785
 3784SOL    HW122985   4.201   2.148   5.559 -0.6453  0.6282  0.2314
 3784SOL    HW222986   4.074   2.186   5.503  0.0681  0.2812 -0.2504
 3785SOL     OW22987   2.939   4.260   8.243  0.5824 -0.3611 -0.0692
 3785SOL    HW122988   2.912   4.255   8.151  0.5032  1.3261 -0.1344
 3785SOL    HW222989   2.855   4.265   8.289  0.6315 -0.2503  0.0073
 3786SOL     OW22990   1.013   3.648  12.749 -0.4172 -0.2454 -0.1724
 3786SOL    HW122991   0.966   3.572  12.715 -1.5274  0.1771  0.4505
 3786SOL    HW222992   0.958   3.662  12.826  2.4502  1.8046  1.5078
 3787SOL     OW22993   3.766   0.697   3.289  0.2897 -0.5513 -0.0935
 3787SOL    HW122994   3.689   0.641   3.293 -0.3849  0.3569 -0.3140
 3787SOL    HW222995   3.833   0.633   3.266 -1.7742 -2.6912 -0.1220
 3788SOL     OW22996   3.436   1.114  10.983 -0.1724 -0.1230 -0.3918
 3788SOL    HW122997   3.501   1.183  10.969 -0.7812  0.6210  0.5280
 3788SOL    HW222998   3.362   1.173  10.995 -1.1584 -1.4598  0.0285
 3789SOL     OW22999   0.470   0.106   6.385  0.3906 -0.2235 -0.3707
 3789SOL    HW123000   0.392   0.130   6.335  0.5996 -0.2711 -0.7213
 3789SOL    HW223001   0.529   0.079   6.315  1.7554  1.0577  0.2675
 3790SOL     OW23002   1.093   3.553   8.234  0.5055 -0.0474 -0.0773
 3790SOL    HW123003   1.179   3.594   8.233  0.4757  0.0119 -0.2061
 3790SOL    HW223004   1.054   3.609   8.167 -0.7907 -3.8297 -2.4772
 3791SOL     OW23005   4.525   3.500   2.758 -0.2642  0.1253  0.7674
 3791SOL    HW123006   4.441   3.537   2.730 -0.8765 -0.2353  2.1473
 3791SOL    HW223007   4.518   3.520   2.851  0.6661  1.5856  0.5280
 3792SOL     OW23008   2.361   0.847   5.306  0.3139  0.2249  0.1764
 3792SOL    HW123009   2.288   0.809   5.354  0.0170  1.1364  0.4564
 3792SOL    HW223010   2.424   0.776   5.314 -0.2939 -0.3731 -0.2779
 3793SOL     OW23011   0.856   3.933   3.743 -0.1415 -0.0189  0.4017
 3793SOL    HW123012   0.797   4.008   3.749  1.4396  1.3924 -2.0816
 3793SOL    HW223013   0.818   3.875   3.810 -0.0735  0.8167  1.1551
 3794SOL     OW23014   1.190   1.064   8.012 -0.1027 -0.0723  0.7178
 3794SOL    HW123015   1.243   0.985   8.005 -1.7633 -1.3570  2.6025
 3794SOL    HW223016   1.216   1.100   7.927 -0.0696 -1.4353  0.1407
 3795SOL     OW23017   4.131   1.485  13.379 -0.2753 -0.6248  0.1771
 3795SOL    HW123018   4.070   1.558  13.390  1.9470  1.2536  0.1071
 3795SOL    HW223019   4.206   1.542  13.360  1.0619 -1.2249  3.8102
 3796SOL     OW23020   1.807   3.980   3.892  0.5326 -0.4953 -0.2327
 3796SOL    HW123021   1.871   4.008   3.957  0.0535  2.0481 -0.8844
 3796SOL    HW223022   1.731   4.026   3.927  1.3948  1.0786 -0.4485
 3797SOL     OW23023   3.357   1.717   5.425 -0.3794  0.7534  0.0952
 3797SOL    HW123024   3.330   1.679   5.341  0.1658  1.9853 -0.6408
 3797SOL    HW223025   3.368   1.809   5.401  0.5371  0.6533  0.1275
 3798SOL     OW23026   0.049   0.008   3.192 -1.1773 -0.1876 -0.1812
 3798SOL    HW123027   0.088   0.000   3.105 -0.9659 -0.7914 -0.0294
 3798SOL    HW223028   4.713   0.057   3.154  0.1202  0.7574 -1.4638
 3799SOL     OW23029   1.952   2.232   2.749  0.2113  0.6985 -0.3900
 3799SOL    HW123030   1.958   2.207   2.841 -3.0545  3.0080  0.4539
 3799SOL    HW223031   1.959   2.150   2.701 -3.4404 -0.5328  1.1170
 3800SOL     OW23032   3.037   1.051  10.132 -0.5695 -0.5544  0.2459
 3800SOL    HW123033   3.060   0.958  10.134 -0.5666 -0.5764 -1.4314
 3800SOL    HW223034   3.092   1.070  10.056  0.2979  0.1551  1.0426
 3801SOL     OW23035   2.236   0.772  13.687 -0.0704  0.2651 -0.6422
 3801SOL    HW123036   2.172   0.784  13.616 -2.2911 -0.1021  1.2998
 3801SOL    HW223037   2.186   0.811  13.758  0.7521 -0.3160  0.2480
 3802SOL     OW23038   0.873   4.040   1.956 -0.2120 -0.4646  0.4638
 3802SOL    HW123039   0.809   4.101   1.919 -0.6261  0.4243  2.7067
 3802SOL    HW223040   0.855   3.960   1.908  1.5527 -0.6838  0.1365
 3803SOL     OW23041   4.688   1.807   2.628 -0.0732  0.3479 -0.1291
 3803SOL    HW123042   4.599   1.774   2.616 -0.3110  1.2081 -0.7019
 3803SOL    HW223043   4.662   1.880   2.684 -0.3568  0.1620 -0.0201
 3804SOL     OW23044   0.784   2.578   4.235 -0.0861 -0.1742 -0.5508
 3804SOL    HW123045   0.848   2.507   4.229 -2.1430 -2.0180 -0.8404
 3804SOL    HW223046   0.699   2.536   4.220 -0.0329  0.5764 -3.0222
 3805SOL     OW23047   4.541   0.231   1.807  0.4404 -0.0846  0.0329
 3805SOL    HW123048   4.521   0.319   1.841  1.2239 -0.1264  0.6023
 3805SOL    HW223049   4.495   0.175   1.870 -2.5919 -0.7174 -2.7105
 3806SOL     OW23050   0.390   2.538  14.590  0.2812  0.2607  0.1406
 3806SOL    HW123051   0.473   2.582  14.612  1.0991 -1.6323  0.8408
 3806SOL    HW223052   0.338   2.608  14.551  0.9877  2.0894  2.4768
 3807SOL     OW23053   2.454   0.924  16.293 -0.3838  0.3817 -0.4939
 3807SOL    HW123054   2.468   1.000  16.236  0.8623 -1.4141 -2.5775
 3807SOL    HW223055   2.380   0.879  16.253 -1.2026  1.0185  0.3111
 3808SOL     OW23056   0.107   2.652   0.477 -0.5949 -0.0596 -0.1396
 3808SOL    HW123057   0.186   2.654   0.532 -1.2995 -1.6985  0.9344
 3808SOL    HW223058   0.133   2.670   0.387 -0.2815 -2.7316 -0.5698
 3809SOL     OW23059   1.150   2.308   6.687 -0.5713 -0.6220  0.1525
 3809SOL    HW123060   1.177   2.309   6.779  0.2872 -3.2892 -0.0894
 3809SOL    HW223061   1.066   2.353   6.685 -0.2618  0.0420  1.9766
 3810SOL     OW23062   2.525   0.536  11.589  0.6265  0.1417 -0.2462
 3810SOL    HW123063   2.601   0.513  11.642 -0.2928  1.2527  1.5462
 3810SOL    HW223064   2.535   0.632  11.589 -0.8611  0.3053  0.1128
 3811SOL     OW23065   1.569   0.489  16.785 -0.4764 -0.1943  0.1211
 3811SOL    HW123066   1.495   0.437  16.755 -0.5254 -0.4462  0.6699
 3811SOL    HW223067   1.519   0.571  16.787  0.8933  0.6680 -1.0048
 3812SOL     OW23068   4.160   4.621   1.325 -0.1254 -0.0805 -0.7898
 3812SOL    HW123069   4.087   4.639   1.266 -0.4560  1.1812 -0.0004
 3812SOL    HW223070   4.126   4.644   1.411 -0.6068 -2.6951 -0.2840
 3813SOL     OW23071   4.306   1.454  10.321 -0.2531  0.0032  0.3029
 3813SOL    HW123072   4.324   1.361  10.336  1.0616  0.6263  2.4077
 3813SOL    HW223073   4.215   1.448  10.291 -1.1021 -0.6417  3.0761
 3814SOL     OW23074   1.151   1.537   4.909 -0.0050  0.5706 -0.0093
 3814SOL    HW123075   1.068   1.562   4.950 -1.1616 -0.7333 -1.5672
 3814SOL    HW223076   1.205   1.614   4.924  1.8585 -0.9007  0.8570
 3815SOL     OW23077   3.359   0.998  17.461  0.4060  0.0773  0.3125
 3815SOL    HW123078   3.322   0.921  17.417  0.5601  0.3441 -0.2894
 3815SOL    HW223079   3.430   0.947  17.500  2.2614  1.9495 -0.5974
 3816SOL     OW23080   4.343   1.643  17.738  0.2511  0.5021 -0.9185
 3816SOL    HW123081   4.380   1.692   0.065  0.1011 -0.3278 -0.2895
 3816SOL    HW223082   4.291   1.712  17.697 -0.1074  1.1362  0.6254
 3817SOL     OW23083   2.101   2.106   4.998 -0.2970  0.1351  0.2511
 3817SOL    HW123084   2.043   2.037   5.031  0.8633 -1.6684 -1.5603
 3817SOL    HW223085   2.174   2.080   5.054  1.1489 -0.1138 -1.7497
 3818SOL     OW23086   1.752   0.112   4.130 -0.3969  0.3828  0.4163
 3818SOL    HW123087   1.728   0.143   4.217  2.8132  2.5958  0.5160
 3818SOL    HW223088   1.829   0.165   4.108 -0.0264 -1.1771 -2.0859
 3819SOL     OW23089   1.882   1.246   4.093 -0.0753 -0.1438 -0.5247
 3819SOL    HW123090   1.815   1.194   4.138 -1.8982  3.3961  0.7965
 3819SOL    HW223091   1.892   1.318   4.155  1.4194 -1.9832  1.4289
 3820SOL     OW23092   3.590   4.040   6.913 -0.2888  0.8087 -0.5293
 3820SOL    HW123093   3.517   4.076   6.964  1.4584  2.9665  0.4380
 3820SOL    HW223094   3.640   3.979   6.965 -1.9074 -1.8148 -2.0562
 3821SOL     OW23095   2.854   1.844  11.921 -0.4673  0.4835  0.6283
 3821SOL    HW123096   2.866   1.850  11.826  1.7070  0.4360  0.9071
 3821SOL    HW223097   2.830   1.752  11.925 -3.5332  1.3562  3.0403
 3822SOL     OW23098   3.045   4.223   2.438 -0.0752  0.3496  0.4976
 3822SOL    HW123099   3.130   4.225   2.482  0.7108  2.6098 -1.1297
 3822SOL    HW223100   3.045   4.146   2.382 -3.6003 -0.4758  1.6317
 3823SOL     OW23101   1.077   1.382  17.394 -0.3786 -0.3287 -0.3343
 3823SOL    HW123102   1.088   1.347  17.482  3.0038 -2.2355 -1.5216
 3823SOL    HW223103   1.131   1.326  17.339 -0.5408 -0.4366 -0.3839
 3824SOL     OW23104   1.208   1.541   7.417  0.2322  0.3474  0.0168
 3824SOL    HW123105   1.234   1.483   7.344  1.1959  2.0205 -0.9693
 3824SOL    HW223106   1.269   1.612   7.395 -0.7349  1.3090  0.5024
 3825SOL     OW23107   3.982   1.128   5.152  0.5193 -0.1619  0.3117
 3825SOL    HW123108   4.043   1.196   5.180 -0.5386  1.2169 -0.7515
 3825SOL    HW223109   3.909   1.179   5.117  0.2192  0.0387  1.2478
 3826SOL     OW23110   0.015   1.198   9.219  0.0374 -0.3171 -0.0754
 3826SOL    HW123111   4.680   1.134   9.218  0.7065 -1.1251  2.1815
 3826SOL    HW223112   4.716   1.239   9.141  0.2321  0.6181  0.3357
 3827SOL     OW23113   4.399   1.321  15.039  0.2598 -0.2315 -0.0755
 3827SOL    HW123114   4.435   1.253  14.982 -0.9607 -1.1747  0.2868
 3827SOL    HW223115   4.415   1.398  14.984  0.3316 -0.5538 -0.5134
 3828SOL     OW23116   0.300   1.925  11.630 -0.1300 -0.1277  0.2544
 3828SOL    HW123117   0.258   2.011  11.620 -2.3800 -1.2322  0.3882
 3828SOL    HW223118   0.241   1.858  11.598  1.7994 -1.0203 -1.4391
 3829SOL     OW23119   2.229   3.739  14.619  0.6371  0.0643 -0.0258
 3829SOL    HW123120   2.148   3.709  14.661 -0.3994 -1.8109 -3.2668
 3829SOL    HW223121   2.207   3.829  14.596 -3.2977 -0.6815  0.7377
 3830SOL     OW23122   4.310   0.050   2.534 -0.5317  0.6123 -0.2341
 3830SOL    HW123123   4.332   4.725   2.464  0.0645 -0.0310  0.5322
 3830SOL    HW223124   4.362   0.126   2.507 -2.2028  1.1627 -1.9060
 3831SOL     OW23125   0.202   0.966   2.543  0.6930  0.3325  0.5234
 3831SOL    HW123126   0.128   1.026   2.535  0.4914 -0.0387 -0.4453
 3831SOL    HW223127   0.165   0.884   2.511 -0.0073  0.0085  2.1563
 3832SOL     OW23128   4.223   4.403   4.583  0.0412  0.1902  0.0965
 3832SOL    HW123129   4.234   4.323   4.633  1.3153 -0.4599 -1.2292
 3832SOL    HW223130   4.258   4.371   4.500  1.6815 -1.0933  1.2803
 3833SOL     OW23131   2.230   3.419   0.644 -0.1959  0.0602  0.5787
 3833SOL    HW123132   2.318   3.451   0.660  1.1271 -2.6887 -1.2737
 3833SOL    HW223133   2.253   3.361   0.571  0.1097  0.7752  0.1091
 3834SOL     OW23134   2.056   1.419   8.534  0.7065 -0.2163 -0.1805
 3834SOL    HW123135   1.972   1.432   8.490 -0.0103  1.0344  1.5356
 3834SOL    HW223136   2.043   1.426   8.629 -0.3697 -2.0409 -0.2061
 3835SOL     OW23137   1.806   4.452   2.873 -0.2978  0.4184 -0.0067
 3835SOL    HW123138   1.721   4.420   2.843  1.5636 -1.2524 -3.4304
 3835SOL    HW223139   1.823   4.521   2.809  0.9245  0.1199  0.0071
 3836SOL     OW23140   3.989   4.566   4.551  0.2330 -0.1730  0.2383
 3836SOL    HW123141   4.009   4.659   4.562 -0.7486  0.1415 -0.6704
 3836SOL    HW223142   4.068   4.517   4.529 -0.7326 -0.5402 -2.4225
 3837SOL     OW23143   0.482   1.973  10.369 -0.1889 -0.0127  0.0375
 3837SOL    HW123144   0.572   2.007  10.371  1.1975 -3.5766  0.0090
 3837SOL    HW223145   0.496   1.926  10.287  2.0041  0.1440  0.3139
 3838SOL     OW23146   4.189   0.595   2.172 -0.6056  0.2756  0.3911
 3838SOL    HW123147   4.252   0.662   2.145  0.9722 -1.7823 -0.9836
 3838SOL    HW223148   4.236   0.557   2.246 -0.2623 -0.4310 -0.1864
 3839SOL     OW23149   0.421   4.525   7.767 -0.2497  0.6597 -0.0165
 3839SOL    HW123150   0.429   4.430   7.771  1.3430  0.7289 -1.6795
 3839SOL    HW223151   0.326   4.537   7.769 -0.0659  1.1930  4.7841
 3840SOL     OW23152   2.027   2.961   7.808 -0.3472 -0.4555 -1.1674
 3840SOL    HW123153   2.120   2.944   7.825  0.4486  2.8519 -2.2439
 3840SOL    HW223154   2.019   3.055   7.827  1.7540 -0.6325  0.6790
 3841SOL     OW23155   1.137   3.852   3.769  0.6208 -0.0207 -0.5458
 3841SOL    HW123156   1.196   3.928   3.780 -1.4295  1.2933  1.4778
 3841SOL    HW223157   1.061   3.903   3.797 -0.5897 -2.2133  0.0862
 3842SOL     OW23158   1.554   0.887   6.325 -0.2230  0.4126 -0.2167
 3842SOL    HW123159   1.610   0.812   6.347  1.3596  1.7797  0.4010
 3842SOL    HW223160   1.610   0.961   6.348  1.9923 -1.2374 -0.2842
 3843SOL     OW23161   2.467   1.291   3.267  0.6311 -0.3497 -0.0643
 3843SOL    HW123162   2.450   1.292   3.173 -0.6485  1.5120  0.1844
 3843SOL    HW223163   2.561   1.279   3.278  0.6605  0.4849  0.6304
 3844SOL     OW23164   1.226   2.250   2.816  0.1282 -0.2426 -0.1812
 3844SOL    HW123165   1.202   2.200   2.894 -1.1594 -1.0005 -1.0780
 3844SOL    HW223166   1.267   2.172   2.780 -0.1234 -0.7063  0.5318
 3845SOL     OW23167   3.004   3.646   2.449 -0.2224 -0.0925  0.2543
 3845SOL    HW123168   2.970   3.646   2.359  0.6573  0.6468 -0.0812
 3845SOL    HW223169   2.929   3.618   2.501  0.8479 -0.3978  1.6319
 3846SOL     OW23170   2.664   4.109   3.177 -0.0576 -0.4504 -0.3841
 3846SOL    HW123171   2.600   4.056   3.129  0.0514 -1.5646  0.6930
 3846SOL    HW223172   2.735   4.107   3.113  0.4766 -3.2114  0.2804
 3847SOL     OW23173   1.008   3.655  10.529  0.2096 -0.2343  0.3939
 3847SOL    HW123174   0.967   3.741  10.542 -0.4526 -0.5248  0.2432
 3847SOL    HW223175   1.079   3.679  10.470 -2.7103  4.5372 -1.1427
 3848SOL     OW23176   0.774   1.476   8.189  0.2427  0.5439  0.2438
 3848SOL    HW123177   0.719   1.525   8.128 -1.6260  2.0085  3.0937
 3848SOL    HW223178   0.707   1.462   8.256 -2.5455  0.9226 -2.4520
 3849SOL     OW23179   2.298   2.234  13.080  0.1500 -0.2533 -0.1682
 3849SOL    HW123180   2.303   2.327  13.059 -1.1794 -1.0934 -4.0621
 3849SOL    HW223181   2.206   2.211  13.072  0.0748 -0.9127  2.4090
 3850SOL     OW23182   2.205   4.226   7.325 -0.0271 -0.2174 -0.8459
 3850SOL    HW123183   2.219   4.144   7.279  0.4947 -2.7692  3.8742
 3850SOL    HW223184   2.235   4.294   7.265  1.4938 -0.5540 -0.4605
 3851SOL     OW23185   4.537   1.566   5.220  0.3542 -0.1297 -0.1855
 3851SOL    HW123186   4.546   1.548   5.127  1.8451 -1.1963  0.1672
 3851SOL    HW223187   4.618   1.524   5.249  1.0809  2.1169  1.0389
 3852SOL     OW23188   2.906   4.520   0.271 -0.2716 -0.6074  0.0571
 3852SOL    HW123189   2.888   4.608   0.236 -1.7011 -1.3544 -1.0726
 3852SOL    HW223190   2.919   4.473   0.189 -1.3346 -0.3114 -0.2748
 3853SOL     OW23191   0.309   1.314   0.972  0.4151  0.0265 -0.2356
 3853SOL    HW123192   0.316   1.273   1.058 -0.7869  1.5364  0.5747
 3853SOL    HW223193   0.313   1.235   0.917  0.6875 -0.0908 -0.0449
 3854SOL     OW23194   3.236   2.643   7.223 -0.3496 -0.4721  0.1429
 3854SOL    HW123195   3.268   2.713   7.280 -1.4934  0.7537 -0.7269
 3854SOL    HW223196   3.319   2.598   7.206  1.2695  2.5263  0.0998
 3855SOL     OW23197   1.667   4.187   3.006 -0.1642  0.3523 -0.0224
 3855SOL    HW123198   1.755   4.186   2.967  1.3930  0.3165  3.4735
 3855SOL    HW223199   1.614   4.219   2.934  0.2660  1.1256  0.0046
 3856SOL     OW23200   0.455   1.310   9.574 -0.3639 -0.5763 -0.1522
 3856SOL    HW123201   0.400   1.371   9.525 -0.6888  0.1163  1.0729
 3856SOL    HW223202   0.458   1.243   9.507 -2.1005  2.1662 -2.9564
 3857SOL     OW23203   0.516   3.531  11.133 -0.4821  0.4254  0.1496
 3857SOL    HW123204   0.444   3.537  11.070 -1.4812 -0.6030  1.1985
 3857SOL    HW223205   0.525   3.438  11.156 -2.3244 -0.2594 -1.8484
 3858SOL     OW23206   0.849   3.948   6.044 -0.1141  0.1745  0.0570
 3858SOL    HW123207   0.813   3.954   6.132 -0.4921 -2.7084  0.1035
 3858SOL    HW223208   0.920   3.884   6.054  0.6134  1.3952  2.6458
 3859SOL     OW23209   1.255   0.531   6.072  0.3995 -0.0311  0.0886
 3859SOL    HW123210   1.331   0.559   6.020  0.4987  0.3689  0.4489
 3859SOL    HW223211   1.283   0.562   6.158 -0.7207 -0.2216  0.5210
 3860SOL     OW23212   1.539   0.412   6.469  0.2357  0.0767  0.1397
 3860SOL    HW123213   1.563   0.338   6.524 -0.5232 -1.2230 -1.2999
 3860SOL    HW223214   1.582   0.389   6.387  1.2623 -2.5325  1.4272
 3861SOL     OW23215   0.738   2.090   0.417  0.2850 -0.2463 -0.1887
 3861SOL    HW123216   0.643   2.088   0.403  0.3425 -0.2003 -0.5899
 3861SOL    HW223217   0.744   2.000   0.450 -1.2842 -0.1050  0.4791
 3862SOL     OW23218   1.375   2.746   6.003 -0.1188  0.0509 -0.1935
 3862SOL    HW123219   1.335   2.827   5.971  2.0989  1.5862  0.9169
 3862SOL    HW223220   1.338   2.678   5.948  2.4633  0.5886 -2.5792
 3863SOL     OW23221   0.297   4.519   1.751 -0.4649  0.2223  0.2055
 3863SOL    HW123222   0.282   4.609   1.778 -3.1571 -0.0732 -0.3433
 3863SOL    HW223223   0.392   4.528   1.738 -0.2736 -2.1123 -0.1065
 3864SOL     OW23224   4.094   0.060  12.278 -1.2480  0.2015 -0.0172
 3864SOL    HW123225   4.028   0.127  12.298 -1.4055 -0.6412  2.2490
 3864SOL    HW223226   4.168   0.115  12.305 -1.0901 -0.8419  1.6532
 3865SOL     OW23227   2.442   0.760   6.526  0.0263  0.2374  0.1849
 3865SOL    HW123228   2.527   0.804   6.524 -0.4718  1.1717 -0.5121
 3865SOL    HW223229   2.455   0.677   6.479 -0.5808  0.4878 -0.4429
 3866SOL     OW23230   3.950   2.478  15.880  0.3897 -0.6181 -0.2701
 3866SOL    HW123231   3.883   2.518  15.824  0.5389  0.9748  0.7092
 3866SOL    HW223232   3.938   2.533  15.957 -2.1869 -2.5512  0.6871
 3867SOL     OW23233   4.346   1.390  17.425  0.7050  0.3087 -1.1382
 3867SOL    HW123234   4.299   1.394  17.509 -2.8147 -2.2887 -2.9978
 3867SOL    HW223235   4.376   1.300  17.441 -0.6526  0.8181  4.2830
 3868SOL     OW23236   4.341   4.214  12.637 -0.0054  0.0060  0.0048
 3868SOL    HW123237   4.302   4.291  12.596  1.8061  1.2319  0.5680
 3868SOL    HW223238   4.276   4.192  12.704 -0.4787 -0.2874 -0.5526
 3869SOL     OW23239   2.159   3.690   6.098  0.2089 -0.1413 -0.2418
 3869SOL    HW123240   2.124   3.761   6.044 -0.8060 -0.4157  0.0607
 3869SOL    HW223241   2.108   3.702   6.178 -0.2804 -4.6685  0.1058
 3870SOL     OW23242   0.923   3.377   3.117 -0.4270  0.0029  0.5962
 3870SOL    HW123243   0.863   3.316   3.075 -0.5051 -2.0033  3.6279
 3870SOL    HW223244   0.991   3.318   3.148 -1.2701 -1.4440 -0.3064
 3871SOL     OW23245   4.553   0.537   3.867 -0.1279  0.7084 -0.0544
 3871SOL    HW123246   4.595   0.459   3.832 -0.6883  0.6022 -0.4946
 3871SOL    HW223247   4.509   0.578   3.793  0.7081  1.1923 -0.2707
 3872SOL     OW23248   2.906   0.485   2.760  0.1358 -0.1576  0.1808
 3872SOL    HW123249   2.949   0.566   2.787  0.7335 -0.0032 -1.2681
 3872SOL    HW223250   2.853   0.460   2.836 -0.0007 -0.2661  0.0522
 3873SOL     OW23251   2.055   2.193   1.800  0.1492  0.0342 -0.8373
 3873SOL    HW123252   1.974   2.145   1.821  0.6034  0.2881  1.4854
 3873SOL    HW223253   2.031   2.215   1.710 -1.6254 -0.1438 -0.4104
 3874SOL     OW23254   3.867   1.438  13.597 -0.9636 -0.3935  0.3185
 3874SOL    HW123255   3.898   1.352  13.572 -2.7574 -0.4268 -1.8289
 3874SOL    HW223256   3.836   1.408  13.682  1.9686  0.5695  1.7397
 3875SOL     OW23257   0.192   4.341   1.577  0.3589 -0.5484 -0.0282
 3875SOL    HW123258   0.209   4.400   1.651  0.6822  0.1462 -0.6456
 3875SOL    HW223259   0.270   4.356   1.523 -0.7817 -1.0652 -1.7956
 3876SOL     OW23260   0.418   0.917   7.868  0.4666 -0.2552  0.4955
 3876SOL    HW123261   0.490   0.977   7.886 -0.3151  0.4115  1.4224
 3876SOL    HW223262   0.346   0.978   7.849 -0.4804 -0.6179  2.9004
 3877SOL     OW23263   2.795   0.332  16.138  0.5913 -0.2596 -0.3909
 3877SOL    HW123264   2.781   0.416  16.183  0.2718 -0.7626  0.4524
 3877SOL    HW223265   2.765   0.272  16.206  0.1192  0.3780 -0.0307
 3878SOL     OW23266   0.122   3.578   2.465 -0.5897 -0.1751 -0.1078
 3878SOL    HW123267   0.208   3.544   2.438 -1.5892 -0.2516 -3.1443
 3878SOL    HW223268   0.072   3.501   2.492 -1.3388  0.0472 -0.8849
 3879SOL     OW23269   1.417   0.185   3.462 -0.0144  0.3862  0.2743
 3879SOL    HW123270   1.364   0.169   3.541  0.0206 -3.5648 -0.4706
 3879SOL    HW223271   1.377   0.266   3.432 -1.2980  0.5683  2.4724
 3880SOL     OW23272   3.019   3.497  10.494 -0.5089 -0.3208  0.2287
 3880SOL    HW123273   2.943   3.455  10.456  0.6496 -0.3787 -2.0143
 3880SOL    HW223274   3.051   3.534  10.412 -1.6747 -1.1113 -0.5840
 3881SOL     OW23275   1.497   2.254  16.901  0.1278  0.6423 -0.0800
 3881SOL    HW123276   1.577   2.234  16.853  0.3436  2.4027 -0.4306
 3881SOL    HW223277   1.439   2.178  16.889  2.2351 -0.9803 -0.0685
 3882SOL     OW23278   2.244   0.707  16.575  0.4559  0.5195  0.9269
 3882SOL    HW123279   2.229   0.621  16.537  1.2239  1.5795 -1.7601
 3882SOL    HW223280   2.241   0.685  16.669 -0.7470 -2.1664  0.2606
 3883SOL     OW23281   3.298   3.440   5.055 -0.3459  0.1438  1.1021
 3883SOL    HW123282   3.309   3.525   5.013  0.3699 -0.8247 -0.6971
 3883SOL    HW223283   3.241   3.461   5.128  1.0921 -0.5832  2.4474
 3884SOL     OW23284   0.188   2.005  16.802 -0.0628  0.5457 -0.4822
 3884SOL    HW123285   0.226   2.032  16.886 -0.9114  2.6682 -0.7841
 3884SOL    HW223286   0.148   1.920  16.822  2.7225 -1.0564 -1.7367
 3885SOL     OW23287   0.215   3.715   1.023 -0.1236  0.1274 -0.1129
 3885SOL    HW123288   0.158   3.640   1.008 -0.5590  0.0249  2.0885
 3885SOL    HW223289   0.154   3.788   1.016  0.6461  0.6481 -1.3381
 3886SOL     OW23290   1.096   4.132   2.768  0.1662 -0.5680 -0.4962
 3886SOL    HW123291   1.011   4.146   2.726  0.4729  1.2369 -0.4935
 3886SOL    HW223292   1.067   4.127   2.860 -0.1383  0.2952 -0.5489
 3887SOL     OW23293   2.524   2.140   5.840 -0.1974  0.5723  0.3403
 3887SOL    HW123294   2.591   2.074   5.855  1.2027  1.6676 -1.0557
 3887SOL    HW223295   2.572   2.197   5.780  1.8256 -0.8919  0.5917
 3888SOL     OW23296   2.895   3.504   8.677 -0.1193  0.1959  0.5389
 3888SOL    HW123297   2.967   3.538   8.732  0.3739 -0.3817  0.2484
 3888SOL    HW223298   2.941   3.439   8.623 -0.5589  1.0503 -0.8731
 3889SOL     OW23299   4.358   2.010   0.090 -0.0593 -0.8497 -0.5349
 3889SOL    HW123300   4.379   2.096   0.127  0.8042  0.0494 -3.1294
 3889SOL    HW223301   4.337   2.036   0.001  0.4808 -1.3811 -0.8182
 3890SOL     OW23302   4.253   2.860   3.315 -0.1292  0.0928  0.5936
 3890SOL    HW123303   4.169   2.842   3.356  0.1841 -1.5253  0.5334
 3890SOL    HW223304   4.297   2.775   3.327 -1.1035 -0.9848 -3.7834
 3891SOL     OW23305   0.760   3.842  16.235 -0.4415 -0.5466  0.2306
 3891SOL    HW123306   0.812   3.922  16.233  2.6072 -2.4947  2.2967
 3891SOL    HW223307   0.758   3.826  16.329 -0.1248 -2.3506 -0.0688
 3892SOL     OW23308   4.181   2.323   8.083 -0.2725  0.0626 -0.4369
 3892SOL    HW123309   4.228   2.406   8.087 -0.9290  0.2851  2.7354
 3892SOL    HW223310   4.092   2.352   8.065 -0.2106  0.7791  0.4392
 3893SOL     OW23311   3.783   3.627  14.574  0.5718  0.2345 -0.0533
 3893SOL    HW123312   3.762   3.593  14.660  0.3284  1.1528  0.2540
 3893SOL    HW223313   3.835   3.557  14.534 -0.8284 -0.2462 -1.0190
 3894SOL     OW23314   2.169   2.127  16.155 -0.5391  0.3939 -0.4872
 3894SOL    HW123315   2.129   2.125  16.242  0.5150 -2.3700 -0.0788
 3894SOL    HW223316   2.097   2.118  16.093  0.0578  1.2186 -1.3077
 3895SOL     OW23317   3.508   2.578   8.893 -0.1570  0.3925  0.2509
 3895SOL    HW123318   3.454   2.657   8.892 -0.3567  0.2268 -1.6612
 3895SOL    HW223319   3.477   2.545   8.808 -0.3988  1.6978 -0.1645
 3896SOL     OW23320   1.376   2.821  13.376 -0.2756 -0.4145  0.1908
 3896SOL    HW123321   1.456   2.805  13.326  0.3526  1.1039  0.6990
 3896SOL    HW223322   1.390   2.764  13.452 -0.3567 -2.0019 -0.9769
 3897SOL     OW23323   2.942   3.692  17.677 -0.1409 -0.6646  0.4720
 3897SOL    HW123324   2.861   3.739  17.661  1.1368  1.6474  0.7014
 3897SOL    HW223325   3.006   3.736  17.621 -0.4793 -0.2215  0.4412
 3898SOL     OW23326   2.617   2.222   0.446 -0.5216 -0.4605  0.1334
 3898SOL    HW123327   2.562   2.255   0.374 -0.3015  2.1066  1.1598
 3898SOL    HW223328   2.542   2.191   0.496 -2.0316  3.1445  0.0683
 3899SOL     OW23329   2.972   0.481   1.851 -0.1612  0.1933 -0.3493
 3899SOL    HW123330   2.983   0.397   1.896  2.8469  0.6524 -0.2341
 3899SOL    HW223331   2.879   0.503   1.849 -0.0367  0.6036 -1.5284
 3900SOL     OW23332   2.881   1.590   4.915 -0.0959 -0.4151  0.6814
 3900SOL    HW123333   2.960   1.536   4.922 -0.2242 -0.3017  3.0452
 3900SOL    HW223334   2.825   1.516   4.892  0.8180 -1.4332  1.7257
 3901SOL     OW23335   1.946   2.619   7.788 -0.6948 -0.8563 -0.3330
 3901SOL    HW123336   1.921   2.663   7.707 -0.9161  0.6559  0.5434
 3901SOL    HW223337   2.040   2.605   7.781 -1.0717 -3.0666 -0.8818
 3902SOL     OW23338   1.624   3.778  15.259  0.1753  0.0642 -0.2555
 3902SOL    HW123339   1.701   3.723  15.249 -1.4490 -2.2782  0.0888
 3902SOL    HW223340   1.583   3.780  15.172  1.9108  1.2216 -1.0573
 3903SOL     OW23341   3.583   4.010   5.414  0.2082 -0.5274  0.4486
 3903SOL    HW123342   3.520   4.082   5.422 -0.2790 -0.7778 -1.0887
 3903SOL    HW223343   3.544   3.962   5.487 -0.2509 -0.1627  0.4420
 3904SOL     OW23344   1.590   4.295   1.601 -0.6325 -0.0822 -0.1233
 3904SOL    HW123345   1.601   4.200   1.591 -0.8286 -0.2070  0.8064
 3904SOL    HW223346   1.671   4.332   1.566 -0.5053  0.4125  0.6914
 3905SOL     OW23347   0.205   1.202  12.148  0.1720 -0.0067  0.6515
 3905SOL    HW123348   0.226   1.155  12.067 -1.2920 -0.7596  0.7056
 3905SOL    HW223349   0.254   1.282  12.130  0.3235 -0.1483  0.4371
 3906SOL     OW23350   0.882   1.397   9.552 -0.1896 -0.4902 -0.5582
 3906SOL    HW123351   0.862   1.468   9.613 -0.7423  0.7403 -2.1549
 3906SOL    HW223352   0.903   1.450   9.475 -0.5472 -0.3000 -0.5257
 3907SOL     OW23353   2.084   0.833  17.217  0.5363 -0.6082 -0.4224
 3907SOL    HW123354   2.081   0.884  17.136 -0.0869 -1.6718 -1.0767
 3907SOL    HW223355   2.130   0.756  17.185  0.3638 -0.1208 -1.8449
 3908SOL     OW23356   3.326   3.214  14.079 -0.3871 -0.4576  0.0910
 3908SOL    HW123357   3.278   3.219  13.996 -0.3580 -0.9780  0.0414
 3908SOL    HW223358   3.273   3.269  14.138  0.3514 -0.9356  1.1966
 3909SOL     OW23359   2.484   3.098  11.450  0.4794  0.4526  0.1110
 3909SOL    HW123360   2.481   3.177  11.503  0.2813 -0.2050  1.0993
 3909SOL    HW223361   2.429   3.042  11.505  0.4066  2.5255  2.1222
 3910SOL     OW23362   1.297   1.955   1.889 -0.2339  0.2234  0.0863
 3910SOL    HW123363   1.345   1.894   1.833 -2.6290 -0.8573 -0.7596
 3910SOL    HW223364   1.208   1.949   1.856  0.2675 -2.0597 -0.8165
 3911SOL     OW23365   3.012   1.654   3.164 -0.1727 -0.0282 -0.1743
 3911SOL    HW123366   2.996   1.742   3.130 -3.0849 -1.5054 -2.6396
 3911SOL    HW223367   3.030   1.612   3.080  0.0384  1.7748 -1.0287
 3912SOL     OW23368   2.477   2.196   2.646  0.2486 -0.5701  0.5976
 3912SOL    HW123369   2.406   2.137   2.671  1.0441 -2.8239 -2.4153
 3912SOL    HW223370   2.548   2.132   2.635  0.9726  0.1137  1.2939
 3913SOL     OW23371   0.404   1.874   7.188  0.2616 -0.5904  0.4726
 3913SOL    HW123372   0.331   1.872   7.251 -0.0860 -0.8625  0.0627
 3913SOL    HW223373   0.479   1.851   7.242  0.7324  1.4960  0.7173
 3914SOL     OW23374   3.355   4.183   5.145 -0.1620 -0.2308  0.0679
 3914SOL    HW123375   3.424   4.227   5.094 -2.4675  1.8104 -1.2678
 3914SOL    HW223376   3.397   4.181   5.231 -3.6055  0.9050  1.7757
 3915SOL     OW23377   1.787   0.333   2.048 -0.0210 -0.2198  0.6003
 3915SOL    HW123378   1.811   0.264   2.110  1.9740  0.2889  0.3933
 3915SOL    HW223379   1.847   0.311   1.976 -0.2159  0.7086  0.1612
 3916SOL     OW23380   2.932   1.497   5.449 -0.5266  0.3114 -0.4253
 3916SOL    HW123381   2.938   1.491   5.354 -1.1141 -1.6935 -0.3374
 3916SOL    HW223382   2.900   1.408   5.462  2.4845 -0.4926  1.3088
 3917SOL     OW23383   2.115   2.510   3.267 -0.6591 -0.4303 -0.2447
 3917SOL    HW123384   2.038   2.564   3.249 -1.5152 -2.3058 -2.1363
 3917SOL    HW223385   2.098   2.429   3.219  1.1290 -0.5901 -0.6055
 3918SOL     OW23386   0.579   3.801   8.186 -0.2320  0.0995 -0.6042
 3918SOL    HW123387   0.625   3.861   8.245  2.2801 -1.5310 -0.9016
 3918SOL    HW223388   0.640   3.786   8.113  0.9838 -3.7094  1.2315
 3919SOL     OW23389   4.702   1.709   4.239  0.5534 -0.0780  0.2499
 3919SOL    HW123390   4.659   1.630   4.207 -0.0212  0.3847 -0.1115
 3919SOL    HW223391   4.629   1.767   4.261  0.8865  1.0742 -1.7328
 3920SOL     OW23392   2.234   2.246   7.144 -0.2891 -0.5025 -0.3883
 3920SOL    HW123393   2.218   2.239   7.238  0.0655  1.0533 -0.2086
 3920SOL    HW223394   2.239   2.154   7.119  0.5776 -0.8853  1.1879
 3921SOL     OW23395   3.762   2.708   4.040  0.2989  0.6355  0.1033
 3921SOL    HW123396   3.694   2.710   4.107  0.8921 -1.3047  0.7666
 3921SOL    HW223397   3.721   2.656   3.971 -0.6510  2.1427 -0.4545
 3922SOL     OW23398   1.778   3.458   2.229 -0.3098 -0.1628 -0.2346
 3922SOL    HW123399   1.727   3.523   2.277 -1.2253 -0.1696 -1.2093
 3922SOL    HW223400   1.756   3.373   2.266 -2.1362  0.2546 -0.3929
 3923SOL     OW23401   1.720   2.293   5.517  0.2783  0.2171 -0.5777
 3923SOL    HW123402   1.717   2.233   5.592  0.6702 -0.2872 -0.9643
 3923SOL    HW223403   1.770   2.363   5.558  1.8323 -0.4514 -1.3341
 3924SOL     OW23404   3.079   1.375   2.880  0.2314 -0.6598 -0.1410
 3924SOL    HW123405   3.098   1.469   2.880  1.6923 -0.9353 -1.6634
 3924SOL    HW223406   3.138   1.342   2.811  0.5662 -1.0904  0.3532
 3925SOL     OW23407   3.840   1.039   4.849  0.1312  0.0546 -0.1878
 3925SOL    HW123408   3.826   1.094   4.772  2.2735 -0.8080 -1.1732
 3925SOL    HW223409   3.811   1.097   4.920 -0.0759 -0.9328  0.5416
 3926SOL     OW23410   0.698   0.639   8.496 -0.3565 -0.4109 -0.3638
 3926SOL    HW123411   0.730   0.581   8.427 -1.0738  0.1597 -1.1706
 3926SOL    HW223412   0.627   0.584   8.531  0.3116 -1.3001 -0.4188
 3927SOL     OW23413   3.451   4.534   2.927 -0.2561 -0.3031 -0.2969
 3927SOL    HW123414   3.438   4.624   2.954  2.6431 -0.1400  0.5767
 3927SOL    HW223415   3.445   4.492   3.013  0.1866 -0.5143 -0.3678
 3928SOL     OW23416   2.954   4.394  11.022 -0.1592  0.2899 -0.4474
 3928SOL    HW123417   3.045   4.392  11.050 -0.3822  0.7976  0.3399
 3928SOL    HW223418   2.913   4.435  11.098  0.7729  1.7627 -0.7413
 3929SOL     OW23419   3.591   4.635   8.036 -0.0394  0.2538  0.5348
 3929SOL    HW123420   3.638   4.703   8.085  1.0085 -0.8238  1.0305
 3929SOL    HW223421   3.508   4.680   8.022 -1.1886 -1.5661  1.5786
 3930SOL     OW23422   0.412   3.855   4.106 -0.2786  0.6164 -0.0409
 3930SOL    HW123423   0.337   3.808   4.069 -0.2833  1.3371 -0.9320
 3930SOL    HW223424   0.471   3.780   4.101 -1.4266 -0.2562 -0.6688
 3931SOL     OW23425   0.784   3.270   8.965 -0.7034  0.0282  0.7233
 3931SOL    HW123426   0.846   3.220   8.913  0.6226  1.1196  1.2652
 3931SOL    HW223427   0.708   3.279   8.906  0.5368  1.3778 -0.6644
 3932SOL     OW23428   1.588   0.939   8.413  0.1539  0.3733 -0.4325
 3932SOL    HW123429   1.559   0.913   8.500  0.7099 -3.0560 -1.2479
 3932SOL    HW223430   1.672   0.894   8.403 -0.1025 -0.1888 -0.0516
 3933SOL     OW23431   1.401   2.754  11.838  0.4306  0.6677 -0.9303
 3933SOL    HW123432   1.318   2.783  11.876 -0.2569  1.5379 -3.0926
 3933SOL    HW223433   1.471   2.812  11.871  0.5500  0.1022 -0.1905
 3934SOL     OW23434   2.618   1.677   4.701 -0.8927 -0.2251  0.0351
 3934SOL    HW123435   2.698   1.647   4.658 -0.5085  0.7004  0.1095
 3934SOL    HW223436   2.582   1.733   4.632 -0.3160  1.4273  1.0666
 3935SOL     OW23437   0.173   2.663   2.941 -0.0147 -0.5210 -0.3660
 3935SOL    HW123438   0.086   2.696   2.917  1.0461  1.1439 -1.9183
 3935SOL    HW223439   0.153   2.628   3.028  1.5181 -0.7866 -0.1150
 3936SOL     OW23440   1.610   0.648   2.089  0.6735 -0.1326  0.4206
 3936SOL    HW123441   1.522   0.621   2.065 -0.0910  1.9202  0.9635
 3936SOL    HW223442   1.655   0.658   2.004  0.2100 -1.1548  0.0589
 3937SOL     OW23443   4.514   3.614   8.961  0.9008 -0.2761 -0.3104
 3937SOL    HW123444   4.484   3.562   8.887 -2.0171  1.0064 -0.0173
 3937SOL    HW223445   4.597   3.571   8.984 -0.7522 -1.2933  3.9179
 3938SOL     OW23446   3.403   1.043   5.340 -0.0722  0.2923  0.5257
 3938SOL    HW123447   3.334   1.107   5.324  0.3765  0.3869 -1.0272
 3938SOL    HW223448   3.353   0.963   5.356  1.7501 -0.9053  0.3411
 3939SOL     OW23449   3.652   1.201   8.488 -0.6158  0.1738 -0.7055
 3939SOL    HW123450   3.587   1.257   8.446 -3.0766 -1.6292  0.6474
 3939SOL    HW223451   3.615   1.121   8.449 -3.2610 -0.1950  2.5131
 3940SOL     OW23452   4.040   3.072   8.228 -1.3515  0.2924  0.5306
 3940SOL    HW123453   3.975   3.124   8.276 -0.8785  1.0576  0.3240
 3940SOL    HW223454   4.000   2.985   8.235 -1.5078  0.3125 -0.0899
 3941SOL     OW23455   0.737   3.614   7.223  0.3126  0.8335 -0.0585
 3941SOL    HW123456   0.750   3.669   7.146  0.0324  0.2964 -0.4871
 3941SOL    HW223457   0.769   3.686   7.278 -0.9778  1.5890 -0.2835
 3942SOL     OW23458   3.439   0.751   2.228  0.1742  0.6816  0.8575
 3942SOL    HW123459   3.506   0.695   2.266 -0.5159 -0.9349 -0.3165
 3942SOL    HW223460   3.463   0.835   2.268 -1.5933  1.3130  0.6187
 3943SOL     OW23461   1.823   2.667  17.031  0.3529  0.2139 -0.0191
 3943SOL    HW123462   1.772   2.617  17.095  0.7447 -0.3887 -0.1772
 3943SOL    HW223463   1.750   2.675  16.970 -0.0632  1.7430  0.6773
 3944SOL     OW23464   0.731   2.036   4.882  0.3515 -0.2305  0.0515
 3944SOL    HW123465   0.825   2.044   4.870  0.5742 -3.1541 -0.0999
 3944SOL    HW223466   0.732   2.066   4.973 -0.9436 -1.3118  0.4176
 3945SOL     OW23467   4.120   0.042   8.278  0.3488 -0.5572  0.0111
 3945SOL    HW123468   4.156   0.117   8.326  1.1253 -0.9049 -0.0177
 3945SOL    HW223469   4.196   4.730   8.245  0.8970  0.5349 -0.3297
 3946SOL     OW23470   0.766   2.115  13.852 -0.0698  0.2691 -0.3798
 3946SOL    HW123471   0.723   2.178  13.794 -0.5615  1.6197  1.4394
 3946SOL    HW223472   0.854   2.143  13.829 -0.3146  2.1569  0.9391
 3947SOL     OW23473   4.139   2.716   6.645  0.7013  0.3006  0.4880
 3947SOL    HW123474   4.142   2.660   6.568  0.3069  2.0945 -0.8317
 3947SOL    HW223475   4.078   2.665   6.699 -0.1463 -1.3887 -2.1078
 3948SOL     OW23476   3.924   3.047  10.083 -0.3707 -0.3065  0.6000
 3948SOL    HW123477   3.843   2.997  10.081 -0.8879  0.5390  0.4829
 3948SOL    HW223478   3.896   3.135  10.061  1.0587 -0.0351 -0.1967
 3949SOL     OW23479   2.888   3.295   2.693  0.4580  0.2725  0.1750
 3949SOL    HW123480   2.864   3.218   2.641  0.6972  1.1217 -1.1778
 3949SOL    HW223481   2.830   3.361   2.655  0.4971  1.3600  2.0043
 3950SOL     OW23482   0.592   0.419   5.635  0.7977  0.1623  0.6254
 3950SOL    HW123483   0.555   0.434   5.548  1.8207 -1.7625 -0.1207
 3950SOL    HW223484   0.554   0.333   5.654 -0.8242  0.6493 -0.3771
 3951SOL     OW23485   0.609   3.641   4.817 -0.0557  0.7650  0.0704
 3951SOL    HW123486   0.636   3.550   4.802 -1.9867  0.7663 -3.4263
 3951SOL    HW223487   0.691   3.687   4.798  0.0478  0.0033 -1.3806
 3952SOL     OW23488   1.516   0.605  11.573 -0.2421 -0.8346  0.4163
 3952SOL    HW123489   1.526   0.680  11.631  0.8489  1.4526 -2.7878
 3952SOL    HW223490   1.447   0.549  11.609 -1.1096  0.2021  0.3597
 3953SOL     OW23491   0.486   1.726  15.053 -0.1136 -0.2960  0.2155
 3953SOL    HW123492   0.507   1.785  15.126 -0.6371  1.2369 -0.8665
 3953SOL    HW223493   0.542   1.772  14.991  1.2330 -1.8197  0.3309
 3954SOL     OW23494   0.922   2.723   9.387 -0.1038  0.1949 -0.4153
 3954SOL    HW123495   0.830   2.747   9.382 -0.2558 -0.1416  0.5949
 3954SOL    HW223496   0.941   2.743   9.479 -0.3859 -0.6444 -0.1692
 3955SOL     OW23497   1.677   2.073  14.211 -0.5102  0.0080  0.6194
 3955SOL    HW123498   1.593   2.042  14.242 -1.2067  0.2799 -0.9727
 3955SOL    HW223499   1.737   2.012  14.255  2.5244  2.2796 -0.3317
 3956SOL     OW23500   4.524   1.236  15.278 -0.2113  0.0019 -1.3166
 3956SOL    HW123501   4.562   1.323  15.289  0.7185 -0.6695  0.7188
 3956SOL    HW223502   4.483   1.246  15.192 -0.6512  0.8397 -1.0095
 3957SOL     OW23503   2.990   4.652   5.719 -0.1512  0.5234 -0.0627
 3957SOL    HW123504   2.914   4.695   5.680 -0.1525  2.5152  2.1288
 3957SOL    HW223505   3.013   4.703   5.797  1.4839 -0.1633 -0.0857
 3958SOL     OW23506   1.965   2.776  15.587 -0.3031  0.1476 -0.1516
 3958SOL    HW123507   1.966   2.681  15.593  0.1429  0.1261 -0.5291
 3958SOL    HW223508   1.978   2.790  15.680  1.6736  0.2963 -0.4551
 3959SOL     OW23509   0.806   0.133   7.176  0.6573  0.0487  0.8718
 3959SOL    HW123510   0.729   0.136   7.233 -0.3858  3.5319 -0.7186
 3959SOL    HW223511   0.798   0.041   7.148  1.4467 -0.4254  2.2171
 3960SOL     OW23512   3.578   0.501  10.649 -0.3807 -0.1757  0.3146
 3960SOL    HW123513   3.516   0.544  10.708  0.2440  3.0389 -1.4016
 3960SOL    HW223514   3.535   0.517  10.565 -1.5065 -0.7001  0.7929
 3961SOL     OW23515   0.672   3.605   6.271  0.5836  0.3584  0.0105
 3961SOL    HW123516   0.686   3.699   6.279 -2.7295  0.9789 -1.3680
 3961SOL    HW223517   0.626   3.609   6.187  0.8509 -0.6456 -0.1867
 3962SOL     OW23518   3.777   4.438   8.591  0.2117  0.5196 -0.1092
 3962SOL    HW123519   3.804   4.486   8.513  0.4553  1.2057  0.3995
 3962SOL    HW223520   3.852   4.382   8.609 -0.6131 -0.1302  1.3169
 3963SOL     OW23521   3.104   0.976  12.518  0.5481  0.0283 -0.2024
 3963SOL    HW123522   3.077   0.892  12.480 -0.0803  0.4520 -0.6869
 3963SOL    HW223523   3.139   0.958  12.605  0.4338 -2.0365 -0.5823
 3964SOL     OW23524   2.698   3.191   3.378 -0.2676 -0.2288 -0.2570
 3964SOL    HW123525   2.695   3.103   3.416 -1.2178 -0.4604 -0.8404
 3964SOL    HW223526   2.773   3.179   3.320  1.2029  2.0832  1.2083
 3965SOL     OW23527   4.722   2.258   2.226 -0.3314  0.1067 -0.2006
 3965SOL    HW123528   0.001   2.232   2.317  1.6960 -0.4697 -0.7122
 3965SOL    HW223529   4.672   2.183   2.193 -0.2520  0.0231 -0.1308
 3966SOL     OW23530   1.514   2.963   0.832  0.1779  0.0042  0.0228
 3966SOL    HW123531   1.485   2.878   0.798 -1.5894  0.2718  0.8669
 3966SOL    HW223532   1.482   3.016   0.759 -0.8522  0.1362  0.5684
 3967SOL     OW23533   1.847   3.243   8.877 -0.0083 -0.3503  0.8472
 3967SOL    HW123534   1.928   3.265   8.832  0.4415 -1.1610  1.2678
 3967SOL    HW223535   1.803   3.328   8.877 -0.0992 -0.3834  2.8746
 3968SOL     OW23536   3.201   0.219   5.801  0.0916 -0.3145 -0.1735
 3968SOL    HW123537   3.148   0.158   5.853 -1.9940  1.8369  0.2137
 3968SOL    HW223538   3.270   0.251   5.859 -0.8498 -0.0620  0.8158
 3969SOL     OW23539   1.978   1.756   6.281  0.2165 -0.1389  0.5529
 3969SOL    HW123540   2.055   1.701   6.289  0.1407 -0.2445  0.5628
 3969SOL    HW223541   1.908   1.691   6.290 -1.6648  1.8344  0.3133
 3970SOL     OW23542   2.834   1.383  16.209 -0.2257 -0.0864 -0.3497
 3970SOL    HW123543   2.901   1.314  16.212  2.0938  2.2140  0.9761
 3970SOL    HW223544   2.760   1.335  16.247  0.3765  0.7380  1.8985
 3971SOL     OW23545   0.477   1.636  14.288  0.2086 -0.5363 -0.0842
 3971SOL    HW123546   0.470   1.545  14.316 -1.8750 -0.4143 -0.2470
 3971SOL    HW223547   0.462   1.621  14.194 -1.1235  1.8060 -0.2463
 3972SOL     OW23548   0.828   4.631  11.253 -0.3079  0.4155  0.2961
 3972SOL    HW123549   0.887   4.585  11.313 -1.4506 -1.0762  0.2852
 3972SOL    HW223550   0.890   4.691  11.212 -1.0871  1.1576  0.2025
 3973SOL     OW23551   1.924   4.379   5.937 -0.0575  0.2628  0.4140
 3973SOL    HW123552   1.886   4.429   5.865  0.1493 -1.8744 -1.1929
 3973SOL    HW223553   2.019   4.383   5.926  0.3246 -0.2754  3.5582
 3974SOL     OW23554   4.387   1.852  15.010  0.0982  0.2207 -0.5222
 3974SOL    HW123555   4.368   1.933  15.057  0.0562 -0.9811  1.5069
 3974SOL    HW223556   4.309   1.852  14.955 -0.4922 -0.7759  0.3118
 3975SOL     OW23557   3.816   2.167   6.105  0.2267 -0.1050 -0.3712
 3975SOL    HW123558   3.872   2.154   6.182 -0.9607  1.1012  0.6873
 3975SOL    HW223559   3.753   2.095   6.115 -1.7518  2.0364  2.3441
 3976SOL     OW23560   1.041   1.731   8.483  0.1020 -0.2705 -0.1853
 3976SOL    HW123561   1.050   1.636   8.492  1.3435 -0.0061  1.4099
 3976SOL    HW223562   1.032   1.741   8.389  2.6296  1.1502 -0.2933
 3977SOL     OW23563   2.125   0.887   2.122 -0.5316  0.2000 -0.3154
 3977SOL    HW123564   2.148   0.970   2.081  2.6864 -0.8094 -0.5152
 3977SOL    HW223565   2.090   0.840   2.046  2.7074 -2.2429 -0.2811
 3978SOL     OW23566   4.530   2.970  13.946  0.1325  0.3573 -0.0216
 3978SOL    HW123567   4.493   3.046  13.900 -0.5669 -0.2959 -0.5335
 3978SOL    HW223568   4.548   2.920  13.866  1.6997  0.3856  0.3125
 3979SOL     OW23569   2.740   3.104   1.011  0.3369 -0.0339  0.2188
 3979SOL    HW123570   2.832   3.126   1.002  0.5913 -1.0665  0.2193
 3979SOL    HW223571   2.721   3.116   1.104  2.2092 -0.4051  0.6360
 3980SOL     OW23572   3.911   1.307   9.154 -0.0321  0.8358 -0.3016
 3980SOL    HW123573   3.972   1.380   9.148 -0.3817  1.3233  1.9307
 3980SOL    HW223574   3.861   1.303   9.072 -0.3546  0.6462 -0.0980
 3981SOL     OW23575   3.954   3.341   5.818 -0.3826 -0.8472  0.0010
 3981SOL    HW123576   3.973   3.251   5.790  0.8715 -1.1246  1.7319
 3981SOL    HW223577   3.921   3.329   5.907  1.9436 -1.6308  0.7586
 3982SOL     OW23578   3.361   0.999   8.817  0.2019 -0.3999 -0.7348
 3982SOL    HW123579   3.266   1.017   8.815  0.1198 -0.6627  0.5634
 3982SOL    HW223580   3.365   0.994   8.913 -0.6504 -4.3526 -0.9206
 3983SOL     OW23581   4.695   1.544  14.431  0.3532 -0.0277  0.0297
 3983SOL    HW123582   4.678   1.465  14.380  0.7555  0.7362 -1.2952
 3983SOL    HW223583   0.037   1.584  14.394  0.1746 -2.0919 -2.5047
 3984SOL     OW23584   3.380   1.599   1.810 -0.4093 -0.5347  0.1681
 3984SOL    HW123585   3.347   1.686   1.790 -0.6227 -1.2874 -2.7944
 3984SOL    HW223586   3.316   1.581   1.879 -1.4148 -2.3916 -1.2494
 3985SOL     OW23587   4.493   2.860  14.182  0.6629 -0.2514  0.2578
 3985SOL    HW123588   4.505   2.937  14.237  1.4908  0.4745 -0.9199
 3985SOL    HW223589   4.505   2.905  14.098 -1.9562  1.9274  1.0665
 3986SOL     OW23590   2.970   1.059   7.233  0.5294  0.3587 -0.0594
 3986SOL    HW123591   2.933   1.089   7.315 -2.8386  0.6382 -1.6905
 3986SOL    HW223592   2.934   0.971   7.221  0.2912  0.4778 -0.2130
 3987SOL     OW23593   2.443   2.858   2.196 -0.0832  0.6244  0.0919
 3987SOL    HW123594   2.474   2.775   2.159 -0.3129 -0.2166  1.7786
 3987SOL    HW223595   2.350   2.846   2.178  0.3879  0.4331 -2.2537
 3988SOL     OW23596   1.666   4.424  11.435 -0.4198 -0.1766 -0.7399
 3988SOL    HW123597   1.755   4.431  11.468 -1.1626  1.0962  1.0286
 3988SOL    HW223598   1.660   4.502  11.380  0.6739  1.5132  1.5250
 3989SOL     OW23599   4.439   2.067   7.065  0.1283 -0.4528 -0.5005
 3989SOL    HW123600   4.511   2.006   7.044  2.3745  1.8518  0.5277
 3989SOL    HW223601   4.478   2.111   7.140 -0.3377 -1.3160  0.2502
 3990SOL     OW23602   2.444   1.558  12.057 -0.0882  0.1103  0.1541
 3990SOL    HW123603   2.352   1.535  12.073  0.2082 -1.0897  0.1546
 3990SOL    HW223604   2.454   1.623  12.127  0.1675  1.0846 -0.7899
 3991SOL     OW23605   2.226   1.414   5.678  0.0870  0.0833 -0.2605
 3991SOL    HW123606   2.318   1.387   5.673 -0.2292 -1.3959  1.8732
 3991SOL    HW223607   2.222   1.427   5.773  0.1235  0.1991 -0.2751
 3992SOL     OW23608   0.355   1.998   5.296  0.0042 -0.4171  0.1197
 3992SOL    HW123609   0.380   1.980   5.206  2.4185 -0.8847  0.8982
 3992SOL    HW223610   0.434   2.026   5.342  0.1868  1.0671 -1.0873
 3993SOL     OW23611   2.168   3.536   2.683  0.1725 -0.2429  0.1405
 3993SOL    HW123612   2.106   3.476   2.723 -0.7121  0.6093  0.0397
 3993SOL    HW223613   2.141   3.619   2.722 -0.1804  0.7475 -2.2053
 3994SOL     OW23614   1.789   2.319   4.301 -0.6339  0.1968  0.2851
 3994SOL    HW123615   1.853   2.273   4.354 -0.9428 -0.6278 -0.0505
 3994SOL    HW223616   1.711   2.313   4.357 -0.3673  0.7525  0.7097
 3995SOL     OW23617   0.340   1.362   6.129 -0.3459  0.4147  0.2816
 3995SOL    HW123618   0.314   1.302   6.199  1.9380 -0.9925 -0.0653
 3995SOL    HW223619   0.431   1.381   6.153  0.4220 -0.6246 -1.8001
 3996SOL     OW23620   3.203   1.335   2.425 -0.2921 -0.3523 -0.2181
 3996SOL    HW123621   3.202   1.418   2.473 -0.1120  0.1326 -1.0682
 3996SOL    HW223622   3.295   1.318   2.406  0.2866  1.1825  1.1575
 3997SOL     OW23623   2.322   0.697   7.244  0.1557  0.4590  0.0486
 3997SOL    HW123624   2.230   0.692   7.218 -0.4776  1.8497  2.0770
 3997SOL    HW223625   2.339   0.771   7.186 -0.3059 -0.5523 -1.3858
 3998SOL     OW23626   2.196   2.248   4.623  0.1727 -0.7282  0.6584
 3998SOL    HW123627   2.242   2.185   4.568 -1.5990 -1.7188  0.2960
 3998SOL    HW223628   2.253   2.258   4.699  0.7837  1.1166 -0.0454
 3999SOL     OW23629   4.391   2.617   3.272  0.5720 -0.4172 -0.1125
 3999SOL    HW123630   4.433   2.630   3.356  2.0046  1.0030 -1.0551
 3999SOL    HW223631   4.441   2.681   3.221 -1.4718  1.3025  0.0305
 4000SOL     OW23632   0.219   1.619  16.570  0.4229  0.3700 -0.2006
 4000SOL    HW123633   0.173   1.540  16.599  1.9321  0.0142  1.2732
 4000SOL    HW223634   0.229   1.597  16.477 -1.3396 -0.8992 -0.0945
 4001SOL     OW23635   2.994   2.249   6.852  0.0533  0.2827  0.0456
 4001SOL    HW123636   2.994   2.174   6.793 -0.3494  1.5296 -1.5176
 4001SOL    HW223637   3.065   2.226   6.912  0.8319  2.3227 -0.1063
 4002SOL     OW23638   3.712   0.175   4.523  0.3479  0.2150 -0.0655
 4002SOL    HW123639   3.794   0.216   4.494 -0.5355  1.9676 -0.0519
 4002SOL    HW223640   3.694   0.114   4.452 -2.1762  3.5428 -2.2620
 4003SOL     OW23641   1.802   1.686  14.307  0.0001 -0.3221  0.1543
 4003SOL    HW123642   1.786   1.638  14.226  0.4664  3.1087 -1.9686
 4003SOL    HW223643   1.756   1.630  14.370  0.1036  0.6919  1.1271
 4004SOL     OW23644   0.227   3.306   8.815  0.5225  0.4695  0.1581
 4004SOL    HW123645   0.242   3.385   8.763  2.6313  0.4202  0.6933
 4004SOL    HW223646   0.261   3.241   8.753  0.3221  0.9409 -0.4514
 4005SOL     OW23647   4.223   3.498  10.018  0.4603 -0.7028  0.2421
 4005SOL    HW123648   4.219   3.439  10.093  2.9081 -2.0428 -0.6926
 4005SOL    HW223649   4.252   3.436   9.951  1.0434 -0.2527  0.0821
 4006SOL     OW23650   2.669   0.587   5.319 -0.0330 -0.5374  0.4211
 4006SOL    HW123651   2.764   0.583   5.337 -0.1803 -0.2579  1.3084
 4006SOL    HW223652   2.655   0.548   5.234  0.3898 -0.7613  0.4543
 4007SOL     OW23653   4.157   2.889   4.367 -0.4275  0.5603  0.0884
 4007SOL    HW123654   4.094   2.821   4.345 -0.9468  1.0480  0.0569
 4007SOL    HW223655   4.105   2.938   4.431 -1.3776  0.6791 -0.7738
 4008SOL     OW23656   3.889   4.408  10.546  0.0633  0.2365 -0.1716
 4008SOL    HW123657   3.802   4.432  10.513  0.2877 -0.2448 -1.1085
 4008SOL    HW223658   3.868   4.349  10.619 -0.4564 -1.9581 -2.0745
 4009SOL     OW23659   2.364   0.424   2.182 -0.0272  0.2924  0.1031
 4009SOL    HW123660   2.278   0.456   2.156 -0.1119  0.0228  0.0459
 4009SOL    HW223661   2.405   0.430   2.095 -1.5156  1.0619 -0.5490
 4010SOL     OW23662   4.418   0.138   2.050  0.2487 -0.1198 -0.2175
 4010SOL    HW123663   4.486   0.180   2.104  0.1191 -0.4338  0.1861
 4010SOL    HW223664   4.347   0.202   2.061  0.2515 -0.5238  2.1906
 4011SOL     OW23665   3.153   4.038   5.532 -0.4035 -0.4083 -0.0393
 4011SOL    HW123666   3.129   4.003   5.618  3.8140  0.2996  1.4164
 4011SOL    HW223667   3.198   4.120   5.549 -1.9349  0.2682  0.7409
 4012SOL     OW23668   1.820   1.086   5.572 -0.2463  0.6175  0.0190
 4012SOL    HW123669   1.780   1.126   5.649  2.7409  0.7504  1.5067
 4012SOL    HW223670   1.897   1.143   5.567  0.8971 -1.1699 -2.4893
 4013SOL     OW23671   1.163   0.666   3.360 -0.1632  0.1199  0.2567
 4013SOL    HW123672   1.111   0.744   3.343  0.4064 -0.0956 -2.4022
 4013SOL    HW223673   1.239   0.699   3.409 -0.7054 -2.4176  2.8225
 4014SOL     OW23674   1.280   0.393   5.584 -0.7084  0.1524  0.3377
 4014SOL    HW123675   1.201   0.441   5.559 -0.7641  1.1189  2.4292
 4014SOL    HW223676   1.247   0.334   5.652  1.4631 -1.5007 -0.0458
 4015SOL     OW23677   0.158   1.641   1.059  0.2809 -0.1888 -0.0401
 4015SOL    HW123678   0.129   1.677   0.975  1.9101  0.9225 -0.1234
 4015SOL    HW223679   0.108   1.560   1.071  1.0448 -0.4659  1.3143
 4016SOL     OW23680   3.066   1.224  16.527 -0.2233 -0.3603 -0.5459
 4016SOL    HW123681   2.980   1.265  16.533  0.3320  1.2017 -3.7638
 4016SOL    HW223682   3.089   1.235  16.619  0.7591 -0.0221 -0.8355
 4017SOL     OW23683   2.089   1.717  16.489 -0.2075  0.5691  0.4835
 4017SOL    HW123684   2.153   1.730  16.419 -0.6471 -0.4967 -0.1172
 4017SOL    HW223685   2.066   1.804  16.522 -1.8899  0.2058  0.2703
 4018SOL     OW23686   0.777   0.688  10.900  0.5401  0.4688 -0.0289
 4018SOL    HW123687   0.831   0.732  10.965  0.5488  0.3217  0.0636
 4018SOL    HW223688   0.692   0.731  10.909 -0.3607 -0.7247 -2.7231
 4019SOL     OW23689   0.762   3.257   0.509  0.1330 -0.5479 -0.2710
 4019SOL    HW123690   0.725   3.193   0.448 -0.5510 -2.9781  2.7120
 4019SOL    HW223691   0.855   3.248   0.487  0.8179 -0.0917  2.5169
 4020SOL     OW23692   3.515   0.227   1.841  0.3299 -0.0646  0.2772
 4020SOL    HW123693   3.450   0.296   1.858  0.8353 -0.0350  1.9849
 4020SOL    HW223694   3.457   0.158   1.809  2.2519 -1.5855  0.1579
 4021SOL     OW23695   0.341   3.607   2.935  0.4634  0.4119  0.1125
 4021SOL    HW123696   0.288   3.685   2.949 -0.3573  0.4359 -3.0072
 4021SOL    HW223697   0.411   3.631   2.995 -0.2272 -0.7704  1.3871
 4022SOL     OW23698   2.225   4.314   2.266  0.2258 -0.5371 -0.8330
 4022SOL    HW123699   2.201   4.227   2.234  0.9663 -0.5426 -1.3506
 4022SOL    HW223700   2.133   4.334   2.286  0.2459 -0.8537 -0.4264
 4023SOL     OW23701   0.543   0.756   1.433  0.7855  0.4614  0.0765
 4023SOL    HW123702   0.479   0.821   1.463  0.0297 -0.0812 -0.3695
 4023SOL    HW223703   0.526   0.694   1.504 -1.3228 -0.4298 -1.2040
 4024SOL     OW23704   2.668   4.447   7.861  0.1906  0.1061  0.4515
 4024SOL    HW123705   2.712   4.481   7.782  0.1467 -0.9265 -0.0284
 4024SOL    HW223706   2.586   4.493   7.847  0.0627 -0.1210  0.4539
 4025SOL     OW23707   0.311   1.227   4.260 -0.2515  0.1752  0.1015
 4025SOL    HW123708   0.283   1.318   4.258 -1.6492 -0.2747 -0.4502
 4025SOL    HW223709   0.380   1.229   4.327  0.4147  1.2917 -0.6177
 4026SOL     OW23710   1.730   2.616  10.268 -0.3636 -0.6005  0.5804
 4026SOL    HW123711   1.784   2.629  10.345 -1.3690 -0.1763  1.2205
 4026SOL    HW223712   1.789   2.577  10.204  0.7477  2.3225 -0.1954
 4027SOL     OW23713   0.780   2.011   7.026  0.1652 -0.2391  0.8616
 4027SOL    HW123714   0.849   2.072   7.002  0.8950 -0.3353  2.6640
 4027SOL    HW223715   0.710   2.071   7.054 -0.5632 -0.9282  0.4819
 4028SOL     OW23716   4.448   2.756   1.114 -0.1046 -0.0781  0.4840
 4028SOL    HW123717   4.458   2.845   1.147  0.6537  0.1369 -0.3367
 4028SOL    HW223718   4.492   2.697   1.177 -1.6043 -1.4276  0.2674
 4029SOL     OW23719   0.088   4.641   1.094 -0.4395  0.3180 -0.0590
 4029SOL    HW123720   0.023   4.571   1.094  3.2989 -3.0997 -1.2399
 4029SOL    HW223721   0.105   4.636   1.000  2.1299  1.9856  0.2942
 4030SOL     OW23722   0.634   2.331   3.907  0.1435 -0.1019 -0.1788
 4030SOL    HW123723   0.598   2.255   3.954  1.2266  0.4387  1.5357
 4030SOL    HW223724   0.638   2.304   3.816 -1.1335 -3.4326  0.7620
 4031SOL     OW23725   1.516   1.301   8.776  0.2790  0.3962  0.4687
 4031SOL    HW123726   1.454   1.235   8.746  1.5112 -1.1001  1.2570
 4031SOL    HW223727   1.585   1.257   8.825  1.2954 -0.1529 -1.4424
 4032SOL     OW23728   3.806   1.955   5.566  0.0241  0.3350 -0.2546
 4032SOL    HW123729   3.835   2.007   5.641 -1.0562  0.6290 -0.0312
 4032SOL    HW223730   3.726   1.915   5.601  1.3563 -1.5867  0.5686
 4033SOL     OW23731   0.214   3.999   3.564 -0.4061 -0.1361  0.7586
 4033SOL    HW123732   0.252   3.929   3.511  0.0195  0.1876  0.6445
 4033SOL    HW223733   0.159   3.945   3.621  0.0254 -3.2771 -1.7934
 4034SOL     OW23734   2.097   1.584  17.372 -0.0486 -0.1151 -1.3694
 4034SOL    HW123735   2.071   1.520  17.438  2.9146 -0.2205 -0.3178
 4034SOL    HW223736   2.132   1.530  17.302  0.3116 -1.1388 -0.4039
 4035SOL     OW23737   1.532   0.851   4.862 -0.4428 -0.1110  0.3139
 4035SOL    HW123738   1.443   0.881   4.842  0.2263  0.7054 -1.4309
 4035SOL    HW223739   1.521   0.857   4.957  3.2329 -1.8044  0.8635
 4036SOL     OW23740   0.977   0.570  12.041  0.1807 -0.1290 -0.3242
 4036SOL    HW123741   0.936   0.494  12.082 -2.3014  2.1666  1.4601
 4036SOL    HW223742   0.907   0.630  12.016  1.1015  1.4815  0.9715
 4037SOL     OW23743   1.540   0.788   8.755 -0.4162  0.6637 -0.1603
 4037SOL    HW123744   1.625   0.743   8.744 -0.1722  0.4684  2.4892
 4037SOL    HW223745   1.497   0.717   8.804 -0.7851  0.4062 -0.8639
 4038SOL     OW23746   0.014   4.165   9.454 -0.2892  0.2298  0.6660
 4038SOL    HW123747   0.014   4.106   9.529  0.8330  0.8094  1.1336
 4038SOL    HW223748   4.694   4.122   9.390  0.7635 -1.0149  0.5494
 4039SOL     OW23749   1.449   0.866   4.148  0.1611 -0.3112 -0.3156
 4039SOL    HW123750   1.373   0.921   4.129 -0.4898 -2.0306 -2.8136
 4039SOL    HW223751   1.426   0.835   4.236 -0.7657 -1.7043 -1.0466
 4040SOL     OW23752   1.595   2.672   7.155  0.3931  0.0013 -0.4390
 4040SOL    HW123753   1.586   2.604   7.222  1.4670  0.3466  0.0572
 4040SOL    HW223754   1.504   2.678   7.125  0.6227  0.8105 -0.9720
 4041SOL     OW23755   1.838   0.468  16.239 -0.5530 -0.0970 -0.2828
 4041SOL    HW123756   1.794   0.550  16.218 -0.1141 -0.0004 -0.8245
 4041SOL    HW223757   1.795   0.439  16.320  0.9407  0.2519  0.6346
 4042SOL     OW23758   3.504   4.538   6.581  0.1139  0.4428 -0.7479
 4042SOL    HW123759   3.597   4.516   6.582 -0.4099 -1.7421 -0.2316
 4042SOL    HW223760   3.471   4.457   6.621  1.1300  0.6666  0.5650
 4043SOL     OW23761   4.151   0.341  10.584 -0.8365  0.0154  0.5055
 4043SOL    HW123762   4.067   0.317  10.623 -0.5824 -1.6920 -0.0156
 4043SOL    HW223763   4.147   0.287  10.506  0.0649 -1.0005  1.1635
 4044SOL     OW23764   0.347   2.441   5.224 -0.5131  0.4437 -0.4597
 4044SOL    HW123765   0.336   2.459   5.131 -1.5579 -0.4716 -0.5011
 4044SOL    HW223766   0.430   2.394   5.236 -0.7872  0.3510  1.0158
 4045SOL     OW23767   2.300   3.474   3.441 -0.2712 -0.1274 -0.5786
 4045SOL    HW123768   2.338   3.507   3.522 -1.0610  1.3007 -0.7847
 4045SOL    HW223769   2.227   3.432   3.487  0.8278 -1.2660  0.1046
 4046SOL     OW23770   2.684   0.699   3.237 -0.5750 -0.5194 -0.3288
 4046SOL    HW123771   2.667   0.651   3.318  0.2422 -0.0429  0.1324
 4046SOL    HW223772   2.594   0.706   3.205  0.1395  0.7471 -2.0502
 4047SOL     OW23773   3.334   4.669  10.258 -0.1582  0.2168 -0.8906
 4047SOL    HW123774   3.343   0.026  10.275 -3.0262  0.3607 -0.2745
 4047SOL    HW223775   3.316   4.638  10.347  0.0187 -1.2054 -1.3562
 4048SOL     OW23776   4.044   0.472   5.064 -0.0178  0.2389 -0.9308
 4048SOL    HW123777   4.060   0.557   5.104 -1.1306 -0.0414  0.0959
 4048SOL    HW223778   4.109   0.418   5.110 -0.1639  0.1287 -0.8569
 4049SOL     OW23779   3.906   2.284   2.948  0.2857  0.0578 -0.4238
 4049SOL    HW123780   4.000   2.269   2.942  0.2245 -0.7666  0.5483
 4049SOL    HW223781   3.902   2.379   2.935  1.7154  0.2179  0.2921
 4050SOL     OW23782   4.452   0.146   0.791  0.2913  0.0072  0.3644
 4050SOL    HW123783   4.440   0.145   0.696 -0.7453 -0.2068  0.5026
 4050SOL    HW223784   4.375   0.096   0.816  0.0252  1.1245  1.7220
 4051SOL     OW23785   1.912   2.057   6.838  0.0261 -0.3834  0.2445
 4051SOL    HW123786   1.992   2.004   6.839 -0.3160 -0.9519 -2.6265
 4051SOL    HW223787   1.946   2.137   6.796 -1.4589 -0.1731 -0.5598
 4052SOL     OW23788   2.683   3.578  14.778  0.4437  0.0424 -0.0930
 4052SOL    HW123789   2.742   3.644  14.816  0.1945 -0.9702  2.0615
 4052SOL    HW223790   2.622   3.641  14.740 -0.7102 -1.1490 -0.2124
 4053SOL     OW23791   4.375   1.149   5.397  0.2114  0.1619 -0.3570
 4053SOL    HW123792   4.424   1.214   5.447 -0.0908  2.9188 -3.6628
 4053SOL    HW223793   4.440   1.112   5.338  1.1224 -0.8940  1.3262
 4054SOL     OW23794   1.127   1.748  11.478  0.4161  0.4038 -0.4175
 4054SOL    HW123795   1.199   1.803  11.509  0.7755 -1.1073  1.4262
 4054SOL    HW223796   1.148   1.662  11.514  0.8453  0.7432  0.1496
 4055SOL     OW23797   4.411   2.346  16.256  0.3504 -0.3055  0.1509
 4055SOL    HW123798   4.488   2.305  16.295 -0.3667  0.1742  2.0519
 4055SOL    HW223799   4.442   2.435  16.240  1.1690 -0.3437  1.5301
 4056SOL     OW23800   2.121   3.084   7.494 -0.4405 -0.0535 -0.1800
 4056SOL    HW123801   2.086   3.135   7.567  0.2573 -1.0374  0.8324
 4056SOL    HW223802   2.046   3.072   7.436 -0.4591 -0.0968 -0.1471
 4057SOL     OW23803   3.669   3.970   9.152  0.2881  0.0976  0.3924
 4057SOL    HW123804   3.609   4.026   9.104  0.1392  0.1886  0.6810
 4057SOL    HW223805   3.707   3.903   9.097  0.8842 -0.2020  1.1649
 4058SOL     OW23806   4.504   3.127   5.236 -0.0768  0.3420  0.0184
 4058SOL    HW123807   4.422   3.085   5.212  2.2842 -3.4947 -1.2255
 4058SOL    HW223808   4.471   3.217   5.245  1.1217  0.7703  0.1426
 4059SOL     OW23809   2.136   0.230  12.770  0.0243 -0.1547  1.3053
 4059SOL    HW123810   2.109   0.162  12.709 -0.1076  2.9628 -2.1278
 4059SOL    HW223811   2.053   0.269  12.798 -0.5889  1.2142 -2.4828
 4060SOL     OW23812   0.945   0.831   0.290  0.2666  0.5189  0.3505
 4060SOL    HW123813   0.850   0.824   0.280  0.4969  0.0740 -1.6782
 4060SOL    HW223814   0.947   0.908   0.346  1.9517 -0.5207  1.7335
 4061SOL     OW23815   1.349   1.126  15.020 -0.0522  0.0794  0.0964
 4061SOL    HW123816   1.388   1.172  15.094  0.0473 -0.0049  0.0951
 4061SOL    HW223817   1.427   1.106  14.968  0.5682 -0.7109  1.3508
 4062SOL     OW23818   4.700   2.370   5.211 -0.4503 -0.3981 -0.3504
 4062SOL    HW123819   0.037   2.377   5.151 -1.9882 -1.2730 -2.3924
 4062SOL    HW223820   0.006   2.346   5.293  1.5044  0.7667 -1.0307
 4063SOL     OW23821   2.589   2.830  10.819  0.0984  0.9312 -0.3729
 4063SOL    HW123822   2.557   2.841  10.908 -0.7955 -1.0551 -0.4668
 4063SOL    HW223823   2.629   2.917  10.808  0.8175  0.6747  0.2055
 4064SOL     OW23824   1.381   3.307   2.489  0.4824 -0.0829 -0.0296
 4064SOL    HW123825   1.349   3.287   2.577 -2.6731  1.9019 -0.7557
 4064SOL    HW223826   1.305   3.339   2.441  0.9789 -0.2125 -0.9054
 4065SOL     OW23827   3.007   2.230   6.467  0.5480 -0.3239  0.1448
 4065SOL    HW123828   3.046   2.280   6.394  1.7184 -0.3996  0.7217
 4065SOL    HW223829   2.951   2.297   6.505 -0.0036 -1.0764  0.6360
 4066SOL     OW23830   0.790   3.097   5.889  0.0618  0.1362 -0.9292
 4066SOL    HW123831   0.698   3.096   5.862  0.0813  0.6197 -1.0198
 4066SOL    HW223832   0.796   3.168   5.953  0.8216 -2.2071  1.5965
 4067SOL     OW23833   0.732   4.187   4.785 -0.2463 -0.0873  0.8908
 4067SOL    HW123834   0.689   4.265   4.822 -0.6797 -0.8242  1.9468
 4067SOL    HW223835   0.819   4.215   4.755  0.5215 -0.9913  2.2463
 4068SOL     OW23836   2.338   2.044   5.171  0.6144 -0.0914  0.2579
 4068SOL    HW123837   2.327   2.128   5.214 -1.6247 -0.5079  0.4999
 4068SOL    HW223838   2.411   2.005   5.220  0.4413 -1.3567 -0.4753
 4069SOL     OW23839   3.606   4.424   6.951 -0.1082  0.2750  0.2984
 4069SOL    HW123840   3.580   4.436   7.043  1.0644 -0.0803  0.6864
 4069SOL    HW223841   3.698   4.402   6.965 -0.4502 -1.4397 -0.0805
 4070SOL     OW23842   0.735   2.993  15.910  0.5029  0.1082 -0.3664
 4070SOL    HW123843   0.830   2.990  15.903  0.5635  2.7460 -0.4034
 4070SOL    HW223844   0.713   3.069  15.964  1.0961 -1.0679  1.5366
 4071SOL     OW23845   3.718   4.522   0.759 -0.5344 -0.4042 -0.0201
 4071SOL    HW123846   3.647   4.475   0.716  0.1157 -0.3206 -1.1987
 4071SOL    HW223847   3.674   4.606   0.766  0.2677 -0.0600  0.9194
 4072SOL     OW23848   3.695   0.713   7.376 -0.0069 -0.0885 -0.2580
 4072SOL    HW123849   3.666   0.712   7.284 -0.3482  1.6551 -0.1596
 4072SOL    HW223850   3.680   0.618   7.383 -1.5392  0.2862  1.3747
 4073SOL     OW23851   0.597   3.861  13.388  0.6048 -0.1791 -0.1391
 4073SOL    HW123852   0.613   3.892  13.299  1.7155 -1.4287 -0.3648
 4073SOL    HW223853   0.505   3.881  13.405  1.4886  3.4183  0.4129
 4074SOL     OW23854   4.057   0.631   4.095  0.0881 -0.1644 -0.1241
 4074SOL    HW123855   4.121   0.686   4.141 -0.6298 -0.0809  0.7713
 4074SOL    HW223856   4.119   0.593   4.033 -2.3696 -1.6793 -1.6335
 4075SOL     OW23857   2.561   0.864   2.234 -0.7200 -0.2920  0.1974
 4075SOL    HW123858   2.490   0.915   2.194 -0.1047  0.3720 -0.0351
 4075SOL    HW223859   2.631   0.858   2.170  0.4417  0.8640  1.3565
 4076SOL     OW23860   0.066   1.548   5.274  0.2803  0.0738  0.1339
 4076SOL    HW123861   0.120   1.494   5.331  1.1067 -0.2252 -0.9287
 4076SOL    HW223862   0.131   1.593   5.220 -1.4088 -0.9766 -2.7913
 4077SOL     OW23863   3.253   3.573   5.659 -0.1539  0.3855  0.3984
 4077SOL    HW123864   3.284   3.485   5.679  1.6380  0.9720  0.2060
 4077SOL    HW223865   3.291   3.586   5.572 -0.8367  1.9158  0.3439
 4078SOL     OW23866   4.274   0.506   4.291  0.4863  0.3865 -0.0842
 4078SOL    HW123867   4.210   0.576   4.277 -0.7659 -0.5631  0.8611
 4078SOL    HW223868   4.332   0.527   4.218  0.3231  1.8567  0.2189
 4079SOL     OW23869   0.585   3.481   7.549 -0.2123 -0.2841 -0.0358
 4079SOL    HW123870   0.531   3.558   7.535 -1.2348 -1.2655 -1.4553
 4079SOL    HW223871   0.635   3.483   7.468  1.6920  1.4718  1.1914
 4080SOL     OW23872   1.201   1.706   0.082 -0.1634 -0.2271 -0.2329
 4080SOL    HW123873   1.193   1.739   0.171  0.8056 -2.2040  0.6008
 4080SOL    HW223874   1.191   1.614   0.106  1.4411 -0.6959 -1.3507
 4081SOL     OW23875   3.620   1.688   5.403 -0.3371  0.8789 -0.6692
 4081SOL    HW123876   3.532   1.694   5.439 -0.5436  0.2369 -1.0897
 4081SOL    HW223877   3.675   1.686   5.482  1.2472 -0.9381 -1.8214
 4082SOL     OW23878   2.199   0.842   5.033  0.0844  0.4174  0.2190
 4082SOL    HW123879   2.271   0.856   5.093 -1.1008  2.7151  1.1350
 4082SOL    HW223880   2.181   0.928   4.992 -0.6178 -0.4723 -1.3623
 4083SOL     OW23881   4.234   0.496   2.446 -0.2550  0.3997 -0.6075
 4083SOL    HW123882   4.170   0.459   2.506  0.7819 -1.2407 -0.5061
 4083SOL    HW223883   4.241   0.584   2.483 -0.9319  1.4180 -2.9245
 4084SOL     OW23884   0.319   1.164  16.144  0.0613  0.6927 -0.4453
 4084SOL    HW123885   0.354   1.234  16.089  0.7158  0.9019  0.2419
 4084SOL    HW223886   0.372   1.099  16.097  0.3630 -0.5792  1.6439
 4085SOL     OW23887   3.146   4.035   1.668 -0.1078  0.3480 -0.2906
 4085SOL    HW123888   3.101   3.992   1.742  1.1972  0.2143  0.4275
 4085SOL    HW223889   3.175   3.956   1.623  2.8459  0.9145  0.6229
 4086SOL     OW23890   0.759   0.716   7.420  0.3265 -0.5004  0.4698
 4086SOL    HW123891   0.747   0.638   7.365  1.6290 -1.2089  1.1957
 4086SOL    HW223892   0.709   0.703   7.501  0.8375  0.6038  0.9660
 4087SOL     OW23893   0.718   0.093   1.366 -0.5185  0.0203 -0.2723
 4087SOL    HW123894   0.703   0.117   1.274  1.7688  0.7818 -0.4706
 4087SOL    HW223895   0.762   0.010   1.349  0.9804  0.4741  1.4048
 4088SOL     OW23896   3.663   2.064   6.410  0.3201  0.6704  0.0573
 4088SOL    HW123897   3.608   2.011   6.467 -1.2589  0.0459 -2.0478
 4088SOL    HW223898   3.654   2.031   6.320 -1.7097 -0.2886  0.6296
 4089SOL     OW23899   3.125   4.492   8.592  0.7172 -0.5782  0.4394
 4089SOL    HW123900   3.063   4.419   8.591  0.8277 -0.6731  0.5076
 4089SOL    HW223901   3.104   4.541   8.672 -3.0822 -2.2256  0.4361
 4090SOL     OW23902   1.461   1.834   6.000 -0.7594 -0.5466 -0.0842
 4090SOL    HW123903   1.494   1.752   5.964  0.4833 -0.9753  2.0627
 4090SOL    HW223904   1.409   1.870   5.928  2.8594 -0.2275 -2.5613
 4091SOL     OW23905   3.496   2.948   7.933 -0.2860  0.1456 -0.1586
 4091SOL    HW123906   3.456   2.973   7.849  1.2151 -1.4814 -1.3537
 4091SOL    HW223907   3.465   3.022   7.986  2.1064 -0.0744  1.5387
 4092SOL     OW23908   0.951   3.607   5.216  0.0319  0.2820 -0.3289
 4092SOL    HW123909   0.981   3.520   5.242  1.2282  0.4879 -1.0189
 4092SOL    HW223910   0.880   3.625   5.277  1.2984  2.5075  0.4793
 4093SOL     OW23911   0.922   3.668   5.675  0.8066 -0.0367  0.4273
 4093SOL    HW123912   0.873   3.624   5.744 -1.1772 -0.6155 -1.3708
 4093SOL    HW223913   0.910   3.602   5.607 -0.0719 -0.1374  0.6798
 4094SOL     OW23914   0.731   0.009   9.928 -0.5876  0.3373 -0.6440
 4094SOL    HW123915   0.720   4.664   9.879  0.7393 -0.7590  0.9169
 4094SOL    HW223916   0.673   0.064   9.875  1.1614  2.5421 -0.2432
 4095SOL     OW23917   4.290   0.361   6.991 -0.2202  0.0381 -0.7354
 4095SOL    HW123918   4.380   0.342   6.967 -0.4232  1.1321 -2.3665
 4095SOL    HW223919   4.244   0.278   6.974  1.0843 -1.3185  2.5167
 4096SOL     OW23920   3.006   0.280   2.604 -0.0764 -0.2087  0.8566
 4096SOL    HW123921   2.945   0.287   2.530  0.5722 -1.2878  0.2188
 4096SOL    HW223922   2.976   0.355   2.655  0.8416  0.9802 -0.3166
 4097SOL     OW23923   0.762   0.354   7.045  0.2537  0.1794  0.1177
 4097SOL    HW123924   0.799   0.278   7.091 -0.2721  0.2335  0.6292
 4097SOL    HW223925   0.678   0.317   7.017 -0.6267  1.5658  0.9263
 4098SOL     OW23926   1.478   2.632   9.045 -0.1276  0.1587 -0.3973
 4098SOL    HW123927   1.529   2.697   8.996  2.2845 -0.3472  1.4308
 4098SOL    HW223928   1.418   2.607   8.975  0.0980 -1.3917 -0.0383
 4099SOL     OW23929   0.566   2.258   5.258 -0.8290 -0.8935  0.2056
 4099SOL    HW123930   0.574   2.218   5.345 -0.1231 -0.4214  0.3638
 4099SOL    HW223931   0.654   2.237   5.225 -1.9084 -0.4824 -2.9482
 4100SOL     OW23932   0.043   0.094   2.532 -0.1977  0.1524  0.3231
 4100SOL    HW123933   0.104   0.084   2.459  2.2835  0.2860  2.4144
 4100SOL    HW223934   0.095   0.122   2.607 -0.4177 -0.7969  0.8320
 4101SOL     OW23935   2.149   2.496   4.502  0.3008 -0.2057  0.4950
 4101SOL    HW123936   2.138   2.409   4.542  1.5570 -1.1584 -1.2584
 4101SOL    HW223937   2.140   2.552   4.579 -0.3398 -1.8581  1.6213
 4102SOL     OW23938   4.046   3.610   8.141 -0.0548  0.3375  0.2840
 4102SOL    HW123939   4.077   3.673   8.076 -3.0958  0.4712 -1.0042
 4102SOL    HW223940   4.073   3.645   8.225  0.8155  0.1298  0.0924
 4103SOL     OW23941   2.856   1.845   4.817  0.3006 -0.4266  0.4565
 4103SOL    HW123942   2.852   1.749   4.821  0.2464 -0.4048  0.8679
 4103SOL    HW223943   2.787   1.868   4.878 -0.2578  2.3970 -1.2338
 4104SOL     OW23944   1.828   4.384   1.515  0.5110 -0.5887  0.2751
 4104SOL    HW123945   1.919   4.398   1.542  0.9406 -0.3374 -1.2865
 4104SOL    HW223946   1.804   4.474   1.537  0.5228 -0.5150 -0.0200
 4105SOL     OW23947   2.291   2.279  11.987  0.0080 -0.1984  0.7062
 4105SOL    HW123948   2.210   2.244  11.951 -1.6065  3.6351  0.6353
 4105SOL    HW223949   2.359   2.264  11.921 -0.1310  1.0571  0.2808
 4106SOL     OW23950   1.417   2.271   3.899  0.0541 -0.0038 -0.4336
 4106SOL    HW123951   1.352   2.337   3.874 -0.8417 -0.6867  0.0762
 4106SOL    HW223952   1.483   2.288   3.831  0.8673  0.8328  0.5597
 4107SOL     OW23953   2.650   3.007  11.748 -0.2943 -0.3082 -0.4012
 4107SOL    HW123954   2.607   2.933  11.705 -0.6222  0.4831 -1.4366
 4107SOL    HW223955   2.722   3.015  11.686 -0.4448  0.5754 -0.4664
 4108SOL     OW23956   1.963   0.472   2.471  0.0359 -0.7371  0.7820
 4108SOL    HW123957   2.046   0.494   2.512  1.5809  0.4789 -2.9971
 4108SOL    HW223958   1.967   0.518   2.387 -2.0093 -1.8454  0.0749
 4109SOL     OW23959   4.334   3.620   3.796 -0.0623 -0.2218 -0.2446
 4109SOL    HW123960   4.302   3.710   3.793  0.9697  0.1400 -0.5390
 4109SOL    HW223961   4.400   3.634   3.865  1.4235  3.9047 -2.5634
 4110SOL     OW23962   3.188   1.890  11.837  0.0948  0.1514 -0.3791
 4110SOL    HW123963   3.215   1.831  11.767  1.9255  1.1377 -0.4877
 4110SOL    HW223964   3.204   1.842  11.918  0.5818  1.1884  0.1418
 4111SOL     OW23965   3.103   1.853  17.010 -0.3592 -0.6808 -0.4476
 4111SOL    HW123966   3.096   1.773  16.957 -2.2324 -1.1835  0.5479
 4111SOL    HW223967   3.012   1.861  17.039  0.1799  1.8455  0.5113
 4112SOL     OW23968   3.536   3.182  10.199  0.4735  0.0881  0.1028
 4112SOL    HW123969   3.520   3.166  10.292  0.6098 -0.3128  0.0584
 4112SOL    HW223970   3.568   3.098  10.165 -1.1240 -1.3706  2.1597
 4113SOL     OW23971   1.675   3.762   7.430  0.2192  0.0372 -0.3033
 4113SOL    HW123972   1.767   3.747   7.409 -0.3197 -2.5974 -0.8320
 4113SOL    HW223973   1.639   3.744   7.344 -0.1542  1.1867 -0.3808
 4114SOL     OW23974   0.947   2.401  10.676 -0.4217 -0.0275  0.1061
 4114SOL    HW123975   0.996   2.478  10.702 -1.8093  0.6188  0.7866
 4114SOL    HW223976   0.870   2.447  10.642  0.9318  1.7181 -0.6007
 4115SOL     OW23977   0.435   2.540   3.950 -0.0879 -0.5326  0.2022
 4115SOL    HW123978   0.505   2.587   3.905 -0.7080 -2.0769 -2.3658
 4115SOL    HW223979   0.481   2.523   4.032 -1.3209 -0.5037  0.8951
 4116SOL     OW23980   0.886   3.470  13.826 -0.1623  0.2987  0.3675
 4116SOL    HW123981   0.836   3.391  13.849 -1.0966  0.6915 -0.3348
 4116SOL    HW223982   0.963   3.437  13.780 -1.8993 -1.3584 -1.3692
 4117SOL     OW23983   4.649   1.648   6.805  0.0891  0.2607  0.1403
 4117SOL    HW123984   4.584   1.643   6.735  1.1526  0.9413 -0.9153
 4117SOL    HW223985   4.697   1.724   6.772  1.3168  0.7572  3.0564
 4118SOL     OW23986   1.368   0.126   6.898 -0.0822 -0.4865  0.0916
 4118SOL    HW123987   1.285   0.150   6.856  0.2439 -0.6592 -0.6384
 4118SOL    HW223988   1.350   0.032   6.890  1.4362 -0.5124 -2.8068
 4119SOL     OW23989   0.947   4.288  14.723 -0.4409 -0.3577  0.4132
 4119SOL    HW123990   0.896   4.229  14.668 -1.3693  2.2412 -1.4746
 4119SOL    HW223991   0.898   4.369  14.707  0.3836  0.1777  0.5649
 4120SOL     OW23992   0.792   4.545   3.867  0.1196 -0.0629 -0.0006
 4120SOL    HW123993   0.730   4.497   3.921 -0.0519  1.0322  0.7818
 4120SOL    HW223994   0.738   4.610   3.822  3.8663  1.7030 -1.9920
 4121SOL     OW23995   3.613   4.026  11.727 -1.2213  0.7341 -0.0310
 4121SOL    HW123996   3.708   4.031  11.714 -1.3009  0.3869 -0.7113
 4121SOL    HW223997   3.597   3.978  11.808 -0.9610  0.4216 -0.1679
 4122SOL     OW23998   2.651   2.109   0.097  0.0975 -0.0448 -0.1264
 4122SOL    HW123999   2.745   2.096   0.099  0.0059 -0.6626  0.0502
 4122SOL    HW224000   2.618   2.048   0.163  0.1469  0.9833  0.8609
 4123SOL     OW24001   0.987   3.323   8.512  0.0020  0.3858 -0.1106
 4123SOL    HW124002   1.025   3.263   8.577  1.9636 -0.5605 -2.1287
 4123SOL    HW224003   1.055   3.331   8.445 -0.4425  1.3641 -0.4504
 4124SOL     OW24004   0.561   1.660   0.726  0.4632  0.1039 -0.1783
 4124SOL    HW124005   0.544   1.747   0.690  0.6280 -0.5651 -1.8978
 4124SOL    HW224006   0.520   1.661   0.813 -0.7847  2.1201 -0.7821
 4125SOL     OW24007   0.557   0.593   8.084  0.0719 -0.2284 -0.1451
 4125SOL    HW124008   0.553   0.535   8.008  0.4868  0.5510 -0.7582
 4125SOL    HW224009   0.649   0.616   8.089 -0.6339  2.4524  1.0431
 4126SOL     OW24010   1.360   0.406   2.733  0.1133 -0.2407  0.4525
 4126SOL    HW124011   1.416   0.440   2.664 -0.2137  1.7666  1.1573
 4126SOL    HW224012   1.420   0.337   2.761 -1.0387 -1.6114 -0.4569
 4127SOL     OW24013   3.182   3.359   8.694 -0.1934 -0.1839 -0.3899
 4127SOL    HW124014   3.154   3.315   8.775  1.9933 -0.8081  0.0504
 4127SOL    HW224015   3.141   3.302   8.630  1.3534 -0.2220 -1.3554
 4128SOL     OW24016   2.153   1.399   4.699  0.1166  0.0731 -0.2186
 4128SOL    HW124017   2.124   1.454   4.627  1.2746  2.6847  1.2781
 4128SOL    HW224018   2.221   1.343   4.659 -0.0514 -0.7487  0.6395
 4129SOL     OW24019   3.157   2.303   8.511 -0.0929  0.1695  0.9915
 4129SOL    HW124020   3.104   2.224   8.520 -0.9390  0.5127 -1.0357
 4129SOL    HW224021   3.135   2.354   8.589 -0.3329  1.6752 -0.0454
 4130SOL     OW24022   2.096   3.130  15.281  0.1783 -0.5677  0.5634
 4130SOL    HW124023   2.170   3.129  15.342 -0.9801  1.4632  1.9810
 4130SOL    HW224024   2.129   3.141  15.192  0.9497 -1.7575  0.6921
 4131SOL     OW24025   1.205   0.196   1.330  0.1406 -0.2399  0.3391
 4131SOL    HW124026   1.209   0.151   1.414  2.3892  0.1731  0.4448
 4131SOL    HW224027   1.189   0.123   1.270 -1.7755 -0.4370  1.0922
 4132SOL     OW24028   2.467   4.336   0.264 -0.1989  0.2473 -0.1519
 4132SOL    HW124029   2.550   4.378   0.286  0.8331 -1.2865 -1.0753
 4132SOL    HW224030   2.436   4.325   0.354  1.1829 -0.3971  0.2361
 4133SOL     OW24031   3.329   3.038   6.832  0.9265  0.2739  0.1138
 4133SOL    HW124032   3.330   3.009   6.923 -2.1476 -1.3722 -0.3670
 4133SOL    HW224033   3.421   3.064   6.831  1.2035 -0.5900  2.5824
 4134SOL     OW24034   3.246   2.247  10.096 -0.2035  0.3179  0.3443
 4134SOL    HW124035   3.246   2.317  10.030 -1.5711 -0.3606 -0.3878
 4134SOL    HW224036   3.340   2.243  10.114 -0.0159 -0.5722 -0.8199
 4135SOL     OW24037   3.888   4.416   6.926  0.2972 -0.3004 -0.3376
 4135SOL    HW124038   3.860   4.330   6.955 -1.8134  0.2668 -0.6953
 4135SOL    HW224039   3.978   4.411   6.958  0.4588  0.1747 -0.7074
 4136SOL     OW24040   2.259   2.358  10.824  0.5578 -0.1796  0.1255
 4136SOL    HW124041   2.237   2.372  10.732 -2.4898 -0.5066  0.7831
 4136SOL    HW224042   2.188   2.396  10.875 -1.5741 -2.6433 -0.9928
 4137SOL     OW24043   0.891   3.454   6.264  0.1571  0.7999 -0.0552
 4137SOL    HW124044   0.896   3.439   6.358  0.8025 -1.4140 -0.4343
 4137SOL    HW224045   0.821   3.519   6.263 -0.5962 -0.0067  0.1324
 4138SOL     OW24046   3.562   0.255  16.188  0.4217  0.7026 -0.0238
 4138SOL    HW124047   3.643   0.212  16.161  1.8428  2.9242  0.7784
 4138SOL    HW224048   3.514   0.264  16.105 -0.2776 -0.4950  0.2390
 4139SOL     OW24049   3.298   4.273   5.585 -0.0578  0.0279 -0.2623
 4139SOL    HW124050   3.388   4.281   5.556 -0.2137  2.8365  0.0785
 4139SOL    HW224051   3.270   4.364   5.575 -1.4236 -0.2783  0.7316
 4140SOL     OW24052   4.612   1.999   2.792  0.3526 -0.1952 -0.2708
 4140SOL    HW124053   4.679   1.987   2.860  0.9065  1.2496 -0.5598
 4140SOL    HW224054   4.607   2.094   2.782 -2.6575 -0.2906  0.3372
 4141SOL     OW24055   2.115   1.465   3.807 -0.0973  0.4524 -0.2196
 4141SOL    HW124056   2.042   1.515   3.843  0.6569  3.0873 -2.3377
 4141SOL    HW224057   2.156   1.539   3.762 -0.3595  0.3884 -0.5679
 4142SOL     OW24058   1.683   3.662   5.133  0.0074 -0.4665  0.8094
 4142SOL    HW124059   1.699   3.628   5.221  2.7289 -0.5273  0.2759
 4142SOL    HW224060   1.616   3.597   5.110  0.9995 -1.3729  0.4973
 4143SOL     OW24061   3.546   1.178  10.543 -0.2467  0.4043 -0.6403
 4143SOL    HW124062   3.614   1.112  10.558 -0.6557 -0.0142 -0.6356
 4143SOL    HW224063   3.567   1.206  10.454 -1.6001  2.2246 -0.3993
 4144SOL     OW24064   2.502   0.737  15.672 -0.0085  0.2485 -0.2721
 4144SOL    HW124065   2.569   0.774  15.730 -1.5744  0.6263  1.2863
 4144SOL    HW224066   2.441   0.810  15.680 -1.3285 -1.0724  1.6192
 4145SOL     OW24067   3.203   0.065   6.373 -0.4062 -0.1424  0.3660
 4145SOL    HW124068   3.214   0.160   6.382  1.3535 -0.2719 -0.4478
 4145SOL    HW224069   3.270   0.038   6.435 -0.9734  0.8844  1.4191
 4146SOL     OW24070   0.690   3.639  11.325 -0.2411 -0.2294  0.5515
 4146SOL    HW124071   0.706   3.720  11.277  0.9628 -0.2953  0.8329
 4146SOL    HW224072   0.618   3.590  11.285 -0.6968  0.5796  0.3888
 4147SOL     OW24073   2.782   1.863   8.229 -0.2927  0.6992 -0.4249
 4147SOL    HW124074   2.719   1.892   8.163  0.6151  0.9154 -1.1820
 4147SOL    HW224075   2.715   1.812   8.275  1.2421  0.2899  1.3437
 4148SOL     OW24076   2.048   0.682   9.213 -0.4200  0.9348  0.9381
 4148SOL    HW124077   2.043   0.599   9.261  2.0434 -0.8210 -1.8060
 4148SOL    HW224078   2.044   0.752   9.278  0.6466  2.3758 -0.5359
 4149SOL     OW24079   0.839   0.998   1.691 -0.7654 -0.4924 -0.2169
 4149SOL    HW124080   0.870   1.083   1.660  0.9758 -1.1281 -0.2475
 4149SOL    HW224081   0.859   0.930   1.626  1.2617 -0.4696  0.3841
 4150SOL     OW24082   2.981   2.473   9.245 -0.2202 -0.2812 -0.6226
 4150SOL    HW124083   3.074   2.451   9.239 -0.1526  0.2159 -1.5278
 4150SOL    HW224084   2.945   2.405   9.302  0.7729  0.1041  0.4543
 4151SOL     OW24085   1.617   1.261   7.372  0.4580  0.7131  0.4395
 4151SOL    HW124086   1.572   1.256   7.457  0.1358 -0.4023  0.2100
 4151SOL    HW224087   1.598   1.176   7.331  3.2753  0.5163 -0.4244
 4152SOL     OW24088   4.180   1.188   9.133  0.2052  0.4569 -0.6262
 4152SOL    HW124089   4.092   1.223   9.144 -0.6505 -2.4676  1.6707
 4152SOL    HW224090   4.175   1.146   9.047 -0.3114  0.5940 -0.6589
 4153SOL     OW24091   0.481   2.736   6.265  0.1694 -0.3707  0.3176
 4153SOL    HW124092   0.405   2.721   6.322 -0.4165 -1.0461 -0.6290
 4153SOL    HW224093   0.478   2.829   6.246 -2.8831 -0.3325  1.0207
 4154SOL     OW24094   4.117   2.210   8.887  0.7674  0.4460 -0.0817
 4154SOL    HW124095   4.169   2.228   8.965  0.4818  2.5500 -0.3855
 4154SOL    HW224096   4.143   2.123   8.856 -1.7935 -1.2579  2.4563
 4155SOL     OW24097   2.448   4.404   1.701  0.0056 -0.2739 -0.0527
 4155SOL    HW124098   2.508   4.329   1.704 -2.4190 -2.1051  2.0325
 4155SOL    HW224099   2.483   4.452   1.776 -1.6316  0.2041  0.3974
 4156SOL     OW24100   1.735   4.539   0.593  0.1785 -0.1410 -0.6582
 4156SOL    HW124101   1.728   4.613   0.654  1.8656 -1.3362  0.9797
 4156SOL    HW224102   1.644   4.510   0.591  0.0886 -0.0106  1.5142
 4157SOL     OW24103   0.148   4.010   5.234  0.2447  0.1315 -0.2046
 4157SOL    HW124104   0.132   4.007   5.140 -1.1521 -0.5283  0.0640
 4157SOL    HW224105   0.241   3.990   5.242  0.0209 -1.2532 -1.0729
 4158SOL     OW24106   1.595   2.215   5.014 -0.2230  0.2383  0.3134
 4158SOL    HW124107   1.540   2.138   5.030  1.9516 -0.8127  2.8503
 4158SOL    HW224108   1.682   2.187   5.045 -0.5878 -2.6625 -1.2868
 4159SOL     OW24109   3.270   3.373  15.112 -0.3829  0.1905  0.1546
 4159SOL    HW124110   3.224   3.408  15.035  0.8453  0.0107 -0.6546
 4159SOL    HW224111   3.275   3.441  15.178  0.8369  0.2295  0.0099
 4160SOL     OW24112   1.851   4.027   2.192 -0.3609 -0.5487  0.4850
 4160SOL    HW124113   1.902   4.074   2.126 -0.6777 -0.8948 -0.0047
 4160SOL    HW224114   1.919   3.980   2.240  0.2289 -0.0487  0.1300
 4161SOL     OW24115   0.354   0.114   4.327  0.5202 -0.0718  0.4701
 4161SOL    HW124116   0.270   0.149   4.356 -0.4343 -3.4588  1.6975
 4161SOL    HW224117   0.342   0.113   4.233 -0.0305 -1.3304  0.5638
 4162SOL     OW24118   2.058   1.956  16.700 -0.2293  0.2974  0.3716
 4162SOL    HW124119   2.116   2.031  16.712  0.7556 -0.0744 -2.1022
 4162SOL    HW224120   2.001   1.996  16.634 -0.7109 -0.3374  0.4080
 4163SOL     OW24121   1.070   1.638   6.409 -0.2452 -0.2891 -0.0769
 4163SOL    HW124122   1.043   1.582   6.482 -1.3774  0.3664  0.0057
 4163SOL    HW224123   1.097   1.710   6.467 -2.9712  1.4047 -0.9021
 4164SOL     OW24124   0.960   3.951  11.498  0.4496  0.3435 -0.2513
 4164SOL    HW124125   1.047   3.980  11.473  0.9234 -0.3705  0.5536
 4164SOL    HW224126   0.958   3.855  11.491  0.3681  0.6688 -4.2396
 4165SOL     OW24127   2.277   2.722  12.707  1.0209 -0.4265  0.2145
 4165SOL    HW124128   2.278   2.813  12.679  0.6866 -0.3388  0.4886
 4165SOL    HW224129   2.327   2.687  12.633  1.4893 -0.1050  0.3763
 4166SOL     OW24130   1.305   3.529  13.274  0.3075  0.1339 -0.2618
 4166SOL    HW124131   1.256   3.447  13.266  0.9320 -0.0846 -1.9773
 4166SOL    HW224132   1.336   3.530  13.364 -0.1411  2.8557 -0.1491
 4167SOL     OW24133   4.037   0.039   2.422 -0.2610  0.3844 -0.2938
 4167SOL    HW124134   4.048   0.015   2.329  4.2626  0.2971  0.2603
 4167SOL    HW224135   4.126   0.036   2.458 -0.2698 -0.4914 -0.3340
 4168SOL     OW24136   4.546   2.878   9.430  0.0856 -0.8459  0.3504
 4168SOL    HW124137   4.585   2.960   9.399  1.3172 -1.7779 -0.6059
 4168SOL    HW224138   4.622   2.853   9.482  0.6818  1.7969  0.7812
 4169SOL     OW24139   1.170   2.327   3.473 -0.3936  0.0736  0.0588
 4169SOL    HW124140   1.093   2.293   3.518  0.4434 -0.9515  0.7376
 4169SOL    HW224141   1.184   2.418   3.498 -0.8054  0.4850 -1.1995
 4170SOL     OW24142   0.362   2.199   1.892  0.3555 -0.0039 -0.2718
 4170SOL    HW124143   0.330   2.125   1.944 -0.6498 -1.0318 -2.3784
 4170SOL    HW224144   0.415   2.250   1.954  1.9291 -0.2633 -1.4081
 4171SOL     OW24145   0.917   2.876   2.681 -0.0765 -0.2462 -0.0520
 4171SOL    HW124146   0.832   2.920   2.674  1.0829  1.7898 -1.3981
 4171SOL    HW224147   0.976   2.942   2.644  0.9515  0.4590  2.7834
 4172SOL     OW24148   1.210   2.302   4.791 -0.2367  0.2084  0.1138
 4172SOL    HW124149   1.281   2.362   4.814  1.7559 -1.8845 -0.5795
 4172SOL    HW224150   1.223   2.291   4.697 -0.1954  0.0829  0.1344
 4173SOL     OW24151   0.434   0.618   2.170  0.1427 -0.4126 -0.7122
 4173SOL    HW124152   0.467   0.654   2.252 -1.2752 -0.1232 -0.2672
 4173SOL    HW224153   0.512   0.615   2.115  1.8078 -1.6528  1.6918
 4174SOL     OW24154   0.354   2.791   9.387  0.5012  0.0009 -0.2478
 4174SOL    HW124155   0.319   2.721   9.332  0.6605  0.9071 -1.5044
 4174SOL    HW224156   0.345   2.754   9.475 -0.6398  3.0063  0.9047
 4175SOL     OW24157   2.881   4.552   4.824 -0.4555  0.1252  0.8583
 4175SOL    HW124158   2.958   4.512   4.865  0.0381 -2.4734 -2.6342
 4175SOL    HW224159   2.831   4.579   4.901 -0.6211 -0.5858  0.9940
 4176SOL     OW24160   2.085   2.551  10.404  0.4655 -0.2192  0.6088
 4176SOL    HW124161   2.031   2.629  10.395  0.0255 -0.7091 -0.8988
 4176SOL    HW224162   2.026   2.498  10.458  0.4222 -2.8021 -1.9402
 4177SOL     OW24163   3.518   1.397   7.944 -0.3505 -0.2467 -0.1360
 4177SOL    HW124164   3.520   1.404   7.848 -0.6222 -1.0817 -0.1998
 4177SOL    HW224165   3.574   1.469   7.975  2.7467 -3.3102  1.3040
 4178SOL     OW24166   2.212   3.739  12.223 -0.2516 -0.2334  1.0080
 4178SOL    HW124167   2.155   3.669  12.253 -0.2209 -1.6855 -2.2237
 4178SOL    HW224168   2.281   3.739  12.289 -0.8785 -1.4821  1.6502
 4179SOL     OW24169   4.210   4.633   5.197  0.0568 -0.3282  0.0720
 4179SOL    HW124170   4.280   4.569   5.206  1.3307  0.7669 -1.9254
 4179SOL    HW224171   4.241   4.716   5.234 -2.3404 -0.1586  1.6682
 4180SOL     OW24172   3.203   4.140   1.373 -0.9609 -0.4332  0.3816
 4180SOL    HW124173   3.234   4.063   1.325  0.1280 -0.8458  1.7239
 4180SOL    HW224174   3.172   4.104   1.456  1.2305  1.1203  1.8937
 4181SOL     OW24175   2.250   0.351   1.813 -0.0619  0.3661  0.1130
 4181SOL    HW124176   2.331   0.401   1.825  0.2941 -0.0736 -0.4255
 4181SOL    HW224177   2.292   0.270   1.784 -1.0941 -0.8902  2.1441
 4182SOL     OW24178   4.522   4.233   6.952  0.0385  0.2556  0.3800
 4182SOL    HW124179   4.490   4.272   7.033 -0.3199 -0.9050  0.7954
 4182SOL    HW224180   4.578   4.162   6.985 -1.9337 -0.3355  2.4777
 4183SOL     OW24181   3.095   2.831   8.290  0.3378  0.3411 -0.3473
 4183SOL    HW124182   3.041   2.812   8.213  0.7232 -0.5259 -0.4060
 4183SOL    HW224183   3.041   2.800   8.362 -1.4095 -1.3227 -2.3619
 4184SOL     OW24184   0.065   0.687   2.900 -0.2066 -0.2017  0.0837
 4184SOL    HW124185   0.124   0.614   2.917 -0.3585 -0.4866 -0.5887
 4184SOL    HW224186   4.733   0.674   2.965 -0.7667  2.0603 -0.0349
 4185SOL     OW24187   0.638   1.312   1.571  0.1811  0.7743  0.2359
 4185SOL    HW124188   0.712   1.265   1.533 -0.5500  0.1579 -0.4072
 4185SOL    HW224189   0.608   1.362   1.495 -1.9710 -1.8225 -0.6096
 4186SOL     OW24190   4.051   1.504   0.828 -0.3528 -0.7222 -0.2634
 4186SOL    HW124191   4.092   1.590   0.825  0.4999 -1.1865 -1.9358
 4186SOL    HW224192   4.006   1.501   0.743 -0.9526  0.1409  0.0281
 4187SOL     OW24193   1.311   1.830  13.572 -0.0075  0.1426  0.3425
 4187SOL    HW124194   1.358   1.747  13.568 -2.4050 -1.3162  2.2179
 4187SOL    HW224195   1.322   1.868  13.660  0.4693 -0.8330  0.6946
 4188SOL     OW24196   2.523   4.434   2.951  0.1604  0.5673 -0.0194
 4188SOL    HW124197   2.553   4.483   3.028  1.6361 -1.2566  0.5576
 4188SOL    HW224198   2.597   4.426   2.892  1.7629 -2.9482  2.5142
 4189SOL     OW24199   3.747   2.886   8.240 -0.6665  0.7451  0.1188
 4189SOL    HW124200   3.716   2.911   8.327 -0.8916 -1.6878  0.7309
 4189SOL    HW224201   3.684   2.827   8.199 -0.2391 -0.4663  1.2003
 4190SOL     OW24202   4.484   4.519   3.255  0.0925 -0.2174  0.2961
 4190SOL    HW124203   4.546   4.483   3.192 -1.4323 -0.8867 -0.8450
 4190SOL    HW224204   4.466   4.604   3.214  0.1913 -0.0836  0.5313
 4191SOL     OW24205   1.193   2.342   3.202  0.6821 -0.1876  0.2057
 4191SOL    HW124206   1.209   2.250   3.182 -0.0549  0.2912 -2.4971
 4191SOL    HW224207   1.187   2.333   3.298  1.5309  0.8741  0.3535
 4192SOL     OW24208   4.217   2.017   7.651 -0.1496 -0.1405  0.0524
 4192SOL    HW124209   4.189   2.106   7.673  1.9720  0.3812  0.6743
 4192SOL    HW224210   4.292   2.023   7.591  0.5603  1.4599  1.1014
 4193SOL     OW24211   1.319   1.094   7.365  0.1200  0.1021 -0.2532
 4193SOL    HW124212   1.259   1.075   7.436 -1.0690  2.0153 -0.7630
 4193SOL    HW224213   1.404   1.112   7.405  0.1402 -0.8033  0.1071
 4194SOL     OW24214   4.157   4.248   8.825 -0.4667 -0.0082  0.3071
 4194SOL    HW124215   4.170   4.343   8.827 -0.0511 -0.0437 -0.8136
 4194SOL    HW224216   4.107   4.227   8.904 -0.6787 -0.5847  0.0243
 4195SOL     OW24217   3.418   2.434  15.300 -0.3786  0.6607  0.3217
 4195SOL    HW124218   3.332   2.412  15.336 -1.8728  0.7124 -3.1797
 4195SOL    HW224219   3.415   2.529  15.307 -0.9235  0.7402 -0.8694
 4196SOL     OW24220   0.091   3.153   8.445 -0.2277 -0.8344 -0.4435
 4196SOL    HW124221   0.052   3.239   8.431  0.9993 -0.4055 -1.1984
 4196SOL    HW224222   0.138   3.136   8.363  0.3811 -1.5452  0.0483
 4197SOL     OW24223   3.224   0.378   8.271  0.8191 -0.6673 -0.2446
 4197SOL    HW124224   3.181   0.296   8.298 -1.1953  0.7258  0.7142
 4197SOL    HW224225   3.212   0.379   8.176  0.4401 -1.8033 -0.2178
 4198SOL     OW24226   0.340   0.523  17.395  0.1647 -0.0751 -0.1178
 4198SOL    HW124227   0.425   0.566  17.403 -0.1198  0.5512 -0.4873
 4198SOL    HW224228   0.310   0.550  17.308 -3.2438  0.2037  1.1210
 4199SOL     OW24229   3.431   1.420   1.173 -0.1067 -0.1071  0.5636
 4199SOL    HW124230   3.480   1.345   1.205  1.5580  0.4961 -0.5741
 4199SOL    HW224231   3.345   1.379   1.165  0.1436 -0.4084 -0.6524
 4200SOL     OW24232   3.404   3.477   6.414 -0.2183  0.1709 -0.3120
 4200SOL    HW124233   3.480   3.515   6.370  1.1813 -1.5607  0.6180
 4200SOL    HW224234   3.337   3.471   6.346 -0.7110 -0.1375  0.2048
 4201SOL     OW24235   2.085   0.269   4.500 -0.1721  0.0939 -0.2451
 4201SOL    HW124236   1.998   0.235   4.523 -0.4908  0.9297 -0.1996
 4201SOL    HW224237   2.055   0.347   4.453 -0.6036  1.3200  2.0083
 4202SOL     OW24238   3.531   2.250   5.414 -0.1746 -0.2646 -0.2459
 4202SOL    HW124239   3.491   2.163   5.412  0.5704 -0.6981  3.4276
 4202SOL    HW224240   3.463   2.312   5.387 -1.1936 -0.8789  0.9149
 4203SOL     OW24241   2.221   2.969   4.504 -0.5861 -0.1415  0.4761
 4203SOL    HW124242   2.145   2.983   4.447 -1.1174 -2.0213  0.7066
 4203SOL    HW224243   2.242   3.049   4.552 -0.3480  1.8328 -2.9351
 4204SOL     OW24244   1.840   0.142   2.238  0.3317 -0.0537  0.0659
 4204SOL    HW124245   1.786   0.169   2.313 -0.3071 -0.1778 -0.3451
 4204SOL    HW224246   1.875   0.062   2.275  0.7462  0.0736 -0.0486
 4205SOL     OW24247   3.970   3.472   3.302 -0.2770  0.5645  0.1218
 4205SOL    HW124248   3.914   3.498   3.230 -2.1102 -1.9539  0.6069
 4205SOL    HW224249   3.898   3.448   3.362 -0.7156 -0.2706 -0.7340
 4206SOL     OW24250   2.392   3.919   2.536  0.1011  0.2636  0.6803
 4206SOL    HW124251   2.402   4.012   2.556 -0.0833  0.0474  1.7935
 4206SOL    HW224252   2.392   3.885   2.626  0.8811  2.6359  1.5561
 4207SOL     OW24253   0.094   1.516   9.092  0.1404 -0.1396  0.2939
 4207SOL    HW124254   0.177   1.487   9.131 -0.7914 -0.7338  1.8614
 4207SOL    HW224255   0.059   1.547   9.176 -3.4133 -0.2576 -1.1548
 4208SOL     OW24256   1.431   3.562  15.012 -0.2419 -0.0928 -0.2673
 4208SOL    HW124257   1.515   3.518  14.996 -0.5118 -0.5569 -0.3838
 4208SOL    HW224258   1.475   3.647  15.010 -0.7438  0.1817  0.3611
 4209SOL     OW24259   2.312   3.583   4.372  0.0749 -0.0740  0.8987
 4209SOL    HW124260   2.282   3.633   4.296  1.5269 -0.1194  0.2771
 4209SOL    HW224261   2.350   3.660   4.414  0.3889  0.8180 -0.9876
 4210SOL     OW24262   3.583   1.021   7.176 -0.6236 -0.0534 -0.5991
 4210SOL    HW124263   3.618   1.085   7.114 -0.5783  1.3034  0.8334
 4210SOL    HW224264   3.506   0.991   7.126 -0.9333 -0.9100  0.4089
 4211SOL     OW24265   1.191   4.580   5.017 -0.6420  0.2072 -0.3052
 4211SOL    HW124266   1.238   4.655   5.053  0.9895 -2.2014  2.5705
 4211SOL    HW224267   1.253   4.554   4.949  0.0192  1.4262 -0.1669
 4212SOL     OW24268   1.712   2.442  14.155  0.2663 -0.0404 -0.5378
 4212SOL    HW124269   1.626   2.420  14.191  0.3410  1.6180  0.6557
 4212SOL    HW224270   1.691   2.478  14.069  0.6447  2.7675  0.5341
 4213SOL     OW24271   1.288   1.616   8.801  0.1843 -0.2631 -0.5297
 4213SOL    HW124272   1.262   1.579   8.885  2.6336  0.3419  0.4834
 4213SOL    HW224273   1.244   1.700   8.810 -0.6106 -0.8427  0.9958
 4214SOL     OW24274   4.056   0.379  13.630  0.0327 -0.1106 -0.0625
 4214SOL    HW124275   4.087   0.295  13.597  0.4075 -0.5324  1.3553
 4214SOL    HW224276   4.011   0.409  13.551 -0.5500 -0.3300  0.1811
 4215SOL     OW24277   0.714   4.509   1.338 -0.1940  0.6386 -0.4235
 4215SOL    HW124278   0.801   4.547   1.344  1.0543 -1.8748 -2.1901
 4215SOL    HW224279   0.698   4.533   1.246 -0.4831 -0.0164 -0.5460
 4216SOL     OW24280   1.425   2.531   2.472 -1.3676  0.0241  0.7639
 4216SOL    HW124281   1.461   2.561   2.388  1.7912  0.1124  2.1385
 4216SOL    HW224282   1.412   2.437   2.466  1.0494 -0.3306  0.8090
 4217SOL     OW24283   0.328   2.418  16.250  0.5598  0.2261 -0.0200
 4217SOL    HW124284   0.338   2.513  16.236  1.5169 -0.1132 -1.7059
 4217SOL    HW224285   0.275   2.425  16.329  0.7811 -1.0658  0.2454
 4218SOL     OW24286   3.360   4.163   6.529 -0.0149  0.1305  0.2617
 4218SOL    HW124287   3.391   4.079   6.561 -0.0922 -0.1081 -0.2855
 4218SOL    HW224288   3.385   4.210   6.608 -0.3524 -1.3126  1.2318
 4219SOL     OW24289   3.349   1.325   3.164  1.1021 -0.0313 -0.3405
 4219SOL    HW124290   3.290   1.324   3.240  1.7797 -0.8033  0.1711
 4219SOL    HW224291   3.332   1.416   3.142  1.5431 -0.1749 -1.2855
 4220SOL     OW24292   1.494   2.282  17.224  0.1552 -0.2520 -0.4563
 4220SOL    HW124293   1.590   2.281  17.222  0.0879 -1.2112 -3.3136
 4220SOL    HW224294   1.476   2.252  17.135 -3.9890 -1.7103  0.8715
 4221SOL     OW24295   0.793   1.596   7.800 -0.0936 -0.1635  0.2296
 4221SOL    HW124296   0.820   1.513   7.840  0.2504  1.3665  3.2138
 4221SOL    HW224297   0.856   1.619   7.732 -1.4143 -1.6763 -1.4962
 4222SOL     OW24298   3.925   1.305   7.515  0.2216  0.0659 -0.5363
 4222SOL    HW124299   3.877   1.263   7.444  0.3746 -1.4754  0.2817
 4222SOL    HW224300   3.965   1.228   7.555  0.0654 -0.6926 -1.8120
 4223SOL     OW24301   1.448   1.481   6.507 -0.4378 -0.3878 -0.4313
 4223SOL    HW124302   1.499   1.493   6.586 -1.5044 -0.2189  0.2345
 4223SOL    HW224303   1.360   1.462   6.539 -0.3844 -0.9437 -0.6127
 4224SOL     OW24304   0.643   3.518  12.969  0.3599  0.0947  0.8602
 4224SOL    HW124305   0.718   3.578  12.963 -0.5655  0.9568 -1.9445
 4224SOL    HW224306   0.600   3.557  13.044  0.8282 -0.0098  1.1847
 4225SOL     OW24307   2.282   3.661   3.950  0.1007 -0.0054  0.0622
 4225SOL    HW124308   2.280   3.729   4.018  0.0552 -1.2246  1.2938
 4225SOL    HW224309   2.236   3.588   3.992 -1.3579  0.5143 -0.6190
 4226SOL     OW24310   1.939   3.518   3.368  0.0602  0.3421  0.4704
 4226SOL    HW124311   1.880   3.478   3.432 -1.1030  0.4798 -0.5281
 4226SOL    HW224312   2.029   3.494   3.391 -0.4012 -0.4959  1.3963
 4227SOL     OW24313   3.902   4.586   8.795 -0.3745  0.0742 -0.5334
 4227SOL    HW124314   3.834   4.570   8.729 -0.8720  1.1449 -0.2858
 4227SOL    HW224315   3.968   4.634   8.746 -0.1593 -0.6975 -1.0122
 4228SOL     OW24316   4.097   0.730   8.266  0.2563  0.0193 -0.1243
 4228SOL    HW124317   4.022   0.743   8.325  0.3388  0.5552 -0.1335
 4228SOL    HW224318   4.092   0.801   8.202 -0.5680 -0.0106 -0.1006
 4229SOL     OW24319   4.002   1.727   7.064  0.9200  0.2152  0.4082
 4229SOL    HW124320   3.990   1.805   7.117  0.3970  1.4928 -1.6064
 4229SOL    HW224321   3.939   1.676   7.115 -1.1939  1.3840 -1.0477
 4230SOL     OW24322   2.655   3.261   1.659 -0.1072  0.5577 -0.0657
 4230SOL    HW124323   2.644   3.193   1.726  0.6357 -1.0379 -1.5651
 4230SOL    HW224324   2.630   3.337   1.712 -3.0346 -0.9437  0.6904
 4231SOL     OW24325   2.323   1.108   2.565 -0.3283 -0.2831  0.7316
 4231SOL    HW124326   2.362   1.177   2.618  2.5126 -1.5396  0.2876
 4231SOL    HW224327   2.347   1.035   2.623  2.2210  0.9063  1.1645
 4232SOL     OW24328   2.367   1.852   5.702  0.2539 -0.5797 -0.1307
 4232SOL    HW124329   2.324   1.934   5.723 -1.8203 -1.8232  0.4020
 4232SOL    HW224330   2.305   1.782   5.723  0.5070  0.0884  2.7197
 4233SOL     OW24331   3.958   4.471  15.085  0.4026 -0.0298  0.2876
 4233SOL    HW124332   4.012   4.511  15.017  0.4757  0.1500  0.4507
 4233SOL    HW224333   4.017   4.417  15.137  1.2777  1.0437  0.4098
 4234SOL     OW24334   1.735   4.633   6.916  0.1754 -0.3583 -0.1806
 4234SOL    HW124335   1.674   4.595   6.853  0.9334 -1.8294 -0.0040
 4234SOL    HW224336   1.725   4.724   6.886 -0.0542 -0.6811 -1.0639
 4235SOL     OW24337   1.108   0.516   3.812  0.0977  0.1891  0.0961
 4235SOL    HW124338   1.020   0.507   3.847  0.4988  1.8084  1.5396
 4235SOL    HW224339   1.120   0.610   3.801  1.6398 -0.0560 -0.3053
 4236SOL     OW24340   1.032   3.391  10.563  0.1522  0.5267 -0.4056
 4236SOL    HW124341   1.069   3.395  10.651 -0.9993  3.1879 -0.0268
 4236SOL    HW224342   1.032   3.484  10.540 -1.3676  0.5357 -0.3646
 4237SOL     OW24343   1.628   0.943   5.402 -0.4287 -0.1640 -0.4541
 4237SOL    HW124344   1.586   0.869   5.447 -0.7205  1.1689  1.4354
 4237SOL    HW224345   1.710   0.938   5.451 -0.6627 -0.8702 -0.1290
 4238SOL     OW24346   4.145   2.535   7.521 -0.6330 -0.3267  0.0036
 4238SOL    HW124347   4.211   2.573   7.580  0.5443 -2.8151  0.2978
 4238SOL    HW224348   4.090   2.613   7.521 -3.2234 -2.1572  0.0620
 4239SOL     OW24349   0.223   0.811   2.095 -0.2532  0.4449  0.1050
 4239SOL    HW124350   0.298   0.783   2.042 -1.5362 -2.8393  0.0231
 4239SOL    HW224351   0.219   0.736   2.154  4.9180 -1.7310 -2.3102
 4240SOL     OW24352   0.954   0.894   3.397 -0.0658 -0.6468  0.5215
 4240SOL    HW124353   0.875   0.873   3.447 -0.2280 -1.4776 -0.0787
 4240SOL    HW224354   0.917   0.901   3.309  1.0325 -2.4812 -0.0814
 4241SOL     OW24355   3.790   1.441  14.287  0.1543 -0.3847 -0.5455
 4241SOL    HW124356   3.842   1.463  14.210  1.1145  1.3267  0.5841
 4241SOL    HW224357   3.855   1.395  14.340 -0.1634 -0.5284 -0.2841
 4242SOL     OW24358   3.954   3.943   8.181 -0.4480 -0.2851  0.5780
 4242SOL    HW124359   4.007   3.901   8.249 -0.0867 -1.2959 -0.3340
 4242SOL    HW224360   4.028   3.954   8.122 -1.2002  3.4875  0.3381
 4243SOL     OW24361   0.644   1.986   8.408 -0.2383  0.0822 -0.0594
 4243SOL    HW124362   0.604   2.046   8.345 -2.2154  0.6211  1.7139
 4243SOL    HW224363   0.642   1.904   8.358  1.5670 -0.7585  1.2442
 4244SOL     OW24364   0.700   0.460  11.097  0.1489  0.0000  0.4759
 4244SOL    HW124365   0.616   0.441  11.054  1.4801 -0.4042 -1.9467
 4244SOL    HW224366   0.761   0.494  11.033 -0.7835  2.1871  0.7607
 4245SOL     OW24367   4.699   1.330   1.890 -0.1788  0.2228 -0.4067
 4245SOL    HW124368   0.048   1.371   1.900  0.1580  0.2808 -3.4444
 4245SOL    HW224369   4.672   1.329   1.982  0.7872 -1.0875 -0.1263
 4246SOL     OW24370   4.331   3.500   4.290 -0.5766  0.8671  0.4683
 4246SOL    HW124371   4.318   3.435   4.221  0.6130  2.8646 -1.6251
 4246SOL    HW224372   4.408   3.459   4.330  0.7175  1.8790 -0.9902
 4247SOL     OW24373   0.689   3.684  16.449  0.2072 -0.1357  0.2535
 4247SOL    HW124374   0.606   3.680  16.402  0.5154  3.3320 -0.5945
 4247SOL    HW224375   0.657   3.641  16.529  0.0416  0.0608  0.2905
 4248SOL     OW24376   0.883   0.818   8.526  0.2841 -0.0061  1.0079
 4248SOL    HW124377   0.804   0.771   8.499 -0.2626  1.7333 -0.3908
 4248SOL    HW224378   0.906   0.772   8.607  2.0815 -0.5865  0.1723
 4249SOL     OW24379   4.729   0.618   4.870 -0.2872  0.1579 -0.1682
 4249SOL    HW124380   4.713   0.704   4.833 -0.3619 -0.3691 -1.3719
 4249SOL    HW224381   4.644   0.577   4.887 -0.1223 -0.4993 -0.8818
 4250SOL     OW24382   1.763   2.230   3.318 -0.3355  0.0290 -0.5124
 4250SOL    HW124383   1.724   2.147   3.345  2.2086 -1.1374 -0.4392
 4250SOL    HW224384   1.855   2.203   3.321  0.3423  2.4140 -0.0379
 4251SOL     OW24385   3.507   4.395   8.627  0.4262 -0.0366 -0.1663
 4251SOL    HW124386   3.595   4.367   8.653 -0.5807 -0.5136  2.6199
 4251SOL    HW224387   3.466   4.410   8.712  0.7405 -0.8514  0.1255
 4252SOL     OW24388   4.636   1.194   8.246 -0.5064 -0.0814  0.2588
 4252SOL    HW124389   4.645   1.105   8.211  0.8912 -0.4181  1.4643
 4252SOL    HW224390   4.541   1.194   8.251 -0.6106 -0.6805 -1.8066
 4253SOL     OW24391   0.109   4.160   5.955 -0.0815 -0.3735  0.4492
 4253SOL    HW124392   0.192   4.184   5.995 -0.6621  0.6385  1.0437
 4253SOL    HW224393   0.050   4.221   5.999  0.0746  0.7449 -0.8865
 4254SOL     OW24394   2.200   3.193   2.156 -0.3081 -0.4845  0.2153
 4254SOL    HW124395   2.230   3.157   2.073 -2.6237 -0.7863 -0.5006
 4254SOL    HW224396   2.148   3.269   2.128 -1.1527 -1.4793 -0.9232
 4255SOL     OW24397   0.722   2.784  12.002 -0.1120  0.4896 -0.5107
 4255SOL    HW124398   0.668   2.706  12.016 -2.2944  2.1079  0.2579
 4255SOL    HW224399   0.810   2.748  11.992  0.3409  1.0999  1.3157
 4256SOL     OW24400   4.462   2.271   4.367 -0.1996  0.3062 -0.1934
 4256SOL    HW124401   4.540   2.326   4.368  0.1481 -0.1717 -1.4492
 4256SOL    HW224402   4.481   2.231   4.282 -0.7889 -1.3385  0.4437
 4257SOL     OW24403   1.292   1.894  14.501  0.1676 -0.2831  0.4933
 4257SOL    HW124404   1.241   1.974  14.505  0.4456 -0.1152  0.7155
 4257SOL    HW224405   1.234   1.835  14.453  0.2581 -0.0155  0.0473
 4258SOL     OW24406   0.390   1.366   4.842 -0.3330 -0.0155  0.4997
 4258SOL    HW124407   0.406   1.274   4.820  1.1045  0.5902 -1.0748
 4258SOL    HW224408   0.429   1.405   4.763 -0.1826  1.1339  1.1357
 4259SOL     OW24409   3.312   2.086   2.165  0.2446 -0.5861 -0.3360
 4259SOL    HW124410   3.334   2.076   2.258  1.4906 -0.4548 -0.6206
 4259SOL    HW224411   3.360   2.166   2.143 -0.8496  0.1375 -0.0930
 4260SOL     OW24412   3.802   2.296   3.489 -0.1396 -0.5408 -0.9808
 4260SOL    HW124413   3.744   2.369   3.512 -1.1287 -1.4008 -0.7332
 4260SOL    HW224414   3.749   2.262   3.417  1.9676 -1.6529 -2.0008
 4261SOL     OW24415   1.578   2.403   3.712 -0.0492  0.8552  0.0283
 4261SOL    HW124416   1.656   2.430   3.760  0.5702 -0.1594 -0.4169
 4261SOL    HW224417   1.566   2.480   3.657 -0.7615 -0.0682 -1.1190
 4262SOL     OW24418   1.282   3.434   5.728 -0.2432 -0.0478  0.4936
 4262SOL    HW124419   1.264   3.520   5.767  0.4402 -0.2193  1.1819
 4262SOL    HW224420   1.239   3.445   5.643  3.3163  0.9268 -1.1732
 4263SOL     OW24421   2.336   0.518   2.753  0.5038 -0.0672  0.3073
 4263SOL    HW124422   2.299   0.524   2.666  2.2771 -1.9697 -0.5725
 4263SOL    HW224423   2.368   0.428   2.760  0.3417 -0.2152 -1.0322
 4264SOL     OW24424   1.355   0.071   5.396 -0.5571 -0.6260 -0.0570
 4264SOL    HW124425   1.396   0.001   5.448  2.1221  1.1619  0.2778
 4264SOL    HW224426   1.262   0.065   5.417 -0.2713 -1.8443  0.9108
 4265SOL     OW24427   0.313   0.758   3.767 -0.6655 -0.0731 -0.3079
 4265SOL    HW124428   0.221   0.731   3.769  0.1634 -2.6452  1.8291
 4265SOL    HW224429   0.351   0.671   3.762  0.7819  0.6562 -1.8794
 4266SOL     OW24430   4.334   2.591   5.896  0.3708 -0.4305  0.4729
 4266SOL    HW124431   4.402   2.599   5.830 -0.2667  0.5546 -0.0663
 4266SOL    HW224432   4.268   2.547   5.842  0.0141  0.8378 -0.1309
 4267SOL     OW24433   1.475   0.851  10.571 -0.0065  0.0151  0.3431
 4267SOL    HW124434   1.467   0.822  10.480 -0.7883  2.0544 -0.2425
 4267SOL    HW224435   1.403   0.914  10.574  0.4201  0.4602  0.9993
 4268SOL     OW24436   0.984   2.180   2.072 -0.6109 -0.1754  0.3070
 4268SOL    HW124437   0.890   2.161   2.070 -0.7366  0.4383  0.5016
 4268SOL    HW224438   1.003   2.169   1.979 -0.6365 -1.3178  0.4339
 4269SOL     OW24439   0.539   2.604   2.775  0.1372 -0.2638  0.1620
 4269SOL    HW124440   0.557   2.522   2.729  2.1635  1.6003 -2.3361
 4269SOL    HW224441   0.457   2.621   2.728 -1.4596  0.0603  3.0883
 4270SOL     OW24442   0.344   1.654   6.718  0.7818  0.0093 -0.4081
 4270SOL    HW124443   0.427   1.622   6.752  2.1949  1.2921 -2.7168
 4270SOL    HW224444   0.296   1.576   6.749  1.4365 -0.8119 -1.4742
 4271SOL     OW24445   4.712   0.497   7.457 -0.5378 -0.4774  0.0840
 4271SOL    HW124446   4.648   0.554   7.414 -0.2228  0.0411  0.3035
 4271SOL    HW224447   0.026   0.560   7.509 -1.1575 -0.2520  0.4256
 4272SOL     OW24448   3.905   0.781   6.430  0.0012 -0.4800  0.0712
 4272SOL    HW124449   3.817   0.813   6.447  0.2216  0.6549 -0.9409
 4272SOL    HW224450   3.925   0.734   6.511  0.5087  0.3128  0.4057
 4273SOL     OW24451   3.994   2.309  12.041  0.2634 -0.6322 -0.0909
 4273SOL    HW124452   4.034   2.348  11.963 -0.0785  1.8025  0.9816
 4273SOL    HW224453   4.019   2.218  12.022 -1.5817 -1.5216  1.7706
 4274SOL     OW24454   3.300   0.806  11.550  0.2022  0.5460  0.1250
 4274SOL    HW124455   3.320   0.840  11.638  0.9136  2.6796 -0.8493
 4274SOL    HW224456   3.329   0.890  11.514 -0.3384  1.3208  1.4803
 4275SOL     OW24457   0.774   3.553   2.921  0.2155  0.0128 -0.1608
 4275SOL    HW124458   0.703   3.587   2.976  2.6456 -0.2007  3.1216
 4275SOL    HW224459   0.836   3.545   2.994 -0.2296  0.1408  0.2288
 4276SOL     OW24460   0.469   2.258   7.727 -0.7544 -0.0131 -0.1707
 4276SOL    HW124461   0.375   2.273   7.713 -1.0491 -0.9284  0.7571
 4276SOL    HW224462   0.481   2.164   7.712  0.3392  0.1197 -0.0929
 4277SOL     OW24463   3.562   2.493   7.402  0.4630  0.5155 -0.1916
 4277SOL    HW124464   3.548   2.403   7.431 -0.1122  0.3043 -1.1369
 4277SOL    HW224465   3.611   2.479   7.320 -2.4878  0.9826 -2.0404
 4278SOL     OW24466   0.816   3.998   2.449  0.2458  0.0438  0.9081
 4278SOL    HW124467   0.818   4.075   2.505 -0.9584  0.1481  0.8064
 4278SOL    HW224468   0.892   3.951   2.483 -0.7526 -0.1164  2.8539
 4279SOL     OW24469   4.602   0.477   8.503  0.1114 -0.2932 -0.1968
 4279SOL    HW124470   4.592   0.533   8.580  1.6652 -0.3762  0.0619
 4279SOL    HW224471   4.678   0.425   8.526  0.6888  1.7426  2.4665
 4280SOL     OW24472   4.095   1.106  10.201  0.0921  0.5177 -0.1865
 4280SOL    HW124473   4.021   1.063  10.158 -1.4581  2.7192  0.2902
 4280SOL    HW224474   4.057   1.189  10.231 -2.4619 -0.4140 -0.8087
 4281SOL     OW24475   1.593   3.296   7.021 -0.6981  0.3893 -0.2983
 4281SOL    HW124476   1.548   3.338   7.094  0.3336 -1.4241  1.3764
 4281SOL    HW224477   1.686   3.314   7.033 -0.2675 -2.1053  0.1675
 4282SOL     OW24478   0.873   0.078   2.108 -0.2155  0.4155  0.2723
 4282SOL    HW124479   0.897   0.022   2.034 -0.6741  0.5069  0.0563
 4282SOL    HW224480   0.781   0.055   2.120 -0.7423  1.8004 -1.0752
 4283SOL     OW24481   1.991   1.814   5.578 -0.0635  0.7073 -0.0529
 4283SOL    HW124482   2.051   1.885   5.558  0.3574  0.7714  1.4067
 4283SOL    HW224483   1.964   1.848   5.664 -0.1228 -0.7138  0.4856
 4284SOL     OW24484   1.292   4.673  14.989 -0.4240  0.0037 -0.3434
 4284SOL    HW124485   1.357   4.681  14.919  0.6404 -2.3100  0.3835
 4284SOL    HW224486   1.242   4.598  14.957  1.3037 -0.5894 -1.6216
 4285SOL     OW24487   2.339   2.920   7.484 -0.4780 -0.1230  0.0792
 4285SOL    HW124488   2.263   2.979   7.488 -1.7602 -1.7753  0.4023
 4285SOL    HW224489   2.307   2.863   7.554 -1.6507 -0.4073 -0.6891
 4286SOL     OW24490   4.194   2.876   0.572 -0.3093 -0.2300 -0.1674
 4286SOL    HW124491   4.217   2.819   0.499 -0.1520 -0.3111 -0.0548
 4286SOL    HW224492   4.156   2.815   0.636  0.3497  1.7072  2.0607
 4287SOL     OW24493   1.618   0.647   2.704  0.6742  0.2418  0.3407
 4287SOL    HW124494   1.609   0.563   2.748 -2.9460 -0.7154 -2.3203
 4287SOL    HW224495   1.714   0.650   2.699  0.5406  2.0397 -1.0092
 4288SOL     OW24496   0.878   0.901   6.968  0.9492 -0.9080 -0.1593
 4288SOL    HW124497   0.874   0.996   6.959 -1.1292 -0.7800  2.0471
 4288SOL    HW224498   0.787   0.871   6.962  0.3902  0.5884  0.8660
 4289SOL     OW24499   0.785   3.638   5.951 -0.0774 -0.7078 -0.1261
 4289SOL    HW124500   0.816   3.548   5.944 -1.9808 -1.1599 -2.4324
 4289SOL    HW224501   0.694   3.625   5.980 -0.1009 -0.7068 -0.1985
 4290SOL     OW24502   0.311   1.994   2.865  0.0582  0.1014  0.3198
 4290SOL    HW124503   0.390   1.946   2.839  0.8466  1.0406  0.9814
 4290SOL    HW224504   0.287   2.053   2.793 -2.7242 -2.4923 -0.8638
 4291SOL     OW24505   3.734   4.174   4.667 -0.6557  0.6776  0.1160
 4291SOL    HW124506   3.669   4.114   4.704 -1.7262  0.9160 -1.3571
 4291SOL    HW224507   3.675   4.239   4.629 -1.6283 -0.2076  0.1153
 4292SOL     OW24508   0.895   0.805  15.206 -0.0289  0.0558 -0.5239
 4292SOL    HW124509   0.874   0.894  15.235  1.2473 -0.3240  1.5383
 4292SOL    HW224510   0.827   0.762  15.257  0.7509 -1.3279 -0.6658
 4293SOL     OW24511   0.337   0.763   6.515  0.2533  0.2740  0.2593
 4293SOL    HW124512   0.294   0.685   6.481  0.7884  0.6980 -1.3882
 4293SOL    HW224513   0.364   0.811   6.436  0.8416  0.9985  0.8972
 4294SOL     OW24514   0.313   2.319   4.354 -0.0193  0.0365 -0.1597
 4294SOL    HW124515   0.256   2.258   4.308  1.0499 -0.7511 -0.4563
 4294SOL    HW224516   0.331   2.272   4.436 -0.5105 -1.9765 -1.2129
 4295SOL     OW24517   0.921   2.447   6.642 -0.4264 -0.2365 -0.2088
 4295SOL    HW124518   0.828   2.471   6.639 -0.6821 -1.3714 -1.4498
 4295SOL    HW224519   0.949   2.455   6.551  0.7503  0.3238  0.2030
 4296SOL     OW24520   3.906   4.278   4.336  0.9253  0.6951  0.2618
 4296SOL    HW124521   3.815   4.274   4.366  0.3494 -0.6955 -1.6023
 4296SOL    HW224522   3.952   4.217   4.394  1.3972  2.7765  2.0541
 4297SOL     OW24523   4.525   1.885  10.489 -0.5454 -0.3149 -0.5347
 4297SOL    HW124524   4.522   1.846  10.401 -3.0531  1.1503 -1.0735
 4297SOL    HW224525   4.433   1.870  10.509 -0.1854 -0.2132  1.2202
 4298SOL     OW24526   0.003   4.289   5.472  0.0577  0.6160  0.5860
 4298SOL    HW124527   0.065   4.237   5.522  0.5164  0.2582 -0.3617
 4298SOL    HW224528   4.705   4.227   5.408 -0.2874  2.1692 -0.7356
 4299SOL     OW24529   0.299   3.635   7.886 -0.5415 -0.2417 -0.5188
 4299SOL    HW124530   0.391   3.640   7.860 -0.3709 -1.3659 -0.1074
 4299SOL    HW224531   0.294   3.543   7.911 -1.3069  0.2901  1.2367
 4300SOL     OW24532   2.365   1.992   4.517 -0.1024 -0.1182  0.3613
 4300SOL    HW124533   2.450   1.949   4.511 -0.4382 -0.8325  0.7036
 4300SOL    HW224534   2.333   1.952   4.598 -0.2007 -1.4332 -0.3144
 4301SOL     OW24535   0.036   3.241   5.378  0.0631  0.2864 -0.5076
 4301SOL    HW124536   4.689   3.202   5.356 -0.9537  3.5826 -2.3721
 4301SOL    HW224537   0.045   3.300   5.303  1.6041 -0.3286 -0.8098
 4302SOL     OW24538   1.217   0.184   0.924  0.5511  0.7178  0.5569
 4302SOL    HW124539   1.271   0.128   0.868 -2.5492 -0.0930 -1.6377
 4302SOL    HW224540   1.226   0.270   0.882  1.4757  0.3750  0.0478
 4303SOL     OW24541   4.240   4.262   9.350 -0.6527  0.3728 -0.1173
 4303SOL    HW124542   4.205   4.347   9.322 -0.3998 -0.2977 -2.3937
 4303SOL    HW224543   4.285   4.239   9.269  0.3405 -0.6703  0.7354
 4304SOL     OW24544   2.000   0.154  13.705 -0.2867 -0.8795 -0.5808
 4304SOL    HW124545   1.958   0.240  13.700  2.0994  0.3739  0.7577
 4304SOL    HW224546   2.087   0.167  13.668  0.5425  0.3985  1.7888
 4305SOL     OW24547   1.676   2.264   7.534 -0.2164 -0.0383  0.4541
 4305SOL    HW124548   1.731   2.342   7.523  1.0414 -1.0600 -0.5178
 4305SOL    HW224549   1.695   2.244   7.626 -1.9120 -0.3188  0.7314
 4306SOL     OW24550   3.519   0.327  11.843 -0.2630  0.5789 -0.1170
 4306SOL    HW124551   3.585   0.355  11.780  0.6914 -0.0071  0.6233
 4306SOL    HW224552   3.461   0.403  11.844  1.0684  1.5971 -1.0754
 4307SOL     OW24553   0.262   1.039   8.747 -0.9408 -0.2282 -0.0893
 4307SOL    HW124554   0.223   1.095   8.814 -1.5249 -1.4433  0.5827
 4307SOL    HW224555   0.336   1.095   8.723 -1.4993  1.9644  3.2223
 4308SOL     OW24556   2.535   2.892  12.011 -0.3805  0.0196 -0.2064
 4308SOL    HW124557   2.559   2.918  11.923  2.4561 -1.1150  0.2241
 4308SOL    HW224558   2.613   2.845  12.039 -0.6534 -0.7761 -0.8008
 4309SOL     OW24559   1.597   3.010   3.273  0.3141 -0.1720  0.2370
 4309SOL    HW124560   1.545   3.080   3.234  2.4065  0.8922 -0.6760
 4309SOL    HW224561   1.574   2.941   3.211  0.3714 -1.0429  1.1710
 4310SOL     OW24562   4.214   2.235   0.314  0.0875  0.7946 -0.1487
 4310SOL    HW124563   4.202   2.287   0.393  1.2552 -2.7619  2.3858
 4310SOL    HW224564   4.139   2.176   0.320  0.5046  0.3390  0.6682
 4311SOL     OW24565   0.427   0.213   1.323 -0.2213  0.2683  0.5079
 4311SOL    HW124566   0.463   0.156   1.391 -1.6550  0.5968  1.5330
 4311SOL    HW224567   0.412   0.159   1.245  0.8897 -1.0776  1.2342
 4312SOL     OW24568   4.008   1.894   9.144  0.1895 -0.1922 -0.0148
 4312SOL    HW124569   4.026   1.845   9.063 -2.9239  0.5722 -1.1829
 4312SOL    HW224570   3.980   1.818   9.196  1.9198 -1.1356 -0.4893
 4313SOL     OW24571   0.672   2.699   2.991  0.4954  0.7138 -0.0119
 4313SOL    HW124572   0.755   2.716   2.946  0.6531 -2.0651 -0.7620
 4313SOL    HW224573   0.617   2.694   2.912 -1.5012 -0.2110  1.4331
 4314SOL     OW24574   1.858   2.152  15.070 -0.0788 -0.9258  0.4249
 4314SOL    HW124575   1.858   2.059  15.048 -1.2910 -0.7546 -0.3135
 4314SOL    HW224576   1.835   2.161  15.163  0.9394  0.1131  0.5860
 4315SOL     OW24577   4.503   2.094  17.500  0.6089  0.0122 -0.5679
 4315SOL    HW124578   4.536   2.005  17.513 -3.2899 -1.3377  0.0337
 4315SOL    HW224579   4.532   2.121  17.412  0.4783 -1.2432 -1.0009
 4316SOL     OW24580   1.067   4.075   3.160 -0.2529 -0.0514 -0.2772
 4316SOL    HW124581   1.159   4.071   3.132 -0.0826  0.5400  0.2039
 4316SOL    HW224582   1.038   3.993   3.120 -1.6203 -0.1272  0.8532
 4317SOL     OW24583   2.340   2.792   7.751  0.3964  0.0126 -0.7474
 4317SOL    HW124584   2.310   2.774   7.840 -1.3102  1.0093 -1.1261
 4317SOL    HW224585   2.411   2.853   7.767  0.5230 -0.3897  0.2158
 4318SOL     OW24586   3.325   2.441   4.671  0.6510 -0.1132  0.6813
 4318SOL    HW124587   3.261   2.463   4.739  0.5813  1.3320  0.1514
 4318SOL    HW224588   3.369   2.368   4.714 -1.3856 -0.1040  2.7788
 4319SOL     OW24589   3.603   2.532   7.664 -0.1358  0.2976 -0.5254
 4319SOL    HW124590   3.586   2.519   7.571  1.4632  0.9552 -0.9080
 4319SOL    HW224591   3.523   2.574   7.695  0.4855  0.8713  0.2976
 4320SOL     OW24592   1.747   4.295  15.440  0.4699 -0.0146 -0.0440
 4320SOL    HW124593   1.750   4.206  15.473 -0.1436  0.4590  1.2936
 4320SOL    HW224594   1.790   4.285  15.355 -1.5039 -0.6727 -0.9857
 4321SOL     OW24595   3.155   3.153   6.646  1.3097  0.1893 -0.2786
 4321SOL    HW124596   3.133   3.072   6.600 -2.2414  1.6993 -1.2829
 4321SOL    HW224597   3.192   3.109   6.722  1.4183  2.4284  0.9669
 4322SOL     OW24598   2.690   3.152   7.582 -0.7521  0.0808  0.5024
 4322SOL    HW124599   2.739   3.074   7.608 -0.7648  0.2740  1.1232
 4322SOL    HW224600   2.614   3.110   7.543 -0.2827  0.5193 -0.8640
 4323SOL     OW24601   1.446   4.512   7.852  0.2398  0.0837 -0.1230
 4323SOL    HW124602   1.513   4.481   7.913  1.6314  1.8801 -0.7186
 4323SOL    HW224603   1.402   4.581   7.901  0.4216  1.7300 -2.2721
 4324SOL     OW24604   1.424   3.287   6.198  0.4845  0.2145  0.3506
 4324SOL    HW124605   1.340   3.329   6.183  0.4858  1.0923  2.8582
 4324SOL    HW224606   1.479   3.358   6.231  0.3533  0.8952 -0.9194
 4325SOL     OW24607   3.200   0.630  17.092 -0.2040 -0.0665  0.2434
 4325SOL    HW124608   3.248   0.665  17.167 -0.0361 -0.5547  0.3591
 4325SOL    HW224609   3.108   0.641  17.116 -0.6390 -2.2554 -0.4258
 4326SOL     OW24610   4.610   0.827   0.505 -0.7666 -0.3772 -0.2083
 4326SOL    HW124611   4.650   0.779   0.577  1.4864  0.6117 -0.7956
 4326SOL    HW224612   4.674   0.897   0.491 -0.9431 -0.6692 -2.5727
 4327SOL     OW24613   0.974   2.219   7.301  0.0736 -0.0707 -0.3455
 4327SOL    HW124614   0.883   2.244   7.280  0.0530 -1.3003 -1.6684
 4327SOL    HW224615   1.012   2.302   7.329 -0.1469 -0.0219 -0.1891
 4328SOL     OW24616   3.988   2.338   5.457 -0.1653  0.2260  0.1980
 4328SOL    HW124617   4.033   2.346   5.373 -0.6493  1.6331  0.0868
 4328SOL    HW224618   3.912   2.294   5.418  0.2114 -0.7652  0.5775
 4329SOL     OW24619   2.402   0.288   7.297 -0.1247  0.0100  0.0457
 4329SOL    HW124620   2.352   0.210   7.271  0.0130 -0.3884  0.9651
 4329SOL    HW224621   2.434   0.258   7.383  2.2073 -0.4094 -0.9613
 4330SOL     OW24622   2.171   4.494   6.385  0.0572 -0.5045 -0.2635
 4330SOL    HW124623   2.096   4.449   6.423  0.4695 -1.5724 -0.7297
 4330SOL    HW224624   2.242   4.453   6.433  0.4777  1.1326  0.5279
 4331SOL     OW24625   2.981   3.363   1.859 -0.7268  0.5312 -0.3105
 4331SOL    HW124626   3.018   3.376   1.947 -0.8274 -1.0518 -0.0314
 4331SOL    HW224627   3.012   3.277   1.831  1.2315  0.6342  1.5581
 4332SOL     OW24628   3.317   1.510   7.663 -0.3138  0.1887 -0.1651
 4332SOL    HW124629   3.379   1.575   7.694 -1.7943  1.4478  0.1170
 4332SOL    HW224630   3.258   1.556   7.604 -0.7718 -1.5507 -1.0751
 4333SOL     OW24631   3.252   2.424   6.661 -0.1666 -0.0272 -0.1317
 4333SOL    HW124632   3.229   2.339   6.624 -0.6108 -0.4592  1.1469
 4333SOL    HW224633   3.348   2.420   6.658 -0.1684  0.6609 -1.1031
 4334SOL     OW24634   0.171   3.968  11.478 -0.3884 -0.0317  0.1401
 4334SOL    HW124635   0.082   3.997  11.493  0.3348  1.6547  1.1617
 4334SOL    HW224636   0.165   3.881  11.517 -1.9916  1.1742  2.5369
 4335SOL     OW24637   1.138   0.001   5.520 -0.7498  0.3515 -0.3548
 4335SOL    HW124638   1.129   0.022   5.613 -3.0718 -0.3501 -0.4226
 4335SOL    HW224639   1.067   0.056   5.487  0.8335  2.2851 -0.5406
 4336SOL     OW24640   3.267   0.672   1.594  0.3438 -0.2339 -0.0234
 4336SOL    HW124641   3.255   0.606   1.526 -1.4019  0.9820 -0.9207
 4336SOL    HW224642   3.220   0.746   1.555 -1.7720 -1.5276  0.0693
 4337SOL     OW24643   0.557   1.016  15.243  0.3784 -0.3811  0.5357
 4337SOL    HW124644   0.585   0.955  15.175  0.6403  0.5912 -0.2344
 4337SOL    HW224645   0.492   1.073  15.201  2.0211  0.8455 -0.3101
 4338SOL     OW24646   1.067   1.635   0.559 -0.2857  0.0038  0.0111
 4338SOL    HW124647   1.138   1.633   0.623 -0.0937  2.2901 -0.1308
 4338SOL    HW224648   1.030   1.547   0.551 -1.1169  0.0420  3.3827
 4339SOL     OW24649   4.585   3.652   7.922  0.3464  0.6636  0.0996
 4339SOL    HW124650   4.552   3.741   7.912  1.2282  1.0691  0.7439
 4339SOL    HW224651   4.676   3.666   7.892 -0.1559 -2.3909 -2.8427
 4340SOL     OW24652   0.948   3.359   7.685 -0.2095  0.4595  0.4413
 4340SOL    HW124653   0.934   3.440   7.635 -0.0472 -1.2093 -2.2585
 4340SOL    HW224654   1.034   3.335   7.651 -0.9950 -0.8046 -0.6268
 4341SOL     OW24655   1.392   0.504   4.898  0.1754 -0.3659  0.0135
 4341SOL    HW124656   1.461   0.492   4.833 -0.9926 -1.5197 -1.0215
 4341SOL    HW224657   1.417   0.439   4.964 -1.4515  1.3909  2.3971
 4342SOL     OW24658   2.784   0.097   9.685  0.2873 -0.4007  0.1409
 4342SOL    HW124659   2.786   0.014   9.732 -4.2437 -1.5202 -1.6107
 4342SOL    HW224660   2.856   0.076   9.625  0.8225 -1.3193  1.1047
 4343SOL     OW24661   1.878   1.052   6.326 -0.5680  0.1483 -0.0544
 4343SOL    HW124662   1.800   1.104   6.346 -0.1892  1.0598 -0.8884
 4343SOL    HW224663   1.949   1.103   6.366  0.9850 -0.8546 -1.4765
 4344SOL     OW24664   0.039   2.834   9.569 -0.6692  0.8177 -0.2688
 4344SOL    HW124665   0.109   2.768   9.571  1.1077  2.7155  0.3588
 4344SOL    HW224666   0.058   2.873   9.654 -0.1094 -2.4545  1.1015
 4345SOL     OW24667   1.161   2.606   3.607  0.0024 -0.2504 -0.8494
 4345SOL    HW124668   1.082   2.653   3.580  0.1998  0.2476 -0.5732
 4345SOL    HW224669   1.225   2.663   3.564  0.3604 -1.5681 -2.0534
 4346SOL     OW24670   3.383   1.571  16.296  0.3372 -0.1767 -0.3469
 4346SOL    HW124671   3.405   1.624  16.373  0.5871  0.6433 -0.9850
 4346SOL    HW224672   3.292   1.595  16.280  0.4515  0.5108  0.0307
 4347SOL     OW24673   3.888   3.958   4.491  0.5292 -0.2017 -0.7461
 4347SOL    HW124674   3.938   3.917   4.562 -1.0292  0.1254  0.5673
 4347SOL    HW224675   3.856   4.037   4.535  1.0825 -0.2639 -0.2417
 4348SOL     OW24676   3.937   4.326   7.886 -0.2387  0.7846  0.0969
 4348SOL    HW124677   3.940   4.353   7.977 -2.4785  3.5971 -0.6744
 4348SOL    HW224678   4.007   4.376   7.842  2.1873 -2.0097  0.7839
 4349SOL     OW24679   2.255   1.766  11.257  0.0376  0.0129  0.5508
 4349SOL    HW124680   2.336   1.796  11.216 -1.3464 -1.4427 -3.1893
 4349SOL    HW224681   2.232   1.849  11.300 -0.3400  0.9157 -1.4003
 4350SOL     OW24682   4.115   4.250  11.765 -0.6417  0.1999 -0.0587
 4350SOL    HW124683   4.195   4.282  11.722  0.3336  0.6639  2.1037
 4350SOL    HW224684   4.122   4.289  11.852  0.1704 -0.7106  0.2856
 4351SOL     OW24685   2.283   4.544   4.563 -0.3619  0.8023  0.2063
 4351SOL    HW124686   2.203   4.510   4.604  0.4119 -0.3465  0.7642
 4351SOL    HW224687   2.348   4.482   4.596  1.4364  1.8510 -1.3966
 4352SOL     OW24688   2.831   0.486  11.577  0.4616  0.7272 -0.1816
 4352SOL    HW124689   2.895   0.498  11.507  0.1630  0.4298 -0.5050
 4352SOL    HW224690   2.858   0.399  11.607  0.9735  1.0222  0.2217
 4353SOL     OW24691   3.968   2.667  14.986  0.7582 -0.3142  0.1476
 4353SOL    HW124692   4.056   2.632  15.002  1.0800  0.9656  1.1010
 4353SOL    HW224693   3.976   2.702  14.897 -0.5883  0.5764  0.3881
 4354SOL     OW24694   1.045   4.301  11.827 -0.0271 -0.1166  0.4487
 4354SOL    HW124695   1.062   4.298  11.733 -3.2776 -1.3947 -0.1194
 4354SOL    HW224696   1.114   4.240  11.854 -1.3417 -2.1346 -0.7708
 4355SOL     OW24697   3.105   3.721   4.416 -0.3130  0.2148 -0.2575
 4355SOL    HW124698   3.140   3.670   4.490 -0.0367  2.0776  0.8944
 4355SOL    HW224699   3.158   3.800   4.424  0.1836 -0.4996  3.8952
 4356SOL     OW24700   2.137   0.112  10.268  0.5386  0.1663  0.9396
 4356SOL    HW124701   2.229   0.139  10.265  0.9663 -1.6567 -2.6492
 4356SOL    HW224702   2.143   0.017  10.271  0.4025  0.1713  1.3003
 4357SOL     OW24703   1.298   4.280   2.646  0.1538 -0.3548  0.1814
 4357SOL    HW124704   1.235   4.225   2.692 -1.0588  0.5636 -0.4082
 4357SOL    HW224705   1.357   4.211   2.614  2.5007  0.2866  3.0780
 4358SOL     OW24706   3.612   1.062  12.096 -0.0799  0.6810  0.3211
 4358SOL    HW124707   3.558   0.984  12.112  0.6853  0.2745  0.9212
 4358SOL    HW224708   3.638   1.092  12.183  1.3968  1.3773 -0.3655
 4359SOL     OW24709   0.831   0.824  15.584 -0.1241  0.4046 -0.1351
 4359SOL    HW124710   0.756   0.766  15.578 -0.0138  0.3333 -0.7908
 4359SOL    HW224711   0.861   0.818  15.494  0.0663  2.5131 -0.2269
 4360SOL     OW24712   3.819   2.989   6.407 -0.3220  0.2019  0.6397
 4360SOL    HW124713   3.812   2.925   6.477 -0.0461 -0.0014  0.4793
 4360SOL    HW224714   3.836   2.935   6.330 -3.6816 -0.4328  0.3261
 4361SOL     OW24715   4.273   2.789   5.420 -0.2617 -0.3872  0.3146
 4361SOL    HW124716   4.319   2.707   5.399  1.1496  0.3672  0.4407
 4361SOL    HW224717   4.200   2.757   5.473 -0.0545  2.1514  2.1028
 4362SOL     OW24718   1.870   2.469   7.473  0.3966 -0.3385  0.0249
 4362SOL    HW124719   1.940   2.416   7.510 -1.6422 -0.8093  3.2921
 4362SOL    HW224720   1.879   2.446   7.381  0.9807 -0.9346  0.2351
 4363SOL     OW24721   1.897   2.528   2.577  0.5594 -0.0958  0.0344
 4363SOL    HW124722   1.951   2.577   2.516  0.1422  0.1211 -0.1609
 4363SOL    HW224723   1.971   2.489   2.623 -0.5244  1.5457  3.2013
 4364SOL     OW24724   0.470   4.239   7.702 -0.5753  0.1035 -0.3974
 4364SOL    HW124725   0.526   4.163   7.718 -0.8620  0.3073  1.6644
 4364SOL    HW224726   0.386   4.196   7.684  0.3459 -1.5868 -0.6097
 4365SOL     OW24727   3.376   3.940  11.630 -0.1399 -0.1580 -0.0439
 4365SOL    HW124728   3.336   3.942  11.717 -1.6059  1.6788 -0.7586
 4365SOL    HW224729   3.470   3.957  11.643 -0.4428 -0.7966  3.1272
 4366SOL     OW24730   4.294   4.054  10.950 -0.1111  0.4522 -0.2166
 4366SOL    HW124731   4.297   4.008  11.034  0.2577  1.9582  0.5859
 4366SOL    HW224732   4.230   4.010  10.894 -0.1598 -1.0164  1.0156
 4367SOL     OW24733   1.944   0.866   1.125 -0.1038 -0.4002 -0.7139
 4367SOL    HW124734   1.964   0.790   1.071 -2.2234 -0.5748 -1.2430
 4367SOL    HW224735   1.886   0.817   1.183  1.3608 -3.4694 -1.8550
 4368SOL     OW24736   4.156   3.111  12.287 -0.3514  0.0191 -0.6425
 4368SOL    HW124737   4.113   3.143  12.366  1.1405 -0.4320  0.3590
 4368SOL    HW224738   4.186   3.026  12.318 -1.5929  0.0003  0.5353
 4369SOL     OW24739   4.280   3.640   4.634  0.1797 -0.2054  0.3078
 4369SOL    HW124740   4.367   3.601   4.628  0.1555 -0.3712  1.1270
 4369SOL    HW224741   4.220   3.566   4.645  1.1453 -1.2717 -1.5309
 4370SOL     OW24742   1.474   1.662  17.489 -0.0052  0.3076 -0.1331
 4370SOL    HW124743   1.457   1.650  17.396  2.5098  2.4740 -0.8623
 4370SOL    HW224744   1.461   1.573  17.523 -0.8970 -0.1332 -1.6376
 4371SOL     OW24745   1.208   2.553   5.838  0.3045  0.1144  0.1453
 4371SOL    HW124746   1.182   2.466   5.807  0.2843  0.1169  0.1550
 4371SOL    HW224747   1.274   2.583   5.775  0.9905  1.0291  1.3170
 4372SOL     OW24748   0.013   3.397   2.217 -0.3874 -0.7771  0.2591
 4372SOL    HW124749   4.731   3.464   2.283 -1.4645 -1.9971  1.1875
 4372SOL    HW224750   0.020   3.443   2.133  0.0954 -1.3998 -0.0429
 4373SOL     OW24751   0.870   4.356   6.016 -0.1164  0.3556  0.4016
 4373SOL    HW124752   0.811   4.283   5.997  1.1497 -0.8660  1.1919
 4373SOL    HW224753   0.921   4.362   5.935 -0.6305  0.6534  0.0985
 4374SOL     OW24754   3.112   3.845  16.029  0.6074 -0.5966 -0.0310
 4374SOL    HW124755   3.178   3.894  16.078 -1.7623  2.4752  0.0846
 4374SOL    HW224756   3.175   3.800  15.973  0.2341  1.3877 -2.0540
 4375SOL     OW24757   0.363   0.639   2.689  0.5762  0.7873 -0.4695
 4375SOL    HW124758   0.392   0.548   2.694 -1.7358  0.0293 -1.0189
 4375SOL    HW224759   0.268   0.631   2.685  1.1837 -5.0348 -2.4118
 4376SOL     OW24760   1.081   2.902   6.161 -0.0009 -0.1046 -0.4793
 4376SOL    HW124761   1.066   2.827   6.104  1.4795  1.6957 -3.2250
 4376SOL    HW224762   0.994   2.939   6.148 -0.1246 -0.3037 -0.2222
 4377SOL     OW24763   4.401   4.018  13.827  0.5362 -0.1653 -0.1668
 4377SOL    HW124764   4.421   4.107  13.800 -0.6655  0.2126  0.2109
 4377SOL    HW224765   4.391   4.028  13.921 -1.1536  0.4656 -0.4245
 4378SOL     OW24766   2.835   2.546   3.564 -0.9976  0.4320  0.1548
 4378SOL    HW124767   2.774   2.472   3.569  2.2920 -2.3370 -0.9361
 4378SOL    HW224768   2.823   2.580   3.653  2.5321  2.2860 -0.1237
 4379SOL     OW24769   2.839   2.405  13.552  0.0203  0.1115  0.7334
 4379SOL    HW124770   2.865   2.422  13.642 -1.3197  1.8629  0.7917
 4379SOL    HW224771   2.769   2.342  13.566 -0.4728  0.2136 -1.3185
 4380SOL     OW24772   2.761   2.326   3.309 -0.6811  0.5080 -0.1609
 4380SOL    HW124773   2.742   2.320   3.402  0.1532 -1.3675 -0.1194
 4380SOL    HW224774   2.674   2.322   3.269 -1.2203  0.9894  0.9689
 4381SOL     OW24775   1.502   2.790   4.921 -0.3713  0.3767  0.5375
 4381SOL    HW124776   1.473   2.745   4.842 -0.5699 -0.0263  0.8339
 4381SOL    HW224777   1.592   2.759   4.918 -0.8350 -0.9327  0.2750
 4382SOL     OW24778   4.176   0.010   5.686 -0.5147  0.1665  0.0809
 4382SOL    HW124779   4.173   4.659   5.647  0.7341  0.7322 -1.2907
 4382SOL    HW224780   4.117   0.005   5.761  1.9701 -0.6303  2.0032
 4383SOL     OW24781   3.044   0.469  11.425 -0.2543 -0.0630  0.0849
 4383SOL    HW124782   3.019   0.399  11.365  0.8106 -0.6042  0.2684
 4383SOL    HW224783   3.119   0.501  11.375  0.3373 -0.4326  0.7216
 4384SOL     OW24784   2.643   2.745   4.784  0.1645 -0.2356 -0.0556
 4384SOL    HW124785   2.634   2.830   4.740  1.1720 -1.1608 -2.0767
 4384SOL    HW224786   2.687   2.777   4.862 -0.2165  0.0322  0.0517
 4385SOL     OW24787   2.977   2.469   6.606  0.0694  0.0272 -0.2147
 4385SOL    HW124788   2.926   2.463   6.687  1.0805 -0.7854  0.3642
 4385SOL    HW224789   3.071   2.471   6.626  0.3770  0.7406 -1.7430
 4386SOL     OW24790   1.284   3.804  11.116 -0.2128 -0.6420  0.0200
 4386SOL    HW124791   1.337   3.863  11.170 -1.3585  1.4199 -1.1110
 4386SOL    HW224792   1.208   3.787  11.172  0.5156 -1.9492  0.6098
 4387SOL     OW24793   3.576   0.323   9.500  0.6814  0.1255  0.4109
 4387SOL    HW124794   3.485   0.316   9.472  0.5869  3.2139 -0.0430
 4387SOL    HW224795   3.610   0.235   9.482  1.7368  0.4865  0.6122
 4388SOL     OW24796   2.813   0.867   7.475  0.4642  0.0041 -0.5990
 4388SOL    HW124797   2.814   0.962   7.488  0.1729  0.3524 -3.0671
 4388SOL    HW224798   2.762   0.868   7.393  0.1041 -2.8371 -0.4018
 4389SOL     OW24799   2.056   1.173   3.885  0.1939 -0.1702  0.0930
 4389SOL    HW124800   2.078   1.263   3.862 -0.2283  0.2123  1.1851
 4389SOL    HW224801   1.977   1.187   3.937 -0.0319  1.3995 -0.6722
 4390SOL     OW24802   2.582   1.360   1.093 -0.3192 -0.7851 -0.1701
 4390SOL    HW124803   2.552   1.449   1.114  0.5862 -0.8990  1.6661
 4390SOL    HW224804   2.609   1.320   1.176 -1.8396 -2.3678 -0.4532
 4391SOL     OW24805   2.116   0.798   2.552 -0.7246  0.2499 -0.1931
 4391SOL    HW124806   2.056   0.847   2.496  0.9125  0.3261 -1.8973
 4391SOL    HW224807   2.194   0.782   2.498  0.8003 -0.4142  2.2300
 4392SOL     OW24808   4.335   4.178  17.382  0.1935  0.2300 -1.0561
 4392SOL    HW124809   4.343   4.245  17.450  0.7822 -0.1308 -0.7644
 4392SOL    HW224810   4.240   4.183  17.372  0.1943  0.7531 -0.7859
 4393SOL     OW24811   0.892   2.346   4.008  0.3012  0.4419 -0.5254
 4393SOL    HW124812   0.952   2.296   3.953 -0.6955 -0.6860 -0.5687
 4393SOL    HW224813   0.806   2.309   3.989 -0.2460  2.4718 -2.0413
 4394SOL     OW24814   1.558   3.521   6.866  0.5593 -0.1289 -0.1699
 4394SOL    HW124815   1.465   3.537   6.879  0.8313  2.6194 -1.5176
 4394SOL    HW224816   1.571   3.431   6.895 -0.6725  0.7547  3.1582
 4395SOL     OW24817   4.530   1.672   7.924 -0.4933  0.2954 -0.5515
 4395SOL    HW124818   4.468   1.730   7.880  0.9715  3.1457  1.0966
 4395SOL    HW224819   4.617   1.693   7.889 -0.2188  0.3161  0.1455
 4396SOL     OW24820   1.799   3.460   1.248 -0.4357 -0.0505 -0.6954
 4396SOL    HW124821   1.806   3.451   1.153 -1.5889 -4.6135 -0.3481
 4396SOL    HW224822   1.802   3.554   1.267  2.6124 -0.3308  0.2902
 4397SOL     OW24823   3.929   1.177  13.558 -0.2966 -0.3754 -0.1625
 4397SOL    HW124824   3.985   1.164  13.482 -1.0689  1.0404 -0.9773
 4397SOL    HW224825   3.893   1.092  13.581  0.1705 -0.9336 -1.4992
 4398SOL     OW24826   1.543   3.481   9.512 -1.0003  0.0953 -0.4752
 4398SOL    HW124827   1.448   3.475   9.499 -0.6615 -0.3008 -2.7764
 4398SOL    HW224828   1.576   3.454   9.427  0.1254 -0.8213  0.2628
 4399SOL     OW24829   2.130   4.298  15.261  0.2790  0.0671  0.1061
 4399SOL    HW124830   2.115   4.319  15.169  0.3153  1.8905  0.5226
 4399SOL    HW224831   2.100   4.207  15.263  2.1089 -0.4674  2.7683
 4400SOL     OW24832   2.382   3.998   7.109 -0.4584  0.1135  0.8102
 4400SOL    HW124833   2.364   3.905   7.116 -0.7662 -0.0347 -1.7219
 4400SOL    HW224834   2.310   4.023   7.051  0.6979  1.5596 -0.0421
 4401SOL     OW24835   0.261   2.836   8.258  0.3297 -0.0435  0.5772
 4401SOL    HW124836   0.182   2.782   8.263  0.9303 -1.0305 -0.5352
 4401SOL    HW224837   0.231   2.920   8.222  3.4626  0.7121 -0.2632
 4402SOL     OW24838   2.530   2.452   3.951 -0.2731 -0.1503 -0.4813
 4402SOL    HW124839   2.450   2.402   3.966 -0.0748 -0.7931 -1.5868
 4402SOL    HW224840   2.507   2.535   3.909 -1.0763  0.6537  1.5171
 4403SOL     OW24841   0.645   3.826   2.064  0.0286 -0.3923 -0.1950
 4403SOL    HW124842   0.736   3.798   2.068  1.0515  2.9241  0.1333
 4403SOL    HW224843   0.628   3.851   2.155 -0.3889  2.2925 -0.9889
 4404SOL     OW24844   4.608   4.665   4.969 -0.3712 -0.5456  0.1125
 4404SOL    HW124845   4.521   4.701   4.947  0.0481  0.1983 -0.3409
 4404SOL    HW224846   4.576   4.577   4.990 -3.4512  0.0502 -1.9916
 4405SOL     OW24847   4.146   1.898  15.988  0.8886  0.6516 -0.0547
 4405SOL    HW124848   4.153   1.841  16.065 -1.1866 -0.9723 -1.0327
 4405SOL    HW224849   4.127   1.984  16.024  1.2015  0.4146  0.6735
 4406SOL     OW24850   0.428   3.861  14.238 -0.0676 -0.2757 -0.3769
 4406SOL    HW124851   0.483   3.813  14.175 -0.8351 -1.6461  0.0037
 4406SOL    HW224852   0.444   3.815  14.321  0.3380  0.2762 -0.1462
 4407SOL     OW24853   1.742   2.932   0.975  1.1591  0.0975  0.1283
 4407SOL    HW124854   1.666   2.912   0.920 -0.0037 -1.0902  2.1923
 4407SOL    HW224855   1.731   2.867   1.044 -0.4720 -2.3621 -2.4544
 4408SOL     OW24856   1.905   4.656   5.342 -0.3140 -0.4369 -0.4900
 4408SOL    HW124857   1.868   4.587   5.286 -2.2567  0.5821 -0.4574
 4408SOL    HW224858   1.822   4.689   5.377  1.1493  2.2451  0.4616
 4409SOL     OW24859   1.304   2.423   7.064 -0.3974  0.4078 -0.4304
 4409SOL    HW124860   1.222   2.432   7.014  0.1307 -1.2953 -1.6137
 4409SOL    HW224861   1.327   2.515   7.078 -2.1285  0.9522 -1.0784
 4410SOL     OW24862   1.692   1.819   0.054 -0.6899 -0.1101  0.3191
 4410SOL    HW124863   1.656   1.862   0.131  0.8166 -0.1329  1.0433
 4410SOL    HW224864   1.614   1.779   0.015  0.2938 -0.7408 -0.9913
 4411SOL     OW24865   3.449   0.078  11.794 -0.1133 -0.0414 -0.0085
 4411SOL    HW124866   3.409   0.070  11.707  0.4852  0.3526 -0.3213
 4411SOL    HW224867   3.485   0.167  11.797 -0.9880  0.2562  1.4309
 4412SOL     OW24868   0.699   1.327  17.603 -0.1216  0.5686  0.3426
 4412SOL    HW124869   0.629   1.274  17.566  1.0692  0.3632 -1.6692
 4412SOL    HW224870   0.735   1.374  17.527  1.2789 -0.8645  0.1280
 4413SOL     OW24871   3.025   2.163   8.273  0.0567  0.7386  0.3035
 4413SOL    HW124872   2.937   2.143   8.242 -0.1689  1.1203  0.6971
 4413SOL    HW224873   3.040   2.070   8.291 -2.6011 -0.1245 -1.9810
 4414SOL     OW24874   0.381   3.158  12.155  0.2556 -0.3540 -0.3919
 4414SOL    HW124875   0.453   3.097  12.138  1.3451  0.4499  1.2822
 4414SOL    HW224876   0.307   3.101  12.136 -0.0599 -0.3323  0.7510
 4415SOL     OW24877   4.292   4.000   6.889 -0.3095  0.6293  0.0630
 4415SOL    HW124878   4.285   4.090   6.857  0.1990  0.6927  0.1353
 4415SOL    HW224879   4.280   4.014   6.983 -0.3934 -0.2968  0.1900
 4416SOL     OW24880   4.164   2.150   6.828  0.0726  0.3786  0.1361
 4416SOL    HW124881   4.118   2.185   6.751  0.0625 -1.0469 -0.5201
 4416SOL    HW224882   4.144   2.057   6.816  1.6777  0.1887 -1.0143
 4417SOL     OW24883   3.676   0.189   7.834 -0.0226  0.1893 -0.0158
 4417SOL    HW124884   3.765   0.156   7.846  0.5385  2.1405  1.1998
 4417SOL    HW224885   3.653   0.135   7.758  2.0230 -0.4756 -0.1557
 4418SOL     OW24886   3.517   0.483  12.167  0.1821 -0.3689  0.7695
 4418SOL    HW124887   3.560   0.413  12.119 -0.1628  1.0657 -1.6289
 4418SOL    HW224888   3.427   0.464  12.141  0.4133 -0.4611  0.0567
 4419SOL     OW24889   2.629   2.520   2.385  0.0947 -0.3199 -0.0587
 4419SOL    HW124890   2.707   2.469   2.407  0.5677  0.1674 -0.6125
 4419SOL    HW224891   2.558   2.457   2.379  0.8015 -1.1557  0.3962
 4420SOL     OW24892   3.276   0.370   1.517 -0.6402 -0.6111  0.1046
 4420SOL    HW124893   3.292   0.381   1.611  0.5230 -0.6122 -0.0954
 4420SOL    HW224894   3.180   0.371   1.521 -0.6498  0.5132 -0.5277
 4421SOL     OW24895   0.470   3.380   4.963  0.7766  0.5739  0.2960
 4421SOL    HW124896   0.508   3.396   4.877 -0.0442 -0.7444 -0.3138
 4421SOL    HW224897   0.534   3.415   5.025 -0.7440  0.3613  1.9907
 4422SOL     OW24898   4.234   1.125   6.929 -0.2259  0.0675  0.5370
 4422SOL    HW124899   4.155   1.177   6.915  0.1197  0.1977 -0.9608
 4422SOL    HW224900   4.282   1.199   6.966  0.8497  0.5779 -1.9141
 4423SOL     OW24901   1.849   4.432  16.816  0.8977 -0.4888  0.4986
 4423SOL    HW124902   1.870   4.378  16.740  0.8940  1.3925 -0.8294
 4423SOL    HW224903   1.940   4.461  16.826  1.0617 -1.4951  2.0419
 4424SOL     OW24904   4.038   2.497   4.017  0.0491 -0.3160  0.4982
 4424SOL    HW124905   4.057   2.519   3.926  1.4286 -0.4792  0.7579
 4424SOL    HW224906   3.945   2.474   4.009 -0.3183  1.2507  0.2743
 4425SOL     OW24907   0.862   1.713   2.243 -0.3409  0.0894  0.0957
 4425SOL    HW124908   0.870   1.638   2.303  2.4408 -0.0815 -0.4787
 4425SOL    HW224909   0.912   1.782   2.285 -0.8729  0.7071 -0.2923
 4426SOL     OW24910   2.637   0.649  12.224 -0.3578  0.0758 -0.1252
 4426SOL    HW124911   2.602   0.715  12.283  0.2053  0.3760 -0.1292
 4426SOL    HW224912   2.641   0.576  12.286  0.0457 -0.2477 -0.5359
 4427SOL     OW24913   0.650   0.733   2.991  0.3632  0.0139  0.2774
 4427SOL    HW124914   0.604   0.767   2.914 -1.4437  2.4097  2.4213
 4427SOL    HW224915   0.703   0.667   2.947  1.4184  0.4121  0.9502
 4428SOL     OW24916   1.276   2.635   5.160 -0.3926 -0.3624  0.2100
 4428SOL    HW124917   1.275   2.634   5.065 -1.8418  2.2274  0.1881
 4428SOL    HW224918   1.370   2.617   5.166 -0.3199  0.1354  0.5880
 4429SOL     OW24919   0.502   2.833   3.224  0.2969 -0.3026 -0.6508
 4429SOL    HW124920   0.530   2.755   3.176 -0.7008 -0.6328 -0.6892
 4429SOL    HW224921   0.450   2.792   3.293  0.8469 -0.2019 -0.1859
 4430SOL     OW24922   3.109   3.284  10.109 -0.3477 -0.6999 -0.2415
 4430SOL    HW124923   3.112   3.375  10.137 -0.4379 -0.2843 -1.6047
 4430SOL    HW224924   3.055   3.248  10.180  0.9628  2.2067  2.2340
 4431SOL     OW24925   2.331   4.634  15.477 -0.0355 -0.1987 -0.1151
 4431SOL    HW124926   2.294   4.586  15.551  0.0616 -0.7528 -0.4214
 4431SOL    HW224927   2.341   4.712  15.531  0.3855  0.1421 -0.6767
 4432SOL     OW24928   2.841   4.498  12.112 -0.3801  0.2008 -0.2382
 4432SOL    HW124929   2.882   4.449  12.042  1.4017  0.3625  0.6963
 4432SOL    HW224930   2.842   4.584  12.069 -1.2513 -0.0890 -0.8453
 4433SOL     OW24931   3.436   1.839  12.297  0.1158  0.2716  0.0172
 4433SOL    HW124932   3.391   1.829  12.213 -0.4257 -0.5289  0.4074
 4433SOL    HW224933   3.528   1.834  12.270 -0.4755 -1.6644 -1.5681
 4434SOL     OW24934   3.819   2.265   6.820 -0.1241 -0.0738  0.5483
 4434SOL    HW124935   3.772   2.194   6.864  0.3565 -0.0746  1.0468
 4434SOL    HW224936   3.874   2.300   6.889  1.4238  1.1079 -1.2705
 4435SOL     OW24937   1.319   3.544   4.131  0.5030 -0.0475  0.2888
 4435SOL    HW124938   1.223   3.542   4.133  0.4863  0.0720 -0.2265
 4435SOL    HW224939   1.323   3.636   4.155  3.0134 -0.0694 -0.0658
 4436SOL     OW24940   3.750   2.229  13.148  0.1488 -0.0953 -0.3837
 4436SOL    HW124941   3.728   2.311  13.104  1.0595 -0.1266 -0.8834
 4436SOL    HW224942   3.840   2.244  13.175 -0.4310  1.1729  0.8427
 4437SOL     OW24943   2.450   4.326  12.161 -0.0806 -0.2545 -0.1562
 4437SOL    HW124944   2.405   4.266  12.221  0.5919 -1.5650 -0.9382
 4437SOL    HW224945   2.478   4.385  12.230  0.8347 -1.0320  0.1496
 4438SOL     OW24946   2.251   0.079  17.630  0.4325 -0.1362 -0.6714
 4438SOL    HW124947   2.194   0.009  17.596 -0.3137 -0.2531  0.8000
 4438SOL    HW224948   2.245   0.057  17.723  1.2098 -0.2210 -0.6436
 4439SOL     OW24949   4.455   2.755   6.076  0.1602  0.0742 -0.1821
 4439SOL    HW124950   4.436   2.846   6.053  1.8917  0.7063  0.9557
 4439SOL    HW224951   4.406   2.715   6.004 -0.6582 -1.1916  1.0910
 4440SOL     OW24952   3.154   1.487   1.935 -0.7420 -0.1506 -0.5117
 4440SOL    HW124953   3.083   1.432   1.903 -1.0157  0.4425 -0.9253
 4440SOL    HW224954   3.106   1.564   1.966  1.9720  1.7754 -1.0696
 4441SOL     OW24955   1.430   0.059   4.450  0.3123 -0.7095 -0.1628
 4441SOL    HW124956   1.448   0.029   4.539 -0.9998  1.0420  0.7065
 4441SOL    HW224957   1.350   0.111   4.464  1.8744  1.9540 -1.1660
 4442SOL     OW24958   3.207   0.114   2.651 -0.5530 -0.1160 -0.4892
 4442SOL    HW124959   3.118   0.142   2.631 -1.2508 -0.3175  2.3462
 4442SOL    HW224960   3.256   0.122   2.570  0.7147 -0.3247  0.2600
 4443SOL     OW24961   1.781   4.675   1.563 -0.1086 -0.3879  0.3882
 4443SOL    HW124962   1.857   4.683   1.620  0.6918 -0.1799 -0.7130
 4443SOL    HW224963   1.787   0.026   1.525  0.1153 -0.0691  1.1670
 4444SOL     OW24964   0.101   2.989   1.735 -0.2995  0.1521 -0.4345
 4444SOL    HW124965   0.104   3.001   1.830 -1.8709  1.2748 -0.5237
 4444SOL    HW224966   0.159   3.060   1.709 -1.4925  1.0751 -0.5678
 4445SOL     OW24967   2.263   3.051   1.841 -0.9025  0.1255 -0.2686
 4445SOL    HW124968   2.271   3.074   1.748 -0.8150 -2.2602 -0.8774
 4445SOL    HW224969   2.271   2.955   1.844 -1.0937  0.1949  2.3455
 4446SOL     OW24970   4.452   3.159  12.378 -0.1416 -0.1972  0.0073
 4446SOL    HW124971   4.510   3.234  12.391  1.6869 -1.7619  0.8046
 4446SOL    HW224972   4.372   3.210  12.360  0.4223  0.5009 -0.5220
 4447SOL     OW24973   0.920   0.374   1.577  0.1306  0.2989  0.5405
 4447SOL    HW124974   0.938   0.376   1.483 -1.1175  2.7645  0.3544
 4447SOL    HW224975   0.923   0.468   1.593  0.2782  0.4161 -0.1794
 4448SOL     OW24976   3.447   2.965   5.203 -0.0993 -0.3455  0.0988
 4448SOL    HW124977   3.468   2.878   5.169 -0.2623 -1.6032  3.1961
 4448SOL    HW224978   3.470   3.011   5.122 -1.2560 -1.1749 -0.6998
 4449SOL     OW24979   0.321   4.353  16.591  0.6650  0.1153 -0.7223
 4449SOL    HW124980   0.335   4.274  16.538 -1.6969  0.6471 -2.1156
 4449SOL    HW224981   0.262   4.404  16.536  1.3488 -0.5225 -2.0570
 4450SOL     OW24982   1.211   2.130  13.962 -0.2352  0.1998  0.1592
 4450SOL    HW124983   1.231   2.038  13.945 -0.3382 -0.2394  2.4337
 4450SOL    HW224984   1.296   2.167  13.985 -0.1803  0.6976 -0.8519
 4451SOL     OW24985   0.661   0.700   1.773  0.6806  0.1056  0.4908
 4451SOL    HW124986   0.653   0.621   1.826 -0.4101 -0.4149 -0.4329
 4451SOL    HW224987   0.611   0.679   1.694 -0.0079  2.6576  0.2309
 4452SOL     OW24988   0.778   2.965   8.138  0.1040 -0.2728 -0.2684
 4452SOL    HW124989   0.702   3.010   8.101  0.9329  0.1745 -1.4183
 4452SOL    HW224990   0.737   2.886   8.173 -0.7695 -0.0611 -0.7902
 4453SOL     OW24991   2.651   3.908   1.293 -0.4667 -0.1320  0.4679
 4453SOL    HW124992   2.688   3.920   1.380 -2.6867 -0.8687  1.5328
 4453SOL    HW224993   2.607   3.823   1.305 -2.6300  0.7334 -1.4126
 4454SOL     OW24994   1.104   1.695  13.763 -0.4513 -0.1994  0.1927
 4454SOL    HW124995   1.065   1.728  13.682 -0.8088 -0.6652  0.1709
 4454SOL    HW224996   1.159   1.766  13.796 -1.1290  1.4007 -2.1281
 4455SOL     OW24997   2.734   4.058  15.013  0.2218 -0.2936 -0.2346
 4455SOL    HW124998   2.754   4.019  15.099  1.1876  1.0598  0.1444
 4455SOL    HW224999   2.666   4.000  14.980 -0.8334  1.0071 -0.3478
 4456SOL     OW25000   1.004   1.645   7.611 -0.0562  0.3653 -0.3519
 4456SOL    HW125001   1.087   1.606   7.585  0.0606  1.0518 -1.0117
 4456SOL    HW225002   1.003   1.720   7.551 -1.2555 -1.3730 -2.4804
 4457SOL     OW25003   1.018   1.088   3.990  0.3150 -0.6573 -0.3154
 4457SOL    HW125004   0.954   1.016   3.991 -1.7420  1.1979  2.3275
 4457SOL    HW225005   1.031   1.083   3.895  1.3718  1.0156 -0.2486
 4458SOL     OW25006   2.722   0.880   0.285 -0.3096 -1.1221 -0.0138
 4458SOL    HW125007   2.771   0.804   0.254  0.4706  0.3957 -2.5082
 4458SOL    HW225008   2.777   0.949   0.247  1.3201 -2.7333 -0.5588
 4459SOL     OW25009   1.815   0.391  17.468  0.0666 -0.0449 -0.6494
 4459SOL    HW125010   1.859   0.344  17.397  1.0667 -1.0608  0.6167
 4459SOL    HW225011   1.829   0.476  17.428  0.1653 -0.2390 -1.0316
 4460SOL     OW25012   0.110   4.677   3.650 -0.4042  0.3752  0.6818
 4460SOL    HW125013   0.110   4.663   3.556  1.1481 -3.7827  1.2951
 4460SOL    HW225014   0.017   4.673   3.668 -0.8226 -0.3243 -1.6559
 4461SOL     OW25015   3.373   4.216   3.022  0.3544  0.2209  0.2805
 4461SOL    HW125016   3.382   4.159   2.946  0.5876  0.8927 -0.1991
 4461SOL    HW225017   3.283   4.190   3.041  0.5663 -0.4217  0.4152
 4462SOL     OW25018   2.578   0.515   6.993 -0.1485  0.3882  0.1072
 4462SOL    HW125019   2.564   0.599   6.951  2.8924  1.2801  0.8765
 4462SOL    HW225020   2.491   0.493   7.026  0.4988 -0.1158  1.4599
 4463SOL     OW25021   1.839   4.515   4.746 -0.7446 -0.0868  0.4994
 4463SOL    HW125022   1.854   4.598   4.792  2.2614 -0.1747 -0.3517
 4463SOL    HW225023   1.747   4.494   4.757 -0.9103 -0.1403 -0.9923
 4464SOL     OW25024   0.150   0.234   2.123  0.4760  0.2716 -0.0052
 4464SOL    HW125025   0.215   0.166   2.144  0.8154  1.5055  2.8337
 4464SOL    HW225026   0.174   0.314   2.169  0.4864  0.1314  0.2313
 4465SOL     OW25027   1.775   3.068   8.241  0.8137 -0.1177  0.3969
 4465SOL    HW125028   1.754   3.026   8.158  1.2287  3.2607 -1.3988
 4465SOL    HW225029   1.724   3.027   8.311  2.7252 -2.3854  0.4403
 4466SOL     OW25030   0.577   3.314   6.662  0.8869 -0.4210 -0.4399
 4466SOL    HW125031   0.631   3.236   6.651  0.0185 -0.6773 -2.9302
 4466SOL    HW225032   0.545   3.332   6.574  0.6661  2.8209  0.3112
 4467SOL     OW25033   1.804   3.167   4.830  0.4028  0.1243 -0.5281
 4467SOL    HW125034   1.815   3.142   4.922 -0.8813 -3.7246 -1.4279
 4467SOL    HW225035   1.787   3.261   4.840  0.0885 -0.1665  1.7200
 4468SOL     OW25036   0.680   2.262   6.946  0.3234  0.6454  0.1920
 4468SOL    HW125037   0.709   2.224   6.863 -1.4405 -0.2584 -0.0095
 4468SOL    HW225038   0.592   2.225   6.945  1.0518 -1.0017 -1.4275
 4469SOL     OW25039   1.439   1.040   9.627 -0.1283 -0.3287 -0.4730
 4469SOL    HW125040   1.410   1.079   9.710 -0.7836 -0.4780 -0.6381
 4469SOL    HW225041   1.533   1.035   9.647 -0.2636  1.5042  0.5585
 4470SOL     OW25042   4.336   2.340   0.092  1.0724  0.3416  0.6799
 4470SOL    HW125043   4.286   2.319   0.013 -1.8013  2.4492  1.9381
 4470SOL    HW225044   4.289   2.292   0.160 -4.0510  1.0074 -2.3066
 4471SOL     OW25045   0.982   4.106   6.738  0.6135  0.1337  0.9044
 4471SOL    HW125046   1.005   4.013   6.744 -0.0030 -0.0423  0.5539
 4471SOL    HW225047   1.031   4.116   6.657 -2.4164  0.0022 -0.9661
 4472SOL     OW25048   2.863   0.190   4.122  0.3813  0.1093  0.1835
 4472SOL    HW125049   2.841   0.097   4.131 -0.5867  0.3264  0.0286
 4472SOL    HW225050   2.836   0.207   4.032 -0.7223 -2.1473  0.0830
 4473SOL     OW25051   2.604   4.165   9.843  0.3846  0.2535  0.0674
 4473SOL    HW125052   2.580   4.101   9.911 -2.0121  3.5614  2.3120
 4473SOL    HW225053   2.597   4.116   9.761  2.7792 -1.9105  1.1390
 4474SOL     OW25054   2.801   2.378   7.973  0.8620  0.0780 -0.0510
 4474SOL    HW125055   2.798   2.403   8.065  1.4712 -1.3712  0.3684
 4474SOL    HW225056   2.723   2.416   7.934 -0.2220 -1.6455  0.4380
 4475SOL     OW25057   2.289   4.375  11.536 -0.4770 -0.1352 -0.0370
 4475SOL    HW125058   2.283   4.456  11.587  3.2640  0.6614 -0.8545
 4475SOL    HW225059   2.380   4.386  11.508 -1.5077  0.5092 -3.1323
 4476SOL     OW25060   0.247   0.855   3.407 -0.3883  0.1667 -0.6196
 4476SOL    HW125061   0.168   0.908   3.413  0.5645  1.4566  0.6732
 4476SOL    HW225062   0.209   0.789   3.350  3.2105 -3.0422  0.6984
 4477SOL     OW25063   3.450   1.672  14.276  0.1662  0.1508  0.0963
 4477SOL    HW125064   3.463   1.593  14.223 -0.7516  0.2417 -0.2557
 4477SOL    HW225065   3.461   1.743  14.214 -2.1994  0.4133 -0.0173
 4478SOL     OW25066   3.277   4.154   7.908 -0.2674  0.1836 -0.0421
 4478SOL    HW125067   3.206   4.100   7.945 -0.4066  0.6305  0.3451
 4478SOL    HW225068   3.293   4.108   7.826  0.0311 -0.8731  0.6105
 4479SOL     OW25069   1.040   3.211   0.460 -0.3768  0.3542 -0.1132
 4479SOL    HW125070   1.015   3.119   0.464 -1.1625  0.4892 -2.1416
 4479SOL    HW225071   1.061   3.231   0.369  1.3325 -1.6567 -0.1479
 4480SOL     OW25072   0.078   1.461   6.253 -0.5510  0.0516 -0.6918
 4480SOL    HW125073   0.062   1.402   6.326 -1.0071  1.0255 -0.0176
 4480SOL    HW225074   0.173   1.456   6.244 -0.2966  1.9108  1.1822
 4481SOL     OW25075   4.260   2.750   0.869  0.0236 -0.0836  0.2764
 4481SOL    HW125076   4.337   2.735   0.814 -0.3618  3.2851 -1.1955
 4481SOL    HW225077   4.281   2.770   0.960 -0.2632  0.8996  0.1295
 4482SOL     OW25078   1.528   0.927   1.896  0.0938 -0.5861  0.2679
 4482SOL    HW125079   1.482   0.900   1.975 -2.2982  0.6010 -0.7034
 4482SOL    HW225080   1.464   0.991   1.865  1.0713  0.5373  0.5688
 4483SOL     OW25081   4.378   1.805  13.894  0.2997  0.2502 -0.3316
 4483SOL    HW125082   4.285   1.829  13.893  0.0840 -0.5749  1.4771
 4483SOL    HW225083   4.397   1.827  13.985 -0.2370 -1.4699  0.1863
 4484SOL     OW25084   0.771   2.503  13.810  0.4055  0.3473  0.2610
 4484SOL    HW125085   0.770   2.438  13.739  1.5838  0.7142 -0.0937
 4484SOL    HW225086   0.690   2.551  13.791 -0.5511 -1.8913 -1.3153
 4485SOL     OW25087   0.444   3.280   4.224  0.2945 -0.6633  0.3366
 4485SOL    HW125088   0.519   3.329   4.258  0.3093 -1.0277  0.8368
 4485SOL    HW225089   0.477   3.190   4.226  1.3409 -0.2413  2.6191
 4486SOL     OW25090   2.427   3.796   2.795  0.4242 -0.1656  0.0540
 4486SOL    HW125091   2.465   3.712   2.772  0.2894 -0.2982  0.3156
 4486SOL    HW225092   2.345   3.764   2.832  0.0456  0.4697 -0.2193
 4487SOL     OW25093   0.973   2.594   6.386 -0.2127  0.5596 -0.9359
 4487SOL    HW125094   0.885   2.622   6.412 -0.9614 -1.6495 -1.1423
 4487SOL    HW225095   0.954   2.546   6.305 -0.3790  0.8693 -1.0796
 4488SOL     OW25096   2.581   1.951  11.922  0.0988 -0.0237 -0.0627
 4488SOL    HW125097   2.579   2.031  11.975  1.8640 -0.6005  0.9043
 4488SOL    HW225098   2.654   1.898  11.954 -0.3445 -1.0451 -0.7662
 4489SOL     OW25099   2.500   3.406   9.229  0.5197  0.2611 -0.1249
 4489SOL    HW125100   2.539   3.469   9.169 -0.8661  1.9497  0.7078
 4489SOL    HW225101   2.577   3.395   9.286  2.0380 -1.1482 -2.4814
 4490SOL     OW25102   2.257   1.409  10.013  0.0409 -0.7478 -0.3393
 4490SOL    HW125103   2.260   1.460  10.094 -0.1323  2.1098 -2.1573
 4490SOL    HW225104   2.348   1.388   9.988 -0.8078 -1.4257 -2.8712
 4491SOL     OW25105   1.495   2.045   7.948  0.3298  0.4745  0.3953
 4491SOL    HW125106   1.474   1.993   7.870  1.8689  0.1011  0.2364
 4491SOL    HW225107   1.463   1.986   8.016  1.6680  1.5447  1.9454
 4492SOL     OW25108   0.203   4.101  15.800 -0.3627  0.4765  0.1158
 4492SOL    HW125109   0.211   4.024  15.745 -1.7223  0.1674  0.3397
 4492SOL    HW225110   0.108   4.104  15.790 -0.4513 -0.1770  0.7442
 4493SOL     OW25111   0.095   0.980   0.501  0.6532 -0.0157  0.1538
 4493SOL    HW125112   0.185   1.010   0.486  1.1759 -1.5907  0.0701
 4493SOL    HW225113   0.081   1.028   0.582 -0.2197  0.4767 -0.2947
 4494SOL     OW25114   1.981   4.101   4.065  0.1277  0.1795  0.6950
 4494SOL    HW125115   1.951   4.186   4.097 -1.6862  0.1082 -0.8006
 4494SOL    HW225116   2.060   4.122   4.017 -0.4704 -1.1171 -0.8333
 4495SOL     OW25117   4.090   4.021   7.964  0.2109  0.3186 -0.0660
 4495SOL    HW125118   4.143   4.041   7.887  0.6215  0.9648  0.3882
 4495SOL    HW225119   4.003   4.030   7.924  0.5886 -1.8133 -1.3766
 4496SOL     OW25120   2.833   0.303   6.341  0.4973  0.2144 -0.8204
 4496SOL    HW125121   2.924   0.291   6.314  0.5003 -1.8726  0.1056
 4496SOL    HW225122   2.837   0.363   6.415 -0.3384  0.1416 -0.7062
 4497SOL     OW25123   2.316   1.918  12.586 -0.7735 -0.6180  0.2004
 4497SOL    HW125124   2.311   1.923  12.682 -0.6611  0.9273  0.1288
 4497SOL    HW225125   2.348   2.002  12.554  0.4002 -0.6112  1.3742
 4498SOL     OW25126   3.152   2.372   3.478  0.1390 -0.5821 -0.1645
 4498SOL    HW125127   3.099   2.319   3.419 -0.6870 -1.4460  1.3347
 4498SOL    HW225128   3.130   2.462   3.452 -0.3743 -0.6616 -0.0071
 4499SOL     OW25129   3.495   3.012  13.588  0.1883  0.2614 -0.2864
 4499SOL    HW125130   3.503   2.932  13.536 -0.7680 -0.2163  0.3066
 4499SOL    HW225131   3.415   2.993  13.637  1.1941 -1.2561  0.7499
 4500SOL     OW25132   4.056   2.769   1.281  0.8841  0.0352  0.2041
 4500SOL    HW125133   4.151   2.781   1.275  0.6042  2.9080  1.7250
 4500SOL    HW225134   4.040   2.677   1.263 -2.6001  1.0838 -2.0300
 4501SOL     OW25135   2.936   0.782   2.467  0.3455 -0.0910  0.2003
 4501SOL    HW125136   3.002   0.851   2.460 -0.1741  0.3666 -0.1410
 4501SOL    HW225137   2.988   0.703   2.451 -2.4335 -1.9868  0.7060
 4502SOL     OW25138   0.318   0.207   0.820  0.2365  0.0974  0.3794
 4502SOL    HW125139   0.262   0.232   0.747  1.5196 -1.6473 -1.2176
 4502SOL    HW225140   0.365   0.287   0.846  0.9636 -0.2469  0.1341
 4503SOL     OW25141   1.253   4.166   3.447 -0.3810  0.0409 -0.4454
 4503SOL    HW125142   1.265   4.211   3.364 -1.5300  1.0533 -0.0605
 4503SOL    HW225143   1.184   4.226   3.475  0.6174  0.1610  1.7915
 4504SOL     OW25144   0.761   0.890  13.043 -0.3975  0.4362 -0.0853
 4504SOL    HW125145   0.682   0.936  13.015  0.0517  1.3927  0.2221
 4504SOL    HW225146   0.822   0.935  12.985 -1.2910 -0.8205 -1.9691
 4505SOL     OW25147   4.179   4.524   6.794 -0.4794  0.3298  0.3427
 4505SOL    HW125148   4.252   4.573   6.754 -0.3181  1.1916  1.7089
 4505SOL    HW225149   4.210   4.516   6.884 -2.2053 -0.6022  0.8570
 4506SOL     OW25150   3.507   3.049  13.125 -0.2739 -0.1088 -0.1992
 4506SOL    HW125151   3.532   3.071  13.214 -0.2510 -0.1032 -0.2069
 4506SOL    HW225152   3.536   3.127  13.078 -0.7498  0.5015  0.5299
 4507SOL     OW25153   1.014   3.011   3.628  0.1999 -0.2658  0.8188
 4507SOL    HW125154   0.934   3.032   3.676  0.1265  1.5873 -0.1230
 4507SOL    HW225155   1.075   3.084   3.641 -0.6812  0.9983 -2.2246
 4508SOL     OW25156   3.224   4.444  17.268  0.1529  0.2297 -0.5198
 4508SOL    HW125157   3.292   4.509  17.250  1.2028 -1.1007 -1.3983
 4508SOL    HW225158   3.141   4.491  17.261 -0.3313 -0.5916 -0.4050
 4509SOL     OW25159   3.368   0.364  11.527 -0.9086 -0.2753  0.2824
 4509SOL    HW125160   3.343   0.444  11.480 -1.6083  0.2610  1.5602
 4509SOL    HW225161   3.326   0.377  11.612 -0.8316  0.6621  0.1812
 4510SOL     OW25162   3.345   0.788  15.119 -0.3054  0.0067 -0.1982
 4510SOL    HW125163   3.254   0.771  15.094 -0.4871  1.6709 -0.6354
 4510SOL    HW225164   3.325   0.850  15.189  3.3697 -1.1566  1.8542
 4511SOL     OW25165   1.748   1.059   1.882 -0.2724  0.2383  0.7539
 4511SOL    HW125166   1.663   1.016   1.883 -0.7666  1.2158 -1.0819
 4511SOL    HW225167   1.801   1.002   1.827 -1.1871 -0.7173  0.8676
 4512SOL     OW25168   0.182   0.470   2.278  0.5511  0.3219  0.2205
 4512SOL    HW125169   0.236   0.512   2.212 -1.4136  0.3394 -1.3656
 4512SOL    HW225170   0.096   0.508   2.259 -0.2524 -1.1367  0.9320
 4513SOL     OW25171   2.310   1.446   8.590 -0.0297  0.0984  0.1569
 4513SOL    HW125172   2.295   1.438   8.684  0.7554  1.0069  0.3634
 4513SOL    HW225173   2.224   1.432   8.551  0.3816  0.5983 -0.9617
 4514SOL     OW25174   3.870   3.627   6.148  0.2399 -0.1659  0.2428
 4514SOL    HW125175   3.887   3.666   6.234  1.0400 -0.3880  0.1950
 4514SOL    HW225176   3.818   3.698   6.110 -0.1553 -0.4273  0.2976
 4515SOL     OW25177   2.955   1.986   3.473 -0.9107  0.3921 -0.1170
 4515SOL    HW125178   2.926   2.048   3.540  1.7117 -1.0975  2.3951
 4515SOL    HW225179   2.987   1.925   3.539 -1.5635  0.6288  0.4165
 4516SOL     OW25180   2.409   2.087   9.166 -0.3102 -0.2029  0.1775
 4516SOL    HW125181   2.314   2.097   9.167 -0.0486  2.3597  0.2925
 4516SOL    HW225182   2.449   2.174   9.175 -0.8245  0.2162 -1.4911
 4517SOL     OW25183   1.976   0.060   6.140 -0.1854  0.1069  0.0380
 4517SOL    HW125184   2.040   4.731   6.112  0.9437  0.2688  2.2993
 4517SOL    HW225185   1.985   0.127   6.072  0.8133  0.0496  0.1145
 4518SOL     OW25186   4.353   3.243   9.161 -0.0485 -0.7164  0.5702
 4518SOL    HW125187   4.427   3.183   9.154  0.3475 -0.3551  1.6296
 4518SOL    HW225188   4.297   3.209   9.091  0.3467  0.7217 -0.4445
 4519SOL     OW25189   0.392   2.163   9.546  0.6088  0.2754  0.2902
 4519SOL    HW125190   0.477   2.129   9.574  0.6120  1.4505  1.7722
 4519SOL    HW225191   0.432   2.245   9.518  2.8510 -1.0968 -0.4589
 4520SOL     OW25192   3.146   2.849   9.353  0.7058  0.7364 -0.5624
 4520SOL    HW125193   3.129   2.943   9.354 -0.9390  0.4459  0.2289
 4520SOL    HW225194   3.072   2.807   9.308  1.2802  1.2839 -2.0023
 4521SOL     OW25195   2.447   4.472   3.259 -0.3963  0.5905 -0.3719
 4521SOL    HW125196   2.526   4.422   3.277 -0.3953  1.0648  0.9147
 4521SOL    HW225197   2.371   4.418   3.282 -0.8087 -0.1249 -3.4185
 4522SOL     OW25198   2.957   4.186   6.275  0.0678 -0.4474  0.2074
 4522SOL    HW125199   3.036   4.237   6.294  0.9770 -1.5526 -0.6113
 4522SOL    HW225200   2.953   4.126   6.349  0.2183 -0.5227  0.1563
 4523SOL     OW25201   2.852   0.638   0.153  0.0516  0.0697 -0.1637
 4523SOL    HW125202   2.836   0.545   0.170 -0.1950 -0.0009 -0.7808
 4523SOL    HW225203   2.918   0.670   0.214  0.7650 -2.0092  0.1630
 4524SOL     OW25204   3.340   3.786   0.168 -0.1577  0.0634  0.2175
 4524SOL    HW125205   3.314   3.848   0.100 -0.8925 -2.4440 -1.8146
 4524SOL    HW225206   3.361   3.715   0.107 -1.4252 -0.0448 -0.1121
 4525SOL     OW25207   1.128   2.625   0.031 -0.0624 -0.0116 -0.5053
 4525SOL    HW125208   1.075   2.599  17.701  0.8649 -0.9078 -0.8488
 4525SOL    HW225209   1.216   2.599   0.002  0.4062  0.0039  0.9383
 4526SOL     OW25210   1.924   1.384   0.252  0.0289 -0.2092  0.7643
 4526SOL    HW125211   1.889   1.357   0.168 -0.3665 -0.7621  1.1071
 4526SOL    HW225212   1.960   1.472   0.241 -0.2602 -0.2181 -0.2487
 4527SOL     OW25213   1.623   1.404   7.140 -0.2461  0.0806  0.4887
 4527SOL    HW125214   1.611   1.382   7.232  0.0254  0.9138  0.7252
 4527SOL    HW225215   1.683   1.478   7.129 -0.4867  0.1952 -0.0900
 4528SOL     OW25216   0.573   2.558   5.458  0.0318  0.1237 -0.0566
 4528SOL    HW125217   0.631   2.560   5.381  1.5886 -0.8505  1.0969
 4528SOL    HW225218   0.503   2.620   5.436  0.5988  1.4849  2.0211
 4529SOL     OW25219   1.226   3.004   7.117 -0.4171 -0.0045  0.5355
 4529SOL    HW125220   1.213   2.992   7.211 -1.5073 -0.6366  0.3001
 4529SOL    HW225221   1.215   2.911   7.096  0.2328  0.1785 -0.6404
 4530SOL     OW25222   2.208   2.626  15.934  0.2335 -0.0660 -0.2127
 4530SOL    HW125223   2.173   2.539  15.950 -2.5191  1.9998  4.7436
 4530SOL    HW225224   2.257   2.624  15.852  2.8154 -0.9794  1.3489
 4531SOL     OW25225   0.190   2.238  13.539 -0.0639 -0.2876 -0.3268
 4531SOL    HW125226   0.111   2.264  13.588 -0.7067  0.1637 -1.5991
 4531SOL    HW225227   0.245   2.316  13.547 -0.8644  0.3016 -0.5191
 4532SOL     OW25228   2.082   4.480   5.440  0.5166 -0.1357 -0.1947
 4532SOL    HW125229   2.024   4.553   5.418  1.8871  1.1801  0.5512
 4532SOL    HW225230   2.168   4.506   5.407  0.0755  1.1226 -0.3524
 4533SOL     OW25231   3.234   1.444   5.864 -0.2077 -0.0864  0.0490
 4533SOL    HW125232   3.255   1.357   5.897  0.0324  0.0397  0.2374
 4533SOL    HW225233   3.322   1.481   5.856  0.4466 -1.7366 -0.3535
 4534SOL     OW25234   4.094   3.850   6.116  0.0147 -0.3786  0.6167
 4534SOL    HW125235   4.014   3.876   6.163  1.2173  3.1230  0.7107
 4534SOL    HW225236   4.094   3.910   6.041 -0.0659 -0.4141  0.5874
 4535SOL     OW25237   3.188   0.768   8.605 -0.1914 -0.4363  0.5345
 4535SOL    HW125238   3.123   0.839   8.608  1.1716  0.8447 -0.0656
 4535SOL    HW225239   3.144   0.708   8.545  0.8404  0.4641 -1.1579
 4536SOL     OW25240   4.196   0.955   3.662  0.1894  0.2630  0.4813
 4536SOL    HW125241   4.167   0.936   3.751 -0.7673  0.0530  0.1199
 4536SOL    HW225242   4.290   0.938   3.667 -0.0591 -0.5160  2.3888
 4537SOL     OW25243   3.445   1.402  10.674 -0.9856 -0.0303  0.0673
 4537SOL    HW125244   3.401   1.441  10.598 -3.4246 -0.7089  1.1532
 4537SOL    HW225245   3.480   1.322  10.635  1.9220  0.1714  2.2610
 4538SOL     OW25246   0.913   2.118   5.845  0.3325  0.1126  0.1632
 4538SOL    HW125247   0.863   2.065   5.907 -0.3931  1.2364  0.5396
 4538SOL    HW225248   0.854   2.193   5.834 -1.8195 -1.2950  2.2659
 4539SOL     OW25249   2.577   1.978   5.313 -0.0593 -0.0869  0.2048
 4539SOL    HW125250   2.580   1.951   5.404  0.6190 -2.4844 -0.5125
 4539SOL    HW225251   2.670   1.959   5.302 -0.3400 -1.7980  0.7588
 4540SOL     OW25252   4.466   2.721   0.675 -0.6910 -0.4498 -0.7246
 4540SOL    HW125253   4.523   2.693   0.746 -0.1519  0.1939 -0.9087
 4540SOL    HW225254   4.534   2.770   0.629 -1.3916  0.8967 -0.3150
 4541SOL     OW25255   1.757   0.097   1.019  0.4320 -0.0471 -0.3401
 4541SOL    HW125256   1.822   0.165   1.037 -0.3074  0.2939  0.9537
 4541SOL    HW225257   1.689   0.106   1.085 -0.0996  1.1967 -1.0568
 4542SOL     OW25258   4.170   3.603   9.579 -0.0442  0.2820 -0.1537
 4542SOL    HW125259   4.147   3.691   9.550 -0.3831  0.7978  1.6616
 4542SOL    HW225260   4.234   3.617   9.649 -0.7669  1.9937  0.1589
 4543SOL     OW25261   3.858   4.231   2.885 -0.1275  0.1397 -0.0355
 4543SOL    HW125262   3.786   4.187   2.840  0.4509 -0.8214 -0.0066
 4543SOL    HW225263   3.867   4.178   2.964  2.0514  0.4733 -0.0507
 4544SOL     OW25264   0.696   4.367   3.072  0.3873 -0.1330  0.0929
 4544SOL    HW125265   0.601   4.360   3.078  0.5137  0.7012  3.0146
 4544SOL    HW225266   0.725   4.349   3.161  2.6801 -0.1219 -0.6574
 4545SOL     OW25267   4.403   2.238  15.689 -0.3517 -0.0761 -0.1906
 4545SOL    HW125268   4.332   2.223  15.628 -0.4927 -1.4367  0.3194
 4545SOL    HW225269   4.446   2.155  15.710  1.3529  1.3131  1.8666
 4546SOL     OW25270   4.494   0.813   8.440  0.0229  0.3206  0.4680
 4546SOL    HW125271   4.491   0.726   8.480 -0.2435  0.6894  1.2413
 4546SOL    HW225272   4.511   0.861   8.521 -1.0060 -0.1782  0.9732
 4547SOL     OW25273   4.512   4.102   4.433  0.5819  0.8666 -0.4559
 4547SOL    HW125274   4.514   4.115   4.339  1.4515 -2.3218 -0.9005
 4547SOL    HW225275   4.495   4.007   4.435 -1.9319  1.3454  0.5148
 4548SOL     OW25276   2.555   0.369   4.293  0.0051 -0.2789 -0.0072
 4548SOL    HW125277   2.581   0.294   4.348  0.4423  0.4054  0.7136
 4548SOL    HW225278   2.542   0.326   4.208 -0.0401 -2.5266  1.1438
 4549SOL     OW25279   3.722   1.286   6.084 -0.2624  0.2906 -0.2528
 4549SOL    HW125280   3.701   1.203   6.128  1.0037 -1.3887 -2.8130
 4549SOL    HW225281   3.717   1.252   5.995  0.3712  1.3022 -0.6664
 4550SOL     OW25282   2.072   0.913  13.513  0.4181 -0.5704 -0.3305
 4550SOL    HW125283   2.067   0.965  13.433 -0.6877  3.6060  2.5007
 4550SOL    HW225284   2.098   0.980  13.575 -0.1390 -0.9536  0.3199
 4551SOL     OW25285   1.309   4.550   0.259  0.3879 -0.6443  0.4485
 4551SOL    HW125286   1.288   4.581   0.171 -1.5040 -1.3505  0.6479
 4551SOL    HW225287   1.359   4.617   0.304 -0.1347  1.1239 -1.6123
 4552SOL     OW25288   3.785   1.848   4.593  0.0298 -0.5083  0.3492
 4552SOL    HW125289   3.713   1.785   4.586  0.1274 -0.8823  2.5883
 4552SOL    HW225290   3.800   1.869   4.501  0.0294  0.7742  0.6411
 4553SOL     OW25291   4.732   3.773  13.038  0.4642 -0.2073 -0.4224
 4553SOL    HW125292   4.661   3.789  13.100  0.0104 -2.0083 -0.4718
 4553SOL    HW225293   0.055   3.848  13.039 -0.1773  0.3498 -3.2384
 4554SOL     OW25294   4.665   2.058   8.984  0.5538  0.1911 -0.4213
 4554SOL    HW125295   0.007   2.016   9.018 -0.9669  0.2809  3.1479
 4554SOL    HW225296   4.679   2.146   9.019  0.1595  0.5471 -1.1597
 4555SOL     OW25297   0.917   1.107   2.289  0.4307  0.3137  0.3014
 4555SOL    HW125298   0.855   1.057   2.236  1.4603  1.4321 -1.9855
 4555SOL    HW225299   0.942   1.188   2.243  1.2725 -0.7835 -1.1549
 4556SOL     OW25300   2.143   2.856  14.577 -0.0911  0.1971 -0.1936
 4556SOL    HW125301   2.092   2.775  14.576  0.7006 -0.3262  0.8285
 4556SOL    HW225302   2.227   2.833  14.618  0.2386 -0.0216 -0.9915
 4557SOL     OW25303   3.314   0.121  16.934  0.2051 -0.3175  0.1448
 4557SOL    HW125304   3.254   0.047  16.935  0.6236 -0.6534 -0.0661
 4557SOL    HW225305   3.269   0.188  16.882  0.7635  1.0179  1.3540
 4558SOL     OW25306   4.309   3.400   3.003 -0.3338 -0.0143  0.1187
 4558SOL    HW125307   4.353   3.424   3.085  0.1422 -0.8354  0.1019
 4558SOL    HW225308   4.234   3.457   3.015  0.8643  1.2770  1.5015
 4559SOL     OW25309   1.763   1.023   3.166 -0.1839 -0.4369  0.2891
 4559SOL    HW125310   1.780   0.941   3.212 -0.3232  0.1267  1.3309
 4559SOL    HW225311   1.753   0.985   3.079  1.8587  0.2641 -0.2487
 4560SOL     OW25312   4.485   2.247   5.867  0.1914 -0.1221  0.3422
 4560SOL    HW125313   4.402   2.250   5.915 -0.2221 -1.6908 -0.2611
 4560SOL    HW225314   4.445   2.234   5.781 -0.1213  1.2277  0.2946
 4561SOL     OW25315   4.400   2.533   7.212  0.3154  0.3286 -0.3374
 4561SOL    HW125316   4.350   2.523   7.131 -1.0574  2.3202  0.2663
 4561SOL    HW225317   4.427   2.625   7.214  1.0506  0.1495 -2.4125
 4562SOL     OW25318   1.765   1.344  13.633 -0.6037  0.1434 -0.7247
 4562SOL    HW125319   1.709   1.280  13.589 -0.3553 -0.0567 -0.7445
 4562SOL    HW225320   1.830   1.347  13.563 -1.3814 -0.9656 -1.5052
 4563SOL     OW25321   0.933   3.112   6.472 -0.2051  0.0657 -0.0301
 4563SOL    HW125322   0.949   3.024   6.440 -0.0006 -0.4264  1.4447
 4563SOL    HW225323   1.017   3.154   6.452  0.8413 -0.6086  2.9481
 4564SOL     OW25324   1.680   1.965   6.098 -0.4036 -0.2055  0.6033
 4564SOL    HW125325   1.602   1.925   6.060  0.7009  0.1533 -2.0279
 4564SOL    HW225326   1.633   2.048   6.092  1.1154  0.7019  1.1193
 4565SOL     OW25327   0.390   4.035   8.776  0.2764  0.0602  0.0151
 4565SOL    HW125328   0.401   4.057   8.869 -0.5378 -2.5796  0.7512
 4565SOL    HW225329   0.399   4.125   8.745  3.0844  0.4809  2.0574
 4566SOL     OW25330   0.276   1.386   1.278  0.0492  0.2132 -0.8239
 4566SOL    HW125331   0.276   1.435   1.196 -1.5464  2.9111  0.7953
 4566SOL    HW225332   0.359   1.338   1.279  0.5636  1.0958 -1.3795
 4567SOL     OW25333   1.858   3.663   3.034 -0.1384 -0.0732 -0.5568
 4567SOL    HW125334   1.790   3.606   3.070  0.5784 -0.4019  0.2571
 4567SOL    HW225335   1.937   3.610   3.031  0.9862  1.5272  0.3672
 4568SOL     OW25336   0.368   3.832   6.761  0.0467  0.1180 -0.2133
 4568SOL    HW125337   0.360   3.771   6.687 -0.5501 -0.2192  0.1320
 4568SOL    HW225338   0.457   3.822   6.794  0.0103  0.1744 -0.1017
 4569SOL     OW25339   1.321   3.654  11.940 -0.1611 -0.0756 -0.7486
 4569SOL    HW125340   1.385   3.587  11.964 -1.6879 -0.9985  0.7641
 4569SOL    HW225341   1.346   3.725  11.999  5.8719  0.6003 -4.1522
 4570SOL     OW25342   4.410   2.544   6.483 -0.2028 -0.2514  0.3870
 4570SOL    HW125343   4.408   2.636   6.457 -3.8130  0.0055  1.5640
 4570SOL    HW225344   4.390   2.509   6.396 -1.3607  1.5893 -0.1046
 4571SOL     OW25345   2.286   4.513  17.000  0.1274  0.7186 -0.7293
 4571SOL    HW125346   2.265   4.522  17.093  1.5356  1.4093 -0.4779
 4571SOL    HW225347   2.375   4.549  16.998  0.4380  0.0089  0.6790
 4572SOL     OW25348   3.280   1.598   8.763  0.5733  0.8537  0.4256
 4572SOL    HW125349   3.327   1.520   8.793 -1.8891 -1.0544 -0.6497
 4572SOL    HW225350   3.303   1.594   8.671 -0.9317 -1.5143  0.1700
 4573SOL     OW25351   3.926   4.053   5.510  0.1577  0.0573  0.2073
 4573SOL    HW125352   3.851   4.104   5.477  0.4688  2.1381  2.7127
 4573SOL    HW225353   3.987   4.055   5.436 -3.1729  0.1834 -2.5507
 4574SOL     OW25354   4.334   1.736   7.570 -0.2577  0.0191  0.1872
 4574SOL    HW125355   4.428   1.724   7.588 -0.5064 -4.0499 -1.2634
 4574SOL    HW225356   4.327   1.820   7.615  1.3146  0.8308 -1.0844
 4575SOL     OW25357   2.181   4.044   1.611  0.5501  0.3424 -0.3856
 4575SOL    HW125358   2.133   4.111   1.660 -1.2318 -0.4150 -1.1233
 4575SOL    HW225359   2.138   3.965   1.641 -0.2012  0.4763 -1.0960
 4576SOL     OW25360   3.824   2.291   9.647  0.0151 -0.2531  0.2714
 4576SOL    HW125361   3.844   2.198   9.656 -1.2553 -0.3395  2.1412
 4576SOL    HW225362   3.895   2.334   9.694  1.9081  0.7208 -3.4339
 4577SOL     OW25363   3.987   2.317   2.132  0.2604 -0.1079 -0.3371
 4577SOL    HW125364   4.064   2.313   2.189  0.8211 -1.2856 -1.1795
 4577SOL    HW225365   3.959   2.409   2.138  2.9586  0.5038  3.2175
 4578SOL     OW25366   1.641   0.328   6.203 -0.5837 -0.0346  0.0063
 4578SOL    HW125367   1.588   0.294   6.131  2.2087 -2.4194 -0.9414
 4578SOL    HW225368   1.632   0.422   6.186  0.8135 -0.0051 -0.5716
 4579SOL     OW25369   2.235   1.710  12.438 -0.4869 -0.9376  1.1044
 4579SOL    HW125370   2.247   1.780  12.502  2.8689 -0.7064  0.2586
 4579SOL    HW225371   2.295   1.738  12.369 -1.1210 -1.2588  0.4284
 4580SOL     OW25372   2.778   1.639   8.742 -0.4620  0.3522  0.0073
 4580SOL    HW125373   2.706   1.677   8.791 -0.6726 -0.9872  0.7351
 4580SOL    HW225374   2.853   1.649   8.800  0.4698 -2.4873 -0.6775
 4581SOL     OW25375   3.391   2.140   6.577  0.2434  0.6307 -0.1635
 4581SOL    HW125376   3.340   2.062   6.553  1.6442 -0.4749  0.4294
 4581SOL    HW225377   3.467   2.104   6.623  0.6112  1.1864 -0.3417
 4582SOL     OW25378   3.941   4.548   2.622  0.4738 -0.3397  0.8595
 4582SOL    HW125379   4.023   4.522   2.581 -0.1944 -0.2083 -0.5710
 4582SOL    HW225380   3.871   4.489   2.596  2.2114 -1.3198 -1.5546
 4583SOL     OW25381   3.504   4.412   0.663  0.1879  0.1394  0.1130
 4583SOL    HW125382   3.510   4.326   0.622 -0.8136  0.7582 -1.3179
 4583SOL    HW225383   3.411   4.424   0.680 -0.0388 -0.2523 -0.8610
 4584SOL     OW25384   0.520   3.256  16.755  0.3764  0.4587  0.4047
 4584SOL    HW125385   0.598   3.287  16.801  1.5882 -1.1307 -0.5618
 4584SOL    HW225386   0.535   3.269  16.662  0.7701 -0.6238  0.3165
 4585SOL     OW25387   1.424   3.146   5.476  0.1806  0.6359 -1.0231
 4585SOL    HW125388   1.456   3.210   5.539  0.9138 -1.9459  1.2700
 4585SOL    HW225389   1.476   3.070   5.504 -2.2576 -1.1094 -1.2639
 4586SOL     OW25390   3.534   1.566  17.266  0.2675 -0.7712  0.3366
 4586SOL    HW125391   3.440   1.584  17.272  0.4045  0.1408 -0.3065
 4586SOL    HW225392   3.524   1.487  17.213 -2.5396  0.9897 -1.7154
 4587SOL     OW25393   4.365   0.043   4.268  0.4090  0.8073 -0.3248
 4587SOL    HW125394   4.454   0.075   4.280  0.6748 -0.2884  0.6273
 4587SOL    HW225395   4.336   0.005   4.351  0.3790  1.3765 -0.0737
 4588SOL     OW25396   2.657   0.271   5.095  0.2498 -0.0468  0.8094
 4588SOL    HW125397   2.586   0.206   5.092 -0.7012  0.9647  1.2357
 4588SOL    HW225398   2.645   0.304   5.006 -0.0495  0.2004  0.9386
 4589SOL     OW25399   0.269   2.082   5.823  0.2161  0.1500 -0.3334
 4589SOL    HW125400   0.252   2.067   5.730  0.7083  3.1646 -0.9207
 4589SOL    HW225401   0.307   2.170   5.820 -1.1552  0.8400  2.7454
 4590SOL     OW25402   0.013   2.138   6.837  0.3201  0.2801  0.4320
 4590SOL    HW125403   0.098   2.181   6.837 -0.5739  2.0530  1.0106
 4590SOL    HW225404   4.703   2.207   6.884 -1.6721 -1.5680  1.1813
 4591SOL     OW25405   0.026   1.373   8.606 -0.1890  0.2095  0.0621
 4591SOL    HW125406   4.686   1.386   8.661 -1.8638 -0.4116 -2.1281
 4591SOL    HW225407   0.044   1.467   8.595 -2.3216  0.7496  1.1839
 4592SOL     OW25408   3.270   3.415   2.918  0.0157  0.0028  0.5517
 4592SOL    HW125409   3.339   3.391   2.856 -1.5932  0.5170 -1.4514
 4592SOL    HW225410   3.297   3.503   2.944  0.2571  0.4998 -1.3915
 4593SOL     OW25411   4.462   1.655   6.568  0.6465 -0.2705 -0.0980
 4593SOL    HW125412   4.495   1.616   6.487 -0.0234 -1.8570  0.3831
 4593SOL    HW225413   4.466   1.749   6.551 -0.3926 -0.2828 -0.3798
 4594SOL     OW25414   0.115   0.588   8.815 -0.0069 -0.8803 -0.2740
 4594SOL    HW125415   0.036   0.634   8.785  0.9898  1.1101  0.1952
 4594SOL    HW225416   0.076   0.500   8.820  1.0630 -1.3679 -0.5016
 4595SOL     OW25417   1.374   2.085  12.421 -0.1310 -0.0376 -0.2799
 4595SOL    HW125418   1.403   2.137  12.346  0.3639  2.3434  1.5802
 4595SOL    HW225419   1.459   2.060  12.458 -1.4699 -1.3274  1.9114
 4596SOL     OW25420   0.210   1.438   6.818  0.0113  0.1597  0.2863
 4596SOL    HW125421   0.240   1.372   6.881 -0.3462 -1.4253 -1.2085
 4596SOL    HW225422   0.133   1.473   6.862  0.0501 -1.3947  1.5602
 4597SOL     OW25423   1.792   3.373  17.488 -0.1697  0.2657 -0.3450
 4597SOL    HW125424   1.790   3.289  17.441 -0.8361  0.5893 -0.8774
 4597SOL    HW225425   1.886   3.392  17.492 -0.2082  0.2154  1.0134
 4598SOL     OW25426   0.159   2.424   4.105 -0.5026  0.3405 -0.6737
 4598SOL    HW125427   0.210   2.343   4.095 -1.0771  0.0614 -1.4395
 4598SOL    HW225428   0.223   2.485   4.141  0.5991 -0.3982 -1.3529
 4599SOL     OW25429   0.413   3.310   0.914 -0.1784  0.5165 -0.3033
 4599SOL    HW125430   0.500   3.287   0.947 -0.0303 -0.0890 -1.1308
 4599SOL    HW225431   0.353   3.299   0.988 -2.3239 -1.0123 -2.2766
 4600SOL     OW25432   2.686   1.793   7.682 -0.3346 -0.0037  0.0967
 4600SOL    HW125433   2.602   1.746   7.676 -0.0545 -0.4753 -0.1093
 4600SOL    HW225434   2.723   1.786   7.769  1.5685  1.2426 -0.6046
 4601SOL     OW25435   2.137   0.922   4.077  0.4078 -0.5135 -0.6137
 4601SOL    HW125436   2.232   0.917   4.075  0.6393  2.4553  1.9915
 4601SOL    HW225437   2.124   0.967   4.161  2.8020 -0.3961 -0.3194
 4602SOL     OW25438   3.985   0.306   4.096 -0.0208  0.8378  0.0291
 4602SOL    HW125439   4.055   0.369   4.079 -0.5447 -0.0192 -5.2501
 4602SOL    HW225440   4.020   0.242   4.158  1.0162 -0.3976 -1.8111
 4603SOL     OW25441   0.770   1.340  16.909 -0.6186  0.2607 -0.3383
 4603SOL    HW125442   0.825   1.264  16.928  0.8237  1.7518  1.4306
 4603SOL    HW225443   0.737   1.324  16.821 -2.6160  0.7216  0.3293
 4604SOL     OW25444   0.967   4.352   2.457 -0.1105  0.1597  0.6828
 4604SOL    HW125445   1.032   4.283   2.465  0.1165  0.2474 -0.3934
 4604SOL    HW225446   0.918   4.328   2.379 -0.2948 -0.6624  1.0472
 4605SOL     OW25447   1.231   0.202  15.418  0.6686 -0.0135 -0.1893
 4605SOL    HW125448   1.209   0.109  15.420 -1.4545  0.4956 -0.3021
 4605SOL    HW225449   1.317   0.191  15.376  0.8610 -0.2424  0.2697
 4606SOL     OW25450   0.813   0.389   5.272 -0.2330 -0.4997  0.3101
 4606SOL    HW125451   0.842   0.481   5.277  2.7161 -1.4762  1.2242
 4606SOL    HW225452   0.721   0.399   5.247 -0.4172 -3.3429 -0.0897
 4607SOL     OW25453   1.188   2.105   5.845  0.1205  0.1316 -0.4291
 4607SOL    HW125454   1.169   2.100   5.939 -0.5737  1.8773 -0.4756
 4607SOL    HW225455   1.103   2.118   5.803 -0.5786 -2.0527  0.3344
 4608SOL     OW25456   2.117   2.011   1.430 -0.0831 -0.2219 -0.4632
 4608SOL    HW125457   2.026   1.981   1.439 -0.5700  0.7768 -1.9745
 4608SOL    HW225458   2.159   1.926   1.447  2.6173  0.7968 -2.0299
 4609SOL     OW25459   4.552   2.613  16.308  0.2644  0.4982 -0.3075
 4609SOL    HW125460   4.534   2.583  16.397 -0.2595  0.6062 -0.3768
 4609SOL    HW225461   4.613   2.686  16.323  1.6721 -1.1680  2.0640
 4610SOL     OW25462   2.510   4.224   7.260  0.6838  0.3306 -0.6679
 4610SOL    HW125463   2.436   4.281   7.284 -0.8754 -1.4385 -1.2722
 4610SOL    HW225464   2.477   4.166   7.192  0.0867  0.6906 -0.6917
 4611SOL     OW25465   1.179   0.584   9.047 -0.8828  0.2101 -0.2966
 4611SOL    HW125466   1.107   0.527   9.071 -0.3409 -1.4813 -2.6603
 4611SOL    HW225467   1.123   0.660   9.035  0.0437  1.2519  1.9234
 4612SOL     OW25468   0.160   2.147   6.180 -0.7874 -0.4073 -0.5177
 4612SOL    HW125469   0.221   2.136   6.253  2.9036  0.8883 -3.3767
 4612SOL    HW225470   0.095   2.077   6.183 -2.6647  1.2923 -1.2572
 4613SOL     OW25471   0.032   0.675   5.893 -0.4173  0.6543  0.0755
 4613SOL    HW125472   0.042   0.767   5.915  2.0296  0.1499  1.0608
 4613SOL    HW225473   0.006   0.640   5.978  3.0779 -0.8128  0.5298
 4614SOL     OW25474   2.363   2.022  16.705  0.2602 -0.4659  0.1253
 4614SOL    HW125475   2.322   1.944  16.743  1.5039  0.0411  2.5218
 4614SOL    HW225476   2.347   1.996  16.614  1.3015 -1.3311  0.1953
 4615SOL     OW25477   2.804   4.205   0.360 -0.1103  0.0127 -0.1112
 4615SOL    HW125478   2.897   4.215   0.380 -0.4261  0.4419  1.1466
 4615SOL    HW225479   2.818   4.180   0.268  1.0047 -2.1467  0.6446
 4616SOL     OW25480   3.489   1.948  12.598 -0.2925  0.0390  0.1652
 4616SOL    HW125481   3.498   1.894  12.519 -0.1209 -1.4622  1.2156
 4616SOL    HW225482   3.572   1.928  12.641 -1.3268  0.4162  2.3392
 4617SOL     OW25483   3.154   4.208  13.312  0.1340  0.5427 -0.1448
 4617SOL    HW125484   3.215   4.247  13.375  0.0104 -0.6260  0.7156
 4617SOL    HW225485   3.216   4.156  13.262 -0.0955  0.6604 -0.5509
 4618SOL     OW25486   3.264   2.609  12.953 -0.6038 -0.4952 -0.0162
 4618SOL    HW125487   3.316   2.671  13.004 -1.9381  1.9113 -1.6031
 4618SOL    HW225488   3.324   2.585  12.883 -1.8355  0.4388 -1.3991
 4619SOL     OW25489   0.314   2.482   6.592 -0.3486 -0.5891  0.1340
 4619SOL    HW125490   0.245   2.446   6.536  0.4480  1.6589 -2.2391
 4619SOL    HW225491   0.386   2.456   6.534  0.8471  2.7736  0.1530
 4620SOL     OW25492   3.136   1.368  12.819  0.4999 -0.0264  0.1163
 4620SOL    HW125493   3.051   1.405  12.794  0.0893 -0.4658  0.8425
 4620SOL    HW225494   3.157   1.320  12.739 -0.8511  1.5784 -1.1977
 4621SOL     OW25495   2.506   4.107  13.445 -0.2028  0.2564  0.3111
 4621SOL    HW125496   2.581   4.165  13.453  0.7880 -1.3632  2.8567
 4621SOL    HW225497   2.528   4.061  13.364 -0.7149 -1.2554  1.0134
 4622SOL     OW25498   3.130   1.823   2.548 -0.3004 -0.0609 -0.3312
 4622SOL    HW125499   3.042   1.846   2.579  0.0055 -2.3655  2.2359
 4622SOL    HW225500   3.103   1.774   2.470 -2.4616 -1.5468  1.3468
 4623SOL     OW25501   1.839   3.819   3.562  0.1203  0.1133  0.3478
 4623SOL    HW125502   1.800   3.757   3.624  1.3542 -0.5396  0.4589
 4623SOL    HW225503   1.755   3.861   3.543 -0.3283 -1.5624 -1.3232
 4624SOL     OW25504   1.734   0.719   1.228 -0.5685  0.5530  0.3351
 4624SOL    HW125505   1.753   0.691   1.317 -1.0894 -1.4763 -0.1921
 4624SOL    HW225506   1.662   0.660   1.202  0.7559 -0.6973 -0.4933
 4625SOL     OW25507   4.579   0.103   7.202 -0.0363  0.4856 -0.0470
 4625SOL    HW125508   4.551   0.184   7.159 -0.2966  0.5393  0.2266
 4625SOL    HW225509   4.666   0.137   7.227 -1.0025  3.5591 -0.8355
 4626SOL     OW25510   2.475   1.370   3.996  0.5419 -0.4378 -0.2590
 4626SOL    HW125511   2.426   1.448   4.023 -2.2745 -2.3073  0.0842
 4626SOL    HW225512   2.407   1.303   4.005  0.5175 -0.4442 -0.4960
 4627SOL     OW25513   2.115   0.188  10.931 -0.5573 -0.0401  0.0267
 4627SOL    HW125514   2.021   0.188  10.915 -1.0017 -0.7157  2.5652
 4627SOL    HW225515   2.136   0.281  10.921 -0.7965 -0.0540 -0.5944
 4628SOL     OW25516   2.238   0.063   3.907  0.0616 -0.1548  0.0947
 4628SOL    HW125517   2.154   0.053   3.863  0.0541  2.4968 -0.4686
 4628SOL    HW225518   2.295   0.077   3.831 -1.5575  1.3312 -0.8447
 4629SOL     OW25519   4.663   0.878   2.721 -0.7342  0.0512 -0.3463
 4629SOL    HW125520   4.718   0.807   2.756  1.1449  2.7050  2.1524
 4629SOL    HW225521   4.599   0.883   2.792  0.3284  2.3756  0.4761
 4630SOL     OW25522   0.579   3.066   4.154 -0.2837 -0.2214  0.3312
 4630SOL    HW125523   0.606   3.100   4.069  1.1153 -0.5006  0.6741
 4630SOL    HW225524   0.656   3.050   4.208 -0.3265 -0.4020  0.3408
 4631SOL     OW25525   4.529   2.937   1.940  0.4397 -0.4168  0.2130
 4631SOL    HW125526   4.443   2.978   1.932  0.7292 -0.2521 -1.9268
 4631SOL    HW225527   4.573   3.014   1.976  2.8384 -1.0003 -1.4695
 4632SOL     OW25528   3.014   2.729   8.821 -0.2278 -0.5293  0.0729
 4632SOL    HW125529   2.997   2.810   8.870  0.0393 -1.5774  1.8945
 4632SOL    HW225530   2.955   2.672   8.871 -1.0979  1.1619  1.0006
 4633SOL     OW25531   1.687   3.919   6.572  0.4750  0.1365  0.3372
 4633SOL    HW125532   1.602   3.955   6.599 -0.4165 -0.6745 -1.3823
 4633SOL    HW225533   1.716   3.998   6.526 -0.6483  0.6302  0.4715
 4634SOL     OW25534   2.705   0.955   6.384  0.2205  0.1068  0.0964
 4634SOL    HW125535   2.729   0.890   6.450  0.5127 -0.2628 -0.3722
 4634SOL    HW225536   2.792   0.983   6.356 -1.4936  2.6268 -2.5952
 4635SOL     OW25537   0.934   0.396  12.240  0.1767 -0.4375  0.5020
 4635SOL    HW125538   0.860   0.403  12.300 -1.0229 -1.8056 -0.8290
 4635SOL    HW225539   1.005   0.441  12.287 -0.0403 -2.0626  2.3896
 4636SOL     OW25540   2.768   0.170   2.503 -0.0944  0.4771  0.1885
 4636SOL    HW125541   2.687   0.199   2.461 -1.3439 -3.5644 -0.1975
 4636SOL    HW225542   2.751   0.187   2.596 -1.1431  3.0707 -0.4742
 4637SOL     OW25543   0.069   0.480   0.418 -0.0820 -0.5621  0.2779
 4637SOL    HW125544   0.133   0.550   0.416  1.8031 -2.2399  1.6269
 4637SOL    HW225545   0.006   0.508   0.352 -0.3892 -0.6758  0.5208
 4638SOL     OW25546   1.673   4.310   9.646  0.5694 -0.0758  0.4048
 4638SOL    HW125547   1.668   4.401   9.618 -1.0918 -0.0298  0.8434
 4638SOL    HW225548   1.641   4.311   9.736  1.7626 -0.1103  0.8364
 4639SOL     OW25549   3.472   3.393  14.638 -0.3861  0.3705 -0.1270
 4639SOL    HW125550   3.529   3.442  14.579  1.8359 -1.4697  0.4733
 4639SOL    HW225551   3.508   3.424  14.721 -0.9094 -0.9244  0.5904
 4640SOL     OW25552   0.631   1.666   3.585 -0.6333 -0.2090  0.0791
 4640SOL    HW125553   0.549   1.672   3.536 -0.8090  1.1556  0.5453
 4640SOL    HW225554   0.696   1.649   3.517 -1.5450  1.7584 -1.2810
 4641SOL     OW25555   4.156   1.567  17.038 -0.3397 -0.1073 -0.1072
 4641SOL    HW125556   4.208   1.576  16.958 -2.2418 -3.0889 -1.6875
 4641SOL    HW225557   4.121   1.655  17.046 -0.2319 -0.2069  1.6201
 4642SOL     OW25558   4.181   1.746  10.230 -0.4364 -0.0449 -0.7421
 4642SOL    HW125559   4.102   1.711  10.269 -0.3342 -0.4025 -0.8537
 4642SOL    HW225560   4.186   1.693  10.150  0.4642  0.2304 -0.8734
 4643SOL     OW25561   4.684   4.181   8.197  0.3413  0.0395  0.3451
 4643SOL    HW125562   4.712   4.151   8.284 -0.0142 -0.0683  0.4211
 4643SOL    HW225563   0.012   4.145   8.135 -2.2068 -1.7729 -1.2629
 4644SOL     OW25564   0.325   1.706   4.731 -0.4707 -0.3998  0.2497
 4644SOL    HW125565   0.359   1.759   4.659  0.1578  1.2122  1.7481
 4644SOL    HW225566   0.314   1.625   4.680 -2.7077  0.1813 -0.1625
 4645SOL     OW25567   2.953   0.981  17.457  0.0006  0.3919 -0.0261
 4645SOL    HW125568   3.004   0.900  17.462  0.8753  0.8623 -1.3415
 4645SOL    HW225569   2.950   1.017  17.545 -0.0459 -0.9426  0.5232
 4646SOL     OW25570   1.392   1.570  14.220 -0.3675  0.1978 -0.4582
 4646SOL    HW125571   1.424   1.601  14.135 -0.5203  0.9051 -0.2637
 4646SOL    HW225572   1.329   1.639  14.245 -0.1471  0.2405 -0.0192
 4647SOL     OW25573   0.581   0.863  10.567 -0.3387  0.2264 -0.3805
 4647SOL    HW125574   0.598   0.956  10.585  0.0407 -0.1010  0.9704
 4647SOL    HW225575   0.515   0.848  10.634  0.4341 -1.2005  0.0643
 4648SOL     OW25576   0.237   0.191   8.957  0.3416 -0.2477  0.0273
 4648SOL    HW125577   0.313   0.178   9.013  0.6626 -0.2522 -0.4128
 4648SOL    HW225578   0.177   0.128   8.996  0.9364 -0.6765  0.2422
 4649SOL     OW25579   4.111   0.801  12.328  0.5874  0.2081  0.9448
 4649SOL    HW125580   4.113   0.715  12.370  0.1990 -0.6616 -0.8321
 4649SOL    HW225581   4.114   0.864  12.400  0.6679  1.3179 -0.0302
 4650SOL     OW25582   2.151   0.869   8.124 -0.5988 -0.5209 -0.1841
 4650SOL    HW125583   2.109   0.877   8.210 -0.3581  0.1968 -0.1364
 4650SOL    HW225584   2.176   0.777   8.131 -0.1367 -0.3861 -0.1058
 4651SOL     OW25585   4.268   0.287  15.114  0.0263 -0.5964  0.2195
 4651SOL    HW125586   4.257   0.224  15.044  1.0820  1.8660 -2.1484
 4651SOL    HW225587   4.293   0.365  15.065  0.2701 -1.3380 -0.8199
 4652SOL     OW25588   0.954   4.682   3.466  0.1415 -0.1183  0.4058
 4652SOL    HW125589   0.904   4.713   3.542 -0.5515 -0.1612 -0.0352
 4652SOL    HW225590   1.038   4.668   3.509 -0.6144 -2.4286  1.1421
 4653SOL     OW25591   4.659   3.401   7.354  0.1229 -0.2218 -0.2190
 4653SOL    HW125592   4.714   3.445   7.419  0.6492 -2.2004  0.6818
 4653SOL    HW225593   4.606   3.344   7.410 -0.4441  0.9645  0.4407
 4654SOL     OW25594   1.009   1.220  17.130 -0.2282 -0.4231  0.5803
 4654SOL    HW125595   1.085   1.210  17.072 -0.3918 -1.1294  0.4797
 4654SOL    HW225596   0.971   1.132  17.127 -1.2404 -0.0436  2.2269
 4655SOL     OW25597   1.525   1.960   5.371  0.2229  0.5032 -0.7896
 4655SOL    HW125598   1.518   1.939   5.464  0.7059  1.4710 -0.5334
 4655SOL    HW225599   1.612   1.920   5.361  1.6818  3.4208  0.3116
 4656SOL     OW25600   0.842   0.083   8.616  0.0819 -0.3591 -0.0053
 4656SOL    HW125601   0.864   4.731   8.586  0.1974 -0.9149  1.7069
 4656SOL    HW225602   0.755   0.100   8.579 -0.6168 -0.9458  1.3604
 4657SOL     OW25603   2.907   2.967   7.631  0.1491 -0.3634 -0.2998
 4657SOL    HW125604   2.969   3.040   7.626 -0.6862  0.5052  2.1047
 4657SOL    HW225605   2.945   2.898   7.577  0.2404  1.4859 -2.5995
 4658SOL     OW25606   1.123   2.320  14.928  0.3726 -0.6708  0.2551
 4658SOL    HW125607   1.100   2.333  14.836 -1.4745 -1.5320  0.5969
 4658SOL    HW225608   1.046   2.278  14.967  0.4642 -2.8620 -1.9093
 4659SOL     OW25609   3.100   4.575  10.636 -0.1983  0.3024 -0.1184
 4659SOL    HW125610   3.074   4.503  10.695 -0.7561  0.2999 -0.3598
 4659SOL    HW225611   3.127   4.527  10.558  0.1383  1.2865 -0.5963
 4660SOL     OW25612   1.765   0.474  10.996 -0.0040  0.1553 -0.3971
 4660SOL    HW125613   1.813   0.554  10.977  2.2214 -0.2986  3.3421
 4660SOL    HW225614   1.676   0.509  11.002  0.1960  0.6711 -0.4168
 4661SOL     OW25615   0.261   0.186   6.214  0.6413  0.7372 -0.2486
 4661SOL    HW125616   0.312   0.138   6.150  1.3492 -0.5145  1.2532
 4661SOL    HW225617   0.230   0.259   6.160  1.2517  1.3165  0.1848
 4662SOL     OW25618   1.778   1.093   5.157  0.2058 -0.3926 -0.8479
 4662SOL    HW125619   1.795   1.114   5.249  1.0115  0.3735 -1.1758
 4662SOL    HW225620   1.703   1.148   5.135  1.1880  0.8183 -1.1190
 4663SOL     OW25621   1.022   3.122   4.758  0.1140  0.2393  0.6858
 4663SOL    HW125622   0.981   3.143   4.675  1.0393  1.9628  0.6643
 4663SOL    HW225623   1.001   3.200   4.810 -3.2518  0.1434 -0.5821
 4664SOL     OW25624   2.174   2.180   4.227 -0.0088  0.6003 -0.5403
 4664SOL    HW125625   2.168   2.090   4.258  1.2793  0.2211 -1.3457
 4664SOL    HW225626   2.096   2.226   4.257  0.2696 -0.4606  1.8083
 4665SOL     OW25627   3.279   3.411   1.037  0.1171 -0.5441 -0.3956
 4665SOL    HW125628   3.257   3.427   0.945 -0.0373  2.2992  0.1309
 4665SOL    HW225629   3.364   3.454   1.049  0.6330 -0.4505 -4.4365
 4666SOL     OW25630   3.140   3.146   1.018  0.1992  0.0278  0.2292
 4666SOL    HW125631   3.189   3.067   0.998  0.2449 -0.0446  0.6129
 4666SOL    HW225632   3.204   3.216   1.030 -1.5448  2.1244 -2.6274
 4667SOL     OW25633   1.200   3.926   8.415  0.2075 -0.0300 -0.2236
 4667SOL    HW125634   1.288   3.901   8.389 -0.2115 -0.1078 -1.5648
 4667SOL    HW225635   1.177   3.840   8.451  1.2579 -1.1527 -2.2899
 4668SOL     OW25636   2.269   4.094   3.452  0.4821  0.1613  0.6225
 4668SOL    HW125637   2.234   4.066   3.537  0.4776 -2.1781 -0.1527
 4668SOL    HW225638   2.307   4.022   3.402 -0.5454  0.8793 -1.1814
 4669SOL     OW25639   2.030   3.870   1.308 -0.8494  0.5336  0.3727
 4669SOL    HW125640   2.016   3.949   1.360 -0.7197  1.8431 -1.6213
 4669SOL    HW225641   2.117   3.899   1.283 -1.1108  0.7949 -0.2236
 4670SOL     OW25642   0.732   2.597   5.249  0.0277 -0.6179  0.4477
 4670SOL    HW125643   0.759   2.525   5.192  1.0379  0.6014 -0.6023
 4670SOL    HW225644   0.803   2.658   5.234  0.2246 -0.8418  0.4732
 4671SOL     OW25645   0.281   4.502   4.051 -0.0627 -0.2204 -0.0178
 4671SOL    HW125646   0.325   4.455   4.121 -0.3648  1.1045  1.0539
 4671SOL    HW225647   0.341   4.564   4.010 -0.2251  1.1548  1.8774
 4672SOL     OW25648   1.294   1.367  10.348  0.3562 -0.3628  0.1119
 4672SOL    HW125649   1.225   1.301  10.348  0.2066 -0.2074 -0.0318
 4672SOL    HW225650   1.240   1.445  10.335 -1.4814 -1.6338  0.1089
 4673SOL     OW25651   4.143   3.067   7.095  0.8169 -0.3337 -0.4258
 4673SOL    HW125652   4.176   3.047   7.007  1.4556  1.6600 -0.6336
 4673SOL    HW225653   4.179   2.991   7.141  0.0814 -0.3660  0.1034
 4674SOL     OW25654   2.767   2.043  13.909 -0.2121 -0.2438  0.9315
 4674SOL    HW125655   2.822   2.019  13.834 -1.2019 -0.0034  0.1220
 4674SOL    HW225656   2.806   1.981  13.971  2.1905  1.9363  1.6028
 4675SOL     OW25657   0.041   2.641   8.224 -0.4226  0.1942  0.2159
 4675SOL    HW125658   4.694   2.608   8.190 -0.9089  2.6659 -0.9501
 4675SOL    HW225659   0.092   2.632   8.143  1.6626  0.1577  1.5443
 4676SOL     OW25660   0.532   1.158   9.008 -0.1206  0.2529 -0.3830
 4676SOL    HW125661   0.627   1.158   9.019 -0.1747 -2.3735  0.1246
 4676SOL    HW225662   0.516   1.127   8.919 -1.2276  0.6169 -0.3094
 4677SOL     OW25663   1.758   3.454   4.187 -0.1702  0.2096  0.3694
 4677SOL    HW125664   1.750   3.368   4.145 -0.1600 -0.0701  0.9483
 4677SOL    HW225665   1.816   3.441   4.262  0.1118 -1.7932 -0.1884
 4678SOL     OW25666   4.366   4.311   5.265  0.3869  0.4377  0.1358
 4678SOL    HW125667   4.298   4.271   5.319  1.6469  0.6558  1.9034
 4678SOL    HW225668   4.400   4.392   5.302  1.7231  0.5990 -1.4057
 4679SOL     OW25669   1.570   4.066   4.881  0.4893  0.2242 -0.3215
 4679SOL    HW125670   1.636   3.998   4.897 -0.6985 -0.8470  0.0792
 4679SOL    HW225671   1.509   4.050   4.953  0.0093  0.4318 -0.6830
 4680SOL     OW25672   0.288   4.397   5.551 -0.2061  0.4358 -0.0470
 4680SOL    HW125673   0.244   4.410   5.467 -1.5820 -3.3841  0.0604
 4680SOL    HW225674   0.311   4.305   5.537  1.4614  0.8709 -0.2161
 4681SOL     OW25675   0.693   1.766   8.265  0.1682 -0.5124  0.0100
 4681SOL    HW125676   0.719   1.691   8.319 -1.0223 -1.3196 -0.5555
 4681SOL    HW225677   0.761   1.764   8.197 -0.1549 -1.0139 -0.3024
 4682SOL     OW25678   0.260   1.799  15.265 -0.2527 -0.3771 -0.1136
 4682SOL    HW125679   0.173   1.830  15.242  0.5596  2.2606  0.2801
 4682SOL    HW225680   0.234   1.726  15.321  1.7385 -0.9123  0.1255
 4683SOL     OW25681   0.782   0.065   8.134 -0.2163  0.1473  0.3785
 4683SOL    HW125682   0.754   4.711   8.120  0.3063 -0.1768  1.4287
 4683SOL    HW225683   0.702   0.107   8.104 -0.2138 -0.9865 -1.1978
 4684SOL     OW25684   0.362   0.907   7.386 -0.2871 -0.0364 -0.0390
 4684SOL    HW125685   0.426   0.909   7.315  2.6194  4.2277  2.7140
 4684SOL    HW225686   0.306   0.982   7.363 -0.7213 -0.1287  0.7267
 4685SOL     OW25687   4.318   2.347   5.437  0.1343  0.2683  0.4305
 4685SOL    HW125688   4.346   2.413   5.374  0.3196  1.4304  1.7083
 4685SOL    HW225689   4.252   2.310   5.378 -1.4035  1.8579  1.1361
 4686SOL     OW25690   4.504   0.272   5.729  0.1945  0.1755  0.2150
 4686SOL    HW125691   4.411   0.284   5.750 -0.2102 -2.3026 -0.2121
 4686SOL    HW225692   4.539   0.357   5.754 -0.1091 -0.1098  1.5695
 4687SOL     OW25693   3.890   0.514   9.963 -0.6478 -0.6356 -0.5694
 4687SOL    HW125694   3.872   0.608   9.961 -3.0160 -1.1171 -2.3109
 4687SOL    HW225695   3.807   0.468   9.949 -1.6814  1.4601 -1.3450
 4688SOL     OW25696   1.161   2.015   7.269 -0.2584  0.3668 -0.1971
 4688SOL    HW125697   1.240   2.068   7.254 -0.8288  1.9487  2.2884
 4688SOL    HW225698   1.092   2.079   7.252 -0.2814  0.2857 -0.4072
 4689SOL     OW25699   0.677   2.032   1.460 -0.2678  0.0443 -0.1777
 4689SOL    HW125700   0.670   2.114   1.508 -0.0956 -0.0781  0.0589
 4689SOL    HW225701   0.589   2.020   1.425 -1.0884  2.5549  1.0573
 4690SOL     OW25702   0.761   0.848  11.742 -0.0323  0.3567 -0.3259
 4690SOL    HW125703   0.854   0.839  11.763 -0.3319  0.0275  0.8410
 4690SOL    HW225704   0.759   0.774  11.682 -0.3056 -0.1229  0.2748
 4691SOL     OW25705   2.176   0.118   7.049 -0.8018 -0.2507 -0.0288
 4691SOL    HW125706   2.259   0.080   7.023 -0.9934 -0.6789 -0.0069
 4691SOL    HW225707   2.141   0.046   7.101  0.7071 -1.7516 -1.1222
 4692SOL     OW25708   2.709   4.288   6.467  0.0311 -0.2937 -0.3707
 4692SOL    HW125709   2.772   4.341   6.419  1.3145 -2.3503 -0.9469
 4692SOL    HW225710   2.636   4.278   6.406  1.2816 -1.4655 -1.6757
 4693SOL     OW25711   4.513   3.231  11.484 -0.0017  0.0660 -0.3330
 4693SOL    HW125712   4.539   3.323  11.477 -0.8323  0.2750 -0.6455
 4693SOL    HW225713   4.528   3.212  11.391 -0.5824  0.8185 -0.5813
 4694SOL     OW25714   3.170   4.411   7.622 -0.3383  0.0777 -0.4205
 4694SOL    HW125715   3.117   4.415   7.701  0.7092 -1.3783  0.3519
 4694SOL    HW225716   3.133   4.341   7.569 -2.1925 -0.3126  1.4046
 4695SOL     OW25717   0.869   2.280   7.962  0.2058  0.6312  0.0922
 4695SOL    HW125718   0.848   2.229   8.040 -1.0576  0.2074 -0.5294
 4695SOL    HW225719   0.958   2.245   7.952  0.1118  0.9355 -1.9032
 4696SOL     OW25720   1.348   3.841   6.069 -0.1696  0.0765  0.1464
 4696SOL    HW125721   1.271   3.854   6.123  0.4862 -0.0986  1.1266
 4696SOL    HW225722   1.363   3.935   6.058 -1.1647  0.2615  0.3779
 4697SOL     OW25723   1.925   0.028  17.532  0.2549  0.1448  0.0154
 4697SOL    HW125724   1.978   4.695  17.492 -0.4714 -0.1068 -0.5006
 4697SOL    HW225725   1.983   0.104  17.524  0.3437  0.0972  0.2113
 4698SOL     OW25726   3.059   3.547   0.316 -0.2393  0.1627 -0.2655
 4698SOL    HW125727   3.125   3.607   0.352 -1.2980  0.9882  0.2973
 4698SOL    HW225728   2.981   3.562   0.369  1.4371 -1.4996  2.6866
 4699SOL     OW25729   1.554   1.251  10.284 -0.6373  0.3831  0.4690
 4699SOL    HW125730   1.469   1.282  10.315 -0.4232  1.3881  0.0623
 4699SOL    HW225731   1.518   1.193  10.217  0.6717  0.3619 -0.2127
 4700SOL     OW25732   4.429   2.085   5.305 -0.2028 -0.6279 -0.1127
 4700SOL    HW125733   4.516   2.048   5.290 -0.3053 -0.0580 -2.1154
 4700SOL    HW225734   4.432   2.169   5.258 -0.0482 -0.6522 -0.1474
 4701SOL     OW25735   3.399   0.308  17.126 -0.2380  0.4680  0.0799
 4701SOL    HW125736   3.365   0.242  17.066 -0.2297  0.2831  0.2807
 4701SOL    HW225737   3.474   0.341  17.075  0.9018  1.0719  2.1190
 4702SOL     OW25738   3.059   3.448   8.195 -0.3873  0.3551 -0.0905
 4702SOL    HW125739   3.124   3.426   8.128  1.8104  1.1247  1.8265
 4702SOL    HW225740   3.101   3.395   8.262 -0.5717 -2.6173 -2.2997
 4703SOL     OW25741   1.036   3.770   2.752 -0.1908  0.6592 -0.8171
 4703SOL    HW125742   1.128   3.777   2.780 -0.7001  1.6908  0.5955
 4703SOL    HW225743   1.027   3.679   2.722  1.5486 -0.2384  1.3388
 4704SOL     OW25744   1.496   2.305   6.923  0.1151 -0.2659 -0.0968
 4704SOL    HW125745   1.424   2.241   6.920  0.6672 -0.8610 -0.6300
 4704SOL    HW225746   1.447   2.383   6.950 -0.4346 -1.2860  1.8516
 4705SOL     OW25747   1.023   0.683   1.026  0.4150  0.1998 -0.6669
 4705SOL    HW125748   1.063   0.635   1.099 -0.9264  2.0247  1.2656
 4705SOL    HW225749   1.098   0.683   0.967  0.4846  1.0289 -0.5688
 4706SOL     OW25750   3.155   2.573  17.418 -0.2204 -0.6322  0.0700
 4706SOL    HW125751   3.085   2.633  17.390 -0.5179 -1.4250 -0.8905
 4706SOL    HW225752   3.163   2.517  17.340 -0.3790 -0.6381  0.0579
 4707SOL     OW25753   4.438   0.090   6.059  0.4391  0.2434  0.4299
 4707SOL    HW125754   4.485   0.063   5.980  2.3078  1.6363  1.0377
 4707SOL    HW225755   4.506   0.143   6.102 -0.7430  0.5084  1.9692
 4708SOL     OW25756   2.606   3.860  12.561  0.8009 -0.0903  0.0079
 4708SOL    HW125757   2.579   3.808  12.637 -1.0632  1.5391  0.4385
 4708SOL    HW225758   2.672   3.798  12.529  0.6202  1.5676 -3.4447
 4709SOL     OW25759   1.357   4.655   6.319  0.1902  0.5664 -0.0598
 4709SOL    HW125760   1.307   4.713   6.262  1.2952  0.0051 -1.6266
 4709SOL    HW225761   1.443   4.656   6.277 -0.0418 -1.4514 -0.6075
 4710SOL     OW25762   0.345   1.358  11.361  0.0533  0.2464 -0.7898
 4710SOL    HW125763   0.379   1.400  11.440 -0.4116  0.2956 -0.6142
 4710SOL    HW225764   0.345   1.268  11.394  1.1896  0.3653 -0.4642
 4711SOL     OW25765   2.993   1.465   1.046  0.3548 -0.3589 -0.1291
 4711SOL    HW125766   2.992   1.439   1.139  0.0648  1.0775  0.2707
 4711SOL    HW225767   2.923   1.412   1.008 -1.1717  0.2675  1.7602
 4712SOL     OW25768   1.492   3.664   1.272  0.0231  0.4409  0.0025
 4712SOL    HW125769   1.487   3.601   1.344  0.7667 -0.4346 -0.7149
 4712SOL    HW225770   1.586   3.665   1.258 -0.1015 -0.7225 -0.9393
 4713SOL     OW25771   3.138   0.418  11.689  0.4176  0.1502  0.5564
 4713SOL    HW125772   3.094   0.467  11.620  0.5989 -0.3565  0.0860
 4713SOL    HW225773   3.115   0.326  11.672  1.6354 -0.3085  1.3893
 4714SOL     OW25774   4.676   0.850   4.637 -0.9094 -0.8482 -0.2555
 4714SOL    HW125775   4.650   0.770   4.592  1.0723  0.3147 -3.4474
 4714SOL    HW225776   4.603   0.912   4.628 -0.1562 -0.1558 -1.6168
 4715SOL     OW25777   3.068   1.086   3.590  0.5722  0.1211 -0.7877
 4715SOL    HW125778   2.992   1.132   3.556 -0.4671 -1.0490 -0.0653
 4715SOL    HW225779   3.126   1.160   3.611  0.4430  0.1616 -0.5692
 4716SOL     OW25780   0.509   4.707   4.923 -0.1694 -0.0555 -0.4809
 4716SOL    HW125781   0.573   4.719   4.853  0.4335  0.6027  0.1815
 4716SOL    HW225782   0.522   0.038   4.990  0.8678 -1.0020  0.2660
 4717SOL     OW25783   1.561   1.252   5.076 -0.1537 -0.4165 -0.4864
 4717SOL    HW125784   1.486   1.276   5.131  2.0223  2.1046  1.4180
 4717SOL    HW225785   1.517   1.253   4.992  0.9624 -0.2651 -1.0695
 4718SOL     OW25786   4.341   2.539   2.377 -1.1403 -0.2575 -0.1717
 4718SOL    HW125787   4.422   2.532   2.327 -1.1929  0.0505 -0.3003
 4718SOL    HW225788   4.362   2.609   2.438  2.4813 -1.0938 -0.4584
 4719SOL     OW25789   2.639   3.140   8.292 -0.2205  0.2304  0.0364
 4719SOL    HW125790   2.675   3.174   8.210 -2.9859  0.9431 -0.8869
 4719SOL    HW225791   2.572   3.207   8.305 -0.5860 -0.1389  0.0287
 4720SOL     OW25792   0.849   2.112   8.156 -0.1355 -0.1438  0.3293
 4720SOL    HW125793   0.867   2.018   8.164 -0.2989 -0.1347  0.7999
 4720SOL    HW225794   0.756   2.114   8.178  0.0956  0.1224  1.2561
 4721SOL     OW25795   2.679   1.052   4.292 -0.3178  0.0973 -0.9626
 4721SOL    HW125796   2.674   1.130   4.236 -4.4438  1.5353  1.4118
 4721SOL    HW225797   2.715   1.081   4.376  0.2798 -0.0915 -1.1623
 4722SOL     OW25798   2.937   1.531  16.428  0.1140 -0.2686  0.6882
 4722SOL    HW125799   2.982   1.448  16.443  0.9555 -0.5032 -3.1168
 4722SOL    HW225800   2.892   1.504  16.348  1.5050 -2.7450  0.7291
 4723SOL     OW25801   1.921   0.565   7.424  0.2401  0.3936 -0.4748
 4723SOL    HW125802   1.973   0.635   7.384  0.4581  0.1317 -0.6445
 4723SOL    HW225803   1.934   0.496   7.359  0.7986  0.6811 -0.6649
 4724SOL     OW25804   3.925   0.358  17.365 -0.2753  0.3558 -0.0745
 4724SOL    HW125805   3.908   0.446  17.398  2.1011 -0.1262  2.4824
 4724SOL    HW225806   3.991   0.368  17.295  0.3031 -0.1202  0.4046
 4725SOL     OW25807   3.927   0.905   7.341 -1.0630  0.4478 -0.1678
 4725SOL    HW125808   3.833   0.904   7.324 -0.6732 -0.0032 -2.3791
 4725SOL    HW225809   3.953   0.847   7.269 -0.1426 -0.3737  0.8388
 4726SOL     OW25810   4.436   4.381   3.990 -0.4773  0.6459  0.1028
 4726SOL    HW125811   4.530   4.384   3.974 -0.6203 -0.5681 -1.0217
 4726SOL    HW225812   4.435   4.471   4.023 -0.8498  0.2173  1.2700
 4727SOL     OW25813   1.772   1.636  17.145  0.2437  0.0823  0.0938
 4727SOL    HW125814   1.783   1.616  17.052  2.6418 -3.2185  1.0677
 4727SOL    HW225815   1.855   1.680  17.163  1.7498 -1.6892 -2.5161
 4728SOL     OW25816   3.933   3.482   3.811  0.4200  0.5861 -0.3151
 4728SOL    HW125817   3.955   3.476   3.718  1.2350  0.7167 -0.1384
 4728SOL    HW225818   3.917   3.576   3.819  0.8966  0.4785  1.8572
 4729SOL     OW25819   3.419   3.184   0.830  0.6873 -0.4592 -0.1648
 4729SOL    HW125820   3.374   3.172   0.746 -1.6662  3.2235  0.5529
 4729SOL    HW225821   3.430   3.279   0.834 -1.3801 -0.1713 -1.2739
 4730SOL     OW25822   1.853   0.251   4.847  0.3051 -0.1117 -0.7415
 4730SOL    HW125823   1.897   0.309   4.909  1.8306 -0.4016 -1.5556
 4730SOL    HW225824   1.836   0.314   4.777 -0.3958 -0.9535 -1.3363
 4731SOL     OW25825   1.198   2.653   2.799  0.4098 -0.3380  0.4205
 4731SOL    HW125826   1.268   2.608   2.846  1.5671 -0.4106 -1.3868
 4731SOL    HW225827   1.250   2.720   2.754 -1.7257  0.6699 -0.5632
 4732SOL     OW25828   4.713   4.044  12.637 -0.6549 -0.1318 -0.4303
 4732SOL    HW125829   4.664   4.096  12.573 -0.6134 -0.6556 -0.8874
 4732SOL    HW225830   4.648   3.982  12.670 -0.5383  0.0610  0.1698
 4733SOL     OW25831   0.336   1.362   8.556  0.2794 -0.3493  0.0675
 4733SOL    HW125832   0.353   1.448   8.517  0.7703  0.0898  1.2595
 4733SOL    HW225833   0.243   1.377   8.574 -0.3557 -2.5455 -1.3371
 4734SOL     OW25834   2.603   0.836  10.818  0.1280  0.1382  0.2202
 4734SOL    HW125835   2.696   0.848  10.831  0.5410 -0.2368 -2.3028
 4734SOL    HW225836   2.572   0.836  10.909  3.1291  1.0631  1.2221
 4735SOL     OW25837   0.692   0.539   7.238 -0.0147 -0.8308 -0.0471
 4735SOL    HW125838   0.726   0.611   7.185 -1.6008  0.7241  1.0681
 4735SOL    HW225839   0.736   0.460   7.207 -0.8437 -1.8244  1.3205
 4736SOL     OW25840   3.985   4.231   4.015  0.3178  0.3792 -0.4795
 4736SOL    HW125841   3.973   4.147   4.060  0.5906  0.3050 -0.5452
 4736SOL    HW225842   4.052   4.276   4.066  0.6763  0.5986 -1.1445
 4737SOL     OW25843   4.453   2.250  10.395  0.0233 -0.3473 -0.2864
 4737SOL    HW125844   4.488   2.255  10.306 -1.1779 -2.7971 -0.8933
 4737SOL    HW225845   4.392   2.176  10.388  1.0435 -1.0753 -1.4492
 4738SOL     OW25846   3.907   1.016   7.878 -0.6046 -0.4415  0.6003
 4738SOL    HW125847   3.822   1.059   7.866 -1.1017 -1.9762 -1.4427
 4738SOL    HW225848   3.879   0.933   7.916  0.7878 -1.6178 -0.9577
 4739SOL     OW25849   4.348   2.786   9.590  0.0660 -0.8934 -0.6928
 4739SOL    HW125850   4.399   2.850   9.541 -0.0416  0.1863  0.6349
 4739SOL    HW225851   4.294   2.754   9.518  0.7993 -0.3840 -1.4686
 4740SOL     OW25852   0.268   2.853   3.454  0.0303  0.3102  0.1462
 4740SOL    HW125853   0.272   2.763   3.421 -1.6848  1.2223 -2.4952
 4740SOL    HW225854   0.294   2.843   3.546 -4.1118  4.4521  1.7592
 4741SOL     OW25855   4.233   0.983   6.035 -0.2054  0.0715  0.5017
 4741SOL    HW125856   4.202   1.068   6.001  0.0574 -0.6234 -1.4739
 4741SOL    HW225857   4.168   0.970   6.103 -0.8958 -1.3543 -0.4413
 4742SOL     OW25858   2.573   0.213   3.586  0.2150 -0.7626 -0.1568
 4742SOL    HW125859   2.664   0.222   3.560 -0.3019 -0.4439 -1.8843
 4742SOL    HW225860   2.541   0.139   3.535 -1.1608 -0.0864 -0.3031
 4743SOL     OW25861   0.909   1.596   5.354 -0.1594 -0.0306 -0.1705
 4743SOL    HW125862   0.865   1.668   5.399 -0.5977 -0.2461 -0.2530
 4743SOL    HW225863   0.834   1.536   5.349 -0.8723  0.5975  3.0333
 4744SOL     OW25864   1.440   3.868   8.291  0.1315 -0.1187  0.6717
 4744SOL    HW125865   1.479   3.900   8.209  1.3604  0.3198  1.4223
 4744SOL    HW225866   1.525   3.852   8.333 -0.3382 -2.3498  0.8028
 4745SOL     OW25867   2.709   4.175   8.370 -0.7220 -0.2932 -0.1424
 4745SOL    HW125868   2.658   4.219   8.301 -0.2792 -1.0354 -0.9491
 4745SOL    HW225869   2.642   4.122   8.412 -0.8713 -0.3456 -0.4461
 4746SOL     OW25870   0.213   3.959   7.070  0.0653  0.3700  0.0972
 4746SOL    HW125871   0.157   3.894   7.113  1.2738 -0.2708  0.6870
 4746SOL    HW225872   0.173   3.966   6.983 -0.3933 -0.7315  0.2204
 4747SOL     OW25873   0.222   1.022  13.211 -0.4169  0.9510 -0.1731
 4747SOL    HW125874   0.272   1.048  13.134 -1.8146  2.5514 -0.5255
 4747SOL    HW225875   0.133   1.011  13.177 -1.6849  0.7890  3.2086
 4748SOL     OW25876   3.908   0.269   6.816 -0.2196 -0.6282 -0.8185
 4748SOL    HW125877   3.851   0.345   6.806 -2.6867 -2.3786 -0.0367
 4748SOL    HW225878   3.972   0.292   6.748  2.2185 -1.1430  1.3127
 4749SOL     OW25879   3.081   2.666   8.012  0.5313  0.0765 -0.6924
 4749SOL    HW125880   3.035   2.624   7.939  1.5178 -1.7842 -0.2355
 4749SOL    HW225881   3.070   2.760   8.000  0.2223 -0.0926 -1.7540
 4750SOL     OW25882   1.943   4.086   5.181 -0.2438 -0.0264 -0.1439
 4750SOL    HW125883   2.030   4.125   5.168 -0.2295 -0.2179 -0.6044
 4750SOL    HW225884   1.904   4.156   5.233  0.8039 -0.2011  0.8737
 4751SOL     OW25885   3.381   2.049   0.730  0.2445 -0.9956  0.0031
 4751SOL    HW125886   3.327   1.973   0.705 -1.9770 -0.2061  2.4094
 4751SOL    HW225887   3.409   2.076   0.642  0.1897 -0.4445  0.1568
 4752SOL     OW25888   1.533   1.223  11.194  0.6720  0.2575  0.0104
 4752SOL    HW125889   1.494   1.310  11.185 -1.0350 -0.5832 -0.6839
 4752SOL    HW225890   1.624   1.247  11.175  1.2550 -1.7382  0.2967
 4753SOL     OW25891   2.105   0.563   1.691 -0.6492  0.2837 -0.8341
 4753SOL    HW125892   2.153   0.520   1.621 -1.4127  2.0800 -2.4581
 4753SOL    HW225893   2.133   0.498   1.755 -1.4055  1.2198  0.4474
 4754SOL     OW25894   0.479   2.304   6.423  0.3815 -0.3737 -0.2627
 4754SOL    HW125895   0.460   2.210   6.419  1.0192 -0.5051 -0.1990
 4754SOL    HW225896   0.460   2.323   6.331 -1.4122  1.2832  0.4553
 4755SOL     OW25897   2.271   1.954   7.093  0.4859 -0.0403  0.2677
 4755SOL    HW125898   2.317   1.874   7.118  0.7888 -0.9513 -3.1200
 4755SOL    HW225899   2.229   1.933   7.009  0.9001  2.0250 -0.4598
 4756SOL     OW25900   4.725   0.856  12.846 -0.1361 -0.3067  0.2950
 4756SOL    HW125901   0.079   0.835  12.868 -0.2022  0.3630  1.1869
 4756SOL    HW225902   4.716   0.946  12.876 -3.2699  0.0675 -1.8183
 4757SOL     OW25903   2.231   0.023   4.850 -0.7240  0.6277 -0.0141
 4757SOL    HW125904   2.232   0.087   4.779 -1.1041  0.1304 -0.4658
 4757SOL    HW225905   2.306   4.709   4.820 -0.4460  1.1639 -0.2279
 4758SOL     OW25906   3.250   3.547   6.107 -0.6503 -0.1173 -0.2237
 4758SOL    HW125907   3.212   3.529   6.193 -2.2798 -0.7166 -1.0544
 4758SOL    HW225908   3.343   3.550   6.127 -0.6589  1.4401 -0.3949
 4759SOL     OW25909   1.427   4.334  11.550 -0.3560  0.1669  0.1486
 4759SOL    HW125910   1.427   4.372  11.637 -0.2859 -0.0052  0.2252
 4759SOL    HW225911   1.497   4.382  11.505 -1.1134 -0.0832 -1.3116
 4760SOL     OW25912   4.347   3.491  12.033  0.0424  0.1497 -0.2207
 4760SOL    HW125913   4.342   3.540  11.951 -0.4533  0.6598  0.1103
 4760SOL    HW225914   4.321   3.404  12.002 -0.2866  0.0225  0.4062
 4761SOL     OW25915   3.721   0.975  14.260 -0.9013 -0.3597  0.3185
 4761SOL    HW125916   3.751   1.022  14.338  2.2647  0.4513 -1.3824
 4761SOL    HW225917   3.668   0.907  14.301 -0.5554 -0.5939  0.3840
 4762SOL     OW25918   3.896   1.704   7.826 -0.4254  0.6824  0.0502
 4762SOL    HW125919   3.945   1.692   7.908  1.5878  0.5421 -1.2013
 4762SOL    HW225920   3.898   1.799   7.831  1.5680  0.5801  1.4449
 4763SOL     OW25921   1.763   1.636   4.419 -0.2532 -0.1696  0.2293
 4763SOL    HW125922   1.825   1.707   4.401 -1.5388  0.2408 -2.6685
 4763SOL    HW225923   1.686   1.668   4.372  0.5704 -1.9063 -2.3534
 4764SOL     OW25924   4.228   1.884   5.381  0.3459  0.2877 -0.2200
 4764SOL    HW125925   4.304   1.936   5.358  0.0017  1.3963  1.1361
 4764SOL    HW225926   4.172   1.946   5.427  1.0592  1.0185 -0.3355
 4765SOL     OW25927   2.799   4.124   7.624 -0.1189  0.4613 -0.1698
 4765SOL    HW125928   2.841   4.155   7.544 -0.8399 -0.2177 -0.8080
 4765SOL    HW225929   2.710   4.152   7.601 -0.6762  0.6641  2.2570
 4766SOL     OW25930   4.586   2.929   4.259  0.0947 -0.2589 -0.0971
 4766SOL    HW125931   4.506   2.970   4.228  1.1477 -0.2081 -2.7398
 4766SOL    HW225932   4.553   2.869   4.325  0.7484 -3.2513 -2.5013
 4767SOL     OW25933   4.378   0.668  17.263 -0.0212 -0.8861 -0.1356
 4767SOL    HW125934   4.316   0.710  17.204 -0.0411  2.5260  2.3102
 4767SOL    HW225935   4.420   0.612  17.198  1.3293  1.9045 -1.6261
 4768SOL     OW25936   0.647   4.705   7.857 -0.1732 -0.5955  0.4495
 4768SOL    HW125937   0.610   0.005   7.937  0.9339 -0.3266  0.8418
 4768SOL    HW225938   0.586   4.636   7.832 -1.6149  0.0221  2.2655
 4769SOL     OW25939   1.719   3.556   6.034  0.2882  0.4348  0.6438
 4769SOL    HW125940   1.764   3.609   5.969  0.3845 -1.2449 -0.6806
 4769SOL    HW225941   1.777   3.482   6.018 -0.0916 -0.0720  1.5832
 4770SOL     OW25942   0.387   1.662   5.566  0.2110  0.3604  0.0941
 4770SOL    HW125943   0.435   1.584   5.537 -3.0851 -1.0268 -1.6515
 4770SOL    HW225944   0.403   1.665   5.660 -1.9012  0.2515  0.4597
 4771SOL     OW25945   0.943   0.906  12.106  0.4222 -0.0020  0.0546
 4771SOL    HW125946   0.874   0.840  12.098 -0.3214  0.7888 -0.0608
 4771SOL    HW225947   0.985   0.885  12.189 -1.9758 -0.2558  1.1954
 4772SOL     OW25948   0.087   3.559   9.741  0.4703  0.5985 -0.1672
 4772SOL    HW125949   0.080   3.633   9.681 -1.2705  0.4358 -0.1467
 4772SOL    HW225950   0.073   3.485   9.683  0.2051 -1.8466  3.0193
 4773SOL     OW25951   3.287   2.770  12.645  0.3925 -0.8810  0.5544
 4773SOL    HW125952   3.204   2.734  12.612 -0.7701  2.2408  0.0666
 4773SOL    HW225953   3.252   2.816  12.721 -2.0069 -4.0117  1.3662
 4774SOL     OW25954   3.785   1.115   8.770 -0.8086 -0.6067  0.6640
 4774SOL    HW125955   3.758   1.111   8.679  0.3426  2.6717  0.2007
 4774SOL    HW225956   3.773   1.023   8.797  1.0923 -1.1911 -0.5424
 4775SOL     OW25957   4.259   2.686   6.959 -0.0931  1.0739  0.0564
 4775SOL    HW125958   4.338   2.646   6.922  0.0727  0.0995  1.4712
 4775SOL    HW225959   4.233   2.747   6.890  0.0484  1.9060  0.7345
 4776SOL     OW25960   1.532   0.700   0.244  0.0672  0.3501  0.1809
 4776SOL    HW125961   1.535   0.765   0.315 -0.5986 -0.3353  0.8392
 4776SOL    HW225962   1.538   0.618   0.294 -0.4507  0.4325  0.3800
 4777SOL     OW25963   0.785   2.211   5.535  0.0610  0.7657 -0.2600
 4777SOL    HW125964   0.856   2.147   5.543  0.8435  1.8400  1.3817
 4777SOL    HW225965   0.833   2.293   5.527  3.4254 -1.3580 -1.9879
 4778SOL     OW25966   0.066   0.653   1.853 -0.5447 -0.1752  0.2226
 4778SOL    HW125967   0.110   0.574   1.885  2.1277  0.9182 -0.7794
 4778SOL    HW225968   0.097   0.646   1.763  0.2044  2.2166  0.3040
 4779SOL     OW25969   4.603   4.479   0.576  0.0553  0.4431  0.1721
 4779SOL    HW125970   4.644   4.551   0.527  0.8742 -1.6541 -2.2054
 4779SOL    HW225971   4.682   4.442   0.614 -0.8320  0.2367  1.7989
 4780SOL     OW25972   2.943   4.636   8.069  0.0342  1.0306 -0.2562
 4780SOL    HW125973   3.004   4.594   8.129  2.3387  1.4077 -2.3123
 4780SOL    HW225974   2.868   4.630   8.127 -0.2673  0.0050 -0.7596
 4781SOL     OW25975   2.360   4.359  15.396  0.4103 -0.1197 -0.5516
 4781SOL    HW125976   2.356   4.445  15.438 -2.6648 -0.1416 -0.7847
 4781SOL    HW225977   2.271   4.355  15.361  0.1510 -1.4519  0.2425
 4782SOL     OW25978   1.060   0.413   9.426  0.6167  0.9770 -0.4868
 4782SOL    HW125979   1.073   0.488   9.484 -0.4470  0.6283  0.1952
 4782SOL    HW225980   0.986   0.379   9.476 -0.3408  1.3667 -1.6531
 4783SOL     OW25981   2.507   1.405   3.709 -0.7351  0.0843 -0.1315
 4783SOL    HW125982   2.558   1.480   3.680  1.4252 -2.0561 -1.9104
 4783SOL    HW225983   2.519   1.414   3.803 -1.3809  1.2574 -0.1642
 4784SOL     OW25984   3.722   4.059   6.659 -0.1906  0.0081 -0.2308
 4784SOL    HW125985   3.675   4.043   6.741 -0.3085  1.3966 -0.0392
 4784SOL    HW225986   3.809   4.064   6.699 -0.6778  0.3727  0.7832
 4785SOL     OW25987   3.158   3.017  11.942 -0.3736  0.4126 -0.2148
 4785SOL    HW125988   3.106   3.028  11.862 -2.0550  1.4237  1.0248
 4785SOL    HW225989   3.214   3.093  11.927 -1.6339  1.6150  1.1010
 4786SOL     OW25990   2.537   3.336   1.072  0.1245  0.5730  0.2421
 4786SOL    HW125991   2.448   3.302   1.078  0.2630 -0.0666 -1.4307
 4786SOL    HW225992   2.588   3.259   1.049 -1.1280 -0.0272 -0.5046
 4787SOL     OW25993   4.402   0.049   9.589 -0.0115  0.9229  0.5245
 4787SOL    HW125994   4.432   4.720   9.525  1.1177  2.6650 -0.7308
 4787SOL    HW225995   4.451   0.124   9.554  1.8895 -1.8340 -2.7659
 4788SOL     OW25996   2.713   4.259  12.231 -0.0804 -0.0278  0.5747
 4788SOL    HW125997   2.755   4.341  12.206 -1.5372  1.0031  1.4984
 4788SOL    HW225998   2.625   4.264  12.193 -0.6634 -0.9310  1.7886
 4789SOL     OW25999   0.982   0.379   1.318 -0.1191 -0.2241  0.3599
 4789SOL    HW126000   1.061   0.328   1.333 -1.1148 -1.8648 -0.0351
 4789SOL    HW226001   0.987   0.388   1.223 -1.8641  0.7808  0.3476
 4790SOL     OW26002   2.695   3.128  13.864  0.2615  0.3865 -0.4980
 4790SOL    HW126003   2.609   3.086  13.863  0.0964  0.6506  2.6780
 4790SOL    HW226004   2.757   3.056  13.861  0.8502  0.8679  0.1627
 4791SOL     OW26005   0.725   1.119   2.544 -0.0647  0.6999 -0.2655
 4791SOL    HW126006   0.750   1.031   2.569 -0.2102 -0.0301 -2.6660
 4791SOL    HW226007   0.777   1.108   2.464  1.7195  0.3744  0.9479
 4792SOL     OW26008   2.300   4.451   5.045  0.4383 -0.0423  0.0469
 4792SOL    HW126009   2.299   4.437   4.951 -3.8756  0.4279  0.0450
 4792SOL    HW226010   2.217   4.496   5.059  1.0553  1.1836 -0.2517
 4793SOL     OW26011   0.889   0.307   2.286  0.1321 -0.3883  0.3133
 4793SOL    HW126012   0.887   0.244   2.213  0.7497  1.6638 -1.4567
 4793SOL    HW226013   0.934   0.264   2.358  2.3384  1.6321  0.1437
 4794SOL     OW26014   3.203   4.076   6.769 -0.4737  0.1397  0.2502
 4794SOL    HW126015   3.126   4.018   6.768 -1.3300  1.2626  3.1970
 4794SOL    HW226016   3.257   4.011   6.723 -1.2750 -0.5322  0.2606
 4795SOL     OW26017   2.706   2.416   2.719  0.2727 -0.1376 -0.1282
 4795SOL    HW126018   2.650   2.369   2.781 -0.0793  3.3807  2.2401
 4795SOL    HW226019   2.682   2.373   2.637  0.9435 -1.1388  0.2048
 4796SOL     OW26020   1.495   4.418   1.965 -0.1593 -0.8258 -0.6864
 4796SOL    HW126021   1.543   4.375   1.894  2.1338 -1.2623  1.1216
 4796SOL    HW226022   1.405   4.395   1.946 -0.4301  0.5161 -1.0140
 4797SOL     OW26023   0.748   0.333   6.675 -0.2191  0.0951 -0.1909
 4797SOL    HW126024   0.682   0.369   6.616 -0.4011  1.0945  0.6281
 4797SOL    HW226025   0.773   0.403   6.735  2.2150  1.6314 -3.0376
 4798SOL     OW26026   1.332   1.364  12.964  0.0577  0.3979 -0.1680
 4798SOL    HW126027   1.286   1.289  13.002  0.6892  0.2314  0.2699
 4798SOL    HW226028   1.423   1.339  12.981 -0.0161  0.5931  0.5228
 4799SOL     OW26029   3.301   0.132  16.598 -0.2018 -0.1204  0.5982
 4799SOL    HW126030   3.268   0.171  16.680  1.4678 -0.2426  1.3367
 4799SOL    HW226031   3.260   0.183  16.528 -0.4401 -0.2754  0.6292
 4800SOL     OW26032   2.095   4.658  11.051  0.1403 -0.5131 -0.5835
 4800SOL    HW126033   2.134   0.008  11.045 -0.6759 -0.0497  0.6188
 4800SOL    HW226034   2.113   4.626  10.963 -3.6670  0.2329 -1.6534
 4801SOL     OW26035   1.088   1.150   0.191 -0.1373 -0.7024  0.1280
 4801SOL    HW126036   1.080   1.133   0.285 -0.0103  1.1886  0.4687
 4801SOL    HW226037   0.994   1.159   0.174  0.3382  2.3783 -0.8047
 4802SOL     OW26038   0.211   4.376  17.422 -0.5442  0.0281  0.0024
 4802SOL    HW126039   0.280   4.434  17.455  1.7927 -0.7170 -3.6375
 4802SOL    HW226040   0.254   4.340  17.345 -0.9667  0.2206 -0.3276
 4803SOL     OW26041   3.795   1.640  13.117  0.3559 -0.0114 -0.3529
 4803SOL    HW126042   3.796   1.735  13.122  1.2953 -0.0349 -0.0889
 4803SOL    HW226043   3.792   1.615  13.210  0.7036 -1.8497 -0.8434
 4804SOL     OW26044   0.284   0.195   4.779 -0.5763 -0.1448  0.2410
 4804SOL    HW126045   0.360   0.244   4.808  0.6488 -1.7517 -0.2302
 4804SOL    HW226046   0.216   0.253   4.811 -1.2802 -1.9462  2.0085
 4805SOL     OW26047   3.032   3.581  15.771  0.3040  0.1130  0.4589
 4805SOL    HW126048   2.993   3.639  15.836  0.7152  1.4575 -0.4963
 4805SOL    HW226049   2.957   3.564  15.714  1.9748 -1.6809 -1.2161
 4806SOL     OW26050   3.876   4.168   2.395  0.5513  0.1881 -0.6327
 4806SOL    HW126051   3.888   4.078   2.365 -1.7068 -0.1914 -0.4063
 4806SOL    HW226052   3.967   4.196   2.389  0.8475 -0.8350 -1.0204
 4807SOL     OW26053   0.981   0.422   8.440  0.4618 -0.0473  0.4500
 4807SOL    HW126054   0.923   0.459   8.374 -0.4583 -0.0033  1.2780
 4807SOL    HW226055   0.985   0.331   8.411  2.7388 -0.4174  1.9157
 4808SOL     OW26056   4.200   0.942   7.328  0.4458  0.1154 -0.5612
 4808SOL    HW126057   4.213   1.031   7.296  1.3456 -0.0607 -0.7003
 4808SOL    HW226058   4.105   0.935   7.324  0.4304 -0.9504  1.7208
 4809SOL     OW26059   0.369   0.849   5.534  0.3951  0.0346  0.1928
 4809SOL    HW126060   0.301   0.794   5.574  1.9559 -1.3577  0.9590
 4809SOL    HW226061   0.437   0.851   5.601 -1.3089  1.1576  1.9110
 4810SOL     OW26062   3.031   2.580   3.351  0.3599  0.1051 -0.0167
 4810SOL    HW126063   2.956   2.598   3.294  1.7797  2.4209 -1.1239
 4810SOL    HW226064   2.983   2.562   3.432  0.8489 -1.3301 -0.0430
 4811SOL     OW26065   3.190   2.322   4.394  0.0143 -0.1753 -0.5865
 4811SOL    HW126066   3.225   2.329   4.483 -0.7496  1.5724 -0.4188
 4811SOL    HW226067   3.128   2.395   4.392  0.5365  0.3584  2.6018
 4812SOL     OW26068   1.054   0.069   6.799  0.4400  0.0629  0.1618
 4812SOL    HW126069   1.028   0.135   6.863  2.6876  0.1135  1.0210
 4812SOL    HW226070   1.056   0.125   6.721  1.4848  0.9268  0.8075
 4813SOL     OW26071   1.808   1.241  11.215  1.1044  0.3392  0.0716
 4813SOL    HW126072   1.762   1.206  11.292  0.6356  0.8955  0.0438
 4813SOL    HW226073   1.863   1.170  11.183  0.0552 -0.6992  0.5613
 4814SOL     OW26074   0.359   0.543   4.443  0.1385  0.7200 -0.4175
 4814SOL    HW126075   0.404   0.536   4.359 -0.1567  5.0431 -0.9229
 4814SOL    HW226076   0.333   0.635   4.445 -2.5431 -0.0130 -1.6472
 4815SOL     OW26077   1.113   3.223   4.198  0.2158 -0.0602  0.0353
 4815SOL    HW126078   1.113   3.197   4.106 -0.6172  0.5213 -0.1335
 4815SOL    HW226079   1.030   3.271   4.198  0.3159  0.1162 -1.0745
 4816SOL     OW26080   2.501   1.925   2.220  0.0739  0.2344 -0.0653
 4816SOL    HW126081   2.510   1.832   2.200 -1.6016  0.2650 -1.0336
 4816SOL    HW226082   2.464   1.952   2.135 -1.6163  0.2664  0.6706
 4817SOL     OW26083   2.661   1.225   8.273  0.5088  0.3353  0.4429
 4817SOL    HW126084   2.677   1.307   8.225 -0.2548  0.0219 -0.3549
 4817SOL    HW226085   2.665   1.253   8.364  0.1575  1.2063  0.1911
 4818SOL     OW26086   3.459   1.639  12.524 -1.1963  0.0778 -0.3689
 4818SOL    HW126087   3.415   1.694  12.459  0.4165  1.5939 -0.1894
 4818SOL    HW226088   3.392   1.643  12.591 -0.6347  1.5827  0.0986
 4819SOL     OW26089   1.783   0.451   1.666  0.0276  0.5837 -0.3670
 4819SOL    HW126090   1.855   0.495   1.711  1.1373 -1.9166  0.3282
 4819SOL    HW226091   1.785   0.365   1.708  0.5039  0.5258 -0.5073
 4820SOL     OW26092   3.551   1.676   4.909  0.7547  0.3105  0.3255
 4820SOL    HW126093   3.601   1.645   4.985 -0.6654 -0.1176  1.0950
 4820SOL    HW226094   3.499   1.748   4.945  1.8358  0.7628  0.9813
 4821SOL     OW26095   0.583   4.494  11.954  0.6347 -0.2734  0.0209
 4821SOL    HW126096   0.590   4.561  11.887  0.1392 -0.7284 -0.4923
 4821SOL    HW226097   0.588   4.550  12.032 -1.0906  3.0146 -2.2573
 4822SOL     OW26098   3.266   3.420  10.428 -0.6953  1.1592  0.1378
 4822SOL    HW126099   3.188   3.402  10.481  0.6242 -1.7402  1.1254
 4822SOL    HW226100   3.246   3.513  10.423 -1.6610  0.8431 -2.1129
 4823SOL     OW26101   3.997   0.476   9.316  0.6053  0.7745 -0.4839
 4823SOL    HW126102   3.906   0.502   9.330  0.6948  1.9532 -2.0804
 4823SOL    HW226103   3.986   0.384   9.292 -0.1519  0.8292 -0.3335
 4824SOL     OW26104   3.456   4.009   2.474  0.0803 -0.0144  0.2842
 4824SOL    HW126105   3.370   4.050   2.484  0.1521  0.2123 -0.0202
 4824SOL    HW226106   3.478   4.042   2.387  0.4036 -0.4211  0.2126
 4825SOL     OW26107   2.264   0.149   2.491 -0.3002 -0.3904  0.6875
 4825SOL    HW126108   2.253   0.061   2.528 -2.1040 -0.3381  0.2821
 4825SOL    HW226109   2.285   0.188   2.576  0.6664  2.8987 -1.0556
 4826SOL     OW26110   1.685   2.504   2.275 -0.2429 -0.2843 -0.0267
 4826SOL    HW126111   1.623   2.558   2.226 -2.4558 -0.7105  2.2963
 4826SOL    HW226112   1.725   2.573   2.329  0.6263  0.1952 -1.2736
 4827SOL     OW26113   3.494   0.009   3.501  0.2010 -0.4723 -0.5446
 4827SOL    HW126114   3.469   4.719   3.590  2.2392  0.8779  0.4385
 4827SOL    HW226115   3.432   4.704   3.442  1.7256 -1.9005 -1.1445
 4828SOL     OW26116   2.915   0.230   4.657  0.2860 -0.0207 -0.8687
 4828SOL    HW126117   2.930   0.307   4.603 -2.0282  1.5769  0.7391
 4828SOL    HW226118   2.888   0.278   4.736  1.0376  0.0539 -0.6629
 4829SOL     OW26119   1.476   2.603   2.133  0.3241  0.2636  0.1878
 4829SOL    HW126120   1.447   2.558   2.053  0.2025  0.6725  0.0007
 4829SOL    HW226121   1.416   2.678   2.130 -1.4491 -1.0954  1.4424
 4830SOL     OW26122   0.142   0.413   0.124  0.5092  0.2196 -0.4340
 4830SOL    HW126123   0.110   0.331   0.087 -1.6707 -0.1381  2.2099
 4830SOL    HW226124   0.059   0.446   0.159  0.2032 -1.3209  0.3015
 4831SOL     OW26125   0.321   1.372  11.932  0.6814  0.1071  0.0149
 4831SOL    HW126126   0.240   1.385  11.884 -0.2434  0.1627  1.5736
 4831SOL    HW226127   0.360   1.307  11.874  1.4611 -0.1119  0.7801
 4832SOL     OW26128   4.047   2.900  15.146 -0.1476  0.1243  0.2795
 4832SOL    HW126129   3.988   2.965  15.184  1.0213  0.8313  0.8919
 4832SOL    HW226130   3.985   2.842  15.102  1.5044 -0.7479 -0.9338
 4833SOL     OW26131   0.934   0.455   4.712 -0.5345  0.5159 -0.4481
 4833SOL    HW126132   0.960   0.465   4.620 -0.8475 -1.3361 -0.7421
 4833SOL    HW226133   0.865   0.390   4.697  1.8487 -2.0158 -0.5360
 4834SOL     OW26134   2.124   2.895  17.737  0.0498  0.3172  0.5439
 4834SOL    HW126135   2.208   2.862  17.705 -0.4194  0.3300 -0.6862
 4834SOL    HW226136   2.080   2.819   0.030  0.6393 -0.8988 -1.1446
 4835SOL     OW26137   1.900   1.728   0.175  0.3733 -0.3331  0.3623
 4835SOL    HW126138   1.938   1.813   0.155 -0.6712 -0.5316 -2.3964
 4835SOL    HW226139   1.814   1.742   0.137  1.6071  2.8104 -1.2140
 4836SOL     OW26140   2.196   0.700   5.495 -0.0778  0.2318  0.1764
 4836SOL    HW126141   2.117   0.752   5.506  0.3350  1.1713 -1.4123
 4836SOL    HW226142   2.244   0.713   5.577  0.6617 -2.0561  0.1315
 4837SOL     OW26143   0.423   3.971   9.439 -0.5562  0.2603 -0.3289
 4837SOL    HW126144   0.482   3.990   9.512 -0.1846 -2.1133  0.0049
 4837SOL    HW226145   0.366   4.047   9.446  1.1797  1.4404  0.9654
 4838SOL     OW26146   1.770   1.895   4.018 -0.6562 -0.0475  0.0765
 4838SOL    HW126147   1.763   1.990   4.029  0.0415  0.0804 -0.5730
 4838SOL    HW226148   1.792   1.889   3.925  0.2997 -0.1017  0.2998
 4839SOL     OW26149   2.526   4.181   5.136 -0.7265 -0.2763  0.4061
 4839SOL    HW126150   2.510   4.191   5.230  0.1444 -0.6116  0.5947
 4839SOL    HW226151   2.620   4.199   5.135 -1.1961  1.9033 -1.8937
 4840SOL     OW26152   4.561   1.546   4.535  0.1053  0.1007  0.5516
 4840SOL    HW126153   4.622   1.620   4.535 -0.3943  0.5123 -0.6584
 4840SOL    HW226154   4.492   1.588   4.587  0.4249  1.5452 -0.1942
 4841SOL     OW26155   3.779   1.706  16.401 -0.1281 -0.3932 -0.3631
 4841SOL    HW126156   3.840   1.661  16.343 -0.2872  0.2999 -1.0604
 4841SOL    HW226157   3.776   1.638  16.469  1.1456  1.0722  1.1494
 4842SOL     OW26158   4.262   3.810   5.544 -0.0392 -0.2331 -0.3062
 4842SOL    HW126159   4.238   3.859   5.465 -2.2118 -1.2366 -0.2957
 4842SOL    HW226160   4.241   3.722   5.511  1.1682  0.3408 -2.6505
 4843SOL     OW26161   4.597   0.924   9.275  0.0711  0.3240 -0.3791
 4843SOL    HW126162   4.558   0.876   9.348 -0.1082 -1.0986 -1.4049
 4843SOL    HW226163   4.541   1.001   9.270 -1.0680 -0.5775 -1.4208
 4844SOL     OW26164   1.531   0.098   8.283  0.1556 -0.4169  0.4129
 4844SOL    HW126165   1.439   0.075   8.272 -0.0712  1.1971 -1.1705
 4844SOL    HW226166   1.536   0.165   8.214 -2.0589  0.4470  1.1113
 4845SOL     OW26167   4.485   0.603   7.350  0.2079 -0.1065 -0.1332
 4845SOL    HW126168   4.480   0.696   7.330  0.7635  0.3051  1.5634
 4845SOL    HW226169   4.477   0.565   7.263  0.5643 -1.5602  0.4663
 4846SOL     OW26170   0.212   1.351   1.541  0.3378  0.7274  0.3631
 4846SOL    HW126171   0.148   1.279   1.546  0.4051  0.8428  2.9393
 4846SOL    HW226172   0.250   1.341   1.454 -1.5873 -1.6626 -0.1929
 4847SOL     OW26173   0.957   3.332  16.545  0.6575  0.3710 -0.1068
 4847SOL    HW126174   0.889   3.267  16.529  2.0292 -0.6433 -1.8176
 4847SOL    HW226175   0.994   3.287  16.621 -0.3753  1.0931  0.8147
 4848SOL     OW26176   1.691   1.597   0.564 -0.0899 -0.4025 -0.1215
 4848SOL    HW126177   1.778   1.636   0.558  0.1964 -0.8035  1.2931
 4848SOL    HW226178   1.704   1.543   0.486 -0.9262 -1.2840  0.3490
 4849SOL     OW26179   0.778   2.814   7.694  0.0365  0.4122  0.3535
 4849SOL    HW126180   0.783   2.757   7.770 -0.1244  1.2083  0.9535
 4849SOL    HW226181   0.695   2.789   7.653  0.8928  2.0655 -2.4492
 4850SOL     OW26182   2.452   2.456   6.107  0.0170 -0.2672 -0.1123
 4850SOL    HW126183   2.483   2.537   6.148 -0.2135  0.6481 -1.7493
 4850SOL    HW226184   2.530   2.400   6.105 -0.0424 -0.3317 -0.7263
 4851SOL     OW26185   4.558   3.881  11.688 -0.0616 -0.2421  0.2952
 4851SOL    HW126186   4.568   3.920  11.601  0.1251 -0.0575  0.3998
 4851SOL    HW226187   4.471   3.915  11.709 -0.4941 -1.4263  0.3627
 4852SOL     OW26188   3.280   3.943   6.303  0.3417 -0.1563 -0.0040
 4852SOL    HW126189   3.283   4.034   6.273  1.1289 -0.2588 -0.2369
 4852SOL    HW226190   3.228   3.953   6.383  1.9652  0.2091  0.9892
 4853SOL     OW26191   2.093   1.278  10.267 -0.0842 -0.2882 -0.1406
 4853SOL    HW126192   2.057   1.269  10.355  0.2868 -1.5703 -0.1270
 4853SOL    HW226193   2.185   1.259  10.285  1.0488  2.4484 -3.0492
 4854SOL     OW26194   3.084   1.873   7.319  0.5397 -0.4412 -0.2853
 4854SOL    HW126195   3.027   1.950   7.312 -0.6409 -1.2934  0.0145
 4854SOL    HW226196   3.057   1.824   7.243  3.0868  0.1731 -1.6091
 4855SOL     OW26197   3.775   4.243   1.396  0.3595 -0.2596 -0.3640
 4855SOL    HW126198   3.832   4.242   1.472 -1.5817  1.2678  1.1316
 4855SOL    HW226199   3.743   4.334   1.397 -1.5832 -0.9791  3.4490
 4856SOL     OW26200   3.694   3.828   8.008 -0.6593 -0.8486  0.3241
 4856SOL    HW126201   3.626   3.859   7.948 -0.7135  1.4020  1.5280
 4856SOL    HW226202   3.715   3.908   8.057 -0.7493 -0.4311 -0.3220
 4857SOL     OW26203   0.414   3.602   5.165  0.1347 -0.6952 -0.0510
 4857SOL    HW126204   0.481   3.537   5.185 -1.9227 -2.4948  0.9649
 4857SOL    HW226205   0.465   3.672   5.125  1.7963 -1.3473  0.9060
 4858SOL     OW26206   2.914   4.405  11.304 -0.4733  0.0660 -0.5242
 4858SOL    HW126207   2.954   4.434  11.386  0.3264  1.6422 -1.4981
 4858SOL    HW226208   2.941   4.313  11.298  0.1470  0.0117  2.7177
 4859SOL     OW26209   3.390   1.259   4.078 -0.2128  0.1205 -0.1492
 4859SOL    HW126210   3.413   1.204   4.152 -0.8038  0.5822  0.3788
 4859SOL    HW226211   3.387   1.343   4.124 -0.0155  1.3261 -2.2822
 4860SOL     OW26212   4.215   4.224   6.480  0.2382 -0.2587 -0.5743
 4860SOL    HW126213   4.273   4.232   6.405  1.4644 -1.4832  0.2419
 4860SOL    HW226214   4.132   4.239   6.434  0.3241  0.4670 -0.4920
 4861SOL     OW26215   1.158   4.613  11.759  0.6414 -0.0154 -0.5096
 4861SOL    HW126216   1.155   4.684  11.823  1.4211 -0.2695 -0.1982
 4861SOL    HW226217   1.161   4.664  11.678  2.5623  1.8639  0.7542
 4862SOL     OW26218   1.459   0.486   7.479  0.3018  0.1679  0.2373
 4862SOL    HW126219   1.491   0.490   7.388 -1.7207  0.9444 -0.4444
 4862SOL    HW226220   1.544   0.480   7.522  1.1682 -1.9456 -1.7882
 4863SOL     OW26221   2.339   1.108   8.581  0.0400  0.0729 -0.4874
 4863SOL    HW126222   2.253   1.099   8.620  0.3144 -0.2909  0.0244
 4863SOL    HW226223   2.325   1.085   8.489  1.1061  3.1265 -1.4354
 4864SOL     OW26224   2.615   2.982   6.507 -0.2379 -0.1536  0.0724
 4864SOL    HW126225   2.534   2.945   6.541  0.2241 -2.7268 -1.5727
 4864SOL    HW226226   2.586   2.992   6.416 -0.5295 -0.1591  0.1645
 4865SOL     OW26227   3.605   2.252  13.387 -0.0184 -0.1322  0.1761
 4865SOL    HW126228   3.525   2.304  13.380 -0.8195 -1.5319 -1.0778
 4865SOL    HW226229   3.627   2.222  13.299 -0.6901  0.0175 -0.0408
 4866SOL     OW26230   3.186   0.005  12.174  0.0464  1.1612 -0.6592
 4866SOL    HW126231   3.133   4.695  12.239  1.5550  0.0872 -0.2042
 4866SOL    HW226232   3.215   0.083  12.222 -0.0562  0.2337  0.9358
 4867SOL     OW26233   4.479   1.922   3.262  0.0610  0.1508  0.6583
 4867SOL    HW126234   4.473   1.900   3.169 -0.9548 -0.1349  0.7981
 4867SOL    HW226235   4.557   1.978   3.264  0.8372 -0.9567  1.1361
 4868SOL     OW26236   3.864   3.634   5.355  0.3013  0.2591 -0.2797
 4868SOL    HW126237   3.920   3.602   5.426 -1.1896  0.6971  1.1008
 4868SOL    HW226238   3.912   3.607   5.277 -1.6129 -0.4598 -1.1873
 4869SOL     OW26239   2.209   4.381   4.359  0.3286 -0.2724 -0.3022
 4869SOL    HW126240   2.266   4.399   4.435 -0.5726  0.7356  0.1402
 4869SOL    HW226241   2.123   4.410   4.388  0.1043 -1.0255 -0.2131
 4870SOL     OW26242   1.560   4.172   8.075 -0.2035  0.0309  0.3697
 4870SOL    HW126243   1.466   4.164   8.093 -0.1634 -3.3341 -0.9712
 4870SOL    HW226244   1.587   4.201   8.163  0.7392 -0.1343  0.1352
 4871SOL     OW26245   3.927   0.651  12.470 -0.2167  0.0601 -0.1404
 4871SOL    HW126246   3.921   0.745  12.486 -1.2546 -0.1887  0.9338
 4871SOL    HW226247   3.850   0.639  12.414 -0.2839  0.4965 -0.1441
 4872SOL     OW26248   3.894   2.429   4.483  0.7885  0.0487  0.9954
 4872SOL    HW126249   3.943   2.437   4.401  0.3390 -1.0396  0.6200
 4872SOL    HW226250   3.886   2.334   4.485  0.1233  0.0836 -0.1513
 4873SOL     OW26251   1.334   0.857   2.071 -0.4120 -0.4683 -0.1354
 4873SOL    HW126252   1.315   0.787   2.134  2.5563 -1.9034 -0.8616
 4873SOL    HW226253   1.243   0.881   2.053 -1.2928 -4.7634 -1.5315
 4874SOL     OW26254   1.812   3.594  15.187 -0.0566 -0.2557  0.9086
 4874SOL    HW126255   1.864   3.528  15.140  0.6730  0.8186  0.2136
 4874SOL    HW226256   1.787   3.535  15.259  0.5274 -1.4784  0.1154
 4875SOL     OW26257   4.281   3.160  10.662  0.3555  0.2593  0.1151
 4875SOL    HW126258   4.261   3.250  10.637 -0.9892 -0.3301 -0.9805
 4875SOL    HW226259   4.372   3.155  10.634 -0.3001 -0.5627 -1.8546
 4876SOL     OW26260   1.863   3.527   2.703 -0.0778  1.0729  0.1630
 4876SOL    HW126261   1.801   3.460   2.673  0.9047  0.4376 -0.4610
 4876SOL    HW226262   1.917   3.477   2.764 -2.2875 -0.6005  0.7746
 4877SOL     OW26263   4.417   4.415  15.565  0.6938 -0.5110 -0.0938
 4877SOL    HW126264   4.468   4.448  15.639 -0.9483  0.3376  0.6504
 4877SOL    HW226265   4.482   4.377  15.506  1.4562  2.3447 -1.0991
 4878SOL     OW26266   1.064   3.370   5.274  0.1428  0.2030 -0.0914
 4878SOL    HW126267   1.093   3.314   5.202 -1.6122  0.6185 -1.0973
 4878SOL    HW226268   1.035   3.305   5.339 -0.7992 -0.2413 -0.9489
 4879SOL     OW26269   2.303   2.645  10.979  0.0801  0.0540  0.0051
 4879SOL    HW126270   2.346   2.730  10.981 -0.4372  0.3011  0.4413
 4879SOL    HW226271   2.243   2.652  11.053  1.3889  1.2490  0.9581
 4880SOL     OW26272   3.828   0.712   5.063 -0.1097  0.0624 -0.1241
 4880SOL    HW126273   3.876   0.718   4.981 -1.4681  1.8429 -0.7832
 4880SOL    HW226274   3.779   0.631   5.052  0.2444 -0.2510  0.5693
 4881SOL     OW26275   0.591   0.208   8.422  0.2538 -0.2675 -0.0760
 4881SOL    HW126276   0.577   0.272   8.352  1.3610 -1.5041 -1.4228
 4881SOL    HW226277   0.663   0.153   8.390  0.7156 -0.6896  1.6953
 4882SOL     OW26278   1.808   3.924   4.554 -0.2857 -0.1927 -0.0100
 4882SOL    HW126279   1.796   4.014   4.585 -1.0170 -0.2127 -0.2373
 4882SOL    HW226280   1.740   3.912   4.488  0.4209 -0.0243 -0.7579
 4883SOL     OW26281   2.011   3.946   7.799 -0.5005  0.2427 -0.0662
 4883SOL    HW126282   1.952   3.872   7.784 -0.0967 -0.1519  0.2924
 4883SOL    HW226283   1.986   4.002   7.726  0.8480  0.9769  0.0369
 4884SOL     OW26284   3.338   1.860   6.502 -0.1073 -0.3693  0.1003
 4884SOL    HW126285   3.260   1.808   6.485 -0.6864  0.0508  1.4500
 4884SOL    HW226286   3.388   1.823   6.429  1.9335  1.2301  0.6762
 4885SOL     OW26287   0.594   1.895   2.905  0.1240 -0.1812  0.3162
 4885SOL    HW126288   0.618   1.852   2.987 -0.8804  0.5187  0.9820
 4885SOL    HW226289   0.621   1.986   2.913  1.4079 -0.5491  0.1666
 4886SOL     OW26290   2.135   1.901  17.014 -0.1654 -0.5678  0.8351
 4886SOL    HW126291   2.161   1.969  17.076  1.1111 -1.8242  1.6880
 4886SOL    HW226292   2.040   1.895  17.025 -0.4463  0.4242 -1.1571
 4887SOL     OW26293   1.952   0.915   7.708 -0.4509  0.3040 -0.0059
 4887SOL    HW126294   1.991   0.997   7.677 -0.7737  0.2873 -0.4515
 4887SOL    HW226295   2.017   0.873   7.764 -0.2440  1.2151  0.4525
 4888SOL     OW26296   2.758   3.526   2.561  0.7639 -0.5179 -0.0566
 4888SOL    HW126297   2.701   3.580   2.615  2.1321 -0.2410  1.1045
 4888SOL    HW226298   2.696   3.511   2.490 -0.3314 -1.4127  1.1043
 4889SOL     OW26299   1.297   0.410   8.163  0.2676 -0.1822 -0.4682
 4889SOL    HW126300   1.389   0.385   8.155  0.0848 -0.9612 -0.1368
 4889SOL    HW226301   1.265   0.328   8.201 -2.9824  2.2622  2.1361
 4890SOL     OW26302   1.007   2.077  15.023  0.1403 -0.5473  0.3312
 4890SOL    HW126303   0.934   2.135  15.048 -0.3520 -1.5160  1.1080
 4890SOL    HW226304   0.963   1.994  15.040 -0.8481 -0.5846 -2.3190
 4891SOL     OW26305   0.258   2.590  15.697  0.2833 -0.2508 -0.6235
 4891SOL    HW126306   0.299   2.504  15.688  0.1239 -0.5882  1.8792
 4891SOL    HW226307   0.166   2.564  15.697 -0.3663  2.0536 -3.5922
 4892SOL     OW26308   1.173   3.159  15.732 -0.2783 -0.5158 -0.1552
 4892SOL    HW126309   1.244   3.096  15.725 -0.3289 -0.5313 -0.5382
 4892SOL    HW226310   1.219   3.237  15.762 -1.0578  0.8730 -2.5781
 4893SOL     OW26311   2.308   0.299   8.524 -0.0033  0.2673 -0.3440
 4893SOL    HW126312   2.336   0.258   8.605 -0.2957  0.7070 -0.0177
 4893SOL    HW226313   2.291   0.224   8.467 -2.0939  0.2260  0.3448
 4894SOL     OW26314   3.367   0.872  10.284 -0.4808 -0.3782 -0.1250
 4894SOL    HW126315   3.289   0.819  10.274 -0.3913 -0.4472 -0.4798
 4894SOL    HW226316   3.391   0.832  10.367 -0.7053  1.9055  1.0481
 4895SOL     OW26317   2.648   1.797  14.671  0.1721 -0.2299 -0.5514
 4895SOL    HW126318   2.622   1.705  14.675 -2.7300  0.6524  0.6805
 4895SOL    HW226319   2.712   1.794  14.742 -0.5510 -1.0263  0.0631
 4896SOL     OW26320   0.654   2.981   2.706 -0.1637  0.2596  0.1300
 4896SOL    HW126321   0.576   3.033   2.686 -0.9983 -0.5683  1.1716
 4896SOL    HW226322   0.641   2.979   2.801  0.7382 -0.6626  0.2298
 4897SOL     OW26323   0.159   0.064   8.138 -0.1138 -0.3320 -0.0513
 4897SOL    HW126324   0.149   0.148   8.183  0.3747  0.2463 -1.0192
 4897SOL    HW226325   0.088   0.077   8.076 -0.4073 -3.9669 -0.4959
 4898SOL     OW26326   2.310   0.233   5.018 -0.6161 -0.6609 -0.0200
 4898SOL    HW126327   2.334   0.289   4.944 -0.7672  1.3700  1.4862
 4898SOL    HW226328   2.286   0.163   4.957  0.5529 -1.5547  0.5586
 4899SOL     OW26329   4.204   3.153   9.411  0.3924 -0.2981  0.2787
 4899SOL    HW126330   4.276   3.184   9.356  0.8456 -3.9710 -1.2345
 4899SOL    HW226331   4.180   3.232   9.459 -1.1137  0.1217 -1.1790
 4900SOL     OW26332   0.917   0.687  16.983  0.0010 -0.1180 -0.4626
 4900SOL    HW126333   0.944   0.605  17.026 -2.1818 -1.3495 -1.4688
 4900SOL    HW226334   0.875   0.665  16.900 -2.1905  2.1616  0.0742
 4901SOL     OW26335   4.705   4.270   4.813 -0.6850  0.6909  0.0580
 4901SOL    HW126336   0.029   4.219   4.759 -2.3497 -2.5062  1.1841
 4901SOL    HW226337   4.679   4.336   4.748 -0.4973  1.0605  0.3574
 4902SOL     OW26338   2.564   0.344   2.348  0.3745 -0.3714  0.0927
 4902SOL    HW126339   2.557   0.384   2.435  1.7084 -0.4962  0.2643
 4902SOL    HW226340   2.500   0.398   2.301 -0.7567 -0.5951  1.3754
 4903SOL     OW26341   0.301   0.317   5.724  0.5157  0.2602 -0.1540
 4903SOL    HW126342   0.221   0.353   5.686  0.2511  0.8066  0.9087
 4903SOL    HW226343   0.267   0.235   5.761  2.9073 -1.7545 -2.3946
 4904SOL     OW26344   1.189   0.491   7.438  0.0978  0.1889  0.5719
 4904SOL    HW126345   1.283   0.478   7.451  0.1274  1.4002  1.6202
 4904SOL    HW226346   1.156   0.403   7.420 -2.0839  0.9000  1.1138
 4905SOL     OW26347   1.346   2.318   5.949  0.3069  0.0071  0.3343
 4905SOL    HW126348   1.306   2.263   5.881 -0.8936  0.9683  0.2670
 4905SOL    HW226349   1.273   2.377   5.966  0.3648  0.4627 -1.0136
 4906SOL     OW26350   3.278   3.938   3.387  0.0681 -0.1001 -0.4193
 4906SOL    HW126351   3.265   3.857   3.437  0.2989  0.1643  0.0712
 4906SOL    HW226352   3.188   3.967   3.372  0.1656  0.4751  0.1369
 4907SOL     OW26353   4.278   1.655   3.487 -0.2741  0.7053 -0.4816
 4907SOL    HW126354   4.363   1.649   3.442 -1.1197 -2.0675 -1.6682
 4907SOL    HW226355   4.218   1.705   3.431  0.0032  0.5405 -0.9338
 4908SOL     OW26356   4.337   3.522   0.845  0.8158 -0.1381 -0.6556
 4908SOL    HW126357   4.264   3.528   0.784 -0.9544  0.3252  1.5150
 4908SOL    HW226358   4.307   3.437   0.880  3.7135 -0.2063  1.7004
 4909SOL     OW26359   1.311   2.043   4.880 -0.0603  0.4655  0.0759
 4909SOL    HW126360   1.321   2.039   4.975  2.0994  0.8325 -0.1441
 4909SOL    HW226361   1.246   2.112   4.867  1.2595  1.4083 -1.5365
 4910SOL     OW26362   3.030   3.840   7.577 -0.6815 -0.0864  0.1920
 4910SOL    HW126363   2.940   3.811   7.588 -1.6642  2.3643 -1.3271
 4910SOL    HW226364   3.074   3.766   7.619 -0.4387 -1.5851 -2.6912
 4911SOL     OW26365   0.996   1.971   4.962  0.4958  0.3900  0.1203
 4911SOL    HW126366   1.029   2.024   5.035  1.1403 -2.3594  1.8249
 4911SOL    HW226367   0.976   1.891   5.011 -0.3847 -0.1446 -1.1244
 4912SOL     OW26368   0.860   0.851   3.934  0.1126  0.2996  0.3980
 4912SOL    HW126369   0.822   0.794   4.001  0.1569 -1.6212 -1.2353
 4912SOL    HW226370   0.790   0.848   3.869  1.5185 -0.1632 -1.0814
 4913SOL     OW26371   1.381   2.230   7.534 -0.3613 -0.1266  0.4150
 4913SOL    HW126372   1.318   2.302   7.544 -2.0439 -1.5048 -0.4023
 4913SOL    HW226373   1.468   2.268   7.546 -1.3776  1.5457  2.4076
 4914SOL     OW26374   0.171   1.161   9.425  0.1384  0.3445  0.3964
 4914SOL    HW126375   0.098   1.181   9.365 -0.0887 -1.9978 -0.1159
 4914SOL    HW226376   0.247   1.152   9.368 -0.4269 -3.5655  0.2106
 4915SOL     OW26377   2.803   1.336   7.921  0.3227  0.3311 -0.1464
 4915SOL    HW126378   2.713   1.366   7.907  0.4421  0.0224 -1.5597
 4915SOL    HW226379   2.824   1.357   8.012  3.2591 -2.4088 -0.1801
 4916SOL     OW26380   2.388   2.568  10.659  0.9233 -0.0122  0.2540
 4916SOL    HW126381   2.405   2.654  10.622  0.6747 -0.1163 -0.0986
 4916SOL    HW226382   2.370   2.519  10.579 -1.0579 -0.5742  1.0524
 4917SOL     OW26383   1.327   3.164  10.369 -0.0629 -0.0170  0.0702
 4917SOL    HW126384   1.302   3.107  10.296 -1.0963  0.7943 -0.2090
 4917SOL    HW226385   1.240   3.182  10.403  0.5609  1.4892  0.8650
 4918SOL     OW26386   4.613   2.075  12.931  0.3941  0.5862 -0.6247
 4918SOL    HW126387   4.643   2.154  12.977  2.5318 -0.0760 -0.8661
 4918SOL    HW226388   4.556   2.115  12.865  1.4988  1.6114 -0.9787
 4919SOL     OW26389   1.121   0.585   8.610  0.8205 -0.1405 -0.1806
 4919SOL    HW126390   1.159   0.613   8.527 -0.2580 -1.3734 -1.0874
 4919SOL    HW226391   1.056   0.520   8.582 -1.9519  2.0158  1.2800
 4920SOL     OW26392   3.508   2.084   3.142 -0.5414 -0.2378  0.6635
 4920SOL    HW126393   3.436   2.143   3.119  0.0401  0.4464  0.6114
 4920SOL    HW226394   3.566   2.086   3.065 -0.0325 -1.4131  1.0166
 4921SOL     OW26395   2.692   2.258   3.833  0.4766 -0.0202 -0.2233
 4921SOL    HW126396   2.698   2.224   3.922  1.9066  0.6445 -0.0555
 4921SOL    HW226397   2.651   2.339   3.863 -0.5384 -0.3747 -0.6693
 4922SOL     OW26398   3.470   1.831   0.446  0.3601 -0.1206 -0.7910
 4922SOL    HW126399   3.383   1.855   0.477  1.1494 -0.0008  1.3565
 4922SOL    HW226400   3.513   1.908   0.483 -1.1273  1.0099 -1.4447
 4923SOL     OW26401   0.635   3.560   0.723  0.4674 -0.5309 -0.2860
 4923SOL    HW126402   0.568   3.578   0.789  1.0880 -2.3715  0.8466
 4923SOL    HW226403   0.709   3.606   0.763  0.8396 -1.1449 -0.2834
 4924SOL     OW26404   3.606   3.942   3.003 -0.7952 -0.4371 -0.0781
 4924SOL    HW126405   3.656   4.011   3.047 -3.6959  1.9019 -0.4983
 4924SOL    HW226406   3.519   3.956   3.040 -0.3886  0.7371  0.4406
 4925SOL     OW26407   1.424   2.458   4.852 -0.5312  0.4715  0.3199
 4925SOL    HW126408   1.409   2.517   4.778 -0.7183  2.2050  1.7461
 4925SOL    HW226409   1.438   2.518   4.925 -1.1889  1.5590 -0.4347
 4926SOL     OW26410   3.237   3.028   5.518  0.3698 -0.0435  0.6242
 4926SOL    HW126411   3.244   3.102   5.458  2.8429 -0.0959  0.8325
 4926SOL    HW226412   3.201   3.081   5.589 -2.3206  0.1523 -0.8914
 4927SOL     OW26413   2.261   3.919   1.919  0.1959  0.4004  0.1750
 4927SOL    HW126414   2.315   3.942   1.843  1.2425  0.5823  0.9761
 4927SOL    HW226415   2.186   3.885   1.870  0.2420 -0.0370  0.4159
 4928SOL     OW26416   0.299   0.851   8.948  0.3251 -0.1114 -0.5912
 4928SOL    HW126417   0.248   0.897   8.880  1.0336 -0.4370 -1.3445
 4928SOL    HW226418   0.247   0.773   8.965 -0.0461 -0.2338 -2.2508
 4929SOL     OW26419   0.371   4.584   9.104 -0.3595 -0.1798  0.1399
 4929SOL    HW126420   0.327   4.604   9.021  2.6514  1.4290 -1.0735
 4929SOL    HW226421   0.298   4.536   9.143  0.3882 -0.7957  0.7866
 4930SOL     OW26422   1.086   2.079   9.090 -0.6759 -0.0917 -0.0705
 4930SOL    HW126423   1.081   2.174   9.091  0.8628 -0.0042  0.5309
 4930SOL    HW226424   0.995   2.059   9.113 -1.7750  1.3554 -3.2386
 4931SOL     OW26425   4.420   3.272   2.317 -0.5379  0.0701  0.1808
 4931SOL    HW126426   4.430   3.185   2.278 -2.0489  0.8873 -2.0155
 4931SOL    HW226427   4.445   3.256   2.408 -3.8423  1.6870  1.3524
 4932SOL     OW26428   2.014   1.425   5.254 -0.1639  0.3073  0.3414
 4932SOL    HW126429   2.101   1.443   5.291 -0.5311  0.0570  1.3447
 4932SOL    HW226430   1.968   1.399   5.334 -0.3114 -1.0663 -0.1884
 4933SOL     OW26431   2.176   0.574   4.149  0.1408 -0.1431  0.0823
 4933SOL    HW126432   2.215   0.539   4.229 -0.5833 -1.2389 -0.0440
 4933SOL    HW226433   2.254   0.613   4.110  0.6761 -1.8680 -0.5444
 4934SOL     OW26434   3.368   2.910   9.031  0.2598  0.4000 -0.0329
 4934SOL    HW126435   3.451   2.938   8.995 -0.0515  2.0206  0.5372
 4934SOL    HW226436   3.308   2.972   8.989  1.0743 -1.0750 -3.3769
 4935SOL     OW26437   2.883   4.686   8.567 -0.0879 -0.0016  0.0682
 4935SOL    HW126438   2.962   4.688   8.621  0.0766 -0.4026 -0.1595
 4935SOL    HW226439   2.833   4.612   8.600 -2.5325  2.8427  2.6896
 4936SOL     OW26440   3.832   1.384   4.088 -0.3392 -1.0801 -0.2092
 4936SOL    HW126441   3.876   1.332   4.021  0.3973 -1.1021  0.3006
 4936SOL    HW226442   3.819   1.467   4.043  1.7584  1.0924  3.1732
 4937SOL     OW26443   1.212   2.543  16.067  0.2712  0.2281  0.2981
 4937SOL    HW126444   1.143   2.601  16.100  0.3785  0.2861  0.4208
 4937SOL    HW226445   1.248   2.595  15.995  2.0620 -1.4285 -0.0001
 4938SOL     OW26446   3.399   3.719   3.548 -0.3618  0.1911  0.3202
 4938SOL    HW126447   3.459   3.779   3.593 -0.4099  2.1519 -2.2189
 4938SOL    HW226448   3.328   3.741   3.610 -0.1361  2.2404 -0.1385
 4939SOL     OW26449   1.416   1.108   8.617 -0.5416 -0.1160 -0.2023
 4939SOL    HW126450   1.376   1.023   8.636 -2.1909  0.4177 -1.3601
 4939SOL    HW226451   1.351   1.159   8.569  0.2128 -1.7357 -2.9060
 4940SOL     OW26452   3.330   4.159   3.570  0.0274  0.0420 -0.2450
 4940SOL    HW126453   3.243   4.199   3.567 -0.5348 -0.9839  2.4243
 4940SOL    HW226454   3.339   4.107   3.490 -2.1034 -1.2234  0.3515
 4941SOL     OW26455   1.804   0.574   2.985 -0.0070 -0.3978 -0.3437
 4941SOL    HW126456   1.888   0.605   2.951  1.0361 -0.8582  1.8423
 4941SOL    HW226457   1.833   0.542   3.070  1.2654 -0.8324 -0.9352
 4942SOL     OW26458   2.175   3.963  14.496  0.0734 -0.2844 -0.4051
 4942SOL    HW126459   2.216   3.993  14.415  0.8201  3.1501  1.2319
 4942SOL    HW226460   2.090   3.944  14.456  0.5974  1.5610 -2.3474
 4943SOL     OW26461   1.097   2.089   7.598 -0.0171  0.3969  0.1252
 4943SOL    HW126462   1.142   2.013   7.638  1.2500  0.8077 -0.5178
 4943SOL    HW226463   1.133   2.087   7.509 -2.3433  1.3407 -0.8282
 4944SOL     OW26464   2.642   2.634   7.695 -0.3220 -0.1535  0.1426
 4944SOL    HW126465   2.607   2.586   7.770  0.3301 -1.5543 -0.4610
 4944SOL    HW226466   2.672   2.565   7.636 -2.3003 -0.9836  0.1080
 4945SOL     OW26467   2.304   3.909   5.227  0.0402  0.3686 -0.0564
 4945SOL    HW126468   2.309   3.845   5.297  1.6507  2.1623  1.4614
 4945SOL    HW226469   2.318   3.854   5.150  0.7559  1.2243 -0.5371
 4946SOL     OW26470   2.508   0.946   0.849 -0.7253 -0.1047  0.0957
 4946SOL    HW126471   2.543   1.023   0.804  1.1995 -0.7483  0.4806
 4946SOL    HW226472   2.498   0.887   0.773  0.7110 -0.7625  0.4156
 4947SOL     OW26473   1.784   3.718   8.365  0.1771  0.4592  1.0593
 4947SOL    HW126474   1.766   3.668   8.445 -0.8685 -0.2491  0.3779
 4947SOL    HW226475   1.841   3.655   8.321 -1.7721 -0.4195 -0.2305
 4948SOL     OW26476   0.536   0.330   3.026  0.1102 -0.4446 -0.4663
 4948SOL    HW126477   0.587   0.382   3.089 -0.0732  0.4812 -1.0745
 4948SOL    HW226478   0.491   0.270   3.086 -0.2867  0.5147  0.2040
 4949SOL     OW26479   0.757   1.758   4.433  0.0980  0.0469 -0.3037
 4949SOL    HW126480   0.825   1.741   4.499 -1.0654 -0.0731  0.8746
 4949SOL    HW226481   0.745   1.689   4.368 -1.5707  1.9446 -1.9744
 4950SOL     OW26482   1.825   1.634   8.638 -0.0233  0.1791  0.2575
 4950SOL    HW126483   1.842   1.686   8.717  0.9916 -0.6635  0.6015
 4950SOL    HW226484   1.838   1.545   8.673 -1.3662  0.6759  2.0414
 4951SOL     OW26485   1.086   1.735  14.318  0.0781  0.2164  0.5531
 4951SOL    HW126486   1.007   1.735  14.373 -0.8458 -2.5985 -0.7460
 4951SOL    HW226487   1.080   1.648  14.280 -1.3467  0.0107  1.2215
 4952SOL     OW26488   1.952   2.696  14.858 -0.0442 -0.4043  0.2231
 4952SOL    HW126489   2.012   2.634  14.816 -1.4294 -2.5107  1.3792
 4952SOL    HW226490   2.018   2.757  14.892  0.5587 -1.5331  1.0570
 4953SOL     OW26491   0.909   4.449   9.684  0.4632 -0.3028 -0.4938
 4953SOL    HW126492   0.978   4.466   9.747 -1.1791  0.5836  1.0558
 4953SOL    HW226493   0.870   4.373   9.726  0.1418  0.0974 -0.0655
 4954SOL     OW26494   3.217   2.901   4.575 -0.0346 -0.6986 -0.3731
 4954SOL    HW126495   3.250   2.815   4.551  0.3528 -0.4695 -0.6799
 4954SOL    HW226496   3.204   2.896   4.670 -2.2471 -2.1874 -0.7608
 4955SOL     OW26497   2.463   4.530   6.111  0.4031 -0.2234 -0.0338
 4955SOL    HW126498   2.421   4.452   6.145  1.8427 -1.0594 -0.1552
 4955SOL    HW226499   2.538   4.492   6.065  2.4888  1.1120  2.2672
 4956SOL     OW26500   0.469   1.074  10.817 -0.0516 -0.0807 -0.8383
 4956SOL    HW126501   0.526   1.093  10.891 -1.0197  0.3903 -0.2165
 4956SOL    HW226502   0.440   1.161  10.788 -2.2365 -0.0876  1.4558
 4957SOL     OW26503   0.933   3.330   6.032  0.4886 -0.0073  1.0444
 4957SOL    HW126504   1.028   3.341   6.021  0.3737  0.6684  0.7517
 4957SOL    HW226505   0.910   3.370   6.116 -0.2863  1.7600 -0.0250
 4958SOL     OW26506   0.670   0.765   7.894 -0.3532  0.0792  0.4995
 4958SOL    HW126507   0.598   0.798   7.948 -1.7183  0.3355 -1.4710
 4958SOL    HW226508   0.640   0.732   7.809  2.9649 -0.8028 -0.3355
 4959SOL     OW26509   2.817   1.525   6.203 -0.0532  0.3932  0.0992
 4959SOL    HW126510   2.735   1.541   6.158 -0.5302 -2.2175  0.0355
 4959SOL    HW226511   2.815   1.430   6.215 -1.3159  0.4712  0.4800
 4960SOL     OW26512   0.779   1.572  14.322 -0.2650 -0.4851 -0.1691
 4960SOL    HW126513   0.742   1.489  14.352  1.5999 -1.2207  0.0985
 4960SOL    HW226514   0.699   1.617  14.295  0.8466  2.9591  2.3613
 4961SOL     OW26515   4.599   2.364   6.916  0.5634  0.2004  0.1731
 4961SOL    HW126516   4.510   2.360   6.953 -0.5836  0.4912 -2.5419
 4961SOL    HW226517   4.577   2.385   6.825 -1.1663 -0.0230  0.5322
 4962SOL     OW26518   4.355   0.070   8.630  0.2487  0.2286  0.0498
 4962SOL    HW126519   4.363   0.004   8.561  0.6447  0.7324 -0.3875
 4962SOL    HW226520   4.351   0.149   8.576  0.2540  0.8876  1.0136
 4963SOL     OW26521   0.658   3.949   3.084  0.0558  0.7886  0.0204
 4963SOL    HW126522   0.707   3.921   3.007  0.3845  1.6218 -0.0802
 4963SOL    HW226523   0.579   3.985   3.045 -0.7027 -0.1798  0.6587
 4964SOL     OW26524   2.599   1.671   3.859  0.3066 -0.1495  0.2411
 4964SOL    HW126525   2.600   1.766   3.874  0.0129  0.1390 -1.5451
 4964SOL    HW226526   2.606   1.662   3.764  1.3600  0.9193  0.2249
 4965SOL     OW26527   4.663   2.766   2.828 -0.1175 -0.0171 -0.0189
 4965SOL    HW126528   4.568   2.778   2.836  0.4534  2.4470  2.5991
 4965SOL    HW226529   4.686   2.813   2.748  1.0243 -0.1556  0.2308
 4966SOL     OW26530   0.440   0.586   1.631 -0.1235 -0.1268  0.1945
 4966SOL    HW126531   0.346   0.602   1.638  0.1548  0.7366  2.0947
 4966SOL    HW226532   0.447   0.513   1.693 -0.4268 -1.2614 -1.0958
 4967SOL     OW26533   2.176   1.442  16.788 -0.7918  0.1476  0.1599
 4967SOL    HW126534   2.209   1.531  16.797 -0.4306 -0.0555  0.8570
 4967SOL    HW226535   2.130   1.458  16.705  1.9297  0.8605 -1.2133
 4968SOL     OW26536   2.236   2.875   2.436 -0.4666  0.2020  0.3643
 4968SOL    HW126537   2.296   2.804   2.461  0.3523  0.7380 -0.0803
 4968SOL    HW226538   2.292   2.939   2.393  1.2575 -1.8053 -0.3812
 4969SOL     OW26539   4.311   0.565   3.420 -0.3517 -0.3110 -0.3679
 4969SOL    HW126540   4.234   0.511   3.438 -0.6444  0.3851  0.4819
 4969SOL    HW226541   4.281   0.644   3.373 -0.9978 -0.0342  0.5119
 4970SOL     OW26542   0.112   2.439   9.557 -0.4167 -0.0010 -0.0657
 4970SOL    HW126543   0.175   2.501   9.593  0.0721 -1.1752  1.1027
 4970SOL    HW226544   0.087   2.481   9.475  0.0957 -0.0119 -0.2327
 4971SOL     OW26545   1.155   0.038   9.929  0.2458 -0.0100  0.4107
 4971SOL    HW126546   1.167   0.015   9.837  0.2782  2.1762 -0.1164
 4971SOL    HW226547   1.091   4.715   9.967  0.8254 -0.7684  0.2089
 4972SOL     OW26548   1.675   3.264   2.421  0.0723 -0.2307  0.1546
 4972SOL    HW126549   1.704   3.211   2.495  2.4006  0.0186 -0.5969
 4972SOL    HW226550   1.584   3.282   2.446 -0.6580 -1.3420 -1.6444
 4973SOL     OW26551   4.197   1.835   3.098 -0.1582  0.0464  0.4643
 4973SOL    HW126552   4.210   1.741   3.087 -0.2147  0.1601 -0.5304
 4973SOL    HW226553   4.287   1.859   3.076 -0.5091  1.5448  0.6129
 4974SOL     OW26554   2.969   2.486   4.419 -0.3289  0.1374 -0.0026
 4974SOL    HW126555   2.950   2.519   4.507  1.3720 -0.2593  0.5284
 4974SOL    HW226556   2.936   2.557   4.363 -0.7662  1.0355  1.3841
 4975SOL     OW26557   4.048   1.363  10.266  0.3246 -0.0794  0.5541
 4975SOL    HW126558   3.998   1.444  10.274  0.9086  0.2482  0.8345
 4975SOL    HW226559   4.008   1.319  10.341  0.2381 -0.2784  0.3914
 4976SOL     OW26560   2.887   4.148  13.397  0.2777 -0.1079 -0.6121
 4976SOL    HW126561   2.841   4.185  13.322 -0.5156  0.2666  0.0718
 4976SOL    HW226562   2.977   4.161  13.368  0.4333 -0.0882 -0.1163
 4977SOL     OW26563   0.744   2.034   4.190 -0.6924 -0.3409 -0.5174
 4977SOL    HW126564   0.742   2.034   4.285  0.6080  1.0062 -0.5056
 4977SOL    HW226565   0.807   1.966   4.168  0.0484 -0.0738  0.7987
 4978SOL     OW26566   2.433   0.836   3.989 -0.4249  0.5510 -0.2335
 4978SOL    HW126567   2.509   0.840   4.047 -2.0551  2.3670  1.7328
 4978SOL    HW226568   2.428   0.916   3.936  0.0121  1.9355  1.8443
 4979SOL     OW26569   2.888   2.673   8.185  0.4673  0.1651 -0.1652
 4979SOL    HW126570   2.957   2.626   8.138 -1.0122  1.9139 -4.0630
 4979SOL    HW226571   2.860   2.605   8.247  2.7774  0.4961  1.2417
 4980SOL     OW26572   3.899   3.046   3.757  0.0478 -0.2748  0.3165
 4980SOL    HW126573   3.876   3.007   3.841 -0.0258 -1.5720 -0.3173
 4980SOL    HW226574   3.873   3.138   3.762  0.8279 -0.0040 -0.6075
 4981SOL     OW26575   0.379   0.765   8.199 -0.5132  0.3804 -0.4934
 4981SOL    HW126576   0.413   0.797   8.283 -0.7378  0.8093 -0.5643
 4981SOL    HW226577   0.455   0.714   8.170  0.4736  1.6191 -0.1234
 4982SOL     OW26578   4.141   2.430   3.773  0.3340  0.1967 -0.1303
 4982SOL    HW126579   4.204   2.496   3.801 -3.4661  3.7811 -0.0140
 4982SOL    HW226580   4.207   2.367   3.746  0.9049 -0.2837  2.3804
 4983SOL     OW26581   2.956   3.106  11.328 -0.4992 -0.0750 -0.1129
 4983SOL    HW126582   2.922   3.025  11.366 -2.1835  0.5360 -0.3184
 4983SOL    HW226583   3.049   3.087  11.325 -0.2185  1.2725 -0.2992
 4984SOL     OW26584   3.410   0.587  10.434 -0.1376  0.1999  0.7080
 4984SOL    HW126585   3.339   0.526  10.453  0.6134 -0.6081  0.9129
 4984SOL    HW226586   3.404   0.588  10.338  0.5023  1.4541  0.6766
 4985SOL     OW26587   0.703   2.068   2.102  0.2137 -0.2009  0.4667
 4985SOL    HW126588   0.649   1.992   2.081  0.8828 -0.7005  0.5228
 4985SOL    HW226589   0.655   2.142   2.067 -0.5448 -0.5105  0.8523
 4986SOL     OW26590   0.411   3.531   8.500 -0.5339 -0.1175 -0.2262
 4986SOL    HW126591   0.499   3.565   8.484 -1.4037  0.7309 -3.3429
 4986SOL    HW226592   0.381   3.541   8.590 -0.9488  0.5603 -0.4399
 4987SOL     OW26593   1.028   1.471  14.315  0.1150 -0.0937  0.5885
 4987SOL    HW126594   0.937   1.498  14.300 -0.2392 -0.5804  1.9584
 4987SOL    HW226595   1.019   1.421  14.396 -2.1322  0.3288  0.6032
 4988SOL     OW26596   1.453   1.850   8.987  0.2385 -0.0047 -0.6229
 4988SOL    HW126597   1.459   1.926   9.044 -2.9223  0.8984 -1.4770
 4988SOL    HW226598   1.371   1.811   9.019  1.8909 -2.3365  0.7019
 4989SOL     OW26599   0.609   2.041   9.650 -0.2508  0.1090 -0.4602
 4989SOL    HW126600   0.664   2.031   9.728 -1.8201 -1.0179  0.5037
 4989SOL    HW226601   0.668   1.996   9.589 -0.1465 -0.4280  0.0331
 4990SOL     OW26602   3.639   4.643   2.093 -0.0318  0.1231  0.0107
 4990SOL    HW126603   3.716   4.677   2.049  1.0813 -3.9430 -1.2031
 4990SOL    HW226604   3.649   4.661   2.186  1.9933  0.7386 -0.3335
 4991SOL     OW26605   3.240   3.564   7.172  0.0104 -0.1566  0.3392
 4991SOL    HW126606   3.185   3.551   7.095 -0.3683  2.0876  0.2582
 4991SOL    HW226607   3.181   3.605   7.235 -0.7822 -0.1756 -0.3942
 4992SOL     OW26608   0.763   0.005   8.916 -0.4480  0.4689 -0.3127
 4992SOL    HW126609   0.846   0.049   8.937 -0.1808 -0.6392  0.9313
 4992SOL    HW226610   0.719   0.068   8.859 -1.2227  1.7343  1.6586
 4993SOL     OW26611   4.578   0.748   7.993 -0.8243  0.7851 -0.6270
 4993SOL    HW126612   4.504   0.714   8.044 -0.3243 -0.8446 -0.9781
 4993SOL    HW226613   4.550   0.720   7.905 -1.2674 -0.2382 -0.1613
 4994SOL     OW26614   2.383   3.758   2.117  0.3795  0.9529 -0.2091
 4994SOL    HW126615   2.323   3.820   2.077 -1.5534  0.5858  2.0813
 4994SOL    HW226616   2.462   3.771   2.065  0.8301  0.8709  0.4512
 4995SOL     OW26617   3.959   3.320  13.935 -0.2257 -0.2997  0.5205
 4995SOL    HW126618   3.944   3.234  13.975 -1.6234 -0.8206 -1.1129
 4995SOL    HW226619   3.887   3.371  13.973 -0.0064  1.1319 -1.0155
 4996SOL     OW26620   3.583   4.466   7.804 -0.5345  0.1784  0.0909
 4996SOL    HW126621   3.592   4.384   7.853 -0.9482 -1.2642 -2.2230
 4996SOL    HW226622   3.580   4.526   7.878  4.0897 -0.2304  0.6138
 4997SOL     OW26623   3.274   2.436  11.916 -0.2088  0.1936  0.9509
 4997SOL    HW126624   3.362   2.401  11.928 -0.0275  0.1151 -0.6029
 4997SOL    HW226625   3.248   2.439  12.008  0.1148  1.0279  1.0149
 4998SOL     OW26626   1.812   4.658   8.776  0.2406  0.7004 -0.2061
 4998SOL    HW126627   1.797   4.644   8.869 -2.9856  0.0252 -0.8189
 4998SOL    HW226628   1.904   4.631   8.775  0.3516  1.0170  1.7650
 4999SOL     OW26629   3.436   2.152   8.897  0.1900  0.3823  0.4295
 4999SOL    HW126630   3.510   2.162   8.957  0.9612  2.3793 -0.8699
 4999SOL    HW226631   3.414   2.062   8.921 -1.1009 -0.0482 -2.3636
 5000SOL     OW26632   2.025   2.541   3.656 -0.1402  0.0461 -0.4646
 5000SOL    HW126633   2.067   2.512   3.575 -0.5724 -2.1001  0.0890
 5000SOL    HW226634   2.064   2.628   3.661  1.7088 -0.9495  2.5782
 5001SOL     OW26635   0.348   2.150   1.623 -0.0259 -0.3241  0.2498
 5001SOL    HW126636   0.346   2.169   1.717 -1.8162 -1.2712  0.4019
 5001SOL    HW226637   0.441   2.164   1.605  0.5645 -1.4981  2.3345
 5002SOL     OW26638   3.191   4.297   6.376 -0.8763  0.4068  0.5535
 5002SOL    HW126639   3.223   4.266   6.291 -0.2127  1.0028  0.5907
 5002SOL    HW226640   3.248   4.246   6.433 -0.7313  0.2857  0.3001
 5003SOL     OW26641   0.848   1.056   5.722 -0.2830  0.2628 -0.1305
 5003SOL    HW126642   0.847   1.142   5.764  0.6863  0.6524 -0.9216
 5003SOL    HW226643   0.829   1.086   5.633 -0.0130 -0.3986 -0.4108
 5004SOL     OW26644   0.137   2.613  14.953  0.0034  0.4380  0.2037
 5004SOL    HW126645   0.174   2.525  14.939 -0.3096  0.3967 -0.3445
 5004SOL    HW226646   0.211   2.673  14.941  0.8436 -0.5444  0.4282
 5005SOL     OW26647   2.943   4.050   2.112  0.0200  0.2928  0.1008
 5005SOL    HW126648   2.986   4.133   2.089 -0.3472  0.1268 -1.1967
 5005SOL    HW226649   2.852   4.077   2.102  0.0388 -0.2932 -1.6883
 5006SOL     OW26650   2.715   4.227   5.330  0.3074  0.3856 -0.3703
 5006SOL    HW126651   2.743   4.314   5.360  2.9659  0.0594 -1.9103
 5006SOL    HW226652   2.801   4.186   5.323 -0.0388 -0.5761  1.2201
 5007SOL     OW26653   1.165   3.662   4.480 -0.0036  0.0639  0.2369
 5007SOL    HW126654   1.257   3.679   4.459 -0.2227 -0.8267 -1.3912
 5007SOL    HW226655   1.176   3.608   4.558  0.5045 -0.3296 -0.1057
 5008SOL     OW26656   1.881   3.748   8.060  0.2758  0.7221  0.4131
 5008SOL    HW126657   1.840   3.835   8.062  0.9452  1.0784 -0.8801
 5008SOL    HW226658   1.917   3.751   7.971 -0.7707  0.9002 -0.0015
 5009SOL     OW26659   0.302   1.948   8.595  0.4013  0.5017  0.4604
 5009SOL    HW126660   0.357   2.017   8.632  0.3111  0.3958  0.7929
 5009SOL    HW226661   0.243   1.924   8.666 -0.9120 -1.4332 -1.2646
 5010SOL     OW26662   3.685   1.037   6.203 -0.2628 -0.3251  0.2296
 5010SOL    HW126663   3.614   0.990   6.245 -1.2060  0.7994 -0.1020
 5010SOL    HW226664   3.764   0.994   6.235  0.3944  0.2950 -0.5383
 5011SOL     OW26665   1.461   2.221   6.384  0.2588  0.7445  0.5682
 5011SOL    HW126666   1.434   2.164   6.456  0.5884  0.4531  0.4591
 5011SOL    HW226667   1.449   2.309   6.419 -2.0446  0.1900  1.1873
 5012SOL     OW26668   4.160   3.010   2.655 -0.0159  0.1136 -0.4467
 5012SOL    HW126669   4.091   3.048   2.710  0.6512  0.5923  0.0563
 5012SOL    HW226670   4.235   3.065   2.680  0.6891  0.0663 -2.5149
 5013SOL     OW26671   1.422   1.074   8.250  0.1982  0.8265  0.3501
 5013SOL    HW126672   1.360   1.003   8.237 -0.7676  1.3746  1.9057
 5013SOL    HW226673   1.490   1.023   8.294 -0.5654  0.6443  1.3097
 5014SOL     OW26674   0.034   1.010   3.414  0.7648  0.3150  0.1679
 5014SOL    HW126675   4.733   1.084   3.463 -0.7647 -0.4444  0.1321
 5014SOL    HW226676   4.737   1.027   3.326  1.0113 -1.1478 -0.2064
 5015SOL     OW26677   1.407   0.803   4.427 -0.1386 -0.5584 -0.2982
 5015SOL    HW126678   1.370   0.781   4.512 -0.7393 -0.5012 -0.5484
 5015SOL    HW226679   1.502   0.806   4.442 -0.4728 -0.0803  1.6790
 5016SOL     OW26680   0.995   3.290   7.952  0.9588  0.9264 -0.1751
 5016SOL    HW126681   1.018   3.197   7.946 -1.3707  0.2723  1.1780
 5016SOL    HW226682   0.960   3.312   7.866 -0.2897 -0.8033 -0.1052
 5017SOL     OW26683   2.165   0.909   1.582 -0.1807 -0.3713 -0.1220
 5017SOL    HW126684   2.255   0.899   1.610 -0.5130  2.4625  1.9292
 5017SOL    HW226685   2.168   0.929   1.488  3.0282 -0.2755  0.0043
 5018SOL     OW26686   4.693   3.607   9.225 -0.6829 -0.5084 -0.2961
 5018SOL    HW126687   0.014   3.535   9.199  1.3541  1.8476 -2.2687
 5018SOL    HW226688   4.723   3.681   9.172  1.4163 -0.0377  1.5097
 5019SOL     OW26689   2.763   0.007   6.033 -0.0429  0.1178  0.1553
 5019SOL    HW126690   2.759   0.010   6.129  0.0217  2.2069  0.0910
 5019SOL    HW226691   2.771   0.101   6.017 -0.6301  0.1659  0.1367
 5020SOL     OW26692   3.657   2.604   2.642  0.2494  0.3223  0.0074
 5020SOL    HW126693   3.583   2.544   2.650  2.3666 -1.9210  2.4982
 5020SOL    HW226694   3.643   2.607   2.547  0.1787  1.0430  0.0410
 5021SOL     OW26695   2.007   2.627   8.700  0.1322  0.3388  0.3203
 5021SOL    HW126696   2.039   2.540   8.722 -1.5079 -0.9952 -2.6230
 5021SOL    HW226697   2.069   2.675   8.754  1.2092 -0.2519 -0.4061
 5022SOL     OW26698   0.842   2.073   8.586 -0.0703 -0.1917  0.2673
 5022SOL    HW126699   0.763   2.081   8.531 -1.3714  2.3857  2.5218
 5022SOL    HW226700   0.918   2.090   8.530  0.1593 -2.1775 -0.0134
 5023SOL     OW26701   4.619   4.730  10.775 -0.2757  0.0610  0.0073
 5023SOL    HW126702   4.590   0.084  10.783 -1.5200 -0.3413  0.1074
 5023SOL    HW226703   4.619   4.709  10.682  1.6607 -2.7326  0.6679
 5024SOL     OW26704   2.896   2.969   6.723 -0.0572 -0.1214  0.0341
 5024SOL    HW126705   2.951   2.892   6.708  1.1312  1.1521 -2.0531
 5024SOL    HW226706   2.905   2.978   6.818  3.6758  2.3433 -0.5831
 5025SOL     OW26707   0.433   0.794   2.463 -1.1891 -0.0032 -0.0273
 5025SOL    HW126708   0.421   0.744   2.544  0.5325  0.7764  0.7074
 5025SOL    HW226709   0.381   0.874   2.472 -3.2065 -1.5628  2.3287
 5026SOL     OW26710   3.040   2.168   3.296 -0.0972  0.4153  0.5067
 5026SOL    HW126711   3.026   2.094   3.355  0.0787  1.2090  1.5569
 5026SOL    HW226712   2.955   2.212   3.288  0.5988  1.3258 -1.6112
 5027SOL     OW26713   0.718   0.049   9.227 -0.1655  0.2028 -0.1644
 5027SOL    HW126714   0.747   4.710   9.176  1.4835  0.2582  0.7094
 5027SOL    HW226715   0.793   0.061   9.285 -0.3268 -0.5972  0.1970
 5028SOL     OW26716   4.634   4.279  13.820  0.1001  0.4229  0.1657
 5028SOL    HW126717   4.698   4.349  13.838  0.7716 -0.2559  0.4250
 5028SOL    HW226718   4.690   4.212  13.781 -0.0351 -0.5559  1.6664
 5029SOL     OW26719   2.831   3.112  10.966  0.1788  0.1072 -0.2035
 5029SOL    HW126720   2.893   3.169  11.011 -0.5328  0.5560  0.2042
 5029SOL    HW226721   2.883   3.032  10.971  0.1632  0.1170  0.0788
 5030SOL     OW26722   0.376   0.107   2.182 -0.1317  0.3379  0.5239
 5030SOL    HW126723   0.368   0.058   2.265  1.6104  0.9550  1.0509
 5030SOL    HW226724   0.400   0.196   2.208  1.4750  0.4272 -1.3141
 5031SOL     OW26725   1.563   1.216   6.742  0.0920 -0.0100 -0.1237
 5031SOL    HW126726   1.588   1.128   6.768 -1.1386  0.0412  1.2284
 5031SOL    HW226727   1.528   1.258   6.821 -0.5783 -1.4388  0.3420
 5032SOL     OW26728   4.281   0.506  15.631  0.2782 -0.0017  0.4130
 5032SOL    HW126729   4.367   0.493  15.591  0.7393 -1.2079  1.7790
 5032SOL    HW226730   4.284   0.596  15.662 -1.1324  1.0032 -2.4407
 5033SOL     OW26731   0.184   2.390   6.073  0.1614 -0.0749  0.2316
 5033SOL    HW126732   0.232   2.436   6.143 -3.2687  1.4761  1.5743
 5033SOL    HW226733   0.165   2.307   6.117 -1.3934  0.5742  0.7809
 5034SOL     OW26734   1.928   2.546  10.125 -0.3616  0.5365  0.0379
 5034SOL    HW126735   1.942   2.612  10.057  1.5968 -1.6022 -1.6193
 5034SOL    HW226736   2.001   2.494  10.094 -0.6209 -0.2500  0.7436
 5035SOL     OW26737   4.003   2.761   4.144  0.2301 -0.2854  0.6162
 5035SOL    HW126738   4.045   2.690   4.096  1.5803 -0.3357  1.8893
 5035SOL    HW226739   3.916   2.735   4.114  1.3082 -1.6697 -1.3073
 5036SOL     OW26740   1.044   1.980   9.674 -0.4840 -0.2044  0.1139
 5036SOL    HW126741   1.104   1.911   9.645  1.4254  1.8241 -0.7705
 5036SOL    HW226742   1.073   2.049   9.614 -2.1023  0.3955  0.0208
 5037SOL     OW26743   0.313   0.638   5.883 -0.0709 -0.0569 -1.0473
 5037SOL    HW126744   0.360   0.631   5.799 -0.5828 -1.7010 -1.1911
 5037SOL    HW226745   0.223   0.634   5.852 -0.1044 -1.9513 -0.7029
 5038SOL     OW26746   0.369   3.047   9.329  0.2070 -0.3832  0.1141
 5038SOL    HW126747   0.381   2.956   9.355 -1.6834  0.1627  2.9770
 5038SOL    HW226748   0.455   3.089   9.329 -0.3552  0.7735 -0.2501
 5039SOL     OW26749   2.265   2.373   0.185 -0.2684  1.0696 -0.1722
 5039SOL    HW126750   2.269   2.448   0.245  0.7840  1.4376 -0.7038
 5039SOL    HW226751   2.225   2.409   0.106 -0.6692  0.1829 -0.3769
 5040SOL     OW26752   1.373   2.993  15.485 -0.8039  0.4593 -0.0424
 5040SOL    HW126753   1.404   2.951  15.405 -1.7665  2.2537 -1.3640
 5040SOL    HW226754   1.278   2.987  15.479 -0.6397 -0.7165 -1.3917
 5041SOL     OW26755   0.668   1.264   3.173 -0.3283 -0.3099  0.0796
 5041SOL    HW126756   0.614   1.339   3.194  0.2200 -0.1552  0.9448
 5041SOL    HW226757   0.615   1.201   3.123  0.4313 -0.5479 -0.4219
 5042SOL     OW26758   3.286   4.415  11.875  0.5204  0.0998  0.1483
 5042SOL    HW126759   3.339   4.485  11.914  3.1248 -0.1921 -2.8724
 5042SOL    HW226760   3.342   4.341  11.897  0.6437  0.0516 -0.3217
 5043SOL     OW26761   2.118   1.304   7.742 -0.6836 -0.1607  0.6071
 5043SOL    HW126762   2.073   1.310   7.827  1.0912 -2.9693  1.7356
 5043SOL    HW226763   2.072   1.238   7.691  0.9049 -1.8026  1.3034
 5044SOL     OW26764   0.507   2.496  12.941 -0.2992 -0.1030 -0.0293
 5044SOL    HW126765   0.523   2.422  12.882  0.9377  0.5412 -0.4989
 5044SOL    HW226766   0.592   2.533  12.963 -1.0710  2.0581 -0.7109
 5045SOL     OW26767   3.230   1.029   7.148  0.0662 -0.4875 -0.0872
 5045SOL    HW126768   3.260   0.943   7.180 -1.7733 -0.4495  1.7270
 5045SOL    HW226769   3.143   1.030   7.189  1.1867  1.3681  2.2558
 5046SOL     OW26770   1.507   4.674   8.594  0.1800 -0.2574  0.2827
 5046SOL    HW126771   1.537   4.596   8.548  0.8517 -0.3191  0.8248
 5046SOL    HW226772   1.412   4.672   8.585  0.1859  2.2833 -0.3562
 5047SOL     OW26773   4.183   2.177   3.173  0.2861 -0.4864 -0.3828
 5047SOL    HW126774   4.127   2.250   3.202  0.3074 -0.9882  0.9459
 5047SOL    HW226775   4.135   2.105   3.213 -2.4079 -0.3222 -3.3740
 5048SOL     OW26776   1.031   0.286   5.162 -0.2599 -0.3351 -0.1610
 5048SOL    HW126777   1.094   0.344   5.206 -1.4294 -1.0296  2.4402
 5048SOL    HW226778   0.952   0.331   5.192  0.0226  0.2921 -0.3631
 5049SOL     OW26779   2.060   2.582   4.756 -0.2304  0.4709 -0.3784
 5049SOL    HW126780   2.099   2.661   4.792 -1.6229  1.0587 -0.1679
 5049SOL    HW226781   2.044   2.537   4.839  1.4186  0.2269 -0.1942
 5050SOL     OW26782   4.276   3.929   1.671 -0.0175  0.4475  0.2949
 5050SOL    HW126783   4.333   3.940   1.595  1.6107 -0.3214  1.3874
 5050SOL    HW226784   4.216   3.865   1.633  1.6158 -1.2450  0.5824
 5051SOL     OW26785   2.067   4.518   2.103  0.8166  0.1315  0.0327
 5051SOL    HW126786   2.157   4.522   2.136  1.1350  0.2681 -0.8510
 5051SOL    HW226787   2.065   4.585   2.034  1.2458  0.0153 -0.0924
 5052SOL     OW26788   1.072   0.371   1.984 -0.0654  0.2765 -0.2027
 5052SOL    HW126789   1.108   0.458   1.968 -1.1665  0.6179 -0.7815
 5052SOL    HW226790   1.140   0.338   2.044 -0.1502  0.9776  0.2862
 5053SOL     OW26791   1.239   0.900  17.263 -0.2476  0.1654 -0.4338
 5053SOL    HW126792   1.332   0.882  17.274 -0.1094  1.4022  0.4344
 5053SOL    HW226793   1.221   0.883  17.170 -0.7840  0.1336 -0.3214
 5054SOL     OW26794   3.836   2.880   6.117 -0.4877  0.1185 -0.2301
 5054SOL    HW126795   3.920   2.924   6.102 -1.1346  1.5279  0.2859
 5054SOL    HW226796   3.872   2.794   6.095 -1.4411 -0.3438  0.0081
 5055SOL     OW26797   0.220   3.721   8.993  0.2829 -0.7527 -0.1551
 5055SOL    HW126798   0.137   3.766   9.005 -0.4224 -2.1453  0.2203
 5055SOL    HW226799   0.271   3.773   9.055  0.3499  0.1902 -1.0098
 5056SOL     OW26800   2.593   0.841   6.917  0.0641 -0.2761  0.3203
 5056SOL    HW126801   2.637   0.925   6.907 -0.1710 -0.1538  0.3162
 5056SOL    HW226802   2.506   0.870   6.944  0.4374 -1.0838  2.4137
 5057SOL     OW26803   3.743   0.947  13.554  0.0620 -0.4645 -0.0642
 5057SOL    HW126804   3.770   0.979  13.640 -0.0529  3.2404 -1.3883
 5057SOL    HW226805   3.800   0.871  13.545  0.3932 -0.1234 -0.8543
 5058SOL     OW26806   3.581   1.682   4.512 -0.4825  0.0849  0.0384
 5058SOL    HW126807   3.537   1.599   4.497 -0.3099 -0.4918  2.7319
 5058SOL    HW226808   3.576   1.725   4.426  1.4115  1.3897  0.5579
 5059SOL     OW26809   0.287   3.600   8.770  0.3766  0.2007 -0.2552
 5059SOL    HW126810   0.216   3.642   8.722  0.3611 -0.9733 -1.2599
 5059SOL    HW226811   0.260   3.630   8.857 -1.0544 -1.0141 -0.2904
 5060SOL     OW26812   1.471   1.068   0.912  0.0694  0.4572  0.4160
 5060SOL    HW126813   1.420   1.139   0.952 -3.3819 -0.6141 -2.0612
 5060SOL    HW226814   1.521   1.042   0.989  1.5207  1.3726 -0.2285
 5061SOL     OW26815   4.304   1.532   4.694  1.2549 -0.5152  0.0606
 5061SOL    HW126816   4.353   1.614   4.701 -0.6815  0.6319 -0.0884
 5061SOL    HW226817   4.213   1.560   4.690  1.2555 -0.7513 -1.4168
 5062SOL     OW26818   1.818   0.377  16.769 -0.1052  0.0199 -0.1025
 5062SOL    HW126819   1.866   0.458  16.752 -0.0193  0.1525  0.7602
 5062SOL    HW226820   1.726   0.404  16.770 -0.7879 -2.2800 -0.5553
 5063SOL     OW26821   2.623   4.134   1.094  0.4385 -0.1640  0.0069
 5063SOL    HW126822   2.537   4.141   1.052  0.9568 -0.7658 -1.1633
 5063SOL    HW226823   2.591   4.069   1.156  1.9997 -1.9185 -1.0234
 5064SOL     OW26824   4.134   2.788   7.260  0.6343  0.5794 -0.1322
 5064SOL    HW126825   4.215   2.795   7.211 -0.6317  1.9453 -2.0227
 5064SOL    HW226826   4.176   2.771   7.344 -1.4602 -0.7494  0.6539
 5065SOL     OW26827   2.389   2.194  16.297  0.1509  0.0258 -0.1623
 5065SOL    HW126828   2.318   2.229  16.243  0.0063  0.3586  0.2399
 5065SOL    HW226829   2.458   2.193  16.232 -1.5710  0.6395 -1.9988
 5066SOL     OW26830   3.078   3.968   2.339  0.0578 -0.6646  0.3402
 5066SOL    HW126831   3.034   3.977   2.255 -1.6083 -2.6011  1.0091
 5066SOL    HW226832   3.165   3.951   2.303  0.1626 -2.6505  1.5429
 5067SOL     OW26833   0.447   2.166   7.017  0.0178 -0.3775  0.1522
 5067SOL    HW126834   0.428   2.078   6.986  0.7945 -0.3775 -0.3396
 5067SOL    HW226835   0.402   2.154   7.101 -0.9269 -1.2867 -0.4946
 5068SOL     OW26836   2.099   0.425   7.595 -0.0444 -0.4925 -0.2868
 5068SOL    HW126837   2.031   0.468   7.544 -1.2507 -0.5495  1.3174
 5068SOL    HW226838   2.170   0.488   7.609 -0.0018 -0.5858 -0.0900
 5069SOL     OW26839   4.388   3.966   9.948  0.2824  0.2730 -0.0739
 5069SOL    HW126840   4.347   3.908  10.013 -0.2238 -0.4285 -1.0234
 5069SOL    HW226841   4.314   4.025   9.931 -1.7903 -2.5214 -0.8760
 5070SOL     OW26842   2.325   3.289  11.658 -0.3510  0.2925 -0.2443
 5070SOL    HW126843   2.249   3.336  11.622 -1.3245 -3.1159 -2.6560
 5070SOL    HW226844   2.296   3.265  11.746 -0.7413 -0.5611 -0.6050
 5071SOL     OW26845   4.349   2.541  16.053 -0.2879  0.2210 -0.2062
 5071SOL    HW126846   4.396   2.520  15.973 -0.7681 -2.9523  0.3389
 5071SOL    HW226847   4.386   2.629  16.066  2.3417 -0.8167 -0.7898
 5072SOL     OW26848   4.172   1.616   1.728  0.1738  0.6291 -0.1730
 5072SOL    HW126849   4.239   1.552   1.753 -1.5711 -0.4047  1.8470
 5072SOL    HW226850   4.180   1.679   1.800 -0.1268  0.4901 -0.0161
 5073SOL     OW26851   3.732   2.152   3.290  0.1729  0.0166  0.6132
 5073SOL    HW126852   3.679   2.087   3.336 -0.9849  0.2239 -0.4186
 5073SOL    HW226853   3.709   2.128   3.200  1.4191  0.7264  0.1030
 5074SOL     OW26854   2.777   3.575   5.176  0.7333 -0.2990  0.2902
 5074SOL    HW126855   2.789   3.483   5.151 -1.1331 -0.4899  0.1426
 5074SOL    HW226856   2.848   3.610   5.122  1.8930 -0.9295  1.3829
 5075SOL     OW26857   0.225   2.614   8.001  0.3758 -0.2336 -0.1597
 5075SOL    HW126858   0.223   2.521   7.981  2.4739  0.4516 -3.5056
 5075SOL    HW226859   0.295   2.639   7.941 -0.1110  2.4780  0.4029
 5076SOL     OW26860   0.591   4.224   7.387  0.5244  0.0620 -0.0417
 5076SOL    HW126861   0.627   4.204   7.473 -0.5053 -1.7544 -0.0456
 5076SOL    HW226862   0.586   4.320   7.384  1.5794  0.0686 -2.2532
 5077SOL     OW26863   2.809   2.400  10.568  0.2692  0.5701  0.1704
 5077SOL    HW126864   2.742   2.420  10.502 -1.4180 -0.9455  1.4404
 5077SOL    HW226865   2.829   2.485  10.607  2.6301  1.1969 -2.3607
 5078SOL     OW26866   2.651   1.246   1.335  0.4598 -0.2603 -0.0451
 5078SOL    HW126867   2.658   1.151   1.339 -0.6405 -0.4582 -2.7100
 5078SOL    HW226868   2.734   1.273   1.296  0.2947  0.3888  0.0577
 5079SOL     OW26869   2.082   0.651   6.603 -0.8781  0.1265 -0.6512
 5079SOL    HW126870   2.154   0.588   6.604 -1.2670 -0.2930  0.5927
 5079SOL    HW226871   2.124   0.733   6.578 -1.6181  0.7913  0.2372
 5080SOL     OW26872   0.631   3.122   4.726  0.0127 -0.3258  0.0907
 5080SOL    HW126873   0.580   3.086   4.653 -0.7142 -2.4761  1.6402
 5080SOL    HW226874   0.604   3.060   4.794  1.0712  1.1871  1.8877
 5081SOL     OW26875   3.091   3.044   3.777  0.6342 -0.2044  0.3685
 5081SOL    HW126876   3.117   2.954   3.759  0.8034  0.3759 -2.3816
 5081SOL    HW226877   3.039   3.030   3.856  0.3179 -1.8249 -0.1375
 5082SOL     OW26878   1.318   2.974  16.783 -0.7091 -0.0366 -0.0034
 5082SOL    HW126879   1.350   2.886  16.803 -0.6909 -0.4762 -1.9984
 5082SOL    HW226880   1.325   2.979  16.688 -0.8345 -1.4929 -0.0882
 5083SOL     OW26881   4.169   3.662   2.326 -0.6201 -0.3509  0.4508
 5083SOL    HW126882   4.150   3.592   2.263  0.1281  0.2572 -0.4575
 5083SOL    HW226883   4.264   3.664   2.311 -0.6488  0.8930  0.4555
 5084SOL     OW26884   2.100   2.293   3.070  0.3831 -0.1983 -0.0803
 5084SOL    HW126885   2.160   2.336   3.009 -0.1334  0.6687  0.0281
 5084SOL    HW226886   2.153   2.214   3.078  1.1612  0.3833  0.5322
 5085SOL     OW26887   1.077   1.222  10.324 -0.5890 -0.0666  0.2911
 5085SOL    HW126888   1.036   1.136  10.329  2.0092 -1.3076  0.3586
 5085SOL    HW226889   1.007   1.265  10.374 -1.1553  2.4033 -2.6328
 5086SOL     OW26890   0.436   1.372   2.852  0.3873 -0.1959 -0.6747
 5086SOL    HW126891   0.515   1.411   2.890  1.3837  0.6107 -3.5728
 5086SOL    HW226892   0.479   1.303   2.801 -2.2843 -1.4896 -1.1738
 5087SOL     OW26893   1.624   1.866   2.772  0.0364  0.9934 -0.0728
 5087SOL    HW126894   1.611   1.810   2.696 -0.0169  1.3572 -0.3304
 5087SOL    HW226895   1.547   1.849   2.826 -0.1019  2.3315  0.1405
 5088SOL     OW26896   1.973   0.423   6.150  0.1623  0.4273 -0.5063
 5088SOL    HW126897   1.897   0.431   6.092  1.3543 -0.4232 -2.1587
 5088SOL    HW226898   2.040   0.402   6.085  0.9055 -2.4514  1.1955
 5089SOL     OW26899   0.757   1.796   5.638 -0.1084 -0.1550  0.1312
 5089SOL    HW126900   0.732   1.791   5.730 -1.6018  2.6647 -0.1057
 5089SOL    HW226901   0.723   1.712   5.606  0.1341  0.0605 -0.7024
 5090SOL     OW26902   0.553   2.329   9.376 -0.1829  0.1871  0.5226
 5090SOL    HW126903   0.641   2.365   9.374 -1.1080  2.4372  1.0342
 5090SOL    HW226904   0.558   2.279   9.294  0.6651  3.0815 -1.2016
 5091SOL     OW26905   1.086   3.186  16.769  0.3883  0.1460  0.3326
 5091SOL    HW126906   1.103   3.251  16.837  0.1558 -0.2899  0.8027
 5091SOL    HW226907   1.150   3.115  16.783 -0.4655 -0.2552  2.1962
 5092SOL     OW26908   2.220   0.708  11.640  0.1480  0.6111 -0.4699
 5092SOL    HW126909   2.218   0.631  11.582  3.1519  1.3193 -1.4745
 5092SOL    HW226910   2.289   0.689  11.703  0.4401 -0.6579 -1.1532
 5093SOL     OW26911   1.252   3.560   6.514 -0.4715  0.3263 -0.1430
 5093SOL    HW126912   1.326   3.498   6.510 -0.5080  0.2792 -0.0900
 5093SOL    HW226913   1.229   3.571   6.422 -0.6288 -0.0321 -0.1460
 5094SOL     OW26914   2.690   1.617   7.312  0.3073  0.0131 -0.0775
 5094SOL    HW126915   2.729   1.539   7.273 -0.7278  1.0787 -3.3107
 5094SOL    HW226916   2.772   1.646   7.351  0.6885  1.1793 -1.7102
 5095SOL     OW26917   2.167   3.913  12.560  0.3487 -0.6383 -0.4044
 5095SOL    HW126918   2.082   3.882  12.526 -1.0023  0.4301  2.0625
 5095SOL    HW226919   2.179   3.861  12.639 -0.0871  0.4087  0.3349
 5096SOL     OW26920   2.385   3.682   9.335  0.3499  0.5209 -0.6840
 5096SOL    HW126921   2.420   3.594   9.321 -2.2750 -0.3105 -1.8983
 5096SOL    HW226922   2.383   3.697   9.430 -1.1725 -0.2748 -0.5944
 5097SOL     OW26923   1.223   0.520  16.597 -0.1002  0.0277  0.1833
 5097SOL    HW126924   1.247   0.613  16.594  0.1087  0.0009  1.2304
 5097SOL    HW226925   1.292   0.475  16.647  1.1509  0.9487 -0.7135
 5098SOL     OW26926   4.692   1.308   4.887 -0.2666 -0.0891 -1.2576
 5098SOL    HW126927   0.034   1.360   4.901  0.9061 -2.2569  0.4117
 5098SOL    HW226928   4.692   1.300   4.792  1.1375 -1.7071 -1.1356
 5099SOL     OW26929   1.131   3.816   5.762 -0.0192 -0.4482 -0.3394
 5099SOL    HW126930   1.176   3.845   5.683  0.4937 -0.6359 -0.1158
 5099SOL    HW226931   1.057   3.765   5.730 -1.9056  2.7978 -1.1425
 5100SOL     OW26932   0.288   3.896   2.673  0.3452 -0.6877  0.4962
 5100SOL    HW126933   0.328   3.851   2.598  2.5871  1.1659  0.5718
 5100SOL    HW226934   0.326   3.984   2.676 -1.8302  0.3299 -1.5352
 5101SOL     OW26935   1.998   2.477  13.722 -0.2500 -0.1534 -0.2213
 5101SOL    HW126936   2.056   2.552  13.734  0.8030 -0.9615 -0.3096
 5101SOL    HW226937   2.054   2.409  13.686  0.2088  0.6031 -0.9517
 5102SOL     OW26938   3.453   0.520   3.756  0.3182 -0.0555 -0.5208
 5102SOL    HW126939   3.373   0.519   3.809  0.6326 -2.2080 -0.0759
 5102SOL    HW226940   3.432   0.461   3.684 -0.3545 -1.4399  0.8026
 5103SOL     OW26941   2.072   0.734   7.871  0.0199 -0.1548 -0.1356
 5103SOL    HW126942   2.025   0.681   7.936  1.0840 -0.2216  0.5744
 5103SOL    HW226943   2.120   0.797   7.926  2.3635 -3.0122  1.0935
 5104SOL     OW26944   0.642   2.655  14.618  0.1582  0.3777  0.3284
 5104SOL    HW126945   0.592   2.732  14.646 -0.3092 -0.6704  2.3620
 5104SOL    HW226946   0.728   2.677  14.653  0.1772 -1.1209  1.2094
 5105SOL     OW26947   1.289   4.096   5.658  0.5729 -0.0106 -0.1802
 5105SOL    HW126948   1.212   4.057   5.701 -0.4134 -1.5650 -3.3564
 5105SOL    HW226949   1.316   4.015   5.615 -1.7941 -0.0707 -1.5634
 5106SOL     OW26950   0.386   2.749  14.361 -0.0209 -0.0339  0.0683
 5106SOL    HW126951   0.442   2.694  14.307  0.8536  2.0781 -1.1682
 5106SOL    HW226952   0.370   2.821  14.301 -2.3790  0.3518  1.1764
 5107SOL     OW26953   0.479   1.684   9.152 -0.1172  0.5876  0.1505
 5107SOL    HW126954   0.486   1.735   9.072  0.2051  1.6077  0.8238
 5107SOL    HW226955   0.556   1.705   9.205 -1.1997  0.0108  1.9595
 5108SOL     OW26956   0.745   2.359   1.836  0.0186  0.0652 -0.3075
 5108SOL    HW126957   0.788   2.372   1.921  1.6771  2.2817 -1.4830
 5108SOL    HW226958   0.686   2.434   1.835 -0.9486 -0.7112 -0.8820
 5109SOL     OW26959   3.983   0.857   0.118  0.3005 -0.1335  0.1673
 5109SOL    HW126960   4.051   0.859   0.184 -0.5428  1.8812  0.9571
 5109SOL    HW226961   3.907   0.886   0.169  0.7210 -3.0419  2.4305
 5110SOL     OW26962   2.860   0.515   1.141 -0.4704  0.0378  0.3423
 5110SOL    HW126963   2.923   0.546   1.205 -0.9233  1.3593  0.1437
 5110SOL    HW226964   2.791   0.490   1.203  0.8439  0.3577  1.9507
 5111SOL     OW26965   2.896   2.280   9.398  0.4449  0.2369  0.1501
 5111SOL    HW126966   2.950   2.211   9.437  2.6457  1.6629 -0.3678
 5111SOL    HW226967   2.816   2.277   9.449  0.1873  2.1164 -0.1245
 5112SOL     OW26968   3.460   1.602   5.756 -0.2028 -0.4086  0.0761
 5112SOL    HW126969   3.495   1.550   5.683 -0.4155  1.1009 -1.0858
 5112SOL    HW226970   3.374   1.639   5.735 -0.2357 -0.9616 -0.7947
 5113SOL     OW26971   0.394   2.327   4.684 -0.3426  0.2889  0.2022
 5113SOL    HW126972   0.451   2.251   4.673  1.2816  1.3233  1.5554
 5113SOL    HW226973   0.371   2.320   4.776  2.6536 -1.9542  0.7736
 5114SOL     OW26974   2.847   1.224   6.171  0.0393  1.1893  0.3739
 5114SOL    HW126975   2.883   1.161   6.233 -2.4856  0.8682  1.4843
 5114SOL    HW226976   2.918   1.234   6.107 -0.5156 -2.6186 -0.8468
 5115SOL     OW26977   4.053   2.964   4.854  0.2708  0.1681  0.6770
 5115SOL    HW126978   4.034   2.971   4.948 -0.6377  2.6362  0.3196
 5115SOL    HW226979   3.992   3.033   4.826  3.2336  2.4521 -0.1980
 5116SOL     OW26980   3.447   4.447   3.513 -0.2669 -0.1269  0.1313
 5116SOL    HW126981   3.415   4.406   3.432  1.2044  1.0694 -1.0670
 5116SOL    HW226982   3.387   4.408   3.576 -2.6587  2.0615 -0.7611
 5117SOL     OW26983   2.643   4.290   2.328  0.1889  0.3806  0.0045
 5117SOL    HW126984   2.652   4.218   2.265 -0.1070  0.2077  0.1615
 5117SOL    HW226985   2.656   4.354   2.258  0.4704  0.1535 -0.1488
 5118SOL     OW26986   3.271   1.134  12.144 -0.3189 -0.5834  0.4483
 5118SOL    HW126987   3.307   1.048  12.166 -1.0563 -0.5188  1.8826
 5118SOL    HW226988   3.301   1.141  12.053  1.2736  1.0199  1.1248
 5119SOL     OW26989   4.591   0.012  16.091 -0.4601 -0.2058  0.3013
 5119SOL    HW126990   4.673   0.009  16.041 -0.0859 -0.1341  0.9186
 5119SOL    HW226991   4.549   0.080  16.038 -0.0845 -0.3211 -0.1534
 5120SOL     OW26992   3.982   3.320   4.971 -0.3324 -0.0379  0.0531
 5120SOL    HW126993   3.933   3.288   4.895 -0.9219 -0.4487  0.6012
 5120SOL    HW226994   3.940   3.262   5.035  1.4413 -0.1253  1.1277
 5121SOL     OW26995   3.224   3.803   1.555  0.5239 -0.8213 -0.4738
 5121SOL    HW126996   3.140   3.758   1.548 -0.4386  0.8093  0.6063
 5121SOL    HW226997   3.278   3.740   1.604  0.1227 -0.7784  0.0213
 5122SOL     OW26998   4.432   4.607   6.282 -0.4589 -0.0143 -0.3062
 5122SOL    HW126999   4.507   4.591   6.340 -0.5109  0.1511 -0.1934
 5122SOL    HW227000   4.465   4.666   6.215 -0.2790  1.2459  0.9098
 5123SOL     OW27001   3.031   0.156   5.331 -0.0950  0.4962 -0.3825
 5123SOL    HW127002   3.017   0.143   5.424  0.7536 -1.9658 -0.5839
 5123SOL    HW227003   3.038   0.252   5.328  2.0434  0.3936  1.2121
 5124SOL     OW27004   3.580   0.964  10.170  0.0374  0.1556  0.0650
 5124SOL    HW127005   3.514   0.906  10.207 -2.1408  2.2158 -0.5677
 5124SOL    HW227006   3.580   1.038  10.231 -0.5580 -0.2571  0.5679
 5125SOL     OW27007   2.260   4.659   7.953  0.0308 -0.2246  0.0633
 5125SOL    HW127008   2.169   4.688   7.951  0.2044  0.3144 -0.3207
 5125SOL    HW227009   2.271   4.604   8.030 -1.9833 -0.4256  0.2034
 5126SOL     OW27010   2.592   3.893   3.777  0.0428  0.0413  0.4495
 5126SOL    HW127011   2.572   3.900   3.684  1.0142 -1.3760  0.1527
 5126SOL    HW227012   2.626   3.804   3.783 -1.9413 -0.7893 -0.7758
 5127SOL     OW27013   0.811   0.473   1.901  0.6180  0.2217 -0.7300
 5127SOL    HW127014   0.879   0.408   1.917 -0.7527 -1.2350 -0.8420
 5127SOL    HW227015   0.850   0.505   1.820 -0.7097  1.9716 -0.6779
 5128SOL     OW27016   0.457   1.947   6.863 -0.1617 -0.4580 -0.5043
 5128SOL    HW127017   0.490   1.861   6.886  0.8735  0.3067  0.9095
 5128SOL    HW227018   0.431   1.932   6.772 -0.9456  1.6642 -0.6502
 5129SOL     OW27019   0.552   4.550   2.320  0.0135  0.1167  0.3083
 5129SOL    HW127020   0.622   4.594   2.368 -1.8742  1.5138  1.7567
 5129SOL    HW227021   0.596   4.529   2.237  0.4000  1.5995  0.1414
 5130SOL     OW27022   2.201   0.585   1.207  0.1367 -0.2029  0.0813
 5130SOL    HW127023   2.118   0.611   1.165  0.5620  0.8228 -0.1093
 5130SOL    HW227024   2.262   0.633   1.152 -0.0443  0.1012  0.1436
 5131SOL     OW27025   0.046   3.037   4.426  0.1005 -0.2376 -0.4082
 5131SOL    HW127026   0.018   3.104   4.489 -1.1401 -2.0130  0.9417
 5131SOL    HW227027   4.700   3.017   4.384  0.1258 -1.3295  0.0694
 5132SOL     OW27028   1.567   4.605   5.398  0.3575 -0.1546 -0.3992
 5132SOL    HW127029   1.594   4.513   5.395  1.3585  0.1272 -0.2953
 5132SOL    HW227030   1.540   4.608   5.489  1.4577  2.3925 -0.1526
 5133SOL     OW27031   2.372   2.404   6.990 -0.0547 -0.0832  0.1125
 5133SOL    HW127032   2.312   2.347   7.040 -0.2266  0.7320  0.8269
 5133SOL    HW227033   2.319   2.484   6.987 -0.5589 -0.4814 -1.5580
 5134SOL     OW27034   2.151   3.497   7.188  0.1099  0.1347 -0.5488
 5134SOL    HW127035   2.244   3.494   7.209  0.1515  0.9555 -0.6352
 5134SOL    HW227036   2.158   3.458   7.101 -0.2248 -0.9141 -0.1045
 5135SOL     OW27037   3.410   3.639   5.428 -0.1155 -0.4082 -0.5356
 5135SOL    HW127038   3.473   3.698   5.470 -1.3153  0.9049 -0.5830
 5135SOL    HW227039   3.476   3.584   5.387  1.3215  0.8161  0.1147
 5136SOL     OW27040   3.808   0.564   6.290 -0.8412  0.1478  0.2736
 5136SOL    HW127041   3.847   0.495   6.344 -3.0808 -1.5369 -0.2705
 5136SOL    HW227042   3.885   0.621   6.293 -1.1717  0.7769 -2.5962
 5137SOL     OW27043   2.448   3.673  13.651 -0.4248 -0.7075 -0.3353
 5137SOL    HW127044   2.480   3.717  13.573 -0.8623  1.4545  0.7100
 5137SOL    HW227045   2.526   3.643  13.697 -0.1492  0.3103 -0.1351
 5138SOL     OW27046   4.087   4.508   5.578 -0.0955 -0.1786 -0.1861
 5138SOL    HW127047   4.112   4.468   5.495  0.0520  1.4330 -0.9138
 5138SOL    HW227048   3.992   4.519   5.580 -0.2377 -1.4858  0.0806
 5139SOL     OW27049   3.200   2.091   4.254  0.3532  0.3479 -0.0087
 5139SOL    HW127050   3.160   2.164   4.302  0.5628  0.2004  0.3890
 5139SOL    HW227051   3.230   2.127   4.170  3.0674  0.1869  0.9143
 5140SOL     OW27052   3.361   2.034   2.419 -0.0026  0.4024 -0.5049
 5140SOL    HW127053   3.384   1.943   2.438  0.4168  0.7055  0.4298
 5140SOL    HW227054   3.320   2.054   2.503 -1.8730 -0.5599 -1.1843
 5141SOL     OW27055   0.534   1.456   5.496 -0.0423 -0.3350  0.2955
 5141SOL    HW127056   0.516   1.362   5.504 -1.0457 -0.2787 -1.2362
 5141SOL    HW227057   0.533   1.451   5.400  1.3105  1.5039  0.1825
 5142SOL     OW27058   2.919   2.875   4.938  0.5454 -0.0117  0.6287
 5142SOL    HW127059   2.888   2.790   4.969 -1.4378  0.4714  0.0318
 5142SOL    HW227060   2.997   2.847   4.891  1.0515  2.0064  0.2717
 5143SOL     OW27061   4.057   2.388   4.293 -0.4958 -0.7396 -0.3025
 5143SOL    HW127062   4.091   2.429   4.214 -0.7999 -0.5798 -0.3467
 5143SOL    HW227063   4.031   2.304   4.255  0.3644  0.0678 -2.6680
 5144SOL     OW27064   0.393   4.228  14.875  0.6533 -0.3749 -0.1568
 5144SOL    HW127065   0.465   4.189  14.826  1.4902 -0.7015  1.3387
 5144SOL    HW227066   0.430   4.276  14.949  1.0571 -1.2959  0.2341
 5145SOL     OW27067   2.186   1.889   4.060  0.2084 -0.4488 -0.0186
 5145SOL    HW127068   2.189   1.840   3.978 -0.6143  3.3701 -2.3349
 5145SOL    HW227069   2.155   1.978   4.043  1.5529 -0.1472 -0.8832
 5146SOL     OW27070   0.472   3.357   6.902 -0.2982  0.2530  0.3488
 5146SOL    HW127071   0.506   3.354   6.813 -0.5130  0.5839  0.2535
 5146SOL    HW227072   0.529   3.414   6.954  0.5758  0.6240 -1.0350
 5147SOL     OW27073   3.666   1.629   8.056  0.1877 -0.1833 -0.4443
 5147SOL    HW127074   3.676   1.666   7.969  1.3442 -1.8876 -1.0372
 5147SOL    HW227075   3.649   1.707   8.109 -2.8138 -0.3830 -1.0808
 5148SOL     OW27076   3.034   4.493   2.592  0.8433  0.3881 -0.4907
 5148SOL    HW127077   3.016   4.430   2.523 -3.5543 -0.5631  1.5291
 5148SOL    HW227078   3.122   4.466   2.616  0.6770 -0.3604 -0.7184
 5149SOL     OW27079   0.631   0.585   3.215 -0.2542 -0.1518 -0.6388
 5149SOL    HW127080   0.727   0.588   3.214 -0.2416 -1.1001 -1.5497
 5149SOL    HW227081   0.622   0.626   3.128 -0.6049  0.5986 -0.2524
 5150SOL     OW27082   0.553   2.476  13.495  0.0737 -0.3974 -0.0005
 5150SOL    HW127083   0.467   2.508  13.522 -1.2471 -2.0224 -2.3265
 5150SOL    HW227084   0.561   2.489  13.401  0.3322  0.5841  0.1511
 5151SOL     OW27085   4.557   2.520   8.079  0.2487 -0.8143  0.4238
 5151SOL    HW127086   4.607   2.544   8.000 -2.3997  0.5209 -0.8491
 5151SOL    HW227087   4.574   2.427   8.091 -0.2939 -0.9601  0.0484
 5152SOL     OW27088   1.106   2.477   8.759 -0.1950 -0.2026 -0.2856
 5152SOL    HW127089   1.047   2.533   8.810  2.1039  2.0524 -0.0976
 5152SOL    HW227090   1.048   2.449   8.688 -0.8993  0.8892 -0.1352
 5153SOL     OW27091   1.758   3.039  16.710  0.1815 -0.4220  0.1492
 5153SOL    HW127092   1.689   3.069  16.769 -0.4083 -0.7181 -0.3860
 5153SOL    HW227093   1.758   3.111  16.647 -2.0464 -0.5376  0.0166
 5154SOL     OW27094   3.647   2.222   7.051 -0.1871 -0.4907  0.2399
 5154SOL    HW127095   3.613   2.135   7.068  0.0772 -0.3379  1.5340
 5154SOL    HW227096   3.578   2.258   6.994  0.0177  1.6847  1.3701
 5155SOL     OW27097   4.081   1.872   8.219  0.1756  0.0531 -0.1643
 5155SOL    HW127098   4.057   1.794   8.170  1.7217  0.2847 -1.2717
 5155SOL    HW227099   4.013   1.939   8.208 -1.0134 -1.0477  0.5129
 5156SOL     OW27100   3.036   1.664  16.819  0.0612  0.1639 -0.0764
 5156SOL    HW127101   3.096   1.591  16.804 -0.2756 -0.1778  0.2266
 5156SOL    HW227102   3.039   1.713  16.737  2.0222  1.2526  0.6600
 5157SOL     OW27103   4.110   3.424   9.395  0.0447 -0.1027 -0.2763
 5157SOL    HW127104   4.142   3.482   9.465 -0.0210  0.0355 -0.3616
 5157SOL    HW227105   4.034   3.387   9.441  1.3348  0.0814  2.0251
 5158SOL     OW27106   2.523   0.147   2.144  0.0222  0.0431  0.7953
 5158SOL    HW127107   2.559   0.210   2.206  2.5412 -3.1195  2.5079
 5158SOL    HW227108   2.461   0.100   2.200 -2.3135 -0.1042 -1.9102
 5159SOL     OW27109   0.483   2.953  12.422 -0.6102  0.1207  0.6583
 5159SOL    HW127110   0.450   2.920  12.506  1.1023  0.6042  1.5126
 5159SOL    HW227111   0.432   2.896  12.363 -2.3773  2.1268  0.2639
 5160SOL     OW27112   1.725   0.959   0.811  0.2617 -0.3834 -0.6427
 5160SOL    HW127113   1.663   0.996   0.874 -1.9710 -1.4241 -2.2032
 5160SOL    HW227114   1.685   0.973   0.725 -3.0327 -1.1516  0.7459
 5161SOL     OW27115   0.866   4.073   8.983 -0.6260 -0.0674 -0.5542
 5161SOL    HW127116   0.891   4.136   8.915 -0.5267  0.4880 -0.0057
 5161SOL    HW227117   0.846   4.002   8.922 -0.0798  0.5008 -1.3943
 5162SOL     OW27118   0.389   0.805   4.070 -0.1819 -0.2451 -0.7197
 5162SOL    HW127119   0.310   0.759   4.098  0.2653 -1.0678 -0.8215
 5162SOL    HW227120   0.396   0.771   3.981 -1.1306  2.3205 -1.7846
 5163SOL     OW27121   3.022   4.145  16.873  0.4248  0.8959 -0.2947
 5163SOL    HW127122   2.939   4.167  16.830  0.8489  0.6010 -1.2691
 5163SOL    HW227123   3.056   4.067  16.831  1.0740  1.3335 -0.5750
 5164SOL     OW27124   2.962   0.231  15.940  0.3552 -0.6382  0.0824
 5164SOL    HW127125   3.039   0.251  15.994 -0.4201 -0.1269  0.9922
 5164SOL    HW227126   2.901   0.260  16.007 -0.5027 -2.0609 -0.0866
 5165SOL     OW27127   2.783   4.510   7.386  0.4622  0.1536  0.1323
 5165SOL    HW127128   2.690   4.527   7.371  0.2974 -1.6659 -0.8510
 5165SOL    HW227129   2.826   4.454   7.322 -1.0229 -0.9478  0.1004
 5166SOL     OW27130   0.847   1.430  17.204  0.1781 -0.7316 -0.5943
 5166SOL    HW127131   0.898   1.369  17.150 -0.2349  0.1255 -1.9623
 5166SOL    HW227132   0.909   1.438  17.276 -0.6626  0.0039  0.0378
 5167SOL     OW27133   3.537   3.498   3.687  0.2417  0.5446  0.1141
 5167SOL    HW127134   3.477   3.572   3.674 -2.1202 -1.5643 -1.0734
 5167SOL    HW227135   3.478   3.423   3.675  1.9353 -0.8706  0.7624
 5168SOL     OW27136   3.409   0.820   5.800  0.3427 -0.4914 -0.4950
 5168SOL    HW127137   3.421   0.891   5.737 -1.5679  0.2441 -0.0146
 5168SOL    HW227138   3.368   0.744   5.758 -0.0662  0.7233 -2.2668
 5169SOL     OW27139   2.979   2.910  15.940 -0.2741  0.2560  0.1141
 5169SOL    HW127140   3.058   2.924  15.887 -2.3597 -1.2808 -3.4136
 5169SOL    HW227141   3.001   2.834  15.994 -2.1185 -0.3298  0.0177
 5170SOL     OW27142   3.608   4.412  16.175  0.6460 -0.4103  0.6851
 5170SOL    HW127143   3.682   4.426  16.116 -1.0112  1.6739 -0.8696
 5170SOL    HW227144   3.654   4.444  16.253  2.5068  0.4139 -0.7642
 5171SOL     OW27145   2.939   1.229   5.443 -0.2164 -0.0529  0.0970
 5171SOL    HW127146   2.881   1.192   5.510  0.6324  1.0222  1.4153
 5171SOL    HW227147   2.933   1.171   5.367  1.0884 -0.6329  0.4472
 5172SOL     OW27148   4.658   0.846   4.033  0.2206 -0.3841  0.5480
 5172SOL    HW127149   4.565   0.863   4.043  0.3509  1.1259 -0.7379
 5172SOL    HW227150   4.697   0.920   3.986  0.8634 -1.5222 -0.7542
 5173SOL     OW27151   2.045   4.328  17.577  0.0009 -0.2836 -0.3977
 5173SOL    HW127152   1.975   4.345  17.640  0.6892 -1.5073  0.6923
 5173SOL    HW227153   2.027   4.242  17.538  0.0797 -0.2970 -0.4050
 5174SOL     OW27154   0.730   1.048   0.919  0.5896 -0.1410  0.1147
 5174SOL    HW127155   0.682   1.101   0.982  1.8285  1.0891  0.0338
 5174SOL    HW227156   0.671   0.978   0.891  0.2167  1.1804 -2.4347
 5175SOL     OW27157   1.005   1.073   6.013  0.1116  0.0783 -0.4035
 5175SOL    HW127158   1.064   1.108   5.946 -1.3239  0.7616 -1.3173
 5175SOL    HW227159   1.060   1.107   6.084 -1.9079  1.3874  0.5185
 5176SOL     OW27160   0.636   1.512   0.521  0.1076 -0.2034 -0.2760
 5176SOL    HW127161   0.708   1.561   0.482  2.2945 -2.4971  0.8495
 5176SOL    HW227162   0.601   1.564   0.594  2.1980 -1.7547  1.8511
 5177SOL     OW27163   0.708   4.133   6.476 -0.6629 -0.2732  0.2425
 5177SOL    HW127164   0.679   4.099   6.561  0.9921 -0.8585  0.5710
 5177SOL    HW227165   0.783   4.184   6.506 -0.0857 -0.4720 -0.8986
 5178SOL     OW27166   1.047   1.299   3.746  0.0630 -0.1096 -0.2341
 5178SOL    HW127167   1.091   1.300   3.831 -0.8199 -1.2836  0.2394
 5178SOL    HW227168   1.110   1.276   3.677 -0.4062 -1.5303 -0.1960
 5179SOL     OW27169   1.984   0.596  12.324 -0.4030  0.0981  0.0482
 5179SOL    HW127170   2.016   0.654  12.393  0.3553 -1.8879  1.3475
 5179SOL    HW227171   2.041   0.610  12.249  0.1432 -0.6143  0.3357
 5180SOL     OW27172   1.117   4.457   9.858 -0.0368 -0.2776 -0.8126
 5180SOL    HW127173   1.112   4.414   9.943  0.0328  0.6498 -0.3344
 5180SOL    HW227174   1.212   4.471   9.849  0.0793 -1.4391 -1.3820
 5181SOL     OW27175   2.478   1.452   8.372 -0.4319 -0.0976 -0.1672
 5181SOL    HW127176   2.399   1.460   8.426  0.7248 -0.2189  1.5652
 5181SOL    HW227177   2.535   1.396   8.425  1.5348  3.2408  1.2513
 5182SOL     OW27178   4.476   4.610  16.282  0.1079 -0.4622 -0.1693
 5182SOL    HW127179   4.527   4.641  16.207 -0.8584  1.6991  0.0414
 5182SOL    HW227180   4.411   4.547  16.253 -1.1876  0.2422  1.2084
 5183SOL     OW27181   0.326   3.419  16.273  0.3337 -0.3506 -0.1592
 5183SOL    HW127182   0.399   3.428  16.334 -1.0308  2.3160  1.0314
 5183SOL    HW227183   0.247   3.450  16.317 -0.7313 -0.2663 -2.0956
 5184SOL     OW27184   1.657   0.760   5.625 -0.6971  0.2644  0.1629
 5184SOL    HW127185   1.738   0.793   5.663  0.9833 -1.8902 -1.6232
 5184SOL    HW227186   1.588   0.780   5.689 -0.5903  0.2440  0.2846
 5185SOL     OW27187   4.101   3.738   3.990 -0.6244 -0.1172 -0.3025
 5185SOL    HW127188   4.060   3.667   4.039 -1.2230  1.4056  1.4335
 5185SOL    HW227189   4.026   3.773   3.942 -0.3967 -0.1469 -0.6740
 5186SOL     OW27190   2.462   3.901   9.793  0.1704  0.0347 -0.2391
 5186SOL    HW127191   2.392   3.963   9.809  0.7600  1.0641 -1.6458
 5186SOL    HW227192   2.471   3.859   9.879 -1.3861  1.1565  0.4507
 5187SOL     OW27193   1.107   3.557   9.224  0.2144 -0.1891 -0.5812
 5187SOL    HW127194   1.147   3.643   9.237 -1.1682  0.5318 -1.0854
 5187SOL    HW227195   1.185   3.501   9.232  0.8517  0.8157  0.2580
 5188SOL     OW27196   3.753   2.540   2.985 -0.1298  0.1131  0.4794
 5188SOL    HW127197   3.676   2.597   2.989 -0.3230 -0.2659  2.0785
 5188SOL    HW227198   3.763   2.517   2.892  1.2349  0.8063  0.4393
 5189SOL     OW27199   3.677   1.361   0.987  0.4390 -0.6979 -0.4361
 5189SOL    HW127200   3.667   1.357   1.082 -0.2378 -0.4176 -0.5011
 5189SOL    HW227201   3.767   1.327   0.981  0.6279 -0.0165 -1.3839
 5190SOL     OW27202   4.409   3.706  11.870  0.6493 -0.0374 -0.5821
 5190SOL    HW127203   4.499   3.734  11.851  0.9266  0.1620  1.0114
 5190SOL    HW227204   4.415   3.689  11.964 -1.5505 -1.6395 -0.7337
 5191SOL     OW27205   0.306   0.731   9.206  0.6217 -0.4620 -0.1470
 5191SOL    HW127206   0.244   0.683   9.152 -1.3291 -1.1401  2.6559
 5191SOL    HW227207   0.349   0.796   9.150 -0.5910  1.2245  0.8549
 5192SOL     OW27208   0.805   2.018   9.079  0.2196 -0.4888 -0.3267
 5192SOL    HW127209   0.814   1.926   9.052 -1.1473 -0.1871 -1.8182
 5192SOL    HW227210   0.819   2.061   8.995  2.2232  0.7911  0.6819
 5193SOL     OW27211   4.666   2.709   7.644  0.0110 -0.3121  0.1605
 5193SOL    HW127212   4.731   2.772   7.613 -2.3857  1.8181 -0.5080
 5193SOL    HW227213   4.585   2.755   7.624 -0.2415  0.3084  2.5713
 5194SOL     OW27214   0.278   4.378  10.738  0.0413  0.1210 -0.5207
 5194SOL    HW127215   0.245   4.389  10.827  0.5060 -1.7166 -0.1201
 5194SOL    HW227216   0.369   4.401  10.759 -0.2186 -0.6180  1.4075
 5195SOL     OW27217   4.612   2.943   7.839  0.4757  0.0212 -0.3227
 5195SOL    HW127218   4.594   2.947   7.933  0.6351  2.2752 -0.3933
 5195SOL    HW227219   4.703   2.911   7.841  0.2094 -0.7270 -0.1846
 5196SOL     OW27220   0.991   2.456   4.487  0.2443 -0.4823 -0.2712
 5196SOL    HW127221   0.993   2.449   4.392  1.1076  0.5068 -0.3220
 5196SOL    HW227222   1.070   2.410   4.514  1.1914 -0.3564 -2.8219
 5197SOL     OW27223   1.712   4.043   1.670 -0.0844  0.2217 -0.6050
 5197SOL    HW127224   1.783   3.998   1.716 -1.5299 -1.0776  0.3807
 5197SOL    HW227225   1.709   3.984   1.595 -1.0828 -0.0859 -0.3289
 5198SOL     OW27226   0.894   2.758   3.563  0.1387 -0.0158 -0.4960
 5198SOL    HW127227   0.816   2.804   3.534  1.1406  0.1329 -3.0193
 5198SOL    HW227228   0.945   2.835   3.588 -1.2449  1.1601 -1.3716
 5199SOL     OW27229   2.586   3.714   4.996  0.0109 -0.5289 -0.4158
 5199SOL    HW127230   2.637   3.653   5.050 -1.2708  0.2923  1.7337
 5199SOL    HW227231   2.492   3.705   5.010 -0.3423  0.4188 -2.2159
 5200SOL     OW27232   2.206   2.149   3.710 -0.1371 -0.2144 -0.0585
 5200SOL    HW127233   2.142   2.078   3.704 -0.7722  0.2169  1.6897
 5200SOL    HW227234   2.170   2.201   3.782 -0.6886 -0.7586  0.0578
 5201SOL     OW27235   2.183   3.611   6.520 -0.4571  0.2029  0.2540
 5201SOL    HW127236   2.154   3.701   6.504  0.2684  0.9043  2.8972
 5201SOL    HW227237   2.149   3.572   6.440  0.3670 -0.4944  0.2439
 5202SOL     OW27238   3.034   3.231  13.329  0.7121  0.2640 -0.3306
 5202SOL    HW127239   3.008   3.194  13.245 -0.8419  1.1012 -0.2171
 5202SOL    HW227240   3.015   3.152  13.381 -0.5287  0.7220 -0.0826
 5203SOL     OW27241   2.260   4.443   0.125 -0.5991  0.2243 -0.9171
 5203SOL    HW127242   2.326   4.423   0.191 -1.1722  1.7653  0.1346
 5203SOL    HW227243   2.238   4.351   0.109  0.9728 -0.6375  1.8532
 5204SOL     OW27244   0.835   0.614  12.477  0.1503 -0.8503 -0.4600
 5204SOL    HW127245   0.748   0.578  12.492 -0.0001  0.6498  2.2107
 5204SOL    HW227246   0.900   0.575  12.536 -1.7537  0.0183  2.1788
 5205SOL     OW27247   3.174   1.007   4.993 -0.6139  0.4987 -0.3900
 5205SOL    HW127248   3.231   0.931   4.982 -0.9669  0.3484 -1.1890
 5205SOL    HW227249   3.105   0.964   5.044  0.4262 -0.0966  0.5143
 5206SOL     OW27250   3.279   1.019  11.191  0.5823  0.0856  0.3529
 5206SOL    HW127251   3.362   1.010  11.144  0.9450 -0.1278  1.0437
 5206SOL    HW227252   3.314   1.001  11.278  1.7852 -1.2630 -0.4138
 5207SOL     OW27253   2.942   2.652  13.057 -0.4323  0.7133  0.3612
 5207SOL    HW127254   2.980   2.565  13.045  0.6109  1.5992 -2.7490
 5207SOL    HW227255   2.902   2.660  12.970 -1.9136 -2.0317  0.8068
 5208SOL     OW27256   4.297   3.386  13.049  0.2301  0.1175 -0.0195
 5208SOL    HW127257   4.341   3.432  13.120 -0.0004  0.0124  0.1909
 5208SOL    HW227258   4.213   3.377  13.095  0.6949 -0.1636  0.7681
 5209SOL     OW27259   4.085   2.881   0.040  0.8383 -0.6006  0.1451
 5209SOL    HW127260   3.999   2.912   0.011  0.9949 -1.0101 -0.7616
 5209SOL    HW227261   4.091   2.790   0.012 -0.5128 -0.9483  0.9802
 5210SOL     OW27262   0.339   1.113   4.769 -0.2098 -0.0336 -0.6611
 5210SOL    HW127263   0.398   1.048   4.731  1.0702  0.6840  0.0871
 5210SOL    HW227264   0.342   1.093   4.863  0.8635 -2.1833 -1.1528
 5211SOL     OW27265   2.851   0.112  16.716  0.2822  0.4424 -0.4845
 5211SOL    HW127266   2.815   0.179  16.659 -0.1494  0.3821 -0.2831
 5211SOL    HW227267   2.910   0.066  16.657  1.5179 -0.4581  1.4255
 5212SOL     OW27268   0.684   2.974   3.401 -0.2171 -0.2498  0.3796
 5212SOL    HW127269   0.620   2.955   3.469 -1.8479  2.2047 -0.4611
 5212SOL    HW227270   0.629   2.951   3.325 -0.3786 -0.2725  0.5038
 5213SOL     OW27271   4.384   2.879   4.608 -0.1893 -0.2048 -0.0347
 5213SOL    HW127272   4.356   2.824   4.535  1.2950  0.6984 -1.2632
 5213SOL    HW227273   4.472   2.840   4.608 -0.2864 -0.3421 -3.9283
 5214SOL     OW27274   2.778   0.916   2.680 -0.3755  0.0533  0.2682
 5214SOL    HW127275   2.838   0.954   2.744 -0.4738 -1.7212  1.4105
 5214SOL    HW227276   2.834   0.841   2.662  1.8266  2.1792 -1.6052
 5215SOL     OW27277   1.389   0.806  14.796  0.1564  0.1853 -0.4762
 5215SOL    HW127278   1.434   0.889  14.780 -1.6102  1.4689  1.2187
 5215SOL    HW227279   1.402   0.753  14.718  0.8668 -0.5303  0.1222
 5216SOL     OW27280   1.871   4.717   7.580  0.4221  0.0747 -0.2714
 5216SOL    HW127281   1.919   4.703   7.662 -0.8668 -2.8485 -0.0256
 5216SOL    HW227282   1.837   4.628   7.573  0.0812  0.2769 -1.1045
 5217SOL     OW27283   1.721   3.317   7.512  0.0801 -0.2755  0.2651
 5217SOL    HW127284   1.763   3.344   7.593  0.6669  2.7538 -1.0465
 5217SOL    HW227285   1.673   3.238   7.538 -1.1468  0.2967 -0.2280
 5218SOL     OW27286   2.137   2.266   2.414 -0.1882 -0.5860  0.2659
 5218SOL    HW127287   2.047   2.262   2.383 -0.6656  1.4732  1.4111
 5218SOL    HW227288   2.147   2.171   2.424  4.6210  0.0997  2.0463
 5219SOL     OW27289   1.366   0.747   6.466  0.0090  0.3142  0.1162
 5219SOL    HW127290   1.335   0.665   6.427 -1.6997  1.0983 -0.1968
 5219SOL    HW227291   1.390   0.790   6.384 -0.2712  2.0761  0.9544
 5220SOL     OW27292   1.696   1.784   5.070  0.3770 -0.7164  0.0928
 5220SOL    HW127293   1.676   1.693   5.046 -0.4153 -0.1794 -1.2847
 5220SOL    HW227294   1.674   1.778   5.163  1.0276  0.6057  0.3304
 5221SOL     OW27295   2.496   3.029   8.628  0.2904  0.2376 -0.2902
 5221SOL    HW127296   2.565   2.963   8.635 -1.4609 -1.2535  2.8334
 5221SOL    HW227297   2.538   3.111   8.654 -1.1550  0.5517  1.0600
 5222SOL     OW27298   1.922   4.208   5.470  0.2181  0.3137 -0.0321
 5222SOL    HW127299   1.834   4.245   5.469 -0.4904 -1.3685 -2.6479
 5222SOL    HW227300   1.982   4.281   5.456 -0.8770  1.5356  1.6979
 5223SOL     OW27301   3.699   2.905   0.777 -0.2043 -0.2527  0.1479
 5223SOL    HW127302   3.790   2.933   0.780 -0.4898  0.7331 -0.6467
 5223SOL    HW227303   3.689   2.856   0.859 -0.3545 -0.2301  0.1435
 5224SOL     OW27304   0.097   0.022   2.923 -0.5697 -0.3570  0.1430
 5224SOL    HW127305   0.112   0.108   2.883 -0.1449 -0.2293  0.5738
 5224SOL    HW227306   0.090   4.695   2.852  2.2147  0.2561 -0.6804
 5225SOL     OW27307   4.681   3.434   7.665  0.2535  0.3953 -0.2419
 5225SOL    HW127308   4.723   3.520   7.674 -1.3739  1.2138 -0.5048
 5225SOL    HW227309   4.602   3.440   7.720  0.9178  1.1765  0.6403
 5226SOL     OW27310   0.561   4.435   6.741 -0.0595 -0.3017  0.2763
 5226SOL    HW127311   0.547   4.502   6.674 -0.9416 -0.7600 -0.0130
 5226SOL    HW227312   0.654   4.417   6.728  0.7820  3.5498  1.1327
 5227SOL     OW27313   0.332   1.467   1.959 -0.3442 -0.4887 -0.0127
 5227SOL    HW127314   0.317   1.413   2.037  0.0532 -0.9888 -0.2839
 5227SOL    HW227315   0.399   1.414   1.917  2.3268  1.3582  1.9347
 5228SOL     OW27316   3.347   1.379   2.103 -0.2323 -0.1571  0.2205
 5228SOL    HW127317   3.409   1.357   2.034 -0.4403  2.1736 -0.7272
 5228SOL    HW227318   3.268   1.398   2.052  0.7015 -1.0027 -1.5551
 5229SOL     OW27319   2.577   2.341  17.741 -0.0051 -0.8133 -0.5527
 5229SOL    HW127320   2.608   2.413   0.050  0.6386  0.0120 -2.0037
 5229SOL    HW227321   2.594   2.267   0.053  0.0987 -0.6425 -0.3631
 5230SOL     OW27322   3.557   0.111   2.809 -0.1402  0.3925 -0.6473
 5230SOL    HW127323   3.609   0.191   2.814  0.5167  0.0740 -2.7294
 5230SOL    HW227324   3.586   0.060   2.733  0.2263  1.9882 -1.5706
 5231SOL     OW27325   4.512   0.441  15.511 -0.3554  0.1444  0.4409
 5231SOL    HW127326   4.574   0.401  15.573  0.0328 -0.0068 -0.0471
 5231SOL    HW227327   4.563   0.435  15.430 -4.4172 -1.1655 -1.9802
 5232SOL     OW27328   4.687   0.545  11.178 -1.3925 -0.4064  0.4274
 5232SOL    HW127329   4.675   0.460  11.220  0.0674 -0.9479 -0.2412
 5232SOL    HW227330   4.691   0.604  11.253 -0.2567  0.3083 -0.1887
 5233SOL     OW27331   0.738   0.302  10.105  0.4899  0.0272  0.4867
 5233SOL    HW127332   0.658   0.335  10.147 -1.3756 -0.9732 -2.2696
 5233SOL    HW227333   0.787   0.254  10.172  1.0127 -0.6299 -0.3745
 5234SOL     OW27334   1.425   0.530  16.138  0.1179  0.0469 -0.2970
 5234SOL    HW127335   1.436   0.551  16.231 -1.0009  1.0684 -0.3961
 5234SOL    HW227336   1.458   0.440  16.139 -0.1846 -0.0583  1.7062
 5235SOL     OW27337   3.777   1.649   5.613  0.6870 -0.1158 -0.5628
 5235SOL    HW127338   3.781   1.554   5.620 -2.6178 -0.0699  1.9870
 5235SOL    HW227339   3.840   1.676   5.680  1.1724 -2.8729  0.0622
 5236SOL     OW27340   2.724   0.339   5.618 -0.2232 -0.2532  0.6488
 5236SOL    HW127341   2.686   0.327   5.531  0.9913  0.4856  0.0104
 5236SOL    HW227342   2.668   0.399   5.667 -0.2007  0.8976 -0.7260
 5237SOL     OW27343   0.281   1.248   7.045  0.2019  0.7001  0.0576
 5237SOL    HW127344   0.311   1.202   7.123  0.2098  0.8296  0.1305
 5237SOL    HW227345   0.366   1.276   7.011 -0.3295  2.0102 -0.1972
 5238SOL     OW27346   2.382   3.024   5.486  0.1947  0.4171 -0.5018
 5238SOL    HW127347   2.393   2.929   5.482  2.4503  0.7075 -1.4248
 5238SOL    HW227348   2.459   3.047   5.434 -0.8448  0.9096 -1.8527
 5239SOL     OW27349   0.191   1.147  16.744  0.5701  0.0557 -0.3228
 5239SOL    HW127350   0.231   1.153  16.658 -0.4929  2.6694 -0.6184
 5239SOL    HW227351   0.131   1.221  16.750  3.0262  1.9778  0.9964
 5240SOL     OW27352   3.875   3.203   7.109 -0.0338  0.6757  0.3421
 5240SOL    HW127353   3.868   3.205   7.013  1.6822 -0.4811  0.1818
 5240SOL    HW227354   3.963   3.170   7.128 -1.4591 -3.6656 -0.5534
 5241SOL     OW27355   3.645   3.149  17.502 -0.1634  0.0989  0.2903
 5241SOL    HW127356   3.680   3.064  17.475  1.4510  1.2843 -1.3952
 5241SOL    HW227357   3.710   3.207  17.462  1.0344  0.2938  2.5248
 5242SOL     OW27358   2.213   4.227   3.897 -0.2325  0.2306 -0.0259
 5242SOL    HW127359   2.269   4.298   3.865 -1.1100  0.4382 -1.1014
 5242SOL    HW227360   2.276   4.157   3.916 -1.5952 -1.3719 -1.3126
 5243SOL     OW27361   3.874   2.252   7.344  0.7261  0.0514  0.1862
 5243SOL    HW127362   3.956   2.300   7.358 -0.2289  2.3606 -2.1558
 5243SOL    HW227363   3.820   2.326   7.316  0.0626 -0.3156  0.5016
 5244SOL     OW27364   0.820   0.624  16.740  0.2439 -0.4081 -0.0976
 5244SOL    HW127365   0.880   0.563  16.697  0.0062  0.4001 -1.5569
 5244SOL    HW227366   0.835   0.708  16.696 -0.2883 -0.4621 -0.3851
 5245SOL     OW27367   0.197   1.070  11.912 -0.5637  0.0343 -0.0320
 5245SOL    HW127368   0.118   1.071  11.858  0.6509  0.7267 -1.7832
 5245SOL    HW227369   0.261   1.106  11.851 -0.1217 -0.2301  0.2791
 5246SOL     OW27370   4.161   3.077  16.419  0.6826 -0.2380 -0.8741
 5246SOL    HW127371   4.210   3.153  16.387  0.7404 -0.2704 -0.8627
 5246SOL    HW227372   4.186   3.079  16.512 -1.0076 -0.0702 -0.4233
 5247SOL     OW27373   0.114   1.077   1.556  0.0267  0.6178 -0.1660
 5247SOL    HW127374   0.029   1.046   1.525 -0.0321  0.9030 -0.2900
 5247SOL    HW227375   0.098   1.076   1.651  1.5245 -2.5404  0.0344
 5248SOL     OW27376   2.053   2.457   6.922  0.1287 -0.0227 -0.0470
 5248SOL    HW127377   2.088   2.372   6.898  0.0691  0.6401 -2.4744
 5248SOL    HW227378   2.086   2.527   6.865 -0.3495 -0.9666 -1.4949
 5249SOL     OW27379   4.488   2.340   7.712 -0.4461  0.5593  0.2170
 5249SOL    HW127380   4.445   2.425   7.703 -1.2747  0.4787  3.5775
 5249SOL    HW227381   4.570   2.363   7.668  0.1605 -3.4220 -0.8146
 5250SOL     OW27382   1.338   0.795   9.998 -0.8386 -0.0465  0.1978
 5250SOL    HW127383   1.263   0.814   9.942  0.9968 -0.6936 -2.4606
 5250SOL    HW227384   1.392   0.758   9.929  0.9316 -0.6470  1.8835
 5251SOL     OW27385   3.687   2.878   2.327 -0.4122  0.1281  0.9565
 5251SOL    HW127386   3.750   2.905   2.394  0.5784 -1.6307  0.7473
 5251SOL    HW227387   3.731   2.797   2.301 -0.7003  1.1119 -2.6982
 5252SOL     OW27388   1.199   0.654   4.999  0.0026 -0.2213 -0.0105
 5252SOL    HW127389   1.273   0.603   4.964  0.4449 -0.0457  0.6782
 5252SOL    HW227390   1.135   0.619   4.937 -2.8872  1.6317  1.9722
 5253SOL     OW27391   1.388   4.462  10.203  0.4946 -0.1277 -0.6712
 5253SOL    HW127392   1.384   4.544  10.152 -0.3788  1.5126  2.0252
 5253SOL    HW227393   1.425   4.490  10.287 -1.1186  1.9901 -0.6563
 5254SOL     OW27394   4.231   3.127   6.443  0.8902  0.6864 -0.0178
 5254SOL    HW127395   4.317   3.084   6.444  0.3017 -0.5017 -0.7881
 5254SOL    HW227396   4.219   3.155   6.534  0.7747  0.8887 -0.0952
 5255SOL     OW27397   3.893   2.573   6.445  0.2383  0.1891  0.2989
 5255SOL    HW127398   3.818   2.629   6.427  0.6644  1.0936  1.3080
 5255SOL    HW227399   3.859   2.511   6.508  0.5884  1.3757  1.6534
 5256SOL     OW27400   1.232   0.106   9.657 -0.1151 -0.8392  0.2387
 5256SOL    HW127401   1.166   0.161   9.699  0.3400 -0.8343  0.9425
 5256SOL    HW227402   1.250   0.152   9.575 -0.0828  0.0326  0.7334
 5257SOL     OW27403   1.251   3.085  13.821  0.1469 -0.8465  0.5538
 5257SOL    HW127404   1.313   3.014  13.807 -0.0538 -1.3698  2.2520
 5257SOL    HW227405   1.238   3.090  13.916 -1.7865 -2.4472  0.3613
 5258SOL     OW27406   2.861   3.785   6.959  0.0659 -0.1757  0.0705
 5258SOL    HW127407   2.912   3.707   6.978 -0.3001 -0.2395  0.7797
 5258SOL    HW227408   2.784   3.774   7.014 -0.3347 -1.8073 -0.8120
 5259SOL     OW27409   4.400   3.223   5.844 -0.0466  0.2492  0.3761
 5259SOL    HW127410   4.410   3.316   5.860  2.3819  0.1107 -0.4140
 5259SOL    HW227411   4.318   3.224   5.794 -0.0046 -1.7211  0.2731
 5260SOL     OW27412   1.257   1.002   6.613  0.1250 -0.6602 -0.1505
 5260SOL    HW127413   1.193   0.931   6.603 -0.8229 -0.1962  2.6797
 5260SOL    HW227414   1.322   0.980   6.546 -0.4485  1.7200 -1.4616
 5261SOL     OW27415   2.133   1.576  12.022 -0.1529  0.1941  0.7721
 5261SOL    HW127416   2.100   1.661  12.051  0.1174  0.3819  0.5307
 5261SOL    HW227417   2.063   1.523  12.058 -0.9719  0.9140  0.2500
 5262SOL     OW27418   2.689   4.729  15.288 -0.8444 -0.3572 -0.0811
 5262SOL    HW127419   2.664   4.636  15.291 -0.2127 -0.5175  0.1640
 5262SOL    HW227420   2.753   4.731  15.358 -1.1709  0.3460  0.1981
 5263SOL     OW27421   0.042   0.775   9.033  0.2282 -0.0247 -0.7764
 5263SOL    HW127422   0.008   0.861   9.009 -0.9865 -0.0592  0.8514
 5263SOL    HW227423   4.709   0.757   9.096  0.4070 -0.9711 -0.8371
 5264SOL     OW27424   2.925   2.848   2.570 -0.2902  0.3367 -0.6491
 5264SOL    HW127425   2.894   2.858   2.660  1.0872  1.6414 -0.3242
 5264SOL    HW227426   2.858   2.787   2.541 -0.6077  1.1076 -1.5633
 5265SOL     OW27427   3.885   3.784   3.824  0.1807 -0.0957  0.4378
 5265SOL    HW127428   3.831   3.802   3.902 -0.0829  0.9506  0.0244
 5265SOL    HW227429   3.842   3.848   3.767 -0.3579  0.7461  1.7685
 5266SOL     OW27430   0.784   4.666   2.408  0.1515  0.0878  0.7986
 5266SOL    HW127431   0.878   4.669   2.393  0.4486 -1.5681  2.2353
 5266SOL    HW227432   0.778   4.623   2.494 -1.9087 -0.0197  0.6138
 5267SOL     OW27433   4.530   3.960   6.752 -0.6438  0.2613  0.1752
 5267SOL    HW127434   4.468   3.998   6.814 -1.2117  0.2600 -0.3865
 5267SOL    HW227435   4.533   3.869   6.782  0.3561  0.5972  1.1072
 5268SOL     OW27436   3.859   1.462  12.564 -0.0600  0.7173  0.9235
 5268SOL    HW127437   3.920   1.534  12.548 -0.5016  0.7648 -0.6107
 5268SOL    HW227438   3.883   1.394  12.501 -3.6069  0.7607 -0.4681
 5269SOL     OW27439   0.230   2.623   9.903 -0.2720 -0.6398  0.1038
 5269SOL    HW127440   0.317   2.644   9.937 -0.1956 -0.4650 -0.2001
 5269SOL    HW227441   0.252   2.530   9.896 -0.1496 -0.5412 -0.7724
 5270SOL     OW27442   3.628   2.507  13.154  0.0616  0.3540  0.4506
 5270SOL    HW127443   3.612   2.599  13.175  0.6010  0.7817 -1.0117
 5270SOL    HW227444   3.540   2.476  13.132  0.6546 -0.1396 -1.2779
 5271SOL     OW27445   2.976   2.730   8.550  0.0226 -0.2855 -0.5969
 5271SOL    HW127446   3.009   2.740   8.639  0.7241  1.3808 -1.0329
 5271SOL    HW227447   2.886   2.709   8.570 -0.3725  0.6430 -1.3467
 5272SOL     OW27448   4.592   3.228   5.626 -0.4694  0.5910  0.4443
 5272SOL    HW127449   4.596   3.143   5.583 -1.3218  1.7193 -1.8981
 5272SOL    HW227450   4.527   3.204   5.692 -1.5222  0.9784 -0.4495
 5273SOL     OW27451   2.850   1.824   7.905  0.2514 -0.8731  0.3314
 5273SOL    HW127452   2.922   1.830   7.967 -0.2388 -0.5447  0.8777
 5273SOL    HW227453   2.779   1.873   7.947  2.4189  0.3568  2.5235
 5274SOL     OW27454   0.772   1.479   5.627  0.2901 -0.2978  0.0205
 5274SOL    HW127455   0.689   1.459   5.584 -0.5415 -1.5462  2.1783
 5274SOL    HW227456   0.736   1.494   5.715 -1.1043  0.8534 -0.7450
 5275SOL     OW27457   3.328   1.848  14.409 -0.3105 -0.2328  0.1527
 5275SOL    HW127458   3.375   1.784  14.355  1.2544 -0.1771  1.4396
 5275SOL    HW227459   3.329   1.806  14.496  1.9384 -0.0452  0.2122
 5276SOL     OW27460   2.964   2.737   1.408 -0.1229  0.6720 -0.5423
 5276SOL    HW127461   3.013   2.696   1.336  0.3748  1.1734 -0.4874
 5276SOL    HW227462   2.966   2.827   1.378  0.3054  0.8619  0.0678
 5277SOL     OW27463   1.421   3.061   5.796 -0.5049 -0.2637 -0.1066
 5277SOL    HW127464   1.481   3.103   5.857  0.3804  1.6031 -2.2718
 5277SOL    HW227465   1.344   3.040   5.850 -0.2331 -2.0260 -0.3998
 5278SOL     OW27466   2.165   0.903   2.785 -0.1317 -0.4148 -0.1026
 5278SOL    HW127467   2.186   0.861   2.702 -1.0065  0.0076 -0.5343
 5278SOL    HW227468   2.122   0.984   2.757 -1.1903 -0.7151  0.6207
 5279SOL     OW27469   0.940   1.273  15.249 -0.4215  0.4034 -0.2799
 5279SOL    HW127470   0.948   1.258  15.155  1.5731  0.8516 -0.1831
 5279SOL    HW227471   0.863   1.221  15.269  0.4832 -1.7986 -2.4923
 5280SOL     OW27472   1.359   0.192  11.541 -0.1734  0.3114  0.4097
 5280SOL    HW127473   1.406   0.258  11.490 -1.7691 -0.6387 -2.3026
 5280SOL    HW227474   1.427   0.128  11.564  0.4864  0.3607 -1.4092
 5281SOL     OW27475   0.913   2.248   3.628 -0.2546  0.2879 -0.2484
 5281SOL    HW127476   0.862   2.176   3.592  1.1584 -1.0352  0.3939
 5281SOL    HW227477   0.873   2.328   3.593  1.2871  0.6552 -1.1970
 5282SOL     OW27478   0.613   0.419  15.382  0.4781 -0.4465 -0.1594
 5282SOL    HW127479   0.698   0.397  15.421  0.7092 -1.9940 -1.5153
 5282SOL    HW227480   0.607   0.512  15.402  1.6510 -0.6581  1.1888
 5283SOL     OW27481   4.713   2.457   5.905 -0.1569  0.1518 -0.5998
 5283SOL    HW127482   0.047   2.432   5.964 -0.0606 -1.3989 -1.3889
 5283SOL    HW227483   4.651   2.385   5.913 -1.2790  1.4246  2.1187
 5284SOL     OW27484   1.517   3.589   2.807  0.1558 -0.3584  0.2183
 5284SOL    HW127485   1.535   3.651   2.878  0.0871 -2.2425  1.8850
 5284SOL    HW227486   1.602   3.545   2.807  0.1555 -0.3589 -2.1111
 5285SOL     OW27487   2.809   2.159   7.601  0.2204  0.4821 -0.5365
 5285SOL    HW127488   2.845   2.217   7.668  1.3441  0.6350 -1.2885
 5285SOL    HW227489   2.847   2.074   7.622 -0.3765  0.3002 -0.1969
 5286SOL     OW27490   1.851   0.271   7.694  0.0146 -0.2325 -0.2877
 5286SOL    HW127491   1.815   0.182   7.692 -0.1715 -0.2027  2.1026
 5286SOL    HW227492   1.919   0.261   7.627  2.3510 -1.6571  2.3281
 5287SOL     OW27493   1.366   2.457   7.864 -0.7024  0.3876 -0.7691
 5287SOL    HW127494   1.385   2.541   7.822  0.1587  1.3856  1.5667
 5287SOL    HW227495   1.271   2.457   7.876 -0.3494  1.0943  2.0338
 5288SOL     OW27496   1.099   2.849   7.727  0.3848 -0.2235 -0.4874
 5288SOL    HW127497   1.036   2.896   7.783  0.8178  1.5524 -1.4843
 5288SOL    HW227498   1.053   2.816   7.650 -1.5147  2.0486 -0.3400
 5289SOL     OW27499   0.449   0.977   2.135 -0.7649  0.2112 -0.0496
 5289SOL    HW127500   0.448   0.924   2.055  2.0917 -0.3895  0.2819
 5289SOL    HW227501   0.370   0.954   2.183 -0.1986  0.9194  1.2429
 5290SOL     OW27502   4.712   4.065   7.853  0.0490  0.3048 -0.3850
 5290SOL    HW127503   0.036   4.067   7.926  2.4530 -1.5750 -2.3392
 5290SOL    HW227504   0.019   4.001   7.797  2.2094 -0.6781  2.4575
 5291SOL     OW27505   3.048   0.744  15.066  0.3841 -0.5073  0.0678
 5291SOL    HW127506   3.061   0.698  14.983 -1.8893 -0.6597 -0.2114
 5291SOL    HW227507   2.972   0.794  15.035  1.5153  2.3271  1.8856
 5292SOL     OW27508   2.288   1.309   1.795  0.2862 -0.7017  0.2840
 5292SOL    HW127509   2.340   1.306   1.715  1.0386 -2.4655  0.8535
 5292SOL    HW227510   2.353   1.311   1.864 -1.4148 -1.6876  1.9170
 5293SOL     OW27511   4.421   1.324   9.672  0.1320  0.0521 -0.3475
 5293SOL    HW127512   4.394   1.416   9.667  0.6613  0.2379  0.2571
 5293SOL    HW227513   4.509   1.332   9.635  1.5354 -0.2689  2.9545
 5294SOL     OW27514   1.103   0.844   9.835 -0.1402  0.2915 -0.4877
 5294SOL    HW127515   1.070   0.898   9.906  0.0583 -1.5070  0.9561
 5294SOL    HW227516   1.031   0.781   9.828  0.9089 -0.9776  0.1704
 5295SOL     OW27517   0.326   0.587   0.033 -0.1653 -0.9173  0.6808
 5295SOL    HW127518   0.261   0.518   0.050 -1.0309 -0.2782 -0.0426
 5295SOL    HW227519   0.382   0.570   0.109  1.4979  0.8952 -0.1340
 5296SOL     OW27520   1.616   0.217   1.215  0.6291 -0.3034 -0.0730
 5296SOL    HW127521   1.629   0.223   1.310 -0.8247 -1.9010  0.2270
 5296SOL    HW227522   1.532   0.262   1.210  0.8318 -0.0432 -1.0651
 5297SOL     OW27523   2.630   2.827  13.532  0.3603 -0.3185  0.4473
 5297SOL    HW127524   2.627   2.923  13.530 -1.8590 -0.4382 -3.1110
 5297SOL    HW227525   2.607   2.811  13.440 -0.9930 -0.2289  0.7660
 5298SOL     OW27526   3.609   3.114   7.534 -0.4692 -0.3458 -0.0551
 5298SOL    HW127527   3.642   3.026   7.513 -1.3093 -0.9791  1.2454
 5298SOL    HW227528   3.625   3.156   7.450 -0.0224 -0.1428  0.1290
 5299SOL     OW27529   2.166   0.250   1.511 -0.4236 -0.0540  0.4837
 5299SOL    HW127530   2.193   0.175   1.564 -1.8535 -1.0553 -0.2188
 5299SOL    HW227531   2.178   0.224   1.419 -4.4351 -2.6018  0.6986
 5300SOL     OW27532   2.146   4.597   6.840  0.3980  0.0651 -0.0581
 5300SOL    HW127533   2.088   4.589   6.916 -0.2471 -1.0983 -0.6640
 5300SOL    HW227534   2.079   4.627   6.779  1.7411  2.5760 -0.2714
 5301SOL     OW27535   3.428   0.600   4.685  0.5903  0.6229 -0.6647
 5301SOL    HW127536   3.520   0.580   4.706  0.5993  1.8251  0.4459
 5301SOL    HW227537   3.413   0.542   4.610 -2.1261 -2.5136  2.3219
 5302SOL     OW27538   2.357   3.491   8.076 -0.4415 -0.0045 -0.5960
 5302SOL    HW127539   2.333   3.437   8.001 -1.6961 -1.0056  0.5393
 5302SOL    HW227540   2.273   3.512   8.118 -1.9327 -1.0884 -3.0729
 5303SOL     OW27541   1.742   4.693   8.340  0.4381  0.2587 -0.2585
 5303SOL    HW127542   1.660   0.004   8.339 -0.4947 -1.3799 -2.8531
 5303SOL    HW227543   1.761   4.690   8.246  0.7619  1.5775 -0.2258
 5304SOL     OW27544   0.877   4.692  17.512 -0.3701 -0.2243  0.0859
 5304SOL    HW127545   0.934   4.728  17.579  0.7422 -1.4931 -0.1719
 5304SOL    HW227546   0.907   0.009  17.439 -0.4322 -1.0987 -0.5895
 5305SOL     OW27547   3.859   1.544   3.831  0.2923 -0.1752 -0.1620
 5305SOL    HW127548   3.937   1.547   3.887 -0.0095 -0.7986  0.2867
 5305SOL    HW227549   3.859   1.635   3.799  0.8908  0.4948  1.7399
 5306SOL     OW27550   1.690   0.876   2.922 -0.4657 -0.2109  0.0361
 5306SOL    HW127551   1.784   0.877   2.938 -0.6499 -0.7729  1.1673
 5306SOL    HW227552   1.694   0.790   2.880  0.5531 -0.3200  0.3578
 5307SOL     OW27553   1.543   4.237   3.253  0.3782  0.7532 -0.2790
 5307SOL    HW127554   1.603   4.272   3.319  1.2703 -0.4822 -0.4490
 5307SOL    HW227555   1.607   4.199   3.193 -0.4716 -2.8048  1.0839
 5308SOL     OW27556   3.231   3.566   6.624  0.3943 -0.4140 -0.2592
 5308SOL    HW127557   3.269   3.553   6.538 -1.9724 -2.3501 -0.9990
 5308SOL    HW227558   3.171   3.638   6.606 -0.8221 -1.2785  0.3174
 5309SOL     OW27559   1.188   4.341   7.549  0.1789  0.0999  0.9746
 5309SOL    HW127560   1.235   4.382   7.476 -0.0119  1.0178  1.3628
 5309SOL    HW227561   1.145   4.265   7.511  2.9073 -0.5077 -0.9273
 5310SOL     OW27562   0.454   2.271   3.119 -0.9764 -0.2998 -0.6520
 5310SOL    HW127563   0.542   2.254   3.083  0.1320  1.2068  1.3223
 5310SOL    HW227564   0.438   2.362   3.095 -1.0029 -0.4399 -1.1683
 5311SOL     OW27565   2.809   1.992  15.889 -0.0447  0.6366  0.0210
 5311SOL    HW127566   2.805   2.052  15.814 -2.2494 -1.0736 -1.2440
 5311SOL    HW227567   2.781   2.041  15.966 -1.8238 -2.5617  1.3597
 5312SOL     OW27568   2.682   3.075   1.278 -0.4949  0.0227  0.0005
 5312SOL    HW127569   2.757   3.099   1.332  0.0047 -0.3842 -0.5158
 5312SOL    HW227570   2.623   3.129   1.331 -0.0143  0.7896 -0.2495
 5313SOL     OW27571   1.733   1.145   5.820 -0.5554  0.4224  0.4670
 5313SOL    HW127572   1.802   1.104   5.872 -0.1229  1.0091  0.3507
 5313SOL    HW227573   1.701   1.199   5.893  2.2456  1.6492  0.7985
 5314SOL     OW27574   2.067   4.401   4.671 -0.0893  0.0245  0.5424
 5314SOL    HW127575   1.979   4.435   4.688 -0.7911 -1.4028 -0.3119
 5314SOL    HW227576   2.075   4.356   4.755 -0.3244 -1.7647 -0.4050
 5315SOL     OW27577   2.830   1.486   4.040  0.0049 -0.1343 -0.1358
 5315SOL    HW127578   2.911   1.440   4.018 -0.2166  0.5178 -2.3591
 5315SOL    HW227579   2.799   1.529   3.961 -0.7179 -1.7503 -0.7334
 5316SOL     OW27580   0.575   3.455   8.799  0.1295 -0.5678  0.6277
 5316SOL    HW127581   0.505   3.479   8.859  0.4482  0.8518  0.4451
 5316SOL    HW227582   0.633   3.530   8.784 -1.6710  0.8136  0.6066
 5317SOL     OW27583   2.070   0.454   3.837 -0.0223 -0.0943 -0.4162
 5317SOL    HW127584   2.087   0.404   3.917 -0.2782  0.8389  0.2162
 5317SOL    HW227585   2.007   0.522   3.861  0.5011  0.0378  0.6096
 5318SOL     OW27586   1.331   1.920  11.563 -0.5795 -0.6214 -0.0136
 5318SOL    HW127587   1.395   1.860  11.601 -2.0597 -1.1288  1.6863
 5318SOL    HW227588   1.392   1.990  11.538 -0.5250 -0.2895  1.0617
 5319SOL     OW27589   3.353   3.533   2.239 -0.2287  0.1145 -0.2676
 5319SOL    HW127590   3.292   3.483   2.292  3.1477 -0.8782  2.6713
 5319SOL    HW227591   3.406   3.581   2.303 -1.6707  1.1359  0.1687
 5320SOL     OW27592   2.979   2.989   5.890 -0.0705 -0.3135  0.1612
 5320SOL    HW127593   2.911   2.930   5.923 -0.4924  0.1592  0.1318
 5320SOL    HW227594   3.058   2.953   5.929  2.4646  2.0982 -2.7822
 5321SOL     OW27595   0.755   2.441  12.522 -0.7658  0.4516 -0.0294
 5321SOL    HW127596   0.840   2.485  12.529 -0.3955 -0.3009  0.2343
 5321SOL    HW227597   0.697   2.517  12.526  1.1449  1.9828 -0.8896
 5322SOL     OW27598   1.588   2.688  13.620 -0.7515 -0.1321 -0.4885
 5322SOL    HW127599   1.650   2.748  13.661  0.2258  0.1832 -2.4600
 5322SOL    HW227600   1.646   2.620  13.586 -0.4052  1.0152 -2.1684
 5323SOL     OW27601   0.512   3.397   2.846  0.1539  0.3882  0.1503
 5323SOL    HW127602   0.438   3.457   2.853  1.0516  1.6763 -1.3808
 5323SOL    HW227603   0.588   3.450   2.824  0.6266 -1.1594 -1.9677
 5324SOL     OW27604   2.957   1.751   4.316 -0.7909  0.4779  0.1914
 5324SOL    HW127605   2.943   1.825   4.375  1.6053 -0.0063  1.3918
 5324SOL    HW227606   3.051   1.770   4.313 -0.5964 -1.0399 -2.8474
 5325SOL     OW27607   2.739   1.398   4.810 -0.2403  0.1858 -0.0712
 5325SOL    HW127608   2.648   1.418   4.829 -0.2718  3.0778 -3.2274
 5325SOL    HW227609   2.752   1.450   4.731  0.0944 -0.5722 -0.5281
 5326SOL     OW27610   3.794   4.161   9.286 -0.3005 -0.0446  0.0452
 5326SOL    HW127611   3.742   4.098   9.236  1.1652 -1.8372  0.7898
 5326SOL    HW227612   3.770   4.238   9.235 -2.0903  0.2682  1.3627
 5327SOL     OW27613   2.511   1.889   3.149  0.6675 -0.3181 -0.4172
 5327SOL    HW127614   2.576   1.921   3.212  0.0034  1.2032 -0.5056
 5327SOL    HW227615   2.505   1.796   3.170 -0.7377  0.1779  1.2897
 5328SOL     OW27616   2.678   0.705   0.927 -0.2796  0.1029 -0.3703
 5328SOL    HW127617   2.769   0.695   0.897 -0.2659  0.0830 -0.3220
 5328SOL    HW227618   2.636   0.761   0.861  0.0387  1.2082  0.3642
 5329SOL     OW27619   0.468   4.549  14.934 -0.2118  0.2231  0.4574
 5329SOL    HW127620   0.520   4.485  14.982 -1.0225 -0.7572  0.0182
 5329SOL    HW227621   0.496   4.629  14.979 -0.5738  0.0750  0.9516
 5330SOL     OW27622   2.505   1.895   8.429 -0.5520 -0.1853 -0.2182
 5330SOL    HW127623   2.463   1.895   8.343 -1.2304 -2.2464  0.1093
 5330SOL    HW227624   2.547   1.809   8.434 -0.3197 -0.0629 -0.0258
 5331SOL     OW27625   3.113   2.904  12.826  0.1404 -0.6836  0.0537
 5331SOL    HW127626   3.082   2.833  12.882  1.9403 -1.3922  0.1507
 5331SOL    HW227627   3.155   2.961  12.889  0.5725  0.0104 -0.8729
 5332SOL     OW27628   1.626   2.963   7.313  0.0182 -0.2070 -0.1677
 5332SOL    HW127629   1.565   2.889   7.312 -2.7028  2.0393 -1.6689
 5332SOL    HW227630   1.610   3.013   7.394  0.5664  0.3027 -0.3811
 5333SOL     OW27631   0.148   0.078   8.541  0.0967  0.1503 -0.2570
 5333SOL    HW127632   0.066   0.059   8.496  0.9203 -0.5061 -1.4935
 5333SOL    HW227633   0.200   0.138   8.488  1.0787 -0.8445 -0.4170
 5334SOL     OW27634   1.303   1.162   9.432  0.2336  0.1477  0.1488
 5334SOL    HW127635   1.213   1.171   9.465  0.5549  0.8118  0.8384
 5334SOL    HW227636   1.335   1.119   9.511  0.2219 -1.3989 -0.6893
 5335SOL     OW27637   4.697   3.332   3.179  0.2613  0.4601  0.4736
 5335SOL    HW127638   4.731   3.369   3.097  1.5741 -1.4023  0.1636
 5335SOL    HW227639   0.022   3.380   3.234  0.1323 -0.4449  1.4075
 5336SOL     OW27640   4.668   0.586   2.202  0.5236  0.5705  0.3815
 5336SOL    HW127641   4.672   0.654   2.136  1.2273  1.2234  1.0916
 5336SOL    HW227642   4.620   0.634   2.269  1.1674  0.6288  0.8056
 5337SOL     OW27643   1.394   4.024   4.366 -0.1366 -0.1140  0.2987
 5337SOL    HW127644   1.439   4.023   4.450 -0.6211  0.0567  0.5612
 5337SOL    HW227645   1.378   4.117   4.351  0.8144 -0.0740 -0.4932
 5338SOL     OW27646   1.762   0.396  11.295 -0.0549  0.0018 -0.2023
 5338SOL    HW127647   1.764   0.313  11.247 -0.6449 -0.4883  0.6097
 5338SOL    HW227648   1.793   0.459  11.230  2.8788 -1.0493  0.1996
 5339SOL     OW27649   1.109   4.141   2.382  0.6222 -0.2422  0.0519
 5339SOL    HW127650   1.085   4.050   2.403 -0.7486  0.3527  1.1416
 5339SOL    HW227651   1.102   4.136   2.287 -2.1512  1.0932  0.1808
 5340SOL     OW27652   4.543   4.195   6.248 -0.2621  0.2920 -0.2920
 5340SOL    HW127653   4.530   4.101   6.246  0.6998  0.0961  2.7226
 5340SOL    HW227654   4.630   4.201   6.288 -0.9265 -1.8359  1.4932
 5341SOL     OW27655   2.146   3.451   7.467 -0.1098 -1.0173 -1.0453
 5341SOL    HW127656   2.239   3.447   7.493 -0.1149 -2.8138 -1.3230
 5341SOL    HW227657   2.150   3.461   7.372 -2.1521 -0.0983 -1.0221
 5342SOL     OW27658   0.421   2.612   6.800  0.0775  0.3176  0.5666
 5342SOL    HW127659   0.383   2.573   6.722 -0.4135 -0.3742  1.1498
 5342SOL    HW227660   0.355   2.672   6.835 -0.5608  0.0030 -0.1050
 5343SOL     OW27661   4.692   2.264  13.804  0.0251  0.5035  0.1346
 5343SOL    HW127662   4.651   2.240  13.888 -0.4108  0.4002 -0.1062
 5343SOL    HW227663   0.049   2.252  13.817  0.1298  0.4746 -0.6286
 5344SOL     OW27664   3.297   0.319   7.532 -0.0082  0.0952  0.3744
 5344SOL    HW127665   3.313   0.268   7.612 -2.2751 -0.8303  0.2326
 5344SOL    HW227666   3.327   0.259   7.464  0.0645  0.3593  0.1755
 5345SOL     OW27667   4.399   3.889   7.642  0.2246 -0.5269  0.1372
 5345SOL    HW127668   4.444   3.961   7.598  1.2579 -1.1467  0.1832
 5345SOL    HW227669   4.326   3.941   7.676  0.7280 -0.0993  0.5643
 5346SOL     OW27670   4.206   2.392   0.545  0.0592 -0.4907 -0.6130
 5346SOL    HW127671   4.267   2.453   0.503  0.4007 -1.6879 -1.8427
 5346SOL    HW227672   4.266   2.335   0.593 -1.6849 -1.7064  0.1370
 5347SOL     OW27673   2.811   4.563   3.681 -0.2949 -0.7412 -0.5918
 5347SOL    HW127674   2.724   4.570   3.721 -0.9880  0.3203 -2.2799
 5347SOL    HW227675   2.789   4.590   3.592 -0.8993 -0.0111 -0.2194
 5348SOL     OW27676   3.444   1.086   6.607 -0.5722  0.2838  0.1083
 5348SOL    HW127677   3.539   1.078   6.616 -0.9444 -2.3636  1.6562
 5348SOL    HW227678   3.436   1.172   6.566  1.9595  0.2438 -0.4768
 5349SOL     OW27679   2.190   1.435   6.737  0.6887 -0.2849 -0.0398
 5349SOL    HW127680   2.100   1.406   6.721  1.1207 -0.6981 -1.7287
 5349SOL    HW227681   2.197   1.525   6.706  0.0971  0.2337  1.3669
 5350SOL     OW27682   0.700   1.089  11.644  0.5072 -0.0850  0.0693
 5350SOL    HW127683   0.788   1.105  11.610 -0.5299  0.0737 -2.5590
 5350SOL    HW227684   0.704   0.999  11.677 -0.0297 -0.1259  0.0198
 5351SOL     OW27685   2.439   3.458   2.996  0.5078  0.3933  0.3231
 5351SOL    HW127686   2.376   3.394   2.961  3.2357 -1.6068 -0.9095
 5351SOL    HW227687   2.400   3.509   3.067  1.2894  1.8878 -0.3344
 5352SOL     OW27688   2.983   0.903   8.475  0.1625  0.2288 -0.1087
 5352SOL    HW127689   2.899   0.939   8.448  0.6170  0.4882 -1.1757
 5352SOL    HW227690   3.023   0.890   8.389 -0.2502  1.0827 -0.4303
 5353SOL     OW27691   3.353   1.976   3.828  0.7998 -0.7092 -0.1626
 5353SOL    HW127692   3.408   1.899   3.812  1.1467 -0.7647  1.3449
 5353SOL    HW227693   3.305   1.980   3.746 -0.1368  0.4610  0.4535
 5354SOL     OW27694   3.352   3.066   6.134  0.0037  0.2466 -0.1976
 5354SOL    HW127695   3.289   3.131   6.165  1.4883  0.0326  3.1802
 5354SOL    HW227696   3.428   3.123   6.122  0.8207 -1.3201 -2.5899
 5355SOL     OW27697   1.247   1.119   5.872  0.2258 -0.0307  0.2498
 5355SOL    HW127698   1.226   1.044   5.816 -1.0015  0.1163  0.5196
 5355SOL    HW227699   1.272   1.181   5.804 -1.1431  0.6243  0.3552
 5356SOL     OW27700   2.581   0.773   7.694 -0.7512 -0.2825  0.3069
 5356SOL    HW127701   2.640   0.721   7.747  1.7907  0.7658 -1.5064
 5356SOL    HW227702   2.534   0.807   7.771  0.5661 -2.4170  2.0315
 5357SOL     OW27703   1.392   0.860   6.098 -0.2675 -0.2749  0.1949
 5357SOL    HW127704   1.300   0.879   6.119 -0.4003  0.8727 -1.4072
 5357SOL    HW227705   1.442   0.860   6.179 -1.5937  0.5316  1.0176
 5358SOL     OW27706   1.752   2.218   8.096  0.2421 -0.4335  0.1412
 5358SOL    HW127707   1.669   2.266   8.103 -1.3990 -2.9341 -2.1142
 5358SOL    HW227708   1.817   2.287   8.109 -0.2971  0.0227  0.4272
 5359SOL     OW27709   1.455   1.867   6.950  0.5324  0.5659  0.4061
 5359SOL    HW127710   1.450   1.772   6.937  1.6790  0.3146  1.7309
 5359SOL    HW227711   1.506   1.891   6.873 -1.8936  2.0483 -0.7292
 5360SOL     OW27712   3.887   2.015  11.109 -0.0174 -0.2940  0.0964
 5360SOL    HW127713   3.848   2.000  11.195  1.4115  1.4935  1.0438
 5360SOL    HW227714   3.864   2.105  11.086 -2.3841 -1.0229 -0.3939
 5361SOL     OW27715   3.231   1.715   7.506 -0.1314 -0.1173  0.1067
 5361SOL    HW127716   3.317   1.711   7.464 -0.2018 -1.4031  0.0867
 5361SOL    HW227717   3.195   1.797   7.471  1.3925 -0.6843 -2.7450
 5362SOL     OW27718   1.727   3.006  15.931 -0.2233  0.2548  0.5049
 5362SOL    HW127719   1.760   3.096  15.930  0.7027 -0.0972 -0.3077
 5362SOL    HW227720   1.744   2.988  15.838  0.3604  0.9385  0.4774
 5363SOL     OW27721   3.587   4.644   4.399 -0.0917 -0.3537  0.2251
 5363SOL    HW127722   3.553   4.720   4.352 -0.6363 -1.4349 -1.1519
 5363SOL    HW227723   3.505   4.599   4.422 -0.4210 -0.5228 -1.2780
 5364SOL     OW27724   4.095   2.687   2.300  0.2499  0.3926  0.2059
 5364SOL    HW127725   4.088   2.660   2.209  1.1385 -2.4523  0.9819
 5364SOL    HW227726   4.162   2.628   2.336  0.5396  0.6777  0.1398
 5365SOL     OW27727   2.895   1.629   3.703  0.3165  0.2825  0.4892
 5365SOL    HW127728   2.925   1.714   3.734 -0.3421  0.2567  1.2031
 5365SOL    HW227729   2.982   1.591   3.707  0.8918  1.4918 -0.4269
 5366SOL     OW27730   1.079   4.401   4.201 -0.6784  0.0911 -0.1707
 5366SOL    HW127731   1.056   4.434   4.287  1.9157  0.4481  0.3895
 5366SOL    HW227732   1.048   4.477   4.151 -0.0287 -0.5622 -1.5900
 5367SOL     OW27733   1.395   1.415  17.606  0.4263 -0.1239  0.4408
 5367SOL    HW127734   1.313   1.370  17.585  0.9929 -0.9433 -0.0415
 5367SOL    HW227735   1.458   1.344  17.593 -0.3791 -0.8545  0.5913
 5368SOL     OW27736   1.643   0.698   0.900 -0.3905 -0.1670 -0.2761
 5368SOL    HW127737   1.680   0.700   0.811 -0.3608 -0.9416 -0.2817
 5368SOL    HW227738   1.661   0.789   0.921  1.7816 -0.6989  0.2264
 5369SOL     OW27739   2.459   4.661  11.057 -0.5467 -0.3549  0.2722
 5369SOL    HW127740   2.425   4.580  11.020  2.0148 -0.5234 -1.7197
 5369SOL    HW227741   2.525   4.678  10.990 -0.2385  0.3877  0.7619
 5370SOL     OW27742   0.292   1.709  11.056  0.0470  0.5638 -0.0634
 5370SOL    HW127743   0.224   1.731  10.992  0.2873 -0.4441 -0.6712
 5370SOL    HW227744   0.243   1.656  11.119  0.0893  1.9378  1.1097
 5371SOL     OW27745   2.525   1.576  14.489 -0.1704  0.4400 -0.0689
 5371SOL    HW127746   2.461   1.635  14.449 -1.1465 -0.0279  0.8179
 5371SOL    HW227747   2.468   1.534  14.554 -1.6703  1.0195 -1.0086
 5372SOL     OW27748   4.476   0.458  13.108 -0.5158 -0.6391  0.1004
 5372SOL    HW127749   4.510   0.542  13.076 -0.3406 -0.4679  0.7387
 5372SOL    HW227750   4.562   0.420  13.128 -1.3105 -3.2466 -1.3973
 5373SOL     OW27751   1.049   1.874   1.853  0.0541 -0.0327  0.4540
 5373SOL    HW127752   1.004   1.796   1.885 -0.8019  0.0321 -0.5799
 5373SOL    HW227753   0.973   1.931   1.854  1.0664  1.2635  2.2540
 5374SOL     OW27754   1.642   3.198   6.695 -0.3341  0.4795 -0.8256
 5374SOL    HW127755   1.604   3.162   6.775 -0.4908  1.6451 -0.3789
 5374SOL    HW227756   1.732   3.222   6.719 -0.5654  1.8005 -1.3056
 5375SOL     OW27757   3.081   2.440  12.814  0.2674 -0.0610 -0.2393
 5375SOL    HW127758   3.134   2.516  12.840 -0.0547 -0.3744  1.3085
 5375SOL    HW227759   3.067   2.393  12.896  0.2108 -2.2298 -1.4988
 5376SOL     OW27760   3.012   2.890   5.378  0.5642  0.1486  0.0479
 5376SOL    HW127761   2.974   2.962   5.328  0.1180  1.0833  1.7260
 5376SOL    HW227762   3.075   2.935   5.435  0.8272  0.4220 -0.4660
 5377SOL     OW27763   4.380   4.001  16.527  0.3383  0.1127  0.2842
 5377SOL    HW127764   4.287   3.978  16.539  0.0731  0.5993 -0.7929
 5377SOL    HW227765   4.369   4.047  16.444 -0.9350 -0.7569 -0.0391
 5378SOL     OW27766   3.555   4.362  14.293 -0.1495 -0.1158  0.4730
 5378SOL    HW127767   3.507   4.443  14.277  0.8910  0.7163  1.4963
 5378SOL    HW227768   3.548   4.370  14.388 -0.7097 -0.8007  0.4894
 5379SOL     OW27769   3.855   3.848   5.710 -0.2570  0.5666  0.1873
 5379SOL    HW127770   3.917   3.895   5.655  1.1863 -1.1723  0.3301
 5379SOL    HW227771   3.793   3.921   5.718 -0.5187  0.2235  1.3109
 5380SOL     OW27772   0.779   1.140   7.566  0.1566 -0.2685 -0.1592
 5380SOL    HW127773   0.820   1.221   7.537 -1.2129  2.3047  5.0124
 5380SOL    HW227774   0.771   1.102   7.478 -1.2158 -0.9651  0.2584
 5381SOL     OW27775   4.559   0.858   4.343  0.2739 -0.0277 -0.2472
 5381SOL    HW127776   4.486   0.857   4.282  1.1797  1.1090 -1.3567
 5381SOL    HW227777   4.542   0.942   4.387 -2.6592 -0.5504 -0.4531
 5382SOL     OW27778   2.574   3.006   7.330 -0.1800 -0.3297 -0.5542
 5382SOL    HW127779   2.510   2.954   7.380  1.5486 -0.8987  1.0936
 5382SOL    HW227780   2.634   2.935   7.307 -2.7554 -2.8033  0.3506
 5383SOL     OW27781   2.151   2.835   5.223  0.0862 -0.1244  0.0471
 5383SOL    HW127782   2.203   2.816   5.301 -0.0932 -1.3548 -0.1265
 5383SOL    HW227783   2.162   2.930   5.220 -3.4782  0.3352  1.6608
 5384SOL     OW27784   3.731   4.073   8.148  0.4330  0.0506  0.0639
 5384SOL    HW127785   3.823   4.047   8.150  0.0853 -1.1798 -0.0593
 5384SOL    HW227786   3.725   4.126   8.227  1.8652 -0.2850  0.3922
 5385SOL     OW27787   3.729   4.257   6.418  0.2125 -0.4216  0.4386
 5385SOL    HW127788   3.713   4.209   6.499  0.8042 -0.5430  0.4811
 5385SOL    HW227789   3.740   4.347   6.448  1.8322 -1.2188  2.1735
 5386SOL     OW27790   1.924   4.495   4.326 -0.2235  0.5607  0.3695
 5386SOL    HW127791   1.830   4.490   4.346 -0.1999 -1.0295  0.0521
 5386SOL    HW227792   1.927   4.447   4.243 -0.4286  1.9317 -0.4260
 5387SOL     OW27793   1.774   0.705   8.518  0.0743  0.7533  0.7471
 5387SOL    HW127794   1.828   0.708   8.598 -2.0594  2.2379  2.1412
 5387SOL    HW227795   1.713   0.637   8.544  0.7146 -0.0571  0.1178
 5388SOL     OW27796   0.874   0.214  16.256  0.0218  1.1269 -0.5727
 5388SOL    HW127797   0.934   0.199  16.183  1.4351  0.7537  0.6711
 5388SOL    HW227798   0.796   0.172  16.220 -1.4397  1.2668  2.4167
 5389SOL     OW27799   1.508   1.510   6.864 -0.1717  0.2414 -0.0893
 5389SOL    HW127800   1.598   1.541   6.854  1.0351 -2.4470  2.4700
 5389SOL    HW227801   1.519   1.463   6.946 -0.0371  1.6405  0.6856
 5390SOL     OW27802   1.905   3.016   6.725  0.7201  0.3030 -0.0295
 5390SOL    HW127803   1.922   3.108   6.744 -2.9591  1.1318 -0.7283
 5390SOL    HW227804   1.923   2.976   6.810  0.4969  1.8191  0.7387
 5391SOL     OW27805   4.036   2.060   2.555  0.5327 -0.1150 -0.9719
 5391SOL    HW127806   3.967   2.107   2.602  0.6148 -0.7786 -0.1806
 5391SOL    HW227807   3.993   2.040   2.472 -0.9732 -0.8381 -0.0110
 5392SOL     OW27808   4.304   4.250   9.083  0.6792  0.6178  0.9982
 5392SOL    HW127809   4.254   4.322   9.044 -0.4506  0.4559  2.1218
 5392SOL    HW227810   4.320   4.200   9.003 -0.5191  1.2350  0.3764
 5393SOL     OW27811   2.948   3.869   3.451  0.7517 -0.2332  0.1651
 5393SOL    HW127812   2.874   3.872   3.391  0.4036 -2.4560  0.4681
 5393SOL    HW227813   2.934   3.784   3.492  1.2197  1.0291  2.8983
 5394SOL     OW27814   1.989   0.126  14.171  0.3277  0.1797 -0.0285
 5394SOL    HW127815   1.992   0.061  14.101 -3.1273 -0.9104  0.8469
 5394SOL    HW227816   1.898   0.153  14.166  0.8533  2.1722  1.1396
 5395SOL     OW27817   4.664   2.816   9.123  0.1848 -0.1608  0.7481
 5395SOL    HW127818   4.729   2.855   9.064  1.1095 -0.4129  1.6102
 5395SOL    HW227819   4.608   2.890   9.146  0.0900 -0.0885  0.2985
 5396SOL     OW27820   3.882   4.499   3.746 -0.4382 -0.7028  0.1847
 5396SOL    HW127821   3.912   4.516   3.836 -0.1752 -0.7341  0.1025
 5396SOL    HW227822   3.788   4.498   3.762 -0.1985  1.2422  1.7322
 5397SOL     OW27823   0.519   1.344   5.107  0.0216 -0.2805  0.2554
 5397SOL    HW127824   0.475   1.369   5.025 -0.8877 -1.1074  0.4857
 5397SOL    HW227825   0.564   1.267   5.075  0.2341 -0.3212  0.6526
 5398SOL     OW27826   1.301   3.985   2.633 -0.6124  0.1365 -0.1203
 5398SOL    HW127827   1.342   3.969   2.718 -0.1757 -1.3201 -0.5959
 5398SOL    HW227828   1.226   4.040   2.656  0.9035  1.5065  1.4647
 5399SOL     OW27829   1.655   3.460  14.861 -0.6814  0.0425 -0.0241
 5399SOL    HW127830   1.698   3.375  14.855  2.2058  1.5739 -0.8688
 5399SOL    HW227831   1.718   3.520  14.901  1.1240 -1.5199 -0.5666
 5400SOL     OW27832   0.538   2.646   9.053  0.5497 -0.1167  0.0384
 5400SOL    HW127833   0.484   2.598   9.114 -0.3378  0.1285 -0.5597
 5400SOL    HW227834   0.548   2.735   9.088 -1.2180  0.6310 -1.3484
 5401SOL     OW27835   2.833   2.789   1.124  0.4561  0.4029  0.4520
 5401SOL    HW127836   2.784   2.729   1.181  1.8829 -1.0006  0.1661
 5401SOL    HW227837   2.835   2.737   1.044 -0.4753  2.8621 -1.1654
 5402SOL     OW27838   2.870   2.621   3.054 -0.2160  0.4793 -0.2837
 5402SOL    HW127839   2.805   2.616   2.983 -1.0245  1.9048  0.3652
 5402SOL    HW227840   2.911   2.534   3.051  0.7478  0.8545  2.3863
 5403SOL     OW27841   1.789   4.571  14.754 -0.2931  0.2507  0.6623
 5403SOL    HW127842   1.882   4.553  14.737 -0.4573  2.0500 -2.1781
 5403SOL    HW227843   1.790   4.591  14.848  1.1084  0.5879  0.5825
 5404SOL     OW27844   2.764   3.678   7.573  0.4301  0.3691 -0.5736
 5404SOL    HW127845   2.696   3.730   7.617 -1.3210 -1.3654 -1.2179
 5404SOL    HW227846   2.728   3.686   7.485  1.7713  1.2517 -1.0367
 5405SOL     OW27847   3.682   0.948   9.157  0.9750 -0.4405 -0.0511
 5405SOL    HW127848   3.701   1.003   9.233 -1.4060 -0.7272  0.7851
 5405SOL    HW227849   3.612   1.000   9.117  1.6144 -0.6376 -1.4005
 5406SOL     OW27850   2.876   1.716   7.485 -0.4980 -0.1158 -0.0513
 5406SOL    HW127851   2.814   1.731   7.556  0.5632  1.3563  0.5700
 5406SOL    HW227852   2.951   1.767   7.518  0.0015 -0.9069  0.0296
 5407SOL     OW27853   1.506   4.664   1.654 -0.0209 -0.2999  0.5376
 5407SOL    HW127854   1.587   4.683   1.606 -1.5809  0.5166 -1.7336
 5407SOL    HW227855   1.546   4.613   1.725  2.7741  1.5230  0.2997
 5408SOL     OW27856   3.322   4.267   2.096  0.6205  0.3261  0.4350
 5408SOL    HW127857   3.408   4.235   2.125  0.0941 -2.2030 -0.8702
 5408SOL    HW227858   3.350   4.357   2.077  0.7640  0.5381  1.6484
 5409SOL     OW27859   1.346   0.455   8.684  0.2288 -0.1809  0.4421
 5409SOL    HW127860   1.260   0.494   8.668  0.9028  2.1781  2.5582
 5409SOL    HW227861   1.331   0.362   8.673 -2.6823  0.7050 -2.9846
 5410SOL     OW27862   3.478   2.396   8.069  0.6768  0.1226 -0.6662
 5410SOL    HW127863   3.438   2.478   8.042 -1.3988 -0.6106  0.1895
 5410SOL    HW227864   3.453   2.385   8.161  2.2198 -1.4000 -0.4277
 5411SOL     OW27865   1.908   3.869   4.219 -0.2078 -0.6257  0.3106
 5411SOL    HW127866   1.926   3.786   4.174  1.5101  0.2124 -0.5662
 5411SOL    HW227867   1.906   3.934   4.149 -0.7288 -2.2051 -1.1338
 5412SOL     OW27868   4.613   1.445   9.906 -0.6137 -0.0892  0.1727
 5412SOL    HW127869   4.656   1.511   9.959 -0.5153  1.7133 -2.1423
 5412SOL    HW227870   4.684   1.439   9.842 -1.0493 -0.3503 -0.2844
 5413SOL     OW27871   1.321   2.668   4.003 -0.3239  0.7317 -0.2335
 5413SOL    HW127872   1.274   2.596   3.961 -2.0780  0.2444  2.5408
 5413SOL    HW227873   1.398   2.701   3.957  0.0172  2.3818  1.5373
 5414SOL     OW27874   3.389   3.162  12.860  0.1806  0.2665  0.4309
 5414SOL    HW127875   3.333   3.099  12.904 -3.0284  0.6836 -3.1010
 5414SOL    HW227876   3.449   3.201  12.924 -0.2161 -0.6627  1.3704
 5415SOL     OW27877   3.639   0.837   3.784  0.0273 -0.3916  0.0597
 5415SOL    HW127878   3.615   0.765   3.843 -1.4154  0.5536  0.6484
 5415SOL    HW227879   3.629   0.791   3.701 -1.5083  0.1205 -0.0510
 5416SOL     OW27880   3.222   0.821   6.397 -0.0774 -0.4195  0.5545
 5416SOL    HW127881   3.197   0.846   6.486 -2.4320  1.0981 -0.5408
 5416SOL    HW227882   3.138   0.836   6.353 -0.1828  1.5550  1.4214
 5417SOL     OW27883   2.549   0.130   4.639 -0.0657  0.0375 -0.3421
 5417SOL    HW127884   2.454   0.139   4.627 -0.5804 -2.3185  1.7422
 5417SOL    HW227885   2.547   0.055   4.699  1.6556 -0.0524 -0.4120
 5418SOL     OW27886   2.479   0.601   0.007 -0.4170  0.1512 -0.7078
 5418SOL    HW127887   2.399   0.636   0.045 -0.0753  0.2860 -0.1083
 5418SOL    HW227888   2.454   0.508   0.007  1.4694 -0.3739  0.8183
 5419SOL     OW27889   0.285   0.801   4.444  0.3667 -0.2300 -0.3070
 5419SOL    HW127890   0.256   0.834   4.529  0.7902  3.2695 -1.5183
 5419SOL    HW227891   0.206   0.828   4.395 -0.3565 -0.3919  0.7719
 5420SOL     OW27892   4.548   0.380   6.311 -0.0307 -0.6166  0.1646
 5420SOL    HW127893   4.624   0.347   6.359  1.3822  2.1756 -0.2004
 5420SOL    HW227894   4.572   0.361   6.220  2.0719  1.6248  0.2547
 5421SOL     OW27895   2.066   3.436   8.549 -0.1357  0.1708  0.3315
 5421SOL    HW127896   2.039   3.355   8.593 -1.4034  0.1649 -0.4551
 5421SOL    HW227897   2.129   3.469   8.614  0.2161 -3.2043  1.7162
 5422SOL     OW27898   0.724   2.349   8.380 -0.5265  0.1258  0.2168
 5422SOL    HW127899   0.755   2.335   8.290  0.7752  0.1583  0.6646
 5422SOL    HW227900   0.628   2.347   8.373 -0.5591 -0.8348  0.9906
 5423SOL     OW27901   2.435   1.421   2.234 -0.2809 -0.5715  0.2636
 5423SOL    HW127902   2.341   1.427   2.216 -0.5236  2.4886  2.4064
 5423SOL    HW227903   2.449   1.342   2.287  1.5858 -2.0357 -2.4247
 5424SOL     OW27904   1.184   4.690  11.484  0.3229  0.2586  0.3067
 5424SOL    HW127905   1.213   0.043  11.502 -0.2344  0.2340  1.2901
 5424SOL    HW227906   1.217   4.687  11.393 -0.7521 -2.6805  0.0307
 5425SOL     OW27907   2.140   3.427   4.028  0.1012 -0.5661 -0.1072
 5425SOL    HW127908   2.090   3.472   3.960 -0.7509 -1.1885  0.1211
 5425SOL    HW227909   2.081   3.386   4.090 -0.6973 -2.2885 -2.0180
 5426SOL     OW27910   4.329   2.297   3.439 -0.2547  0.4773  0.1190
 5426SOL    HW127911   4.267   2.239   3.394 -0.0301  0.7978 -0.5942
 5426SOL    HW227912   4.338   2.370   3.379  1.7707  0.0381 -0.0820
 5427SOL     OW27913   3.919   2.930   7.294 -0.2978  0.2438 -0.2165
 5427SOL    HW127914   3.991   2.869   7.276 -0.0673 -0.1391  2.0170
 5427SOL    HW227915   3.979   2.999   7.324 -1.1224  1.2397 -0.8475
 5428SOL     OW27916   2.777   3.351   4.804 -0.1679 -0.1990  0.1447
 5428SOL    HW127917   2.687   3.337   4.774 -0.6735  0.6884  1.2910
 5428SOL    HW227918   2.797   3.263   4.838  1.6493  0.2939  0.3800
 5429SOL     OW27919   3.273   3.327   0.345 -0.1086 -0.2578  0.2473
 5429SOL    HW127920   3.193   3.276   0.331 -1.5004  2.1822 -0.7170
 5429SOL    HW227921   3.227   3.383   0.407 -0.6163  0.6239 -0.9297
 5430SOL     OW27922   0.030   2.588   7.313  0.3636 -0.1709 -0.6110
 5430SOL    HW127923   0.024   2.652   7.242  2.5736  0.0764 -0.5796
 5430SOL    HW227924   0.046   2.508   7.264  0.1095 -1.1765  0.9364
 5431SOL     OW27925   1.025   0.785   2.577  0.4322  0.5914  0.4148
 5431SOL    HW127926   1.016   0.843   2.653  1.3754  0.1402  0.8758
 5431SOL    HW227927   0.935   0.759   2.556  0.8600 -0.5008 -0.0386
 5432SOL     OW27928   2.035   4.505   8.813  0.6773  0.2159 -0.1278
 5432SOL    HW127929   2.093   4.429   8.804  1.2412  0.2920  2.7893
 5432SOL    HW227930   1.955   4.452   8.808 -0.6701  1.9590  2.7615
 5433SOL     OW27931   1.247   3.800   3.050 -0.2518 -0.0964  0.1689
 5433SOL    HW127932   1.159   3.761   3.052  0.0483 -0.7742  0.2781
 5433SOL    HW227933   1.227   3.893   3.044  2.0836  0.3102 -1.1067
 5434SOL     OW27934   4.137   4.714   2.760  0.2666 -0.1437 -0.4110
 5434SOL    HW127935   4.154   4.736   2.669 -1.0600  0.8837 -0.4024
 5434SOL    HW227936   4.084   4.635   2.747 -0.1325 -0.3059  2.0467
 5435SOL     OW27937   1.702   1.478  13.331 -0.0217 -0.1821 -0.4274
 5435SOL    HW127938   1.789   1.493  13.368  0.1910  0.9615 -1.3883
 5435SOL    HW227939   1.699   1.383  13.324 -0.0809 -0.1480 -0.8855
 5436SOL     OW27940   0.825   2.062   6.110 -0.3415 -0.2289 -0.1470
 5436SOL    HW127941   0.797   1.994   6.171  0.7165 -1.0848 -0.6187
 5436SOL    HW227942   0.784   2.141   6.146 -1.9055 -1.0659 -0.1313
 5437SOL     OW27943   2.410   1.800   6.423  0.1702 -0.3243  0.1875
 5437SOL    HW127944   2.333   1.854   6.406  1.4536  1.7336  0.9009
 5437SOL    HW227945   2.461   1.856   6.481 -1.0099  0.9757 -0.0466
 5438SOL     OW27946   0.060   1.550   7.031 -0.5227 -0.2616 -0.0728
 5438SOL    HW127947   4.734   1.567   6.961  1.2578  2.3668 -1.0140
 5438SOL    HW227948   0.115   1.628   7.030 -1.6765  0.5569  0.6133
 5439SOL     OW27949   2.656   0.928   4.729 -0.0312  0.4709  0.3910
 5439SOL    HW127950   2.574   0.931   4.777 -1.8331 -0.2062 -2.6136
 5439SOL    HW227951   2.635   0.878   4.650  0.8931 -2.3818  1.9618
 5440SOL     OW27952   1.279   0.213  10.376 -0.4707  0.1454  0.3489
 5440SOL    HW127953   1.199   0.199  10.325  0.5310  0.6185 -1.3333
 5440SOL    HW227954   1.249   0.267  10.450 -1.4306  0.6503 -0.4054
 5441SOL     OW27955   2.799   0.952   8.058 -0.1428 -0.3044  0.2156
 5441SOL    HW127956   2.824   0.868   8.097  0.8576 -0.6781 -1.2038
 5441SOL    HW227957   2.773   0.997   8.138 -0.9286 -3.0488  1.5192
 5442SOL     OW27958   2.003   0.747   8.335 -0.1745  0.9492  0.6285
 5442SOL    HW127959   1.956   0.752   8.418 -1.6967 -2.2325 -0.0380
 5442SOL    HW227960   2.046   0.663   8.348  0.5093  1.5808  2.4315
 5443SOL     OW27961   1.547   1.237   3.604 -0.2370  0.7490  0.3129
 5443SOL    HW127962   1.608   1.242   3.530 -2.6912 -1.0159 -1.8255
 5443SOL    HW227963   1.567   1.147   3.629 -1.0683  0.9938  1.8608
 5444SOL     OW27964   4.321   1.789   0.468 -0.1972  0.1637  0.2051
 5444SOL    HW127965   4.374   1.740   0.530  0.5978  1.4849  0.5849
 5444SOL    HW227966   4.355   1.878   0.483  0.1289 -0.1066  1.0857
 5445SOL     OW27967   3.088   2.294   7.992  0.3199 -0.9503 -0.3455
 5445SOL    HW127968   3.052   2.231   8.054  0.4418 -0.7992 -0.1211
 5445SOL    HW227969   3.047   2.380   8.001  1.5264 -0.1961 -2.0456
 5446SOL     OW27970   1.120   4.083   8.843  0.2279 -0.2637 -0.3722
 5446SOL    HW127971   1.200   4.032   8.856 -0.1698 -0.7000  0.3625
 5446SOL    HW227972   1.132   4.111   8.753 -2.2680 -0.2150 -0.6680
 5447SOL     OW27973   1.180   2.944  11.994 -0.1548 -0.1496  0.3382
 5447SOL    HW127974   1.141   2.858  12.009  0.2509 -0.4416 -0.3092
 5447SOL    HW227975   1.130   2.988  12.064 -0.6816 -2.6076  1.5092
 5448SOL     OW27976   0.098   1.030   5.165 -0.4544  0.4655 -0.1916
 5448SOL    HW127977   0.037   1.095   5.130 -0.7999 -0.5363 -1.4467
 5448SOL    HW227978   0.052   0.949   5.144  0.6033 -0.0188 -0.6325
 5449SOL     OW27979   0.301   0.479   3.244 -0.2460  0.2776  0.0506
 5449SOL    HW127980   0.252   0.515   3.317  1.8068  1.6648  0.7207
 5449SOL    HW227981   0.361   0.419   3.288  0.1766  0.3987 -0.3522
 5450SOL     OW27982   0.746   1.599   3.351  1.0754  0.0197 -0.4011
 5450SOL    HW127983   0.702   1.609   3.267 -2.5677 -0.7939  1.4027
 5450SOL    HW227984   0.827   1.650   3.344  0.8304  0.2623 -1.5102
 5451SOL     OW27985   4.267   0.455   8.865  0.5646 -0.0309  0.0972
 5451SOL    HW127986   4.275   0.517   8.793  0.9447  0.7589  0.8069
 5451SOL    HW227987   4.288   0.507   8.944 -2.5544 -1.3783  1.8068
 5452SOL     OW27988   4.192   0.330   2.809  0.0894  0.3332 -0.0364
 5452SOL    HW127989   4.129   0.310   2.740 -0.5343 -0.6125  0.7954
 5452SOL    HW227990   4.253   0.257   2.818  1.2909  1.3544  0.0813
 5453SOL     OW27991   1.082   2.253   8.320 -0.3483 -0.2338 -0.0139
 5453SOL    HW127992   1.079   2.160   8.341 -0.7285 -0.0510  0.7237
 5453SOL    HW227993   1.030   2.290   8.391 -1.0843 -1.4909  0.1092
 5454SOL     OW27994   4.295   4.643   2.067  0.1232  0.0424  0.0789
 5454SOL    HW127995   4.346   4.631   2.147  0.9031  0.8856 -0.2891
 5454SOL    HW227996   4.347   4.720   2.042 -0.0629  0.6414  1.5094
 5455SOL     OW27997   1.183   1.397   6.927 -0.0153  0.4767 -0.8299
 5455SOL    HW127998   1.199   1.360   6.840  2.5444 -1.6573  0.5871
 5455SOL    HW227999   1.146   1.320   6.970  0.1147  1.2542  0.6927
 5456SOL     OW28000   3.624   1.466   7.430 -0.0115  0.3219 -0.3777
 5456SOL    HW128001   3.640   1.377   7.398  0.9206  0.4623 -0.3136
 5456SOL    HW228002   3.656   1.462   7.520  0.4622 -0.3062 -0.5753
 5457SOL     OW28003   1.846   4.378   0.009  0.0623  0.7552  0.6429
 5457SOL    HW128004   1.760   4.411  17.731  0.1909 -0.6527 -1.7832
 5457SOL    HW228005   1.822   4.317   0.079  0.5555 -1.6205 -1.2675
 5458SOL     OW28006   0.764   2.785   6.032 -0.3018 -0.2407  0.1537
 5458SOL    HW128007   0.768   2.817   6.121 -1.5248  0.0329  0.1162
 5458SOL    HW228008   0.800   2.860   5.985 -2.2454  1.8396  2.0217
 5459SOL     OW28009   4.437   3.522   9.263  0.7494 -0.2278  0.0896
 5459SOL    HW128010   4.521   3.545   9.222  1.0972 -1.0065  0.3569
 5459SOL    HW228011   4.437   3.427   9.252  3.4772 -0.0313 -1.7618
 5460SOL     OW28012   4.233   0.715   2.632  0.3613 -0.9867 -0.2614
 5460SOL    HW128013   4.260   0.741   2.721  1.7092 -1.0505 -0.6560
 5460SOL    HW228014   4.141   0.729   2.655  0.4310  0.6087 -0.9522
 5461SOL     OW28015   0.160   2.897   8.528  0.3449  0.3333 -0.4548
 5461SOL    HW128016   0.250   2.872   8.508  0.3086 -0.3465  0.2307
 5461SOL    HW228017   0.152   2.977   8.476 -0.5945  1.6166  1.6795
 5462SOL     OW28018   2.830   0.231   1.481  0.2485 -0.1394 -0.0053
 5462SOL    HW128019   2.762   0.258   1.421 -1.3470  0.4259  2.0676
 5462SOL    HW228020   2.875   0.162   1.431 -1.1351  1.5456 -3.5009
 5463SOL     OW28021   4.090   1.012  12.763  0.7500 -0.4610  0.8196
 5463SOL    HW128022   4.021   1.072  12.790 -0.3337 -0.9405 -0.9230
 5463SOL    HW228023   4.108   0.976  12.850  1.2464 -0.4581  0.7220
 5464SOL     OW28024   2.185   4.606   6.127  0.0993  0.2090  0.7976
 5464SOL    HW128025   2.267   4.593   6.080  0.6114  0.1471  1.6927
 5464SOL    HW228026   2.207   4.539   6.192  1.3144  0.5806  0.7682
 5465SOL     OW28027   0.523   1.093   2.984  0.3670  0.4149 -0.1255
 5465SOL    HW128028   0.586   1.119   2.917 -0.1375  0.5480 -0.5536
 5465SOL    HW228029   0.445   1.075   2.930  2.8393  0.6959 -3.8073
 5466SOL     OW28030   1.109   2.116  14.588 -0.0874  0.7662  0.1979
 5466SOL    HW128031   1.024   2.096  14.550  0.1027  1.8382 -0.8108
 5466SOL    HW228032   1.131   2.201  14.549  3.2994 -0.5085 -0.6869
 5467SOL     OW28033   1.165   1.979   8.109 -0.0937  0.0069 -0.2290
 5467SOL    HW128034   1.261   1.982   8.110 -0.0357 -1.6474 -0.1451
 5467SOL    HW228035   1.153   2.039   8.183  1.1390 -0.4181  0.3287
 5468SOL     OW28036   0.926   0.377  10.372 -0.4473 -0.4891  0.1119
 5468SOL    HW128037   1.006   0.389  10.422  0.2808  0.5523 -1.2874
 5468SOL    HW228038   0.862   0.345  10.436  1.1508 -0.0309  1.9180
 5469SOL     OW28039   3.703   2.860   7.500  0.0149 -0.3656  0.2954
 5469SOL    HW128040   3.783   2.833   7.454  0.9894 -0.0866  1.8433
 5469SOL    HW228041   3.719   2.821   7.586 -1.2611 -1.0020  0.2451
 5470SOL     OW28042   3.621   1.242  13.685  0.8955 -0.2027  0.1809
 5470SOL    HW128043   3.635   1.204  13.599  1.1036 -3.7524  1.8047
 5470SOL    HW228044   3.558   1.311  13.661  0.9094 -0.2054  0.1385
 5471SOL     OW28045   3.697   1.336   4.336  0.4573  0.0775  0.3155
 5471SOL    HW128046   3.759   1.353   4.407 -0.3001 -0.3348  1.0691
 5471SOL    HW228047   3.754   1.339   4.259  0.0796  0.7705  0.0652
 5472SOL     OW28048   3.469   3.503   7.957  0.1771  0.3466  0.0023
 5472SOL    HW128049   3.551   3.457   7.944 -0.3644 -1.4250  2.8197
 5472SOL    HW228050   3.479   3.575   7.896  1.7950  0.7448  0.7527
 5473SOL     OW28051   1.107   1.737   6.164  0.0869  0.3518 -0.0645
 5473SOL    HW128052   1.076   1.707   6.249  0.6563 -0.2660 -0.0711
 5473SOL    HW228053   1.159   1.814   6.185 -1.8403  1.5649  0.2432
 5474SOL     OW28054   4.603   0.385  10.470  0.3314  0.0111  0.5647
 5474SOL    HW128055   4.550   0.317  10.428 -0.0913  0.3449  0.5565
 5474SOL    HW228056   4.630   0.437  10.395 -3.6775  1.3219  0.0365
 5475SOL     OW28057   0.898   4.091   9.447 -0.0491  0.5183  0.2388
 5475SOL    HW128058   0.915   4.153   9.376  0.4455  0.3919  0.2469
 5475SOL    HW228059   0.873   4.011   9.400 -1.4536  1.2199 -0.2224
 5476SOL     OW28060   3.345   2.117   4.782 -0.0488  0.1186  0.7714
 5476SOL    HW128061   3.384   2.030   4.772 -1.1000 -0.2634  0.0048
 5476SOL    HW228062   3.414   2.166   4.737 -2.0443  0.8424 -1.5221
 5477SOL     OW28063   1.084   1.199   9.560 -0.0198 -0.5483  0.2736
 5477SOL    HW128064   1.025   1.129   9.589 -1.8310 -0.0072 -2.0924
 5477SOL    HW228065   1.008   1.255   9.547  0.6470 -0.1503 -2.0774
 5478SOL     OW28066   0.835   4.221   4.332 -0.2949 -0.0146  0.0792
 5478SOL    HW128067   0.914   4.262   4.297  1.5703 -1.9973  1.8872
 5478SOL    HW228068   0.801   4.285   4.395  1.0136  0.1976  0.5771
 5479SOL     OW28069   1.647   2.097   0.696 -0.2184 -0.4255  0.7781
 5479SOL    HW128070   1.673   2.188   0.679  0.5342 -1.1800 -2.1002
 5479SOL    HW228071   1.555   2.116   0.709 -1.1400 -3.8155 -0.6612
 5480SOL     OW28072   0.680   3.815   3.912 -0.1225  0.1838 -0.0087
 5480SOL    HW128073   0.622   3.818   3.835  1.5612  0.6475 -1.2437
 5480SOL    HW228074   0.625   3.763   3.971  1.2701 -0.3775  0.7965
 5481SOL     OW28075   3.518   0.343   0.414 -0.0958 -0.0504  0.1637
 5481SOL    HW128076   3.427   0.351   0.444 -0.3440  0.4092 -0.7053
 5481SOL    HW228077   3.535   0.404   0.342 -2.6027  0.0828 -0.3175
 5482SOL     OW28078   0.562   0.795   5.243  0.1777  0.1047  0.0116
 5482SOL    HW128079   0.550   0.766   5.152 -2.3127  3.0203 -0.5978
 5482SOL    HW228080   0.503   0.870   5.240  1.2397  0.9433  0.1370
 5483SOL     OW28081   0.111   4.501   9.214  0.1278  0.4120 -0.1882
 5483SOL    HW128082   0.055   4.478   9.288  0.1697 -1.7905 -0.8467
 5483SOL    HW228083   0.071   4.587   9.200 -0.8501 -0.5012 -3.0704
 5484SOL     OW28084   1.824   3.595  11.501  0.0206 -0.3920  0.4671
 5484SOL    HW128085   1.835   3.513  11.549  0.6555 -1.9011 -2.2810
 5484SOL    HW228086   1.728   3.605  11.500  0.1868  1.1296 -0.5148
 5485SOL     OW28087   4.047   3.825   2.115  0.3166  0.1620 -0.3334
 5485SOL    HW128088   4.084   3.741   2.089  1.4464  0.3374  0.7199
 5485SOL    HW228089   4.043   3.811   2.209  2.1541 -0.9145 -0.4158
 5486SOL     OW28090   2.439   3.296  13.964 -0.0669  0.0804 -0.0844
 5486SOL    HW128091   2.369   3.231  13.951 -1.2316  1.1855  0.6475
 5486SOL    HW228092   2.399   3.366  13.912  3.0650  1.6680 -0.3247
 5487SOL     OW28093   0.192   0.230   2.746 -0.2506 -0.0982  0.4250
 5487SOL    HW128094   0.283   0.258   2.761 -0.0498 -1.2922  1.3858
 5487SOL    HW228095   0.165   0.291   2.678  0.6780  0.6789  0.7433
 5488SOL     OW28096   3.703   0.062   3.312 -0.2754  0.1433 -0.4075
 5488SOL    HW128097   3.631   0.090   3.368 -0.0586  2.0570 -1.0967
 5488SOL    HW228098   3.715   4.713   3.353  0.1731 -0.2056 -1.2795
 5489SOL     OW28099   3.330   3.434  15.389 -0.1274 -0.0447 -0.0141
 5489SOL    HW128100   3.413   3.469  15.355  0.7005 -2.1040 -0.1228
 5489SOL    HW228101   3.315   3.481  15.471  1.5085  0.6652 -0.1169
 5490SOL     OW28102   0.757   2.054  10.426  0.1524  0.0531  0.4778
 5490SOL    HW128103   0.851   2.048  10.439  0.1801 -0.3842  0.0790
 5490SOL    HW228104   0.731   1.982  10.484 -0.5896  1.3840  1.8110
 5491SOL     OW28105   3.899   3.217   8.793  0.0368 -0.1727 -0.4549
 5491SOL    HW128106   3.908   3.169   8.710  2.0983  0.0497 -0.3441
 5491SOL    HW228107   3.830   3.279   8.770  0.1812 -0.1890 -0.9310
 5492SOL     OW28108   1.619   3.512   8.912  0.2584  0.1564  0.0444
 5492SOL    HW128109   1.535   3.534   8.952 -0.3423 -0.0713 -1.1053
 5492SOL    HW228110   1.683   3.569   8.955 -0.3907 -0.9549  2.5472
 5493SOL     OW28111   1.448   3.307   7.300  0.2589 -0.4226 -0.9398
 5493SOL    HW128112   1.421   3.380   7.356 -0.9630 -0.7177 -1.1438
 5493SOL    HW228113   1.496   3.261   7.369  1.5648 -1.6397 -2.6805
 5494SOL     OW28114   3.842   1.768   6.766  0.0366  0.4407 -0.2307
 5494SOL    HW128115   3.761   1.746   6.720  1.4640 -1.8190 -1.5987
 5494SOL    HW228116   3.811   1.752   6.856 -0.1800  0.0014 -0.3823
 5495SOL     OW28117   1.038   2.431   5.171  0.0821 -0.4110 -0.0245
 5495SOL    HW128118   1.128   2.456   5.191  0.4294  1.0290 -3.4081
 5495SOL    HW228119   1.030   2.469   5.084  0.3106  0.3001  0.2613
 5496SOL     OW28120   4.227   3.645   2.026  0.2508  0.6868  0.0356
 5496SOL    HW128121   4.204   3.553   2.011  1.3141  0.8377 -2.5621
 5496SOL    HW228122   4.319   3.641   2.049  0.4106 -2.2309 -1.0965
 5497SOL     OW28123   2.674   0.240   9.989  0.1178  0.6037 -0.0380
 5497SOL    HW128124   2.615   0.218  10.061 -0.5685  0.5204 -0.6334
 5497SOL    HW228125   2.646   0.188   9.914 -0.2617  0.0197  0.5054
 5498SOL     OW28126   0.656   0.797  13.761  0.1136 -0.5670  0.1558
 5498SOL    HW128127   0.669   0.711  13.721  2.1733  0.6971 -1.9153
 5498SOL    HW228128   0.562   0.801  13.775  0.1165  0.7479 -0.1678
 5499SOL     OW28129   2.717   1.152   3.214  0.5457 -0.4123  0.4147
 5499SOL    HW128130   2.763   1.082   3.261 -0.8685 -0.1090  2.2432
 5499SOL    HW228131   2.688   1.104   3.137 -0.5271 -0.1362  0.6450
 5500SOL     OW28132   4.447   3.029   0.556  0.4892  0.4261 -0.2465
 5500SOL    HW128133   4.376   2.967   0.572  0.7304  0.8631  2.4696
 5500SOL    HW228134   4.523   2.972   0.541  2.2035  2.9295 -1.1216
 5501SOL     OW28135   2.155   0.984   5.999 -0.2812  0.1296  0.0549
 5501SOL    HW128136   2.245   0.987   6.031  0.1151 -0.7614 -0.9700
 5501SOL    HW228137   2.151   0.891   5.973 -2.4956 -0.0688  1.0560
 5502SOL     OW28138   1.904   1.855   4.255 -0.2011  0.2900 -0.4868
 5502SOL    HW128139   1.874   1.866   4.165 -1.6439 -1.9105 -0.2749
 5502SOL    HW228140   1.992   1.893   4.257  0.2014 -0.7081  1.3338
 5503SOL     OW28141   0.601   1.401  11.256 -0.4991 -0.4859  0.2075
 5503SOL    HW128142   0.589   1.459  11.180  2.0575 -2.2833 -1.5598
 5503SOL    HW228143   0.510   1.388  11.285 -0.3112  2.8342  2.2946
 5504SOL     OW28144   1.363   0.004   5.907 -0.2563 -0.3739 -0.7271
 5504SOL    HW128145   1.298   4.673   5.927  0.3690 -0.8743 -0.3840
 5504SOL    HW228146   1.393   0.033   5.993 -1.2352  2.2739 -1.2855
 5505SOL     OW28147   2.634   2.451   4.448 -0.0100  0.0882 -0.2055
 5505SOL    HW128148   2.605   2.360   4.448  0.3488 -0.0355  1.1974
 5505SOL    HW228149   2.647   2.464   4.354 -0.7536 -0.2215 -0.3476
 5506SOL     OW28150   2.514   2.099   7.772  0.2264  0.3760  0.2694
 5506SOL    HW128151   2.594   2.117   7.723 -0.4687  1.2035 -0.5599
 5506SOL    HW228152   2.466   2.062   7.698  1.3049  2.1956 -1.3477
 5507SOL     OW28153   1.610   1.769  16.413  0.1260  0.1778  0.5525
 5507SOL    HW128154   1.682   1.771  16.350  0.5531  2.1744  1.0866
 5507SOL    HW228155   1.543   1.771  16.345 -1.6209 -1.2275  2.2535
 5508SOL     OW28156   2.794   2.798   9.787  0.2613 -0.2094  0.4213
 5508SOL    HW128157   2.838   2.731   9.736 -0.9092  0.3079 -1.2754
 5508SOL    HW228158   2.705   2.765   9.797 -0.6713  1.2901 -2.8564
 5509SOL     OW28159   4.640   2.329   6.241 -0.2634 -0.4659  0.0596
 5509SOL    HW128160   4.718   2.287   6.279 -0.2355 -1.0343 -0.6212
 5509SOL    HW228161   4.608   2.257   6.186  0.2887 -0.2741 -0.5120
 5510SOL     OW28162   1.898   2.846   2.800 -0.1557  0.2889  0.3759
 5510SOL    HW128163   1.940   2.843   2.714 -0.7426  0.6475  0.0749
 5510SOL    HW228164   1.903   2.753   2.820 -0.1989 -0.0026 -0.9925
 5511SOL     OW28165   2.739   2.733   7.383 -0.2960  0.0389 -0.0365
 5511SOL    HW128166   2.667   2.670   7.384  1.8048 -2.3881  0.1080
 5511SOL    HW228167   2.794   2.718   7.460 -0.3619  0.8954  0.1715
 5512SOL     OW28168   0.956   1.042  17.468  0.0990 -0.3271 -0.1086
 5512SOL    HW128169   0.974   0.952  17.442  0.1998 -0.2058 -0.4608
 5512SOL    HW228170   0.952   1.087  17.383 -0.4870 -0.8975 -0.3902
 5513SOL     OW28171   0.701   4.333   2.805  0.0428  0.2039  0.2478
 5513SOL    HW128172   0.607   4.313   2.799  0.4587 -1.7449  0.5206
 5513SOL    HW228173   0.711   4.370   2.892  1.5429 -1.0386  0.5836
 5514SOL     OW28174   4.511   3.799   7.248 -0.7694 -0.2066  0.3112
 5514SOL    HW128175   4.489   3.759   7.332  2.7333 -0.2606  1.2187
 5514SOL    HW228176   4.424   3.815   7.212 -0.6639 -1.7428 -0.6588
 5515SOL     OW28177   4.671   3.544   5.304  0.2233  0.2611 -0.4483
 5515SOL    HW128178   0.024   3.545   5.336 -0.5717  1.8272  1.7479
 5515SOL    HW228179   4.635   3.578   5.386 -2.8158  0.2767 -1.7571
 5516SOL     OW28180   3.551   0.854  15.510 -0.2043 -0.5941 -0.0496
 5516SOL    HW128181   3.596   0.795  15.570 -0.9289  2.1969  3.2077
 5516SOL    HW228182   3.461   0.826  15.524 -0.6145  1.2925  1.0708
 5517SOL     OW28183   1.424   2.257  11.029 -0.2888 -0.0294  0.8858
 5517SOL    HW128184   1.418   2.265  11.124  0.3712 -1.7885  1.0722
 5517SOL    HW228185   1.383   2.337  10.996  2.4800  0.8900 -0.3591
 5518SOL     OW28186   1.680   0.594   6.140 -0.0576 -0.7554 -0.7606
 5518SOL    HW128187   1.757   0.602   6.083 -0.2362  3.2601 -0.4182
 5518SOL    HW228188   1.709   0.640   6.219  2.4599 -0.5793 -1.7748
 5519SOL     OW28189   3.142   3.034   2.605 -0.3289 -0.1779  0.1095
 5519SOL    HW128190   3.053   3.008   2.625 -0.4207  0.8611  1.0354
 5519SOL    HW228191   3.134   3.080   2.521  0.8416 -0.3302 -0.0868
 5520SOL     OW28192   1.954   1.318  11.455 -0.0199 -0.5875 -0.1122
 5520SOL    HW128193   1.943   1.330  11.361 -0.7462 -1.7111 -0.1628
 5520SOL    HW228194   2.007   1.396  11.471  0.1517 -1.0914  1.7558
 5521SOL     OW28195   3.756   0.961  15.164  0.9214  0.2597  0.0144
 5521SOL    HW128196   3.703   1.012  15.226 -1.1726 -0.8695 -0.8207
 5521SOL    HW228197   3.753   0.872  15.198  2.3710 -0.4874 -1.8385
 5522SOL     OW28198   2.456   4.067   8.429  0.0966 -0.2643  0.1921
 5522SOL    HW128199   2.462   4.022   8.345 -1.1247  0.3720 -0.2327
 5522SOL    HW228200   2.377   4.117   8.412 -0.4377 -2.5259 -3.8939
 5523SOL     OW28201   1.383   1.912   3.423  0.3975  0.3301 -0.4380
 5523SOL    HW128202   1.458   1.970   3.431  0.5342 -0.1370  1.7707
 5523SOL    HW228203   1.306   1.959   3.393 -0.0638  0.6286  1.2606
 5524SOL     OW28204   1.699   2.443   7.818  0.5603  0.2534 -1.0140
 5524SOL    HW128205   1.779   2.495   7.822 -0.6637  2.1655 -1.3143
 5524SOL    HW228206   1.634   2.508   7.790 -0.8505  0.0676  1.7361
 5525SOL     OW28207   3.614   4.160   2.652 -0.0119 -0.3948 -0.5179
 5525SOL    HW128208   3.644   4.070   2.644  1.7144  0.0692  0.7941
 5525SOL    HW228209   3.539   4.152   2.593  0.6579  0.0149 -1.4094
 5526SOL     OW28210   2.214   1.218  10.548 -0.2437  0.3216  0.3306
 5526SOL    HW128211   2.270   1.278  10.598 -0.7574  1.5971 -0.6405
 5526SOL    HW228212   2.277   1.205  10.477  0.1573  1.1188  0.5339
 5527SOL     OW28213   1.219   0.083  17.379  0.4753  0.0053  0.1016
 5527SOL    HW128214   1.167   0.151  17.335  0.0106 -0.2355  0.2779
 5527SOL    HW228215   1.193   0.101  17.469 -1.6740  0.2799 -0.5582
 5528SOL     OW28216   4.712   0.335  13.144  0.3120  0.0744 -0.2169
 5528SOL    HW128217   0.060   0.302  13.174 -0.5636 -1.3276  0.7268
 5528SOL    HW228218   4.686   0.266  13.082  0.8854 -0.5940  0.2872
 5529SOL     OW28219   2.972   4.330  10.755 -0.2808 -0.0841 -0.5861
 5529SOL    HW128220   3.003   4.243  10.779 -0.4135  0.1925  0.5830
 5529SOL    HW228221   2.967   4.371  10.842 -2.6849 -2.7121  0.5178
 5530SOL     OW28222   2.483   3.374   8.310  0.4263 -0.2458  0.1331
 5530SOL    HW128223   2.390   3.365   8.331  0.2795 -1.6196 -1.1032
 5530SOL    HW228224   2.474   3.403   8.219  0.0353 -0.5152  0.0816
 5531SOL     OW28225   1.677   0.584   8.268 -0.5231  0.1551  0.6647
 5531SOL    HW128226   1.605   0.577   8.331 -1.8698 -0.3788 -0.9326
 5531SOL    HW228227   1.727   0.505   8.285 -1.0270 -0.1832  0.5696
 5532SOL     OW28228   1.262   4.289  15.969 -0.7105 -0.5859  0.3108
 5532SOL    HW128229   1.221   4.375  15.966  1.0114  0.1894 -0.4647
 5532SOL    HW228230   1.208   4.250  16.038 -0.9678  0.7329  0.8583
 5533SOL     OW28231   1.218   0.481  10.281 -0.5883 -0.2089 -0.8513
 5533SOL    HW128232   1.215   0.393  10.243  2.0442 -1.1457  1.0574
 5533SOL    HW228233   1.215   0.464  10.375  2.1788  0.0660 -0.7243
 5534SOL     OW28234   1.783   1.030   6.654 -0.2416 -0.1055 -0.0813
 5534SOL    HW128235   1.717   1.069   6.597  1.5375 -1.5310 -3.1349
 5534SOL    HW228236   1.859   1.083   6.628  0.1748 -2.1156 -2.9769
 5535SOL     OW28237   2.528   2.592   7.330  0.5256  0.2783 -0.4004
 5535SOL    HW128238   2.438   2.624   7.322  0.6585  1.0983  1.4194
 5535SOL    HW228239   2.520   2.534   7.406 -1.1649  0.0758 -0.7250
 5536SOL     OW28240   1.280   1.240   0.996 -0.2640 -0.0970 -0.2114
 5536SOL    HW128241   1.186   1.235   1.015  0.3548  0.3164  2.9385
 5536SOL    HW228242   1.290   1.333   0.975  1.8808 -0.6398 -1.6364
 5537SOL     OW28243   0.781   2.678   7.910  0.0497 -0.0646 -0.4896
 5537SOL    HW128244   0.865   2.671   7.956  0.5423  0.0271 -1.3907
 5537SOL    HW228245   0.726   2.675   7.989  0.4053  2.8853 -0.1308
 5538SOL     OW28246   1.054   0.090  14.864 -0.1601  0.1168  0.3156
 5538SOL    HW128247   1.047   0.060  14.955 -0.2137  0.3968  0.4041
 5538SOL    HW228248   1.114   0.023  14.831 -1.1846 -0.8085  0.3104
 5539SOL     OW28249   4.492   2.582   4.953 -0.0378 -0.4971  0.1557
 5539SOL    HW128250   4.437   2.639   4.899  1.0112 -0.2173 -0.6140
 5539SOL    HW228251   4.440   2.502   4.951  0.1802 -0.5739 -1.9893
 5540SOL     OW28252   4.313   2.546   8.212  0.4534  0.2330  0.1037
 5540SOL    HW128253   4.390   2.496   8.189  0.7882  2.3372 -3.3226
 5540SOL    HW228254   4.338   2.589   8.294 -2.1586  2.5350 -0.2823
 5541SOL     OW28255   1.650   0.561   7.207  0.2661 -0.6235  0.0599
 5541SOL    HW128256   1.720   0.556   7.273  0.5934 -2.0210 -0.3817
 5541SOL    HW228257   1.667   0.648   7.171  1.0416 -0.5302  0.6466
 5542SOL     OW28258   0.754   0.097   2.834 -0.1684 -0.8092 -0.0155
 5542SOL    HW128259   0.744   0.057   2.920  0.8402  0.7240  0.7942
 5542SOL    HW228260   0.683   0.051   2.788 -2.2338  0.8754  1.4534
 5543SOL     OW28261   1.760   1.476   5.376 -0.0074 -0.1924  0.6465
 5543SOL    HW128262   1.702   1.401   5.365  0.9325 -0.5638 -1.8179
 5543SOL    HW228263   1.698   1.548   5.369 -1.1111 -1.3080 -1.2076
 5544SOL     OW28264   2.100   4.213   8.745 -0.6268  0.5269 -0.5876
 5544SOL    HW128265   2.061   4.247   8.664 -0.3481 -0.3094 -1.0651
 5544SOL    HW228266   2.052   4.132   8.761  1.7194 -0.3723  1.8065
 5545SOL     OW28267   0.803   0.286   3.300  0.6201  0.4792  0.0853
 5545SOL    HW128268   0.868   0.285   3.229  3.3649  0.5838  2.6142
 5545SOL    HW228269   0.844   0.356   3.350 -1.4719  0.2472  2.0921
 5546SOL     OW28270   2.283   3.849   5.524 -0.6475 -0.3088  1.0827
 5546SOL    HW128271   2.335   3.801   5.589 -0.4756  0.2198  1.3342
 5546SOL    HW228272   2.356   3.888   5.476 -0.2783 -3.3574 -0.8414
 5547SOL     OW28273   0.076   3.813  13.567  0.3517  0.6357  0.7160
 5547SOL    HW128274   0.115   3.783  13.486 -3.4386 -1.6590 -0.2652
 5547SOL    HW228275   0.035   3.737  13.610 -0.1480 -0.8588 -2.4339
 5548SOL     OW28276   1.774   2.491   8.475  0.4396 -0.0929  0.3841
 5548SOL    HW128277   1.801   2.412   8.523 -0.3921 -0.6588 -0.0895
 5548SOL    HW228278   1.686   2.505   8.510  0.6250  1.9338  0.0330
 5549SOL     OW28279   0.996   3.153   2.535  0.0788 -0.1792  0.1903
 5549SOL    HW128280   0.962   3.183   2.451  0.7065  0.8143  0.2952
 5549SOL    HW228281   0.947   3.216   2.588 -1.1915  0.0630 -1.2563
 5550SOL     OW28282   1.796   3.191   6.137 -0.1663 -0.0828 -0.1165
 5550SOL    HW128283   1.744   3.196   6.217 -0.9014 -4.5769 -0.3161
 5550SOL    HW228284   1.872   3.134   6.152  0.4978  1.6134  3.0134
 5551SOL     OW28285   4.189   3.683   3.360  0.0916 -0.3560  0.4352
 5551SOL    HW128286   4.157   3.717   3.444  1.2194 -1.3096  1.2470
 5551SOL    HW228287   4.114   3.633   3.327 -0.1082  0.0918  0.2070
 5552SOL     OW28288   2.055   1.417  17.025 -0.0121  0.8649  0.0544
 5552SOL    HW128289   2.099   1.391  16.945  0.0687 -0.6439  0.6010
 5552SOL    HW228290   1.989   1.478  16.992 -0.9308  0.4530  1.1268
 5553SOL     OW28291   1.344   0.539   2.048 -0.3188  0.2307 -0.7690
 5553SOL    HW128292   1.337   0.514   2.140  0.6735  0.3453 -0.6663
 5553SOL    HW228293   1.387   0.462   2.012 -1.5802 -0.0737 -1.6366
 5554SOL     OW28294   2.989   2.866   3.077  0.2927 -0.4766 -0.2780
 5554SOL    HW128295   3.083   2.848   3.071  0.3997 -0.0425  0.1091
 5554SOL    HW228296   2.956   2.792   3.026 -0.7989  0.4807 -0.9500
 5555SOL     OW28297   1.325   2.239   8.027 -0.0411  0.7019 -0.0377
 5555SOL    HW128298   1.384   2.304   7.991  1.0959 -0.3213 -0.0289
 5555SOL    HW228299   1.390   2.169   8.021  0.3072  0.9318  1.0624
 5556SOL     OW28300   4.383   1.969  15.889 -0.3462  0.0828  0.1734
 5556SOL    HW128301   4.425   2.051  15.918  0.3619 -0.7038  1.3614
 5556SOL    HW228302   4.294   1.976  15.923 -0.7935  0.7228 -1.1173
 5557SOL     OW28303   1.230   4.443   0.675 -0.4308 -0.6312 -0.1132
 5557SOL    HW128304   1.180   4.364   0.699  1.2342 -1.0872  1.8595
 5557SOL    HW228305   1.205   4.455   0.584  2.3294  0.1554 -0.7553
 5558SOL     OW28306   0.067   1.127   6.934  0.1953  0.0768  0.2346
 5558SOL    HW128307   0.033   1.184   6.866  0.0547  0.4209  0.5963
 5558SOL    HW228308   0.137   1.178   6.975 -0.1140  0.6729  0.0075
 5559SOL     OW28309   1.240   4.567  16.019  0.1162  0.1516  0.4271
 5559SOL    HW128310   1.158   4.602  16.054 -0.1731 -0.0593 -0.0355
 5559SOL    HW228311   1.297   4.611  16.082 -1.4608  1.3176  1.0413
 5560SOL     OW28312   1.333   2.081   6.589  0.0948 -0.0016 -0.1828
 5560SOL    HW128313   1.348   2.099   6.682 -2.0650  1.5930 -0.1425
 5560SOL    HW228314   1.267   2.148   6.571  2.0899  2.0287  0.1353
 5561SOL     OW28315   2.127   0.510   2.104  0.5772  0.2286 -0.2026
 5561SOL    HW128316   2.056   0.573   2.115 -0.3364 -0.8577  0.1078
 5561SOL    HW228317   2.168   0.544   2.024  0.5117 -1.0687 -0.7914
 5562SOL     OW28318   1.225   0.752   0.252 -0.2874 -0.3801  0.5716
 5562SOL    HW128319   1.285   0.822   0.227 -0.8126 -0.5922 -1.2557
 5562SOL    HW228320   1.139   0.791   0.262 -0.3054 -0.0847 -0.8415
 5563SOL     OW28321   2.991   2.015   5.986 -0.3218 -0.2651  0.2753
 5563SOL    HW128322   3.039   1.963   6.050  1.9464  2.7082  1.0156
 5563SOL    HW228323   2.955   2.086   6.039 -0.8628  0.8077 -1.5233
 5564SOL     OW28324   2.006   1.302   5.550  0.0980 -0.4795 -0.3032
 5564SOL    HW128325   2.064   1.347   5.611  1.0102 -1.4499 -0.4692
 5564SOL    HW228326   1.943   1.374   5.559 -0.1293 -0.9361  1.8332
 5565SOL     OW28327   0.381   1.748  16.737  0.5271 -0.0284  0.3761
 5565SOL    HW128328   0.313   1.695  16.695 -0.3378  0.9865  0.5038
 5565SOL    HW228329   0.362   1.823  16.681  2.5791 -2.1022 -3.1623
 5566SOL     OW28330   0.883   4.266   0.902 -0.0096  0.1744  0.1361
 5566SOL    HW128331   0.853   4.328   0.835 -0.0967  0.6119  0.5838
 5566SOL    HW228332   0.965   4.239   0.858 -0.9616 -0.5655 -1.2007
 5567SOL     OW28333   4.117   0.253   5.435  0.5037 -0.9685 -0.5319
 5567SOL    HW128334   4.024   0.239   5.453  0.5605 -0.4320  0.1745
 5567SOL    HW228335   4.152   0.164   5.438 -1.6151 -1.8074 -0.7617
 5568SOL     OW28336   3.281   4.726   9.594 -0.3575 -0.0865 -0.3055
 5568SOL    HW128337   3.295   4.632   9.587 -0.0132  0.2232 -3.9737
 5568SOL    HW228338   3.303   0.004   9.686  0.1069  2.8241 -0.8769
 5569SOL     OW28339   1.939   3.567  12.462  0.0208  0.2206  0.6283
 5569SOL    HW128340   1.860   3.514  12.474  0.2725 -0.4416 -0.6063
 5569SOL    HW228341   1.975   3.534  12.379  2.1020  0.9928  1.2172
 5570SOL     OW28342   2.267   0.354   2.990 -0.2298  0.3368 -0.2492
 5570SOL    HW128343   2.267   0.386   3.080  1.7657 -1.7537  0.4790
 5570SOL    HW228344   2.289   0.426   2.931  0.6579 -2.2036 -3.0116
 5571SOL     OW28345   2.013   1.847   1.832 -0.0730 -0.0477 -0.4482
 5571SOL    HW128346   1.936   1.816   1.785  0.6946 -1.0738 -1.0325
 5571SOL    HW228347   2.087   1.844   1.771  1.2393 -0.9061  1.2035
 5572SOL     OW28348   3.026   1.915  10.836 -0.6205  0.0289  0.1398
 5572SOL    HW128349   3.096   1.858  10.871  0.6508  1.0056 -0.8345
 5572SOL    HW228350   3.080   1.976  10.786  0.4433 -3.5770 -3.1310
 5573SOL     OW28351   0.786   3.349   0.772 -0.2598 -1.1868  0.1236
 5573SOL    HW128352   0.718   3.414   0.758  1.0648 -0.3160 -2.2769
 5573SOL    HW228353   0.799   3.329   0.679 -0.7518  1.1170 -0.4359
 5574SOL     OW28354   1.975   3.875   6.739  0.0177  0.0893 -0.3960
 5574SOL    HW128355   1.940   3.791   6.767 -1.2084  1.0382  0.8507
 5574SOL    HW228356   1.897   3.918   6.705 -0.5201 -1.1323 -0.6904
 5575SOL     OW28357   0.176   4.232   6.733  0.2509  0.5324 -0.2603
 5575SOL    HW128358   0.158   4.306   6.792 -0.5521 -0.5072  0.8059
 5575SOL    HW228359   0.110   4.168   6.758 -1.1820  2.4805  0.9143
 5576SOL     OW28360   1.704   1.571   2.308 -0.2786 -0.4563  0.8423
 5576SOL    HW128361   1.761   1.644   2.333  1.2674 -1.8388  1.3646
 5576SOL    HW228362   1.750   1.497   2.350  0.2843  0.5650  2.0420
 5577SOL     OW28363   1.043   4.721   3.149 -0.7358 -0.2197  0.1155
 5577SOL    HW128364   0.980   4.684   3.087 -0.6550  3.1986 -1.9747
 5577SOL    HW228365   1.030   4.665   3.226 -0.3361 -0.4998 -0.0211
 5578SOL     OW28366   4.411   3.511  13.250 -0.2897 -0.0596  0.0846
 5578SOL    HW128367   4.423   3.532  13.343 -0.2583  1.3819 -0.2436
 5578SOL    HW228368   4.505   3.504  13.238 -0.1852 -0.7537  1.3169
 5579SOL     OW28369   0.276   1.929   7.855 -0.2453 -0.3373 -0.0095
 5579SOL    HW128370   0.363   1.899   7.878 -0.4163 -0.5263  0.3959
 5579SOL    HW228371   0.226   1.856   7.892  0.8921 -0.4856  1.1792
 5580SOL     OW28372   0.144   2.055   1.981 -0.0910 -0.6083  0.0908
 5580SOL    HW128373   0.056   2.039   2.017  0.2329  1.3921  1.7673
 5580SOL    HW228374   0.149   2.008   1.898  1.5499 -0.6401  0.2111
 5581SOL     OW28375   1.818   3.925   3.288 -0.0837  0.3543  0.2568
 5581SOL    HW128376   1.808   3.845   3.236 -2.9921  0.4970  0.5902
 5581SOL    HW228377   1.741   3.932   3.344  0.7509  1.2479  1.3020
 5582SOL     OW28378   4.672   2.886   0.530  0.3223  0.1142 -0.1912
 5582SOL    HW128379   4.720   2.814   0.489 -2.1458 -0.9779 -1.1633
 5582SOL    HW228380   0.009   2.945   0.546 -0.4832  1.1758 -0.3664
 5583SOL     OW28381   4.370   2.591   7.663 -0.1961  0.1599  0.2296
 5583SOL    HW128382   4.391   2.675   7.622 -3.5131  0.0926 -1.6437
 5583SOL    HW228383   4.379   2.623   7.753 -0.7208  0.0619  0.3190
 5584SOL     OW28384   0.850   1.960  14.492 -0.1120  0.9029  0.5942
 5584SOL    HW128385   0.767   1.925  14.460  0.9094 -1.1171  0.1948
 5584SOL    HW228386   0.888   1.886  14.539 -0.5666 -0.4342 -1.1984
 5585SOL     OW28387   4.270   2.428   6.713  0.0607  0.5410 -0.4992
 5585SOL    HW128388   4.259   2.345   6.667  0.4555 -0.7254  1.6795
 5585SOL    HW228389   4.318   2.481   6.649  0.1286 -2.2216 -2.7202
 5586SOL     OW28390   1.158   4.426   7.906 -0.3506 -0.6892  0.1444
 5586SOL    HW128391   1.219   4.421   7.833 -3.5008  1.3872 -2.6591
 5586SOL    HW228392   1.144   4.333   7.927  2.6358 -1.9015 -3.3127
 5587SOL     OW28393   1.506   0.553  11.004  0.3235  0.0087  0.1989
 5587SOL    HW128394   1.502   0.640  10.963 -0.2595 -1.0270 -1.9546
 5587SOL    HW228395   1.447   0.566  11.078 -2.4493  1.2284 -2.2091
 5588SOL     OW28396   1.087   2.287   2.574  0.1219 -0.2372 -0.0689
 5588SOL    HW128397   1.133   2.279   2.657  1.5080  0.6443 -0.7603
 5588SOL    HW228398   1.157   2.245   2.523 -0.2371 -1.9250  0.8113
 5589SOL     OW28399   2.063   3.257   4.260  0.3889 -1.1364 -0.5004
 5589SOL    HW128400   2.033   3.266   4.351  1.8296 -1.6727  0.0196
 5589SOL    HW228401   1.990   3.210   4.219  0.6886 -1.7485 -0.3331
 5590SOL     OW28402   1.395   2.133   2.062  0.3231  0.5506  1.0101
 5590SOL    HW128403   1.321   2.193   2.051 -2.7724 -3.9103 -2.0348
 5590SOL    HW228404   1.361   2.063   2.007  0.2836  0.5079  1.0895
 5591SOL     OW28405   1.990   0.279   4.060 -0.0049 -0.0027 -0.5478
 5591SOL    HW128406   2.077   0.245   4.079 -0.1992 -0.5233 -0.5888
 5591SOL    HW228407   1.980   0.345   4.129 -2.1447  1.2918 -2.0887
 5592SOL     OW28408   3.231   3.673   1.916  0.6241  0.2487 -0.1160
 5592SOL    HW128409   3.309   3.705   1.871 -0.0767  0.5565 -1.1045
 5592SOL    HW228410   3.233   3.579   1.898 -0.4364  0.3859 -0.9526
 5593SOL     OW28411   2.896   3.044  17.429 -0.5084  0.6832  0.1322
 5593SOL    HW128412   2.905   3.027  17.336  1.4653 -3.4772  1.0641
 5593SOL    HW228413   2.951   3.122  17.426  0.3212  0.1133  0.4352
 5594SOL     OW28414   4.242   4.552   3.087  0.1387 -0.7926  0.1378
 5594SOL    HW128415   4.195   4.529   3.006 -2.3295  2.2842  0.7052
 5594SOL    HW228416   4.287   4.633   3.066 -0.2465 -0.2562  1.4139
 5595SOL     OW28417   3.275   0.759   7.797 -0.2452  0.0149  0.0140
 5595SOL    HW128418   3.216   0.774   7.723  2.0305 -1.2237 -2.0396
 5595SOL    HW228419   3.247   0.669   7.817 -0.3505  0.0446  0.0027
 5596SOL     OW28420   2.063   0.261  14.898  0.1860  0.0988  0.1698
 5596SOL    HW128421   2.042   0.353  14.916 -1.5804 -0.4814  1.1223
 5596SOL    HW228422   2.114   0.239  14.975 -0.1918 -1.5811 -0.0690
 5597SOL     OW28423   1.909   1.134  14.254  0.3055 -0.3925 -0.3114
 5597SOL    HW128424   1.931   1.154  14.163  1.8888 -0.6851  0.0090
 5597SOL    HW228425   1.972   1.063  14.265  1.8383  1.4011  2.4931
 5598SOL     OW28426   0.484   0.617   6.714 -0.6170  0.0846  0.2723
 5598SOL    HW128427   0.458   0.569   6.636  1.1288 -1.9304  0.9241
 5598SOL    HW228428   0.511   0.702   6.678  0.7162 -0.1859  0.6427
 5599SOL     OW28429   3.101   0.848   3.200  0.3101  0.3260 -0.6302
 5599SOL    HW128430   3.155   0.924   3.180 -0.0113  0.1654 -2.1480
 5599SOL    HW228431   3.034   0.891   3.252  1.9769 -0.1660  1.9140
 5600SOL     OW28432   1.795   4.133  16.914  0.1541  0.2064  0.3862
 5600SOL    HW128433   1.815   4.137  16.820  0.4167 -0.5753  0.4124
 5600SOL    HW228434   1.800   4.225  16.941 -2.0645  0.0643  1.2376
 5601SOL     OW28435   0.569   3.765   2.790 -0.2446  0.3718 -0.5835
 5601SOL    HW128436   0.517   3.751   2.869 -0.3171 -0.6823 -0.8229
 5601SOL    HW228437   0.518   3.831   2.743 -2.1279 -0.2207  0.6604
 5602SOL     OW28438   4.077   0.470   3.008  0.3167  0.2871  0.1746
 5602SOL    HW128439   4.114   0.407   2.946 -1.8560  0.0072 -0.8538
 5602SOL    HW228440   4.023   0.518   2.945 -0.3194 -0.7387 -0.0566
 5603SOL     OW28441   2.989   4.587   3.994  0.2628 -0.8527 -0.2542
 5603SOL    HW128442   3.030   4.641   3.926 -0.1388  2.2175  1.9363
 5603SOL    HW228443   2.972   4.510   3.939  0.2196 -0.9142 -0.1538
 5604SOL     OW28444   2.932   1.104  15.630 -0.3510 -0.0850  0.1812
 5604SOL    HW128445   3.005   1.145  15.675  0.8319 -1.8792 -0.1016
 5604SOL    HW228446   2.863   1.165  15.654  0.0406  0.3416  0.2237
 5605SOL     OW28447   1.891   2.440   8.187 -0.9349 -0.4396 -0.2420
 5605SOL    HW128448   1.864   2.520   8.143 -0.5471  0.6555  1.5359
 5605SOL    HW228449   1.845   2.455   8.269  1.6320 -0.2254  1.1701
 5606SOL     OW28450   4.039   1.180  11.777 -0.0785  0.4657  0.1595
 5606SOL    HW128451   4.090   1.153  11.700  2.1368  1.1963  1.3612
 5606SOL    HW228452   4.106   1.237  11.816  1.0126 -1.4087  1.0579
 5607SOL     OW28453   1.197   2.102   8.640 -0.7434  0.2223 -0.8044
 5607SOL    HW128454   1.219   2.194   8.649  1.9516 -0.5360  0.5150
 5607SOL    HW228455   1.278   2.065   8.674 -1.9327  1.3491  3.1584
 5608SOL     OW28456   3.418   2.758   6.926  0.0291 -0.0478  0.2533
 5608SOL    HW128457   3.419   2.675   6.975  2.8528 -0.1051  0.1170
 5608SOL    HW228458   3.511   2.781   6.921 -0.0638  0.2202 -0.2114
 5609SOL     OW28459   1.866   2.403   9.187  0.5231 -0.1841 -0.2906
 5609SOL    HW128460   1.867   2.421   9.281  0.9069 -0.9378 -0.1521
 5609SOL    HW228461   1.772   2.422   9.184  0.7454  0.6473 -1.6552
 5610SOL     OW28462   2.800   0.734   6.540  0.2954  0.0382 -0.2929
 5610SOL    HW128463   2.832   0.728   6.630 -1.0567  1.0797  0.2605
 5610SOL    HW228464   2.785   0.640   6.533 -3.5323  0.4730  1.8599
 5611SOL     OW28465   2.054   3.876   2.295 -0.4402 -0.3171  0.2780
 5611SOL    HW128466   2.028   3.784   2.301 -2.7087  0.2444 -0.9879
 5611SOL    HW228467   2.086   3.893   2.383 -0.4976 -1.6897  0.5674
 5612SOL     OW28468   4.549   1.890   1.895 -0.1904  0.1909 -0.0444
 5612SOL    HW128469   4.523   1.980   1.876 -0.8686 -0.0280 -0.1671
 5612SOL    HW228470   4.546   1.856   1.806 -1.3426  0.2709 -0.0345
 5613SOL     OW28471   1.234   1.978   1.076 -0.1393  0.0792 -0.6239
 5613SOL    HW128472   1.307   1.917   1.086  1.0602  1.5809 -0.2777
 5613SOL    HW228473   1.230   1.965   0.981  0.3781  1.0542 -0.7787
 5614SOL     OW28474   1.639   0.172   5.946 -0.1592  0.0247 -0.1785
 5614SOL    HW128475   1.561   0.224   5.930 -0.6508 -1.2483 -1.8923
 5614SOL    HW228476   1.651   0.141   5.856 -1.1711  0.6228 -0.5202
 5615SOL     OW28477   0.319   4.225   6.144 -0.2159  0.2583 -0.1684
 5615SOL    HW128478   0.248   4.227   6.209  0.9007 -2.6350  1.1042
 5615SOL    HW228479   0.394   4.179   6.179  0.7537 -0.1204 -2.7175
 5616SOL     OW28480   3.784   2.351   7.800  0.0959  0.4956 -0.3039
 5616SOL    HW128481   3.739   2.408   7.738 -0.5237  1.3653  0.9489
 5616SOL    HW228482   3.716   2.292   7.832 -1.1116  2.0962  0.0570
 5617SOL     OW28483   0.275   0.924   4.957 -0.3287  0.0519 -0.4358
 5617SOL    HW128484   0.291   0.838   4.997  2.3562 -0.1697 -1.9829
 5617SOL    HW228485   0.238   0.977   5.028 -1.0721 -0.7763 -0.2113
 5618SOL     OW28486   0.757   4.550   5.060  0.2428 -0.7362 -0.2658
 5618SOL    HW128487   0.826   4.615   5.067 -1.9642  1.8412 -2.4054
 5618SOL    HW228488   0.696   4.573   5.129  0.2616 -0.6045 -0.2923
 5619SOL     OW28489   3.325   3.217  11.995 -0.1293  0.4249  0.9409
 5619SOL    HW128490   3.287   3.196  12.081  1.6943 -0.0943  1.6072
 5619SOL    HW228491   3.286   3.303  11.981  1.0171  0.7320 -0.2930
 5620SOL     OW28492   0.670   1.894   5.120 -0.3369  0.1888 -0.0515
 5620SOL    HW128493   0.705   1.827   5.061 -0.1952  0.8077 -0.6698
 5620SOL    HW228494   0.595   1.843   5.150 -0.4129  0.0464 -0.4739
 5621SOL     OW28495   0.431   3.737   7.495  0.1423  0.5488 -0.5113
 5621SOL    HW128496   0.376   3.673   7.449 -0.9708  0.6157  0.7320
 5621SOL    HW228497   0.414   3.816   7.443 -2.5144 -0.7990 -1.7204
 5622SOL     OW28498   0.409   3.811   2.459  0.1008  0.1566 -0.1405
 5622SOL    HW128499   0.425   3.731   2.411  0.2714  0.1088 -0.0049
 5622SOL    HW228500   0.484   3.861   2.425 -0.0292 -0.6176 -1.5254
 5623SOL     OW28501   0.102   0.375  16.968  0.1248  0.2523 -0.3194
 5623SOL    HW128502   0.158   0.319  17.023 -1.5862 -0.5921  0.5579
 5623SOL    HW228503   0.146   0.388  16.884  1.4689  0.6048  0.4276
 5624SOL     OW28504   3.028   3.705  10.683 -0.5522 -0.0927 -0.0080
 5624SOL    HW128505   3.058   3.645  10.751 -2.3490 -2.4360 -1.3130
 5624SOL    HW228506   3.036   3.650  10.605 -1.9034 -0.3628  0.0563
 5625SOL     OW28507   4.537   1.041  10.851  0.0996  0.5162 -0.0843
 5625SOL    HW128508   4.618   1.050  10.801 -1.0717  1.3290 -1.8431
 5625SOL    HW228509   4.472   1.041  10.780 -0.7757 -0.3793  0.7124
 5626SOL     OW28510   0.162   1.898   7.364  0.1372 -0.1571  0.4426
 5626SOL    HW128511   0.069   1.897   7.343  0.1317  0.7418  0.4435
 5626SOL    HW228512   0.161   1.824   7.425 -0.6666  0.4029  1.1099
 5627SOL     OW28513   1.606   3.600   7.641 -0.7376  0.1239 -0.0809
 5627SOL    HW128514   1.613   3.521   7.588 -0.9501 -0.0117  0.0956
 5627SOL    HW228515   1.623   3.667   7.575  0.0837  0.2082  0.2094
 5628SOL     OW28516   0.683   1.603   9.570  0.7384  0.0739  0.1674
 5628SOL    HW128517   0.739   1.639   9.639 -0.3499 -0.1201  1.1544
 5628SOL    HW228518   0.598   1.645   9.582  0.1078  0.1166 -4.6123
 5629SOL     OW28519   3.436   4.411   7.558 -1.2049 -0.2992  0.0560
 5629SOL    HW128520   3.464   4.455   7.638  1.9627 -0.0204 -1.1839
 5629SOL    HW228521   3.342   4.431   7.563 -1.2317 -0.9440  2.1614
 5630SOL     OW28522   3.334   4.080  15.714  0.0131 -0.5066  0.5521
 5630SOL    HW128523   3.375   4.137  15.649 -1.8762 -1.7526 -1.7014
 5630SOL    HW228524   3.411   4.044  15.760  0.8556 -0.9843 -1.2443
 5631SOL     OW28525   1.451   0.689   6.962  0.2746  0.0400 -0.2910
 5631SOL    HW128526   1.428   0.670   6.871  1.6621 -1.9204 -0.2191
 5631SOL    HW228527   1.449   0.599   6.993 -0.0633  0.6825  1.5360
 5632SOL     OW28528   1.764   1.242   1.488  0.1381 -0.2787  0.7051
 5632SOL    HW128529   1.740   1.252   1.580 -1.0434  2.0768  0.1501
 5632SOL    HW228530   1.779   1.148   1.482 -1.6008 -0.4886 -0.2657
 5633SOL     OW28531   0.765   4.472   5.583 -0.2419 -0.5121 -0.0300
 5633SOL    HW128532   0.755   4.541   5.649 -0.8219  0.4818 -1.1550
 5633SOL    HW228533   0.678   4.434   5.572  1.0883 -2.9788 -1.9579
 5634SOL     OW28534   2.716   3.939  15.750  0.4180  0.3467  0.2154
 5634SOL    HW128535   2.779   3.883  15.794 -2.3106 -1.8604  1.3074
 5634SOL    HW228536   2.633   3.930  15.797  0.0863 -0.0869 -0.4524
 5635SOL     OW28537   2.136   3.527   5.250 -0.3197  0.2063 -0.4278
 5635SOL    HW128538   2.073   3.484   5.308  2.9643 -2.3836  1.1729
 5635SOL    HW228539   2.197   3.565   5.313 -2.1768  1.0858  0.8395
 5636SOL     OW28540   0.757   1.997   7.410  0.3425 -0.0383 -0.1294
 5636SOL    HW128541   0.747   2.082   7.368  2.1605  0.1261 -0.1957
 5636SOL    HW228542   0.790   2.027   7.494 -0.5101 -0.2220  0.2793
 5637SOL     OW28543   2.675   2.018   4.222 -0.0164  0.5582  0.5321
 5637SOL    HW128544   2.762   2.054   4.238 -0.3087  1.7470 -0.5179
 5637SOL    HW228545   2.686   1.966   4.142  1.2190  2.0543 -0.2646
 5638SOL     OW28546   1.869   0.473   9.691  0.1309 -0.4962  0.1503
 5638SOL    HW128547   1.941   0.410   9.682  0.7122  0.2380 -0.2404
 5638SOL    HW228548   1.888   0.493   9.782 -0.4311 -0.3714  0.2395
 5639SOL     OW28549   1.702   4.408   5.110 -0.1513 -0.0053 -0.3207
 5639SOL    HW128550   1.643   4.345   5.152 -2.0064  0.8140 -1.7115
 5639SOL    HW228551   1.786   4.378   5.146  0.3440 -0.7248 -2.0291
 5640SOL     OW28552   3.029   3.235   7.648 -0.1565 -0.1525 -0.5036
 5640SOL    HW128553   3.123   3.250   7.641  0.0389 -1.0611  0.2100
 5640SOL    HW228554   2.991   3.298   7.587 -1.2158 -1.8260 -1.5494
 5641SOL     OW28555   1.082   0.713  10.370  0.1969 -0.4817 -0.2034
 5641SOL    HW128556   1.112   0.793  10.327  1.0095 -0.8312 -0.2766
 5641SOL    HW228557   1.157   0.659  10.346 -0.0150 -1.1877  0.7131
 5642SOL     OW28558   0.810   4.506   2.620  0.1318 -0.3767 -0.2002
 5642SOL    HW128559   0.851   4.435   2.570 -1.4346 -1.0864 -0.4519
 5642SOL    HW228560   0.766   4.455   2.687  1.1057 -2.0312 -0.8150
 5643SOL     OW28561   3.262   1.319   3.628 -0.1735  0.3010 -0.1428
 5643SOL    HW128562   3.296   1.303   3.540  0.0049 -0.7886  0.1190
 5643SOL    HW228563   3.324   1.290   3.695 -0.7244  2.7675  1.4047
 5644SOL     OW28564   1.694   3.434   4.868  0.4961 -0.5686 -0.1810
 5644SOL    HW128565   1.744   3.475   4.940  0.8911 -0.2657 -0.6230
 5644SOL    HW228566   1.604   3.454   4.895 -0.1181 -0.0188 -2.6929
 5645SOL     OW28567   1.488   4.562   4.272 -0.1388  0.0693  0.6739
 5645SOL    HW128568   1.466   4.651   4.301  1.9839  0.1188  2.1922
 5645SOL    HW228569   1.557   4.533   4.332  1.1099 -1.9698 -1.7432
 5646SOL     OW28570   0.748   4.387   4.550 -0.2111 -0.1790 -0.8138
 5646SOL    HW128571   0.658   4.357   4.566  0.5858 -2.5603 -0.8498
 5646SOL    HW228572   0.781   4.353   4.633 -0.4068  0.2804 -0.5450
 5647SOL     OW28573   3.264   2.858   0.394 -0.2771 -0.2055  0.1025
 5647SOL    HW128574   3.232   2.786   0.449 -1.9989  0.2653 -0.2582
 5647SOL    HW228575   3.347   2.879   0.436 -0.9000  0.2007  1.1532
 5648SOL     OW28576   3.389   2.113   5.723  0.0054 -0.0980  0.4886
 5648SOL    HW128577   3.324   2.124   5.653  0.1559  0.2128  0.3958
 5648SOL    HW228578   3.360   2.173   5.791 -1.0505 -1.9250  1.6410
 5649SOL     OW28579   2.592   0.844   3.675  0.2613 -0.1870  0.4627
 5649SOL    HW128580   2.610   0.884   3.761 -2.3816 -1.7582  1.7306
 5649SOL    HW228581   2.509   0.887   3.655  0.7165  1.3721  1.8283
 5650SOL     OW28582   0.045   4.580   8.213 -0.3176 -0.1669  0.0857
 5650SOL    HW128583   0.094   4.662   8.202  0.8080 -0.6032  1.7370
 5650SOL    HW228584   0.091   4.518   8.157  2.7883  1.5656  0.7024
 5651SOL     OW28585   1.537   1.555   6.043 -0.3292 -0.2871  0.3206
 5651SOL    HW128586   1.458   1.502   6.046 -1.5397  1.3905 -1.6939
 5651SOL    HW228587   1.518   1.617   6.113  2.1547 -0.0124  0.7652
 5652SOL     OW28588   2.639   3.104   2.276  0.4577 -0.2820 -0.2079
 5652SOL    HW128589   2.646   3.053   2.195 -1.2228 -0.5702 -0.1755
 5652SOL    HW228590   2.550   3.087   2.309  0.2933  0.9475  0.0030
 5653SOL     OW28591   3.437   2.959   9.466  0.4707 -0.1917  0.4006
 5653SOL    HW128592   3.431   2.865   9.485 -1.0556 -0.4218 -1.3000
 5653SOL    HW228593   3.354   2.995   9.497  0.8709 -2.1914  3.8810
 5654SOL     OW28594   4.662   0.004   8.403 -0.2251  0.2096 -0.2542
 5654SOL    HW128595   4.686   4.676   8.336  2.7805  0.8405  0.2044
 5654SOL    HW228596   4.575   4.715   8.435  0.3838 -1.5215  0.0203
 5655SOL     OW28597   1.534   3.310   3.571 -0.0915 -0.1488  0.1094
 5655SOL    HW128598   1.480   3.319   3.650 -0.8406  0.3673 -0.4678
 5655SOL    HW228599   1.477   3.250   3.522 -0.2274 -0.3586  0.5234
 5656SOL     OW28600   2.792   2.932  13.108  0.1663  0.0415 -0.3432
 5656SOL    HW128601   2.780   2.838  13.097  1.1925 -0.0717 -0.4823
 5656SOL    HW228602   2.713   2.967  13.151 -0.4073 -1.1818 -0.3909
 5657SOL     OW28603   3.357   1.077   6.090  0.9852  0.4085  0.1327
 5657SOL    HW128604   3.350   1.114   6.001  0.3421 -0.0742 -0.0173
 5657SOL    HW228605   3.429   1.015   6.084  0.4501 -0.2197  0.0980
 5658SOL     OW28606   0.234   1.856  10.742 -0.1420  0.3005  0.1770
 5658SOL    HW128607   0.195   1.842  10.656  1.5994 -0.2709 -0.5267
 5658SOL    HW228608   0.219   1.951  10.738  1.0634  0.3601 -2.6397
 5659SOL     OW28609   1.206   0.488   6.875  0.1451  0.0676  0.1718
 5659SOL    HW128610   1.296   0.504   6.849  0.6850 -1.6493  0.9775
 5659SOL    HW228611   1.167   0.575   6.879  0.1995  0.2111 -2.9258
 5660SOL     OW28612   2.350   3.320   5.162  0.3122 -0.6434  0.2330
 5660SOL    HW128613   2.403   3.362   5.094 -0.4845  0.5374  0.3306
 5660SOL    HW228614   2.308   3.397   5.201 -2.8538 -1.9514 -0.5899
 5661SOL     OW28615   3.532   0.002   0.822 -0.0861  0.2837  0.1694
 5661SOL    HW128616   3.447   4.710   0.856 -0.3444 -1.4043 -1.9043
 5661SOL    HW228617   3.507   0.081   0.773 -1.2161  0.8434  1.6385
 5662SOL     OW28618   2.116   2.300   3.915 -0.4017  0.1905  0.4527
 5662SOL    HW128619   2.063   2.362   3.965 -0.8055 -0.2684  0.5943
 5662SOL    HW228620   2.199   2.320   3.958  1.4081 -1.1354 -2.4327
 5663SOL     OW28621   1.410   3.287   0.290  0.0625 -0.3351 -0.2355
 5663SOL    HW128622   1.404   3.201   0.249 -1.9068  0.1310 -0.8713
 5663SOL    HW228623   1.401   3.274   0.385  0.9308  1.3117  0.0823
 5664SOL     OW28624   0.796   0.167   6.388  0.0958  0.0147 -0.1525
 5664SOL    HW128625   0.772   0.077   6.363  2.2074 -0.3492 -0.8570
 5664SOL    HW228626   0.749   0.212   6.318  0.5516  1.0435  0.1993
 5665SOL     OW28627   1.330   1.637   2.321  0.4594  0.5379  0.3251
 5665SOL    HW128628   1.279   1.652   2.241  2.4297 -1.2464 -1.2542
 5665SOL    HW228629   1.399   1.581   2.286 -0.1083 -1.4621  2.3916
 5666SOL     OW28630   4.334   4.120   2.658  0.1340  0.2012  0.3348
 5666SOL    HW128631   4.379   4.038   2.680 -1.2315 -1.0453 -1.4043
 5666SOL    HW228632   4.335   4.161   2.744  3.1756  1.1856 -0.1670
 5667SOL     OW28633   3.555   2.119   3.664 -0.2749 -0.8909  0.8553
 5667SOL    HW128634   3.551   2.106   3.569  0.3795 -2.5934  1.0633
 5667SOL    HW228635   3.530   2.031   3.693  1.0868 -0.4136  3.4555
 5668SOL     OW28636   1.639   2.668   5.900  0.8680  0.5832 -0.2041
 5668SOL    HW128637   1.624   2.586   5.948  1.8257  1.0601  0.9156
 5668SOL    HW228638   1.562   2.714   5.935 -0.3994 -1.8765  0.2353
 5669SOL     OW28639   0.026   0.982  10.696  0.0987  0.0368  0.0947
 5669SOL    HW128640   0.106   1.024  10.665 -0.1577  1.4610  1.3668
 5669SOL    HW228641   0.071   0.909  10.737  0.4972  0.7585  0.9366
 5670SOL     OW28642   4.318   0.281   1.627  0.6544  0.0461  0.3265
 5670SOL    HW128643   4.344   0.294   1.536 -3.0362 -2.0724 -1.0444
 5670SOL    HW228644   4.392   0.259   1.682 -1.5417 -1.8153  2.5507
 5671SOL     OW28645   1.048   2.717   5.970  0.2779 -0.2215  0.0685
 5671SOL    HW128646   1.047   2.786   5.904  0.2509  0.7921  1.1301
 5671SOL    HW228647   1.081   2.642   5.920 -0.7122 -1.0832  0.7203
 5672SOL     OW28648   0.553   1.311   1.844  0.0408 -0.4421 -0.2367
 5672SOL    HW128649   0.551   1.215   1.854 -1.7901 -0.3439  0.3189
 5672SOL    HW228650   0.573   1.322   1.751 -2.3116  1.8621 -0.4448
 5673SOL     OW28651   1.205   3.835   7.430  0.2139  0.1725 -0.2266
 5673SOL    HW128652   1.140   3.857   7.364  1.3254  1.3229 -0.9362
 5673SOL    HW228653   1.158   3.781   7.494 -0.6637  0.9192 -0.2512
 5674SOL     OW28654   4.246   3.559  12.262 -0.0520  0.3531  0.2085
 5674SOL    HW128655   4.322   3.516  12.301  1.9026  1.8626 -2.0259
 5674SOL    HW228656   4.252   3.508  12.181 -5.0951 -0.0386  0.0804
 5675SOL     OW28657   2.292   0.039  14.993 -0.0195 -0.2285 -0.5673
 5675SOL    HW128658   2.343   0.011  15.069 -0.2189 -0.3568 -0.4808
 5675SOL    HW228659   2.362   0.066  14.934  0.5390 -0.0179  0.1902
 5676SOL     OW28660   0.181   2.919  16.558  0.2523  0.2375 -0.6598
 5676SOL    HW128661   0.201   2.968  16.478 -0.8897  1.4837 -0.1857
 5676SOL    HW228662   0.148   2.834  16.531  0.1976 -0.0490  0.2842
 5677SOL     OW28663   1.770   2.715   4.215  0.1322  0.5217 -0.0762
 5677SOL    HW128664   1.744   2.798   4.255 -2.9025 -0.4017 -0.0725
 5677SOL    HW228665   1.697   2.656   4.236  0.0636  0.9835  0.9597
 5678SOL     OW28666   1.497   0.320   5.429 -0.1649  0.3446  0.3660
 5678SOL    HW128667   1.479   0.227   5.420  1.4748  0.1628 -1.1636
 5678SOL    HW228668   1.421   0.350   5.479  1.7084  1.6300  2.4482
 5679SOL     OW28669   2.104   2.737   7.334 -0.8218  0.5830  0.3361
 5679SOL    HW128670   2.120   2.643   7.344 -0.6049  0.3367 -2.3944
 5679SOL    HW228671   2.022   2.738   7.286 -1.2601 -1.6644  1.0096
 5680SOL     OW28672   2.046   2.309   7.627  0.2680  0.0357 -0.3002
 5680SOL    HW128673   2.046   2.242   7.695  0.9653  1.1207  0.7619
 5680SOL    HW228674   2.074   2.385   7.679 -1.5703  0.3300  0.2453
 5681SOL     OW28675   2.310   2.155   1.504 -0.3604 -0.1388  0.6003
 5681SOL    HW128676   2.222   2.132   1.475 -0.8131  3.2207 -0.7152
 5681SOL    HW228677   2.356   2.134   1.423 -0.4945  1.4470  0.1082
 5682SOL     OW28678   1.454   3.222   2.766 -0.2568 -0.0237  0.1848
 5682SOL    HW128679   1.491   3.134   2.759 -1.2582 -0.5390  1.5148
 5682SOL    HW228680   1.533   3.271   2.743 -0.3452 -0.5316 -1.2304
 5683SOL     OW28681   1.494   0.787  10.874  0.9504 -0.0747  0.7046
 5683SOL    HW128682   1.542   0.793  10.791 -0.7785  1.3521 -0.1965
 5683SOL    HW228683   1.471   0.877  10.896 -0.5110 -0.6211  1.3618
 5684SOL     OW28684   1.390   3.885   6.455  0.5152  0.1070 -0.0388
 5684SOL    HW128685   1.365   3.802   6.414  2.2523 -0.0087 -0.8782
 5684SOL    HW228686   1.454   3.915   6.391 -0.7014  3.2782  0.2550
 5685SOL     OW28687   4.736   4.479   7.320  0.1936  0.2901 -0.4446
 5685SOL    HW128688   4.694   4.394   7.329  1.1429 -0.0491  0.7935
 5685SOL    HW228689   4.703   4.526   7.396  0.2087  1.2111 -1.0035
 5686SOL     OW28690   1.522   2.441   7.340 -0.4773  0.3527 -0.3138
 5686SOL    HW128691   1.572   2.362   7.363 -1.8013 -0.4488 -0.1940
 5686SOL    HW228692   1.447   2.410   7.289 -1.4467  0.5667  1.0068
 5687SOL     OW28693   1.932   0.780   5.096  0.0551  0.1665  0.2868
 5687SOL    HW128694   2.021   0.808   5.076 -0.6787  2.1280 -0.2629
 5687SOL    HW228695   1.893   0.856   5.139  1.4090 -0.1981  2.1770
 5688SOL     OW28696   2.481   1.423   6.128  0.2232 -0.0508  0.5459
 5688SOL    HW128697   2.413   1.474   6.174  2.1906  2.5637  0.5589
 5688SOL    HW228698   2.532   1.501   6.104 -0.4138  0.1165 -0.2667
 5689SOL     OW28699   0.317   1.472  17.384  0.0177 -0.2566  0.3417
 5689SOL    HW128700   0.350   1.536  17.448 -1.1110  0.9214 -0.2469
 5689SOL    HW228701   0.389   1.458  17.322  1.3004 -0.1488  1.8130
 5690SOL     OW28702   2.286   1.972   2.698  0.1289  0.2442  0.3365
 5690SOL    HW128703   2.356   1.928   2.650 -0.7651 -2.1236  1.1701
 5690SOL    HW228704   2.216   1.911   2.676  0.4167 -0.4699  1.4194
 5691SOL     OW28705   1.610   0.761   1.610 -0.2661  0.1608  0.1093
 5691SOL    HW128706   1.548   0.822   1.569  0.1982 -0.5277 -1.6034
 5691SOL    HW228707   1.592   0.678   1.566  0.8968 -0.5526  0.9832
 5692SOL     OW28708   4.483   3.920  12.685  1.0404  0.8769 -0.5689
 5692SOL    HW128709   4.409   3.975  12.659  0.0057  0.3149  1.1361
 5692SOL    HW228710   4.449   3.890  12.770 -0.2117  1.0888 -0.9976
 5693SOL     OW28711   4.471   2.327  10.931 -0.2354  0.2884 -0.2292
 5693SOL    HW128712   4.480   2.350  11.023  0.2372  0.6075 -0.3558
 5693SOL    HW228713   4.559   2.328  10.893 -0.3261  0.2989 -0.4445
 5694SOL     OW28714   2.720   2.698   2.809  0.1742 -0.8838 -0.8726
 5694SOL    HW128715   2.752   2.635   2.744 -0.6878 -0.5490 -1.6201
 5694SOL    HW228716   2.635   2.662   2.834 -0.8369  0.2276 -2.7400
 5695SOL     OW28717   1.744   4.142   5.886 -0.2021 -0.0380  0.0598
 5695SOL    HW128718   1.833   4.164   5.915 -0.5576  3.0796 -1.1822
 5695SOL    HW228719   1.763   4.079   5.817  1.1786  0.1140  0.3013
 5696SOL     OW28720   1.493   4.422   4.024  0.7734 -0.8569 -0.4221
 5696SOL    HW128721   1.575   4.373   4.025  0.7392 -0.9479 -1.8772
 5696SOL    HW228722   1.480   4.470   4.106 -0.1453 -2.4700  0.3601
 5697SOL     OW28723   1.672   4.039  15.456 -0.6411 -0.2517  0.3922
 5697SOL    HW128724   1.672   3.979  15.381  0.1403  1.8889 -1.3343
 5697SOL    HW228725   1.580   4.051  15.477 -0.2324  0.4703  1.7171
 5698SOL     OW28726   1.049   4.204   5.461 -0.0650 -0.8140  0.0182
 5698SOL    HW128727   1.033   4.293   5.491 -1.4567 -0.7778 -0.8510
 5698SOL    HW228728   1.138   4.184   5.492  0.5498 -1.7921 -2.3414
 5699SOL     OW28729   3.701   4.031   8.592  0.0937 -0.5616  0.2339
 5699SOL    HW128730   3.710   3.937   8.581 -0.9938 -0.8857  2.1315
 5699SOL    HW228731   3.607   4.038   8.612 -0.0311  0.3170 -0.6409
 5700SOL     OW28732   3.250   1.714   6.033 -0.0750  0.1802 -0.1008
 5700SOL    HW128733   3.199   1.645   6.076 -0.0593  1.2503  1.6350
 5700SOL    HW228734   3.232   1.704   5.939 -2.4137 -0.2775  0.3959
 5701SOL     OW28735   0.501   0.374   8.197 -0.0699  0.3639  0.0431
 5701SOL    HW128736   0.561   0.448   8.190  1.4994 -0.8902  0.3736
 5701SOL    HW228737   0.426   0.416   8.238  0.1827  0.2133  0.6575
 5702SOL     OW28738   1.333   2.030   3.984  0.0088 -0.0353  0.5624
 5702SOL    HW128739   1.347   2.117   3.945 -0.7052  0.2114  0.8550
 5702SOL    HW228740   1.407   2.026   4.044  1.6324  2.1769 -1.2840
 5703SOL     OW28741   3.724   0.646   4.651  0.3135 -0.0945 -1.2012
 5703SOL    HW128742   3.812   0.645   4.613  0.8909 -0.2930  0.1376
 5703SOL    HW228743   3.686   0.725   4.613 -0.9931  1.3085  3.0054
 5704SOL     OW28744   1.830   0.389   1.156  0.0855 -0.1685  0.1456
 5704SOL    HW128745   1.765   0.320   1.169 -0.8913  0.6946 -0.1139
 5704SOL    HW228746   1.857   0.417   1.244 -0.3187  0.6521  0.0094
 5705SOL     OW28747   0.613   2.384   1.280 -0.0321  0.2456  0.0347
 5705SOL    HW128748   0.656   2.452   1.332 -0.2827 -0.9534  1.8131
 5705SOL    HW228749   0.683   2.364   1.219  1.4149 -1.6810  2.3230
 5706SOL     OW28750   1.617   1.936  17.252 -0.2707 -0.0107 -0.6426
 5706SOL    HW128751   1.539   1.894  17.215  1.2645 -2.3314 -1.2185
 5706SOL    HW228752   1.578   2.003  17.309  1.2056  0.1709  0.1489
 5707SOL     OW28753   0.981   0.130   4.010 -0.0819 -0.2789 -0.1242
 5707SOL    HW128754   1.074   0.151   4.016  0.4471 -2.4959 -0.3699
 5707SOL    HW228755   0.989   0.035   4.001 -0.7154 -0.1011 -2.5121
 5708SOL     OW28756   2.891   0.969   6.672 -0.1027  0.2715  0.2615
 5708SOL    HW128757   2.933   0.988   6.589 -1.1994  0.9541 -0.1346
 5708SOL    HW228758   2.955   0.911   6.713 -1.7873 -0.2542  2.1825
 5709SOL     OW28759   2.819   2.889   7.862 -0.5178  0.1767  0.5236
 5709SOL    HW128760   2.846   2.919   7.776 -2.5846 -0.7495 -0.4650
 5709SOL    HW228761   2.890   2.895   7.927  1.5410 -2.7144 -1.4750
 5710SOL     OW28762   3.797   3.519   8.741 -0.3984  0.5224 -0.4314
 5710SOL    HW128763   3.716   3.570   8.737 -0.0983  1.1131  1.1154
 5710SOL    HW228764   3.808   3.522   8.836  3.0567  0.6474 -0.8338
 5711SOL     OW28765   3.046   0.657  13.715  0.1517  0.0075  0.4430
 5711SOL    HW128766   3.088   0.731  13.759  1.1217 -0.1831 -0.1538
 5711SOL    HW228767   2.970   0.707  13.686  0.8003  1.5914  1.4694
 5712SOL     OW28768   0.437   4.050   4.298  0.3724  0.2766 -0.3200
 5712SOL    HW128769   0.509   4.002   4.339 -0.9652  0.8508  2.6403
 5712SOL    HW228770   0.421   3.997   4.220 -1.4564  0.1910  0.1210
 5713SOL     OW28771   3.611   0.475   4.258 -0.1214 -0.1103 -0.4709
 5713SOL    HW128772   3.594   0.459   4.351  1.1864 -0.6230 -0.3304
 5713SOL    HW228773   3.706   0.475   4.254 -0.0906 -0.1797  0.1272
 5714SOL     OW28774   2.168   0.729  16.861 -0.1519  0.0893  0.3877
 5714SOL    HW128775   2.142   0.819  16.883  1.9790  0.5605  1.0257
 5714SOL    HW228776   2.185   0.691  16.947  0.3469 -0.7371 -0.0797
 5715SOL     OW28777   3.432   4.510   5.236 -0.2000  0.2627 -0.4022
 5715SOL    HW128778   3.451   4.541   5.148 -0.4493 -2.3971 -1.3877
 5715SOL    HW228779   3.399   4.582   5.291 -1.1089 -0.0869 -0.4902
 5716SOL     OW28780   0.189   0.354   4.161  0.4320 -0.1138 -0.1788
 5716SOL    HW128781   0.098   0.365   4.189  0.5027  1.2539 -0.4845
 5716SOL    HW228782   0.230   0.439   4.178 -0.8659  0.6027 -0.6284
 5717SOL     OW28783   2.421   2.537   8.720  0.0828  0.4484 -0.3260
 5717SOL    HW128784   2.422   2.525   8.626 -3.2859 -2.3226  0.0120
 5717SOL    HW228785   2.407   2.446   8.746 -2.2501  0.8596 -0.1229
 5718SOL     OW28786   3.129   2.059  16.767 -0.5141  0.0433  0.0470
 5718SOL    HW128787   3.063   2.012  16.715  0.0414  0.0899 -0.7008
 5718SOL    HW228788   3.204   1.999  16.761 -0.2687  0.3726 -0.1293
 5719SOL     OW28789   1.407   2.720   7.429 -0.3385 -0.0073 -0.5777
 5719SOL    HW128790   1.361   2.641   7.457 -0.4719 -0.2018 -1.3499
 5719SOL    HW228791   1.494   2.683   7.415  0.4853  1.2509  1.2013
 5720SOL     OW28792   3.505   1.701  10.446 -0.3431  0.2785  0.1454
 5720SOL    HW128793   3.479   1.761  10.515  0.2587 -0.0190  0.6379
 5720SOL    HW228794   3.422   1.655  10.430  0.5428 -1.1033 -0.5065
 5721SOL     OW28795   3.391   2.348   2.932  0.9627  0.4737 -0.0588
 5721SOL    HW128796   3.435   2.406   2.994  0.5211  0.5666  0.1709
 5721SOL    HW228797   3.342   2.284   2.985  1.7338 -1.9317 -2.2527
 5722SOL     OW28798   0.950   2.333   4.817  0.0529 -0.5688  0.0975
 5722SOL    HW128799   1.045   2.326   4.829 -0.1107 -0.0857  1.5929
 5722SOL    HW228800   0.942   2.426   4.795  0.9947 -0.5960 -0.3746
 5723SOL     OW28801   3.414   0.577  15.245 -0.1796  0.5308 -0.2873
 5723SOL    HW128802   3.338   0.519  15.257 -1.6595  2.1955 -1.6362
 5723SOL    HW228803   3.375   0.650  15.198 -0.2938  0.1565 -0.7745
 5724SOL     OW28804   4.001   3.681  13.548  0.1915 -0.4024  0.3005
 5724SOL    HW128805   4.070   3.655  13.487 -0.2082  1.9111 -1.1322
 5724SOL    HW228806   3.958   3.754  13.503 -1.6989 -0.7764  1.4885
 5725SOL     OW28807   1.678   3.700   3.757  0.7797  0.3794 -0.0611
 5725SOL    HW128808   1.666   3.657   3.842 -3.0115  2.0456  0.2597
 5725SOL    HW228809   1.618   3.773   3.773  0.4301 -0.0048  0.4020
 5726SOL     OW28810   2.604   1.964   3.671  0.0887  0.6441  0.1940
 5726SOL    HW128811   2.601   2.057   3.650 -1.1947  0.7243  0.7478
 5726SOL    HW228812   2.542   1.926   3.610  0.1489 -0.3075  0.7260
 5727SOL     OW28813   3.298   1.489  13.393  0.6491  0.2054 -0.1549
 5727SOL    HW128814   3.245   1.416  13.361  1.8691 -0.3516 -0.9192
 5727SOL    HW228815   3.329   1.523  13.309 -0.3305 -0.2492 -0.7040
 5728SOL     OW28816   1.072   0.901   5.768 -0.1352 -0.7202 -0.0396
 5728SOL    HW128817   1.037   0.855   5.844 -2.2158  1.1548  0.1551
 5728SOL    HW228818   0.996   0.956   5.748 -0.8570 -1.1027  1.6321
 5729SOL     OW28819   4.579   3.027   6.494 -0.1472 -0.3213 -0.3512
 5729SOL    HW128820   4.507   2.980   6.535  0.6687  2.3057  4.0908
 5729SOL    HW228821   4.597   3.101   6.553 -0.0541 -0.7443  0.1513
 5730SOL     OW28822   1.336   1.087   3.834 -0.1919 -0.5868 -0.1215
 5730SOL    HW128823   1.299   1.175   3.835 -0.3157 -0.6253 -1.2645
 5730SOL    HW228824   1.374   1.090   3.922  1.9123  0.6927 -1.1029
 5731SOL     OW28825   3.088   2.625   5.269  0.4130 -0.0358 -0.2244
 5731SOL    HW128826   2.998   2.651   5.249  0.8987  1.2961 -0.6704
 5731SOL    HW228827   3.138   2.706   5.278  1.1346 -0.7398  2.1450
 5732SOL     OW28828   0.881   4.212   7.858  0.3641  1.2124 -0.1471
 5732SOL    HW128829   0.874   4.307   7.860  0.7833  1.2393  0.1490
 5732SOL    HW228830   0.794   4.187   7.887  0.9290 -0.6423 -0.0319
 5733SOL     OW28831   4.392   2.083   7.439 -0.0362  0.2430 -0.7409
 5733SOL    HW128832   4.365   2.170   7.411  2.6943  0.9476 -1.1784
 5733SOL    HW228833   4.482   2.094   7.409  0.4414  1.4415  1.1652
 5734SOL     OW28834   3.097   3.470   5.861 -0.0011 -0.1486 -0.1191
 5734SOL    HW128835   3.142   3.519   5.791 -2.8895  0.3850 -1.6128
 5734SOL    HW228836   3.129   3.518   5.938  1.0994 -1.5286  0.2710
 5735SOL     OW28837   3.271   3.330   7.737 -0.6620 -0.1557 -0.3741
 5735SOL    HW128838   3.349   3.378   7.764 -1.0566  0.2048  0.1243
 5735SOL    HW228839   3.212   3.356   7.807  2.3204  0.9941  1.6792
 5736SOL     OW28840   3.432   0.247   6.291 -0.0358  0.4373 -0.0441
 5736SOL    HW128841   3.512   0.271   6.244  0.1955  1.1493  0.7074
 5736SOL    HW228842   3.454   0.281   6.378  0.5287 -1.3272  0.4843
 5737SOL     OW28843   1.451   2.744  16.788  0.6625  0.0101 -0.6305
 5737SOL    HW128844   1.427   2.654  16.766  3.2005 -0.9034  0.4154
 5737SOL    HW228845   1.546   2.733  16.778  0.3749 -1.2817 -1.9136
 5738SOL     OW28846   0.250   3.880   9.755 -0.5766 -0.0301  0.4803
 5738SOL    HW128847   0.313   3.952   9.755 -1.7284  0.9791 -0.5442
 5738SOL    HW228848   0.231   3.862   9.847 -0.0437  0.1382  0.6228
 5739SOL     OW28849   0.367   0.624  10.306  0.1289  0.3287  0.4504
 5739SOL    HW128850   0.359   0.686  10.378  0.3444  0.1390  0.6396
 5739SOL    HW228851   0.382   0.691  10.239 -0.5738  1.0098  0.9670
 5740SOL     OW28852   4.537   4.613   3.518  0.1141 -0.0104 -0.2862
 5740SOL    HW128853   4.522   4.704   3.494  0.8791 -0.0373 -0.8427
 5740SOL    HW228854   4.533   4.573   3.431  0.9325 -1.5425  0.3791
 5741SOL     OW28855   4.613   0.666   8.688 -0.3035 -0.1119  0.0981
 5741SOL    HW128856   4.656   0.751   8.689 -1.5317  0.5004  1.7415
 5741SOL    HW228857   4.529   0.688   8.730  0.1026  0.1540  0.7680
 5742SOL     OW28858   4.561   1.426   7.131  0.8635  0.2980 -0.2146
 5742SOL    HW128859   4.535   1.482   7.204  0.8030 -0.0598  0.0371
 5742SOL    HW228860   4.651   1.453   7.114  1.2149 -0.6232  0.1560
 5743SOL     OW28861   1.700   4.564   9.553  0.1672 -0.3219  0.7079
 5743SOL    HW128862   1.656   4.635   9.507  0.0403 -1.0533 -0.3167
 5743SOL    HW228863   1.756   4.615   9.611  0.1966  0.0263  0.3752
 5744SOL     OW28864   2.415   2.657   3.805  0.6913 -0.0934 -0.1299
 5744SOL    HW128865   2.424   2.630   3.714  3.0054  0.1102  0.0323
 5744SOL    HW228866   2.322   2.676   3.817 -0.0757 -4.2720  0.5470
 5745SOL     OW28867   0.062   3.916   7.655 -0.5409  0.2396 -0.1225
 5745SOL    HW128868   0.028   3.925   7.565 -0.0875  1.8099 -0.1420
 5745SOL    HW228869   0.143   3.966   7.655 -0.3660 -0.0430 -0.5654
 5746SOL     OW28870   3.315   4.708   7.969 -0.2989 -0.6052  0.2044
 5746SOL    HW128871   3.298   4.616   7.948  2.0812 -1.1503  0.7140
 5746SOL    HW228872   3.286   4.709   8.061  1.0786  0.1231  0.6191
 5747SOL     OW28873   1.084   0.844   8.313 -0.4666  0.7787 -0.0046
 5747SOL    HW128874   1.019   0.841   8.383 -1.0626 -0.2926 -0.5937
 5747SOL    HW228875   1.071   0.926   8.265  2.5612  1.0679 -0.3132
 5748SOL     OW28876   4.454   0.184   8.867 -0.2807  0.5533 -0.2402
 5748SOL    HW128877   4.401   0.261   8.848  1.6958  2.1128  0.5138
 5748SOL    HW228878   4.443   0.132   8.787 -1.4064  0.8661 -0.2869
 5749SOL     OW28879   4.289   1.273  12.479 -0.7821  0.3732  0.1377
 5749SOL    HW128880   4.383   1.279  12.494 -0.3994  1.3284 -2.6137
 5749SOL    HW228881   4.280   1.349  12.422  1.2989  1.4696  1.2625
 5750SOL     OW28882   0.688   2.148   2.842  0.2275 -0.3488 -0.0935
 5750SOL    HW128883   0.647   2.234   2.830  0.5146 -0.6412 -3.0959
 5750SOL    HW228884   0.756   2.160   2.775  1.2102 -1.2068  0.7529
 5751SOL     OW28885   4.678   2.749   4.953  0.0866  0.1720 -0.0001
 5751SOL    HW128886   0.007   2.731   5.019 -1.4423 -2.1230  0.9178
 5751SOL    HW228887   4.618   2.675   4.948 -0.7553  0.8077  0.7939
 5752SOL     OW28888   1.691   1.458  17.365  0.3424  0.1400 -0.9170
 5752SOL    HW128889   1.672   1.518  17.438 -0.6174 -3.2551  1.6139
 5752SOL    HW228890   1.699   1.512  17.286  0.5508  1.0869 -0.2549
 5753SOL     OW28891   4.049   2.342   5.020 -0.4891 -0.3369  0.9518
 5753SOL    HW128892   4.101   2.373   4.946 -2.8160 -1.0209 -0.9789
 5753SOL    HW228893   3.978   2.406   5.020  1.4933  1.8395 -0.6169
 5754SOL     OW28894   0.966   3.235   6.709  0.6927  0.2066 -0.1843
 5754SOL    HW128895   0.971   3.163   6.646  0.2128 -0.6787  0.7810
 5754SOL    HW228896   0.992   3.188   6.788  0.9593 -0.3295 -0.5918
 5755SOL     OW28897   0.561   1.447   6.732  0.4367  0.4917  0.4382
 5755SOL    HW128898   0.519   1.374   6.688  0.0961 -0.5562  2.5182
 5755SOL    HW228899   0.562   1.406   6.818 -0.6709 -1.2171 -0.3756
 5756SOL     OW28900   4.227   0.429   7.902 -0.4728 -0.4366 -0.3679
 5756SOL    HW128901   4.187   0.504   7.944  1.6735  0.8724 -0.6684
 5756SOL    HW228902   4.161   0.386   7.848  0.1901 -1.2867 -0.5123
 5757SOL     OW28903   3.428   0.597   6.969 -0.3815 -0.2624 -0.2508
 5757SOL    HW128904   3.356   0.549   7.010  1.4258  0.1960  3.5528
 5757SOL    HW228905   3.413   0.583   6.876 -1.6287  0.6930 -0.1890
 5758SOL     OW28906   0.943   0.654   7.127  0.6443 -0.3298  0.1409
 5758SOL    HW128907   0.939   0.741   7.088  0.5086 -0.0003  0.8898
 5758SOL    HW228908   0.991   0.681   7.206 -2.4416  2.3601  1.0877
 5759SOL     OW28909   3.989   2.404   0.085  0.2338  0.4398  0.1948
 5759SOL    HW128910   3.907   2.375   0.124  0.5533 -0.3938  0.2367
 5759SOL    HW228911   3.990   2.358   0.001  0.3692 -1.5048  1.2557
 5760SOL     OW28912   3.124   0.303   3.715 -0.6786  0.5658 -0.3990
 5760SOL    HW128913   3.202   0.353   3.739 -0.1404 -1.2067  1.5665
 5760SOL    HW228914   3.102   0.340   3.629 -0.8857  1.1686 -0.0802
 5761SOL     OW28915   3.465   1.124   1.707 -0.2731  0.1857 -0.1882
 5761SOL    HW128916   3.472   1.209   1.664 -3.8980  0.7884  0.3507
 5761SOL    HW228917   3.370   1.108   1.706 -0.4536  1.2168  0.6106
 5762SOL     OW28918   4.730   1.903  15.229  0.1559 -0.2182 -0.0639
 5762SOL    HW128919   4.721   1.994  15.200 -3.3448 -0.2042  1.0816
 5762SOL    HW228920   4.657   1.906  15.291 -0.1184  1.5533 -0.4872
 5763SOL     OW28921   2.818   3.799  16.908 -0.0084 -0.1090 -0.3593
 5763SOL    HW128922   2.911   3.779  16.900 -0.5839 -2.6392 -0.8443
 5763SOL    HW228923   2.809   3.814  17.002  1.6613  1.2159 -0.4271
 5764SOL     OW28924   0.265   0.885  10.446  0.1395  0.1249  0.1882
 5764SOL    HW128925   0.267   0.975  10.478  0.6249  0.5632 -1.0598
 5764SOL    HW228926   0.228   0.900  10.359  0.4603 -3.3006 -0.5501
 5765SOL     OW28927   4.675   1.460   1.496 -0.4118  0.0321 -0.1470
 5765SOL    HW128928   0.021   1.469   1.542 -0.5434  1.7683 -0.2683
 5765SOL    HW228929   4.688   1.400   1.423 -1.5287 -0.3426 -0.0494
 5766SOL     OW28930   3.626   4.205  13.803  0.1776  0.5119 -0.3536
 5766SOL    HW128931   3.626   4.175  13.894  1.8332 -0.3865 -0.6422
 5766SOL    HW228932   3.653   4.297  13.808 -1.7656  1.1543 -1.9994
 5767SOL     OW28933   0.129   1.522   9.765 -0.0989  0.0975  0.2169
 5767SOL    HW128934   0.166   1.494   9.682  1.1503  1.3495  0.3454
 5767SOL    HW228935   0.200   1.494   9.824  0.9388 -1.4703 -1.7841
 5768SOL     OW28936   0.943   4.562   0.752  0.0434  0.2609 -0.1574
 5768SOL    HW128937   0.987   4.627   0.696 -2.1434  1.7810 -0.1254
 5768SOL    HW228938   0.854   4.566   0.716 -0.8238  0.3548  2.0063
 5769SOL     OW28939   0.433   0.463   7.186 -0.1332  0.2821  0.1602
 5769SOL    HW128940   0.520   0.477   7.222  0.8726  0.3540 -2.3031
 5769SOL    HW228941   0.426   0.532   7.121 -2.4523  0.7804  0.9326
 5770SOL     OW28942   0.150   2.194   9.428  0.1998  0.5754  1.1924
 5770SOL    HW128943   0.117   2.276   9.465  2.5665  0.4980  3.4742
 5770SOL    HW228944   0.231   2.178   9.476 -0.4529  0.7354  2.3603
 5771SOL     OW28945   3.353   1.611   8.503  0.9280 -0.3444 -0.1610
 5771SOL    HW128946   3.346   1.693   8.454 -0.3391 -0.1297  0.3809
 5771SOL    HW228947   3.286   1.557   8.462 -1.3843  1.1162  1.6934
 5772SOL     OW28948   2.321   3.213   5.707  0.6604 -0.0323  0.5872
 5772SOL    HW128949   2.394   3.272   5.729  0.5007  0.6815 -0.7774
 5772SOL    HW228950   2.365   3.161   5.641  0.5699  0.2865  0.2744
 5773SOL     OW28951   2.469   1.812   2.473  0.4581  0.7777 -0.3228
 5773SOL    HW128952   2.382   1.785   2.441  0.7874  0.7796 -1.2258
 5773SOL    HW228953   2.487   1.891   2.421  2.6392  0.7058  0.3652
 5774SOL     OW28954   3.472   2.406  11.684 -0.5048 -1.1184  0.3688
 5774SOL    HW128955   3.456   2.492  11.724 -0.8805 -0.0641 -2.0700
 5774SOL    HW228956   3.383   2.400  11.649 -0.2870 -0.1300 -0.3452
 5775SOL     OW28957   4.529   0.961   6.053 -0.2396 -0.1665  0.7029
 5775SOL    HW128958   4.576   0.912   5.985 -0.1525 -0.7971  1.2221
 5775SOL    HW228959   4.439   0.928   6.050 -0.4786  0.4475  1.0367
 5776SOL     OW28960   3.817   0.579  10.761 -0.0600 -0.1797  0.1443
 5776SOL    HW128961   3.778   0.590  10.848 -3.5041  0.5560 -1.5021
 5776SOL    HW228962   3.743   0.548  10.710 -0.0431  0.5537 -0.3314
 5777SOL     OW28963   3.532   3.743   2.347 -0.1514  0.3490  0.0121
 5777SOL    HW128964   3.551   3.759   2.254 -1.3749 -0.9764 -0.4764
 5777SOL    HW228965   3.471   3.813   2.369 -2.7107 -1.6015 -0.8839
 5778SOL     OW28966   0.403   3.489   9.029 -0.0784 -0.4465  0.1379
 5778SOL    HW128967   0.396   3.561   9.092 -1.0534 -0.7678  0.3911
 5778SOL    HW228968   0.317   3.503   8.990  0.1058  1.4842  0.4599
 5779SOL     OW28969   3.259   1.506  16.693  0.3558  0.2606  0.3509
 5779SOL    HW128970   3.241   1.431  16.749  2.2142 -0.0155  0.5727
 5779SOL    HW228971   3.305   1.456  16.626 -1.3365 -0.1290 -0.5415
 5780SOL     OW28972   4.661   1.810  11.803  0.7276 -0.3052 -0.0073
 5780SOL    HW128973   4.670   1.846  11.891  0.5109  1.6842 -0.7992
 5780SOL    HW228974   0.015   1.780  11.796 -0.0483 -3.2187  2.8782
 5781SOL     OW28975   3.215   4.696  11.907  1.0379 -0.0755  0.5249
 5781SOL    HW128976   3.299   4.724  11.870 -0.0826 -1.2575 -2.9002
 5781SOL    HW228977   3.239   4.711  11.999  1.2361  0.0703  0.4485
 5782SOL     OW28978   0.840   2.038   1.844  0.2294  0.0365 -0.4484
 5782SOL    HW128979   0.777   1.988   1.895  1.1444  0.5779  1.2049
 5782SOL    HW228980   0.792   2.119   1.824  1.0477  0.8294  0.8443
 5783SOL     OW28981   3.799   3.044  16.267  0.5885 -0.0039  0.4845
 5783SOL    HW128982   3.759   3.130  16.252 -0.7792 -0.1368  3.2524
 5783SOL    HW228983   3.848   3.031  16.186 -0.1501  1.3970 -0.1814
 5784SOL     OW28984   0.255   1.505   4.212 -0.0482  0.0465 -0.2807
 5784SOL    HW128985   0.335   1.551   4.239  0.5513  1.5629 -4.6064
 5784SOL    HW228986   0.200   1.527   4.287 -0.4177  0.9986 -0.8293
 5785SOL     OW28987   1.131   3.100   8.608 -0.2670  0.1433  0.0094
 5785SOL    HW128988   1.202   3.163   8.600  1.5031 -1.3927  3.4620
 5785SOL    HW228989   1.182   3.020   8.592 -0.0364 -0.1164  2.0378
 5786SOL     OW28990   3.880   4.597   8.396 -0.4621  0.3878  0.3903
 5786SOL    HW128991   3.972   4.616   8.378 -0.9593  0.5322 -1.9453
 5786SOL    HW228992   3.843   4.685   8.386  0.5022  0.8541  0.9489
 5787SOL     OW28993   1.635   3.931   1.414  0.7263 -0.0092 -0.6164
 5787SOL    HW128994   1.559   3.936   1.472 -0.0441  1.0315 -1.7036
 5787SOL    HW228995   1.615   3.983   1.336 -2.2020 -0.6587 -0.3122
 5788SOL     OW28996   3.406   0.782   9.906  0.4192 -0.0539  0.4085
 5788SOL    HW128997   3.450   0.750   9.828 -1.8116  0.5134 -1.0698
 5788SOL    HW228998   3.429   0.875   9.906 -0.5457  0.1579 -2.8572
 5789SOL     OW28999   3.829   3.958   9.506  0.1632  0.5767  0.0026
 5789SOL    HW129000   3.734   3.942   9.507  0.0496  1.3156  0.4647
 5789SOL    HW229001   3.822   4.034   9.448 -2.4082  0.3344 -0.0397
 5790SOL     OW29002   2.949   3.650   3.587 -0.5939 -0.2036 -0.5717
 5790SOL    HW129003   2.875   3.641   3.647 -0.2431 -0.3008 -0.1619
 5790SOL    HW229004   2.996   3.571   3.612 -0.0786  0.2847 -0.0222
 5791SOL     OW29005   4.603   4.130   8.572  0.2492  0.6802 -0.4098
 5791SOL    HW129006   4.683   4.122   8.521  0.3894  0.5233 -0.1637
 5791SOL    HW229007   4.533   4.143   8.507  1.5976 -1.5401 -2.2899
 5792SOL     OW29008   1.242   1.642  12.908  0.2141  0.3659 -0.1432
 5792SOL    HW129009   1.273   1.622  12.820  0.0838  0.3446 -0.1846
 5792SOL    HW229010   1.259   1.562  12.958 -0.0840  0.0693 -0.5141
 5793SOL     OW29011   0.804   2.335  16.390 -0.7875 -0.1292 -0.1039
 5793SOL    HW129012   0.896   2.329  16.367 -0.8833 -2.2230  0.0898
 5793SOL    HW229013   0.799   2.327  16.485  0.2037  2.8132  0.1919
 5794SOL     OW29014   3.693   2.429   2.108  0.2551  0.2817 -0.3217
 5794SOL    HW129015   3.740   2.499   2.154  0.3067 -1.2517  1.9755
 5794SOL    HW229016   3.741   2.438   2.025 -1.0428  0.1043 -1.0793
 5795SOL     OW29017   2.565   1.198   9.113 -0.0273  0.8393  0.0318
 5795SOL    HW129018   2.635   1.199   9.048  1.7669 -2.0334  1.9424
 5795SOL    HW229019   2.490   1.205   9.053  0.1067 -0.2269 -0.2551
 5796SOL     OW29020   0.745   0.749  12.025  0.3572 -0.1861  0.0877
 5796SOL    HW129021   0.661   0.753  12.071 -0.2248 -1.3361 -0.8741
 5796SOL    HW229022   0.736   0.778  11.935  0.0100  0.3343  0.2899
 5797SOL     OW29023   2.948   2.755  17.318 -0.1164  0.2001  0.6689
 5797SOL    HW129024   2.966   2.836  17.271  0.5640  0.1143  0.7787
 5797SOL    HW229025   2.854   2.762  17.302 -0.1740  1.6898  1.5830
 5798SOL     OW29026   3.593   0.720  11.940 -0.4839 -0.0776 -0.2435
 5798SOL    HW129027   3.541   0.720  12.020 -0.0384  0.1715  0.0519
 5798SOL    HW229028   3.646   0.641  11.953 -0.4439 -0.0744 -0.3928
 5799SOL     OW29029   2.749   2.424   8.265 -0.0848  0.2679 -0.0628
 5799SOL    HW129030   2.775   2.451   8.353 -0.0950  0.8753 -0.2430
 5799SOL    HW229031   2.659   2.457   8.265 -0.0065  0.4840  0.2537
 5800SOL     OW29032   1.215   3.127   6.506  0.5271  0.6917 -0.3740
 5800SOL    HW129033   1.246   3.210   6.544 -0.6234 -0.3272  2.7745
 5800SOL    HW229034   1.264   3.065   6.560 -0.2485 -0.1957 -0.7063
 5801SOL     OW29035   0.698   2.611   3.889  0.0900 -0.1676 -0.0040
 5801SOL    HW129036   0.790   2.607   3.913 -0.7158  0.1562  3.0459
 5801SOL    HW229037   0.675   2.521   3.913  0.6908 -0.3330 -0.0482
 5802SOL     OW29038   2.017   1.034   4.624  0.3922 -0.7628 -0.2015
 5802SOL    HW129039   1.969   1.060   4.545 -0.0245  1.5381  0.8148
 5802SOL    HW229040   1.947   1.001   4.681  0.6819  0.5296  0.8993
 5803SOL     OW29041   2.192   2.087   6.145 -0.0457 -0.0162 -0.2758
 5803SOL    HW129042   2.124   2.083   6.213  0.5289  0.3779  0.3213
 5803SOL    HW229043   2.245   2.159   6.180 -0.5424  0.2625 -0.0837
 5804SOL     OW29044   4.300   2.412  11.191  0.0338  0.2790 -0.3829
 5804SOL    HW129045   4.207   2.435  11.186  0.0238  0.2704 -0.2299
 5804SOL    HW229046   4.303   2.344  11.258 -0.5602 -0.1442 -0.7781
 5805SOL     OW29047   4.716   3.597   5.885 -0.9506 -0.7183  0.0877
 5805SOL    HW129048   0.046   3.634   5.828 -0.9598  0.8981  1.1273
 5805SOL    HW229049   0.036   3.582   5.961  0.5112 -0.6693 -1.0082
 5806SOL     OW29050   3.321   4.734   5.324  0.1226 -0.3232  0.5415
 5806SOL    HW129051   3.260   0.051   5.273  0.3355  1.1264  1.8016
 5806SOL    HW229052   3.309   0.038   5.410  1.0940 -0.1593  0.6044
 5807SOL     OW29053   0.903   3.522  14.098 -0.2867 -0.1149  0.2761
 5807SOL    HW129054   0.902   3.528  14.002  1.6379  1.6855  0.3488
 5807SOL    HW229055   0.818   3.558  14.125 -0.2771  0.2921 -0.2280
 5808SOL     OW29056   1.715   4.194   9.031 -0.0755 -0.7543 -0.6215
 5808SOL    HW129057   1.770   4.272   9.043 -1.2367  0.1073 -0.8769
 5808SOL    HW229058   1.693   4.201   9.124  2.9531 -1.9090  0.1878
 5809SOL     OW29059   1.371   3.247   4.079 -0.4112  0.3259  0.1824
 5809SOL    HW129060   1.331   3.221   4.163 -1.3914  1.0196 -0.0731
 5809SOL    HW229061   1.328   3.331   4.063  0.8674  0.4739 -2.3053
 5810SOL     OW29062   4.109   0.116   3.405 -0.2266  0.2398 -0.1127
 5810SOL    HW129063   4.027   0.097   3.450  1.1402 -2.2458  1.3385
 5810SOL    HW229064   4.087   0.068   3.325 -0.4445 -0.2054  0.2144
 5811SOL     OW29065   3.516   3.935  12.418  0.5855  0.0538  0.2382
 5811SOL    HW129066   3.571   4.008  12.448 -0.8684  2.1482 -2.1486
 5811SOL    HW229067   3.582   3.867  12.412 -0.8103 -1.2305 -0.6980
 5812SOL     OW29068   1.899   1.295  17.311 -0.2551  0.2511  0.0704
 5812SOL    HW129069   1.825   1.340  17.351  0.2889 -1.9218  3.5682
 5812SOL    HW229070   1.869   1.204  17.319  1.6521 -0.4999 -1.3246
 5813SOL     OW29071   4.242   1.344  13.622  0.1013  0.1251 -0.5984
 5813SOL    HW129072   4.171   1.317  13.681  0.2481 -0.2461 -0.5907
 5813SOL    HW229073   4.203   1.421  13.580 -0.5911 -0.2645 -0.6718
 5814SOL     OW29074   0.450   2.404   9.863 -0.3857 -0.3753 -0.2545
 5814SOL    HW129075   0.528   2.395   9.808 -0.2248 -1.0455  0.0806
 5814SOL    HW229076   0.487   2.408   9.951 -1.1617  0.0130  0.0511
 5815SOL     OW29077   3.017   0.821   1.867  0.3807  0.2567 -0.2739
 5815SOL    HW129078   3.059   0.744   1.829 -0.9999 -0.5483 -0.1783
 5815SOL    HW229079   2.925   0.813   1.841  0.7632  2.9467 -2.4638
 5816SOL     OW29080   4.670   2.041   9.325  0.2766  0.0097 -0.3289
 5816SOL    HW129081   0.011   2.083   9.362 -0.7033  4.1112 -2.8362
 5816SOL    HW229082   4.611   2.117   9.332 -0.4063 -0.4577 -0.9981
 5817SOL     OW29083   2.690   3.488   6.247 -0.0206  0.0386 -0.0801
 5817SOL    HW129084   2.612   3.512   6.296 -1.8162  0.2369 -3.0279
 5817SOL    HW229085   2.699   3.552   6.176 -0.3456 -1.9449 -1.9482
 5818SOL     OW29086   2.433   1.498   7.254 -0.5169  0.3753  0.1860
 5818SOL    HW129087   2.507   1.537   7.301  1.6564  0.1608 -3.0781
 5818SOL    HW229088   2.438   1.405   7.278  0.4504 -0.2130 -2.3004
 5819SOL     OW29089   4.637   0.699   1.472 -0.0981 -0.0971 -0.0239
 5819SOL    HW129090   4.629   0.622   1.416 -1.0066  1.7846 -2.4995
 5819SOL    HW229091   4.693   0.669   1.544  1.2149  0.0816 -0.9874
 5820SOL     OW29092   3.291   0.090   1.800  0.2245  0.3795  0.0369
 5820SOL    HW129093   3.297   4.735   1.827 -1.3120  0.0805 -0.6800
 5820SOL    HW229094   3.212   0.086   1.746 -0.8372  1.8405  1.4977
 5821SOL     OW29095   1.902   0.440  15.755 -0.3136 -0.7422  0.0354
 5821SOL    HW129096   1.843   0.418  15.828  1.3180  1.1061  1.9128
 5821SOL    HW229097   1.873   0.531  15.745  0.0721 -0.7610 -1.1818
 5822SOL     OW29098   0.298   4.328   6.475  0.1115  0.1798 -0.1299
 5822SOL    HW129099   0.235   4.394   6.503  0.4784  0.8800 -0.9399
 5822SOL    HW229100   0.311   4.279   6.556 -1.3895  1.1631  0.6954
 5823SOL     OW29101   3.122   2.126   7.097  0.7423 -0.0131 -0.3606
 5823SOL    HW129102   3.027   2.140   7.104  0.8012 -0.1770  0.8411
 5823SOL    HW229103   3.157   2.098   7.181 -0.1687 -0.5842 -0.1650
 5824SOL     OW29104   2.988   1.459  17.561  0.3542  0.0767  0.0041
 5824SOL    HW129105   2.955   1.516  17.491 -2.7567  2.3290  3.2514
 5824SOL    HW229106   3.080   1.481  17.550  0.1730  1.5078  1.3080
 5825SOL     OW29107   1.963   1.327   6.993 -0.8546  0.6829  0.5409
 5825SOL    HW129108   2.046   1.343   7.038 -0.0580  0.4492 -0.8523
 5825SOL    HW229109   1.912   1.323   7.074  0.4328  1.0623  1.3792
 5826SOL     OW29110   1.862   2.017   8.219 -0.1425  0.3201 -0.0454
 5826SOL    HW129111   1.807   2.078   8.171 -0.7833  1.1287  1.7161
 5826SOL    HW229112   1.810   1.995   8.296  0.8691 -0.5519  0.3906
 5827SOL     OW29113   0.813   2.823   4.649  0.1828  0.6165  0.2060
 5827SOL    HW129114   0.784   2.913   4.641 -0.2242  0.3301 -1.4465
 5827SOL    HW229115   0.797   2.791   4.561 -0.9834 -0.6617  0.8799
 5828SOL     OW29116   3.084   4.620  15.486  0.1928  0.2149 -0.4760
 5828SOL    HW129117   3.004   4.668  15.505 -2.2081 -4.2710  0.8982
 5828SOL    HW229118   3.040   4.537  15.507  0.8077  0.8372  3.2814
 5829SOL     OW29119   4.114   2.183   9.269  0.1197 -0.5554  0.6124
 5829SOL    HW129120   4.091   2.249   9.334  1.5492  1.1493 -0.5917
 5829SOL    HW229121   4.035   2.130   9.277 -0.2447  0.0476  1.0081
 5830SOL     OW29122   0.247   3.645  17.034  0.3149  0.3589  0.0660
 5830SOL    HW129123   0.240   3.572  17.096  0.0690  0.9651  0.7609
 5830SOL    HW229124   0.162   3.686  17.047  0.7334  1.3309 -0.2423
 5831SOL     OW29125   4.287   2.432  16.865  0.6735  0.3315  0.2023
 5831SOL    HW129126   4.247   2.350  16.836  2.3531 -0.9140  1.4513
 5831SOL    HW229127   4.242   2.503  16.818 -2.1564 -1.9198 -0.5082
 5832SOL     OW29128   4.186   1.343   6.323 -0.0087 -0.1006 -0.2534
 5832SOL    HW129129   4.148   1.429   6.345  0.0655 -0.2913  0.6065
 5832SOL    HW229130   4.142   1.331   6.239  0.8975 -3.2919 -0.2447
 5833SOL     OW29131   4.447   4.552   5.370 -0.4024  0.3002 -0.8775
 5833SOL    HW129132   4.413   4.638   5.397 -1.4203 -0.1152 -0.8551
 5833SOL    HW229133   4.541   4.570   5.380 -0.1539 -1.0088 -0.8691
 5834SOL     OW29134   2.094   1.598   4.512 -0.2790 -0.5137 -0.7790
 5834SOL    HW129135   2.186   1.621   4.501  0.2166 -1.8279  0.6309
 5834SOL    HW229136   2.055   1.680   4.540 -0.5909 -0.7613 -0.4843
 5835SOL     OW29137   2.530   0.802  11.586  0.0699  0.0840  0.4881
 5835SOL    HW129138   2.478   0.848  11.520  1.3126 -1.7416 -1.7613
 5835SOL    HW229139   2.464   0.806  11.656 -0.5347  0.7902 -0.1249
 5836SOL     OW29140   4.658   0.030   6.869 -0.3180  0.1514 -0.4575
 5836SOL    HW129141   4.677   4.733   6.957 -1.8636 -0.3546 -0.3221
 5836SOL    HW229142   0.000   0.007   6.820  0.3592 -1.1420  1.2129
 5837SOL     OW29143   3.524   2.252   7.527  0.1463  0.0349 -0.1882
 5837SOL    HW129144   3.597   2.192   7.543 -0.7842 -1.2013 -0.5892
 5837SOL    HW229145   3.476   2.241   7.609  2.0224  1.4026  1.0875
 5838SOL     OW29146   1.950   2.008   2.569  0.3396 -0.1527 -0.6142
 5838SOL    HW129147   2.005   1.934   2.595  1.0900 -0.1660 -2.2277
 5838SOL    HW229148   1.893   1.964   2.505 -1.1426 -1.3244  1.5306
 5839SOL     OW29149   4.146   1.234  13.977  0.2515 -0.2324  0.3051
 5839SOL    HW129150   4.129   1.153  14.023  0.2300 -2.2255 -3.2059
 5839SOL    HW229151   4.236   1.258  13.999  0.1631  0.2730  0.1331
 5840SOL     OW29152   1.067   4.092  11.178 -0.6534  0.0152  0.5274
 5840SOL    HW129153   1.018   4.172  11.157  0.9147  0.1270 -2.8042
 5840SOL    HW229154   1.007   4.025  11.144  1.6637 -1.8475  0.1268
 5841SOL     OW29155   2.598   2.971  11.249  0.3130 -0.7485  0.1799
 5841SOL    HW129156   2.561   3.012  11.327 -1.7240 -0.0966 -1.1353
 5841SOL    HW229157   2.633   3.042  11.195  3.2113 -2.7920 -0.6454
 5842SOL     OW29158   2.513   2.130   8.601 -0.3433 -0.1409  0.3606
 5842SOL    HW129159   2.466   2.062   8.552 -0.7910  1.3314 -1.2452
 5842SOL    HW229160   2.596   2.122   8.555 -0.8395 -0.7084 -0.4443
 5843SOL     OW29161   0.794   3.214  13.880 -0.5318  0.1132 -0.4817
 5843SOL    HW129162   0.760   3.125  13.871  0.2832 -0.5740  3.0244
 5843SOL    HW229163   0.882   3.206  13.842 -0.3486  3.3542 -0.7275
 5844SOL     OW29164   4.462   1.102  15.829 -0.5730 -0.1649 -0.6901
 5844SOL    HW129165   4.531   1.110  15.764 -2.5231  0.0464 -2.7416
 5844SOL    HW229166   4.398   1.167  15.799  3.0658  2.4745 -2.6570
 5845SOL     OW29167   0.117   2.869   7.949 -0.6637  0.1748 -0.1911
 5845SOL    HW129168   0.177   2.942   7.929 -0.3119 -0.4965 -1.6056
 5845SOL    HW229169   0.177   2.795   7.950 -1.0071 -0.0747  1.4469
 5846SOL     OW29170   4.064   0.927  13.508  0.2504  0.0542  0.1541
 5846SOL    HW129171   3.996   0.861  13.518 -2.2853  2.8330  1.1381
 5846SOL    HW229172   4.079   0.903  13.417 -0.8509 -2.9276  0.7782
 5847SOL     OW29173   2.842   3.917   8.597 -0.5073  0.3291 -0.3101
 5847SOL    HW129174   2.919   3.974   8.599 -0.9995  1.0021 -0.4926
 5847SOL    HW229175   2.865   3.859   8.524  1.9066 -1.7039  2.0234
 5848SOL     OW29176   3.618   2.873   5.529 -0.3504  0.3398  0.2874
 5848SOL    HW129177   3.672   2.886   5.607 -0.1224  1.0146  0.0215
 5848SOL    HW229178   3.582   2.785   5.538 -0.7533  0.3528 -1.1196
 5849SOL     OW29179   1.517   0.341   2.007  0.5904 -0.2167  0.1543
 5849SOL    HW129180   1.606   0.352   2.040  1.9438 -2.0516 -2.8119
 5849SOL    HW229181   1.498   0.258   2.052 -0.1546 -0.0679  0.1219
 5850SOL     OW29182   3.198   1.967   8.558 -0.5857  0.8643 -0.1373
 5850SOL    HW129183   3.168   1.937   8.473  0.8554  0.0762 -0.3677
 5850SOL    HW229184   3.126   2.023   8.585 -0.2482  0.8216  0.8743
 5851SOL     OW29185   4.137   0.735   7.546  0.2896  0.3460 -0.2159
 5851SOL    HW129186   4.176   0.800   7.487  0.4016  1.7192  1.3611
 5851SOL    HW229187   4.162   0.773   7.630  0.5520  1.4458 -0.7883
 5852SOL     OW29188   1.549   3.813   5.426  0.1914  0.1661 -0.2416
 5852SOL    HW129189   1.630   3.851   5.392  1.5542 -1.3868  1.2735
 5852SOL    HW229190   1.575   3.791   5.515 -3.2275 -0.0259  0.7384
 5853SOL     OW29191   3.139   2.683   9.578  0.2165 -0.2555 -0.3344
 5853SOL    HW129192   3.229   2.652   9.568  0.0566 -0.3650 -1.4600
 5853SOL    HW229193   3.138   2.744   9.504 -1.6009 -0.4998 -0.5164
 5854SOL     OW29194   3.882   3.181   7.616  0.0127  0.1911 -0.2597
 5854SOL    HW129195   3.844   3.161   7.701 -1.0690  0.5919 -0.6517
 5854SOL    HW229196   3.802   3.209   7.572 -1.1520 -0.6470  1.3476
 5855SOL     OW29197   3.362   3.397  10.180 -0.0467 -1.0353  0.3570
 5855SOL    HW129198   3.445   3.349  10.191 -0.6055 -2.1811 -0.3754
 5855SOL    HW229199   3.325   3.401  10.268  2.5747  0.5738  1.3979
 5856SOL     OW29200   3.181   0.088   4.855 -0.3873  0.0529  0.7215
 5856SOL    HW129201   3.121   0.146   4.902  0.3757  0.5952  1.0299
 5856SOL    HW229202   3.244   0.150   4.820 -1.7093 -1.0884 -3.7128
 5857SOL     OW29203   4.533   1.682  15.204 -0.0210 -0.5217  0.2799
 5857SOL    HW129204   4.587   1.742  15.152  1.1171 -0.7518  1.2041
 5857SOL    HW229205   4.451   1.732  15.201 -0.5915 -1.4676  0.3984
 5858SOL     OW29206   3.595   2.513  11.374  0.6920  0.3004 -1.0386
 5858SOL    HW129207   3.543   2.568  11.432  0.2285 -1.2720  0.0262
 5858SOL    HW229208   3.534   2.445  11.345  0.3138 -0.2448  1.0895
 5859SOL     OW29209   1.955   4.096   7.424  0.4466  0.0406 -0.0725
 5859SOL    HW129210   2.010   4.174   7.428 -1.3036  1.3554 -1.5567
 5859SOL    HW229211   2.014   4.035   7.379 -1.6958 -0.7097 -1.8543
 5860SOL     OW29212   4.217   3.111   4.645 -0.1451  0.2387 -0.1255
 5860SOL    HW129213   4.287   3.046   4.647 -0.3188  0.0146 -1.0635
 5860SOL    HW229214   4.139   3.064   4.616  1.0458 -2.1618  0.6317
 5861SOL     OW29215   1.940   2.782   7.568 -0.9216 -0.4791  0.5221
 5861SOL    HW129216   1.958   2.863   7.615  2.7409  0.4553 -2.5492
 5861SOL    HW229217   2.009   2.773   7.503  1.1557 -1.4848  2.8662
 5862SOL     OW29218   1.837   1.925  17.083  0.0474  0.5491 -0.0623
 5862SOL    HW129219   1.751   1.937  17.123 -0.1301  0.1850 -0.3290
 5862SOL    HW229220   1.884   1.905  17.165  1.6485 -2.5145 -1.7157
 5863SOL     OW29221   2.980   0.640   5.240  0.0538  0.0363  0.1466
 5863SOL    HW129222   2.975   0.703   5.169 -1.1468 -0.5347 -0.2834
 5863SOL    HW229223   2.963   0.562   5.187  0.4219 -0.9884  1.5002
 5864SOL     OW29224   2.288   3.929   1.238  0.3383  0.6280 -0.1809
 5864SOL    HW129225   2.333   3.849   1.265 -1.3084  0.7529  2.9715
 5864SOL    HW229226   2.343   3.986   1.183 -0.0176  0.6601 -0.5008
 5865SOL     OW29227   3.097   4.291   1.776  0.0915 -0.3835 -0.1075
 5865SOL    HW129228   3.033   4.334   1.720  0.6020 -1.8496 -1.8310
 5865SOL    HW229229   3.121   4.206   1.740 -2.8622 -0.4565 -1.8956
 5866SOL     OW29230   0.581   4.598  17.334 -0.6465 -0.2885 -0.0464
 5866SOL    HW129231   0.577   4.637  17.246 -2.2724  2.4405  1.2309
 5866SOL    HW229232   0.560   4.506  17.320 -0.6116 -0.3520  0.3385
 5867SOL     OW29233   3.239   0.672  12.177  0.1408 -0.2613 -0.2191
 5867SOL    HW129234   3.156   0.655  12.134 -0.1792  1.9229 -0.4587
 5867SOL    HW229235   3.259   0.584  12.209 -0.7885  0.1617  1.5449
 5868SOL     OW29236   1.947   2.416   7.170 -0.2406  0.3485 -0.2481
 5868SOL    HW129237   2.039   2.418   7.197  0.1736  1.1209 -1.7207
 5868SOL    HW229238   1.941   2.449   7.080  0.5116  2.1180  0.3473
 5869SOL     OW29239   2.955   3.990   1.273  0.6120 -0.1149  0.2539
 5869SOL    HW129240   3.022   3.922   1.283  1.0606  0.0453 -1.8373
 5869SOL    HW229241   2.875   3.939   1.288  1.4066 -2.1331 -2.4220
 5870SOL     OW29242   1.679   2.511  17.206 -0.3408 -0.3271 -0.1436
 5870SOL    HW129243   1.644   2.522  17.295  0.0713 -1.0401  0.1089
 5870SOL    HW229244   1.700   2.417  17.203  2.3660  0.2890  0.1587
 5871SOL     OW29245   0.746   3.215   3.650 -0.1375  0.5365 -0.4636
 5871SOL    HW129246   0.661   3.232   3.609 -0.8306  1.6048  1.4061
 5871SOL    HW229247   0.794   3.217   3.567  0.8879 -1.8188  0.0769
 5872SOL     OW29248   3.098   3.582   2.751 -0.0762 -0.4230  0.7349
 5872SOL    HW129249   3.050   3.503   2.776  0.6516 -1.3059 -0.6484
 5872SOL    HW229250   3.145   3.553   2.672  0.3160 -0.6691  1.0594
 5873SOL     OW29251   3.034   3.070  11.712 -0.3525 -0.3921  0.1372
 5873SOL    HW129252   2.995   3.134  11.653  1.5386  1.0995  0.5018
 5873SOL    HW229253   2.977   2.995  11.694  0.7536 -1.5927  1.6338
 5874SOL     OW29254   2.718   1.170   6.726  0.2356  0.1391 -0.3316
 5874SOL    HW129255   2.778   1.096   6.723 -0.9104 -0.8684  1.3678
 5874SOL    HW229256   2.708   1.182   6.631  0.5705 -0.4812 -0.4423
 5875SOL     OW29257   2.931   1.919   3.044  0.0156 -0.3144  0.1826
 5875SOL    HW129258   2.844   1.923   3.003 -1.1624  0.5174  2.7091
 5875SOL    HW229259   2.976   1.989   2.998  0.5803 -0.3275  0.7180
 5876SOL     OW29260   0.858   4.629   8.377  0.0326 -0.0115  0.6016
 5876SOL    HW129261   0.943   4.592   8.354  0.6082  0.6242  1.6887
 5876SOL    HW229262   0.799   4.590   8.312  1.6207  0.1271 -0.9074
 5877SOL     OW29263   2.476   0.376   1.559  0.3871  0.3321  1.0884
 5877SOL    HW129264   2.422   0.299   1.572  0.9056 -0.2219 -0.0682
 5877SOL    HW229265   2.415   0.442   1.527  0.3172  1.0365  2.6562
 5878SOL     OW29266   3.416   3.198   9.326  0.3186 -0.0225 -0.5905
 5878SOL    HW129267   3.327   3.181   9.296  0.5446 -1.7964 -0.2441
 5878SOL    HW229268   3.430   3.118   9.378  0.6170 -0.7333 -1.7839
 5879SOL     OW29269   0.118   0.777   9.426 -0.3076  0.0331 -0.2909
 5879SOL    HW129270   0.159   0.773   9.339  0.4965 -1.2680  0.1487
 5879SOL    HW229271   0.079   0.691   9.444  1.0895 -0.6761 -0.5642
 5880SOL     OW29272   1.659   0.890  15.141  0.0563  0.2492  0.4181
 5880SOL    HW129273   1.660   0.919  15.232 -3.2257  0.1058  0.5184
 5880SOL    HW229274   1.582   0.832  15.135  1.9737 -2.2362 -0.1031
 5881SOL     OW29275   2.463   3.931   8.185  0.2457  0.3561 -0.3279
 5881SOL    HW129276   2.532   3.949   8.122 -0.2417  1.7160 -0.4839
 5881SOL    HW229277   2.385   3.947   8.132 -0.6871  2.5855  1.6711
 5882SOL     OW29278   0.205   3.074  16.339 -0.2999 -0.0431  0.2028
 5882SOL    HW129279   0.295   3.061  16.309 -0.7740  2.1571 -2.2052
 5882SOL    HW229280   0.159   3.071  16.256  2.1619  0.5182 -1.1887
 5883SOL     OW29281   1.818   3.262  15.998  0.0951  0.4118 -0.1861
 5883SOL    HW129282   1.788   3.333  15.940 -0.9191 -1.0286 -1.4178
 5883SOL    HW229283   1.912   3.279  15.999  0.2240 -0.1414 -1.9907
 5884SOL     OW29284   4.615   4.631   4.573  0.0509 -0.2971 -0.7193
 5884SOL    HW129285   4.647   4.593   4.491  0.3306 -2.4709  0.4122
 5884SOL    HW229286   4.573   4.562   4.624 -0.0078  0.9940  0.9903
 5885SOL     OW29287   4.173   4.379   5.799  0.2460 -0.2175 -0.7465
 5885SOL    HW129288   4.108   4.309   5.803  1.7806 -1.5767  0.2536
 5885SOL    HW229289   4.113   4.440   5.756  2.0478  2.0366 -0.0814
 5886SOL     OW29290   1.662   0.105   3.411 -0.2699  0.1490 -0.2725
 5886SOL    HW129291   1.647   0.048   3.335  0.3996 -1.5033  0.8206
 5886SOL    HW229292   1.575   0.137   3.432  0.5654  1.7923  0.6141
 5887SOL     OW29293   0.300   4.679   2.413  0.5903 -0.5510 -0.7323
 5887SOL    HW129294   0.377   4.642   2.370  1.6869 -0.6204  1.2947
 5887SOL    HW229295   0.307   4.616   2.485  1.7932 -2.0471 -2.1686
 5888SOL     OW29296   4.707   2.452   7.566  0.5453  0.0204  0.3342
 5888SOL    HW129297   4.694   2.474   7.474 -0.2440  1.8445  0.8802
 5888SOL    HW229298   4.706   2.540   7.604  0.0317  0.7989 -1.5036
 5889SOL     OW29299   4.718   4.322  15.924 -0.1946  0.1545  0.2577
 5889SOL    HW129300   0.042   4.386  15.885  0.7703 -0.7381  0.2891
 5889SOL    HW229301   4.728   4.257  15.854 -0.3561  1.2208 -0.7593
 5890SOL     OW29302   2.921   1.937   4.572 -0.5670  0.1558  0.8132
 5890SOL    HW129303   3.010   1.964   4.594  0.2038 -1.4287 -0.3267
 5890SOL    HW229304   2.899   1.913   4.662 -2.0542 -2.2858 -0.1899
 5891SOL     OW29305   0.291   4.223   4.910 -0.5173 -0.0180 -0.3612
 5891SOL    HW129306   0.243   4.141   4.904  1.2641 -1.1269  0.5576
 5891SOL    HW229307   0.312   4.231   5.002 -0.5846  0.1123 -0.3575
 5892SOL     OW29308   3.021   1.539   5.175 -0.3383  0.1863  0.0715
 5892SOL    HW129309   3.031   1.623   5.130 -0.9922  0.0410 -0.3648
 5892SOL    HW229310   2.926   1.527   5.168 -0.1206 -0.8015 -1.2818
 5893SOL     OW29311   1.225   2.119  14.297  0.3347 -0.2738  0.1828
 5893SOL    HW129312   1.133   2.106  14.274  0.1549 -0.1666  0.8417
 5893SOL    HW229313   1.249   2.198  14.249 -0.9659 -0.5639 -0.9350
 5894SOL     OW29314   3.481   1.474  13.595  0.0176 -0.0146 -0.2432
 5894SOL    HW129315   3.473   1.562  13.631  0.3568 -0.2221  0.3666
 5894SOL    HW229316   3.418   1.471  13.524 -0.1482 -1.5281 -0.0423
 5895SOL     OW29317   2.864   0.453   2.254 -0.2972 -0.4507  0.1354
 5895SOL    HW129318   2.920   0.530   2.255 -3.1808  1.6362  0.9532
 5895SOL    HW229319   2.801   0.475   2.323 -0.0152 -2.9586  1.2003
 5896SOL     OW29320   1.941   4.618   0.032  0.7436 -0.1419  0.3224
 5896SOL    HW129321   1.916   4.526   0.041 -0.7303  0.1290 -0.8853
 5896SOL    HW229322   1.889   4.644  17.702  1.6954  2.0237  0.4023
 5897SOL     OW29323   4.601   1.111   7.257 -0.1176  0.1931  0.0514
 5897SOL    HW129324   4.574   1.187   7.309  1.3068  0.8312 -0.1201
 5897SOL    HW229325   4.602   1.161   7.175 -0.5791  0.2482  0.0824
 5898SOL     OW29326   0.464   0.329   2.284  0.3912  0.2899 -0.4181
 5898SOL    HW129327   0.519   0.293   2.353 -1.8644 -0.7178  0.8719
 5898SOL    HW229328   0.468   0.425   2.288  2.6210  0.2806 -2.5592
 5899SOL     OW29329   1.331   3.866  13.229  0.1604 -0.0722 -0.2382
 5899SOL    HW129330   1.421   3.873  13.197  0.4546 -2.2934  0.1495
 5899SOL    HW229331   1.288   3.843  13.146 -1.4267 -1.1411  0.8840
 5900SOL     OW29332   4.234   2.881   3.624 -0.4658 -0.1201 -0.1308
 5900SOL    HW129333   4.287   2.831   3.563  0.2577  1.0649 -0.4562
 5900SOL    HW229334   4.217   2.954   3.565  1.6343 -1.0700 -1.8825
 5901SOL     OW29335   3.251   1.835  10.978  0.2171  0.0307 -0.2394
 5901SOL    HW129336   3.295   1.774  10.919 -0.9976 -1.0697 -0.0131
 5901SOL    HW229337   3.271   1.798  11.063 -1.1758  0.4391  0.2732
 5902SOL     OW29338   0.616   0.420   2.577  0.2177  0.2845  0.1933
 5902SOL    HW129339   0.559   0.349   2.549  0.3365 -0.0572  0.8330
 5902SOL    HW229340   0.696   0.378   2.609  0.1064  0.0698  0.1833
 5903SOL     OW29341   4.086   3.053   0.393  0.2723 -0.4622 -0.1003
 5903SOL    HW129342   4.116   2.991   0.460  1.1722 -1.1656 -1.1450
 5903SOL    HW229343   4.106   3.001   0.315 -1.9199 -2.4910  0.7079
 5904SOL     OW29344   0.004   1.585  14.088 -0.8470  0.3129  0.8312
 5904SOL    HW129345   4.690   1.504  14.097 -0.0147 -0.1989  0.9776
 5904SOL    HW229346   0.040   1.582  13.999 -1.6783 -4.0518  0.6270
 5905SOL     OW29347   3.699   0.975   4.475  0.0240 -0.0158 -0.0974
 5905SOL    HW129348   3.746   1.035   4.533  1.2748 -0.9680 -0.1202
 5905SOL    HW229349   3.650   0.922   4.538 -0.9272 -0.6609 -1.3850
 5906SOL     OW29350   4.152   4.529   1.887  0.1042  0.3349  0.0340
 5906SOL    HW129351   4.217   4.561   1.949  1.5391  1.3366 -2.0160
 5906SOL    HW229352   4.099   4.609   1.890  1.8045  1.5181 -1.5428
 5907SOL     OW29353   2.169   1.459   2.129  0.3325  0.4002 -0.1019
 5907SOL    HW129354   2.092   1.411   2.100 -0.3402  1.6961 -0.4639
 5907SOL    HW229355   2.185   1.513   2.052 -0.6857  0.4094 -0.2973
 5908SOL     OW29356   1.210   3.889   4.228 -0.1844 -0.4102 -0.3618
 5908SOL    HW129357   1.255   3.955   4.280 -0.7718 -0.2837 -0.0083
 5908SOL    HW229358   1.185   3.945   4.155  0.7319 -1.3120 -1.3709
 5909SOL     OW29359   2.526   2.911   1.101 -0.4920  0.1957  0.1271
 5909SOL    HW129360   2.471   2.989   1.095 -1.5653 -0.4292  1.6324
 5909SOL    HW229361   2.605   2.941   1.145  0.5377 -0.7174 -1.0731
 5910SOL     OW29362   0.064   4.699  15.938  0.3877  0.2379 -0.2648
 5910SOL    HW129363   0.139   0.004  15.979 -0.9372  0.4218  2.0068
 5910SOL    HW229364   0.101   4.644  15.869 -2.2548  0.6096 -1.9984
 5911SOL     OW29365   0.090   1.790   1.279  0.5181 -0.3777 -0.3182
 5911SOL    HW129366   0.131   1.723   1.225  0.5564 -1.4018  0.9623
 5911SOL    HW229367   0.089   1.862   1.216  0.5773 -0.5616 -0.5277
 5912SOL     OW29368   1.738   1.501   6.486 -0.2688 -0.0708 -0.6417
 5912SOL    HW129369   1.758   1.577   6.541 -2.3310 -0.4721  0.6561
 5912SOL    HW229370   1.769   1.539   6.403  1.0988 -1.2101 -0.6441
 5913SOL     OW29371   3.978   3.984   9.802  0.1093 -0.3475 -0.2190
 5913SOL    HW129372   3.943   4.007   9.715  1.1206  0.7236 -0.3452
 5913SOL    HW229373   3.939   3.898   9.818 -0.1322 -0.0519  0.7493
 5914SOL     OW29374   2.901   3.804   8.339 -0.5370  0.6263  0.0301
 5914SOL    HW129375   2.976   3.855   8.307  0.6245  0.1155  1.9526
 5914SOL    HW229376   2.850   3.806   8.258  2.8227  1.4240 -2.0452
 5915SOL     OW29377   3.397   2.980   7.117  0.3272  0.0558 -0.2257
 5915SOL    HW129378   3.476   3.026   7.145 -0.1495  0.7318  0.0009
 5915SOL    HW229379   3.437   2.893   7.109 -1.7436 -0.8070 -1.1487
 5916SOL     OW29380   3.083   1.411   7.508 -0.0609  0.3769 -0.2113
 5916SOL    HW129381   3.068   1.506   7.511  2.3593  0.7416  0.2826
 5916SOL    HW229382   3.032   1.378   7.581  2.4756 -0.9194  0.9629
 5917SOL     OW29383   2.789   2.426   6.812  0.0075  1.0443 -0.2307
 5917SOL    HW129384   2.840   2.348   6.833 -1.0884 -0.2220 -2.3313
 5917SOL    HW229385   2.703   2.386   6.826  0.5181  0.4071  1.0462
 5918SOL     OW29386   3.340   0.351   1.263 -0.4769  0.6821  0.1800
 5918SOL    HW129387   3.315   0.313   1.347  1.0431 -0.1411  0.2562
 5918SOL    HW229388   3.262   0.333   1.209  1.5130 -2.4862 -1.6489
 5919SOL     OW29389   2.388   2.346   8.484  0.1551  0.3567  0.4966
 5919SOL    HW129390   2.458   2.306   8.535 -0.2591  0.9212  1.4978
 5919SOL    HW229391   2.339   2.273   8.446 -0.4734  1.0084  0.0646
 5920SOL     OW29392   1.769   4.276   7.798 -0.3489  0.3409  0.2458
 5920SOL    HW129393   1.715   4.208   7.759  2.2739 -0.0201 -2.7334
 5920SOL    HW229394   1.853   4.232   7.789 -1.2292 -1.0347 -1.3699
 5921SOL     OW29395   4.329   0.882   5.795 -0.0162  0.3514 -0.6186
 5921SOL    HW129396   4.289   0.795   5.803  1.0197 -0.1013 -0.4168
 5921SOL    HW229397   4.281   0.911   5.873  1.1493 -0.8161  0.5203
 5922SOL     OW29398   2.387   3.380   7.584  0.1507 -0.3905 -0.4538
 5922SOL    HW129399   2.339   3.297   7.583 -0.6393  0.0673 -0.5159
 5922SOL    HW229400   2.451   3.368   7.654  1.2301  2.3485 -1.0016
 5923SOL     OW29401   1.336   3.895   4.647  0.0603 -0.7983  0.3197
 5923SOL    HW129402   1.377   3.827   4.594  0.8388 -1.4935  1.8266
 5923SOL    HW229403   1.403   3.964   4.648  0.6972 -1.4396  1.3006
 5924SOL     OW29404   2.950   0.887   5.118  0.3129 -0.3173 -0.2388
 5924SOL    HW129405   2.924   0.909   5.028  1.2813  1.5511 -0.0583
 5924SOL    HW229406   2.894   0.951   5.161 -1.0450 -2.8312  1.7098
 5925SOL     OW29407   0.421   4.465   4.421 -0.6520  0.6307 -0.1227
 5925SOL    HW129408   0.433   4.400   4.352 -0.4477  2.3973 -1.7424
 5925SOL    HW229409   0.379   4.411   4.488  0.0299  1.0950  0.6843
 5926SOL     OW29410   3.932   1.431  14.039 -0.0613  0.1460  0.2995
 5926SOL    HW129411   4.024   1.404  14.042 -0.4332 -1.2964 -1.5054
 5926SOL    HW229412   3.899   1.386  13.962  1.1628  1.3282 -0.8930
 5927SOL     OW29413   1.303   4.411  14.007 -0.2768 -0.0699  0.7508
 5927SOL    HW129414   1.351   4.438  14.085  1.5522  1.2417 -0.8448
 5927SOL    HW229415   1.214   4.397  14.039  0.2249 -0.7972  1.8203
 5928SOL     OW29416   1.571   2.425   8.067  0.3186 -0.5533 -0.0921
 5928SOL    HW129417   1.561   2.516   8.096  0.5507 -0.6690  0.3580
 5928SOL    HW229418   1.615   2.443   7.984  0.8164 -0.1919  0.2456
 5929SOL     OW29419   1.691   0.457   5.611  0.1254  0.1340 -0.0824
 5929SOL    HW129420   1.647   0.416   5.536 -1.3968 -0.7344  1.2690
 5929SOL    HW229421   1.671   0.550   5.602  0.4738  0.1144 -1.0226
 5930SOL     OW29422   0.240   3.080   6.977 -0.2740  0.0957 -0.1955
 5930SOL    HW129423   0.277   3.106   6.893  0.5434 -0.0590  0.1127
 5930SOL    HW229424   0.247   3.162   7.027 -1.0152  1.7233 -2.7527
 5931SOL     OW29425   1.298   1.042   0.389  0.0794  0.7163  0.4424
 5931SOL    HW129426   1.339   1.121   0.426  1.9894 -1.1991  2.3891
 5931SOL    HW229427   1.316   1.048   0.295  2.1964 -0.3455  0.7804
 5932SOL     OW29428   2.766   4.674   5.483 -0.6243 -0.4046  0.1198
 5932SOL    HW129429   2.787   0.027   5.459 -2.6172 -0.4035 -1.6064
 5932SOL    HW229430   2.689   4.684   5.538  0.0665 -0.6563  1.1331
 5933SOL     OW29431   1.646   1.842   7.160 -0.3140 -0.1413 -0.6624
 5933SOL    HW129432   1.710   1.911   7.144 -0.6159  0.5098  0.8638
 5933SOL    HW229433   1.573   1.881   7.112 -2.8595 -2.6277  1.1961
 5934SOL     OW29434   0.017   1.117   4.336  0.8364 -0.4325 -0.5303
 5934SOL    HW129435   0.050   1.028   4.347 -1.3967 -0.9476  2.0758
 5934SOL    HW229436   0.099   1.164   4.352  0.3559  0.7671 -1.5444
 5935SOL     OW29437   3.740   2.262   0.147 -0.1214  0.2271  0.2813
 5935SOL    HW129438   3.745   2.356   0.130 -0.2355  0.2966  0.6318
 5935SOL    HW229439   3.648   2.245   0.166  0.2258 -0.2450  1.5386
 5936SOL     OW29440   4.417   3.370   4.539 -0.1533 -0.4920  0.1822
 5936SOL    HW129441   4.328   3.369   4.572 -0.4263 -0.3378 -0.5423
 5936SOL    HW229442   4.452   3.427   4.607  0.8644  0.5138 -1.1622
 5937SOL     OW29443   4.358   1.840   8.432  0.7547  0.3688 -0.7197
 5937SOL    HW129444   4.307   1.759   8.425  2.4469 -0.7634  0.2284
 5937SOL    HW229445   4.435   1.804   8.476  0.0835 -0.0650  0.0968
 5938SOL     OW29446   3.813   1.177  11.067  0.2203  0.6081 -0.1229
 5938SOL    HW129447   3.767   1.151  11.147  1.4639 -0.4108  0.2541
 5938SOL    HW229448   3.763   1.254  11.039 -0.5922 -0.0853 -0.5630
 5939SOL     OW29449   1.056   4.305   3.556 -0.4665 -0.0616  0.0045
 5939SOL    HW129450   0.977   4.325   3.606 -0.0625  0.0671  0.5914
 5939SOL    HW229451   1.113   4.365   3.603 -2.0078  1.8809 -0.6446
 5940SOL     OW29452   3.500   1.020  12.575  0.1678  0.4060  0.1286
 5940SOL    HW129453   3.455   1.081  12.516  0.7061  0.2061 -0.4868
 5940SOL    HW229454   3.436   0.997  12.643  0.3763  0.6831  0.4144
 5941SOL     OW29455   0.142   3.407  15.993 -0.5014 -0.1834 -0.9117
 5941SOL    HW129456   0.117   3.463  16.066 -0.9362 -0.6525 -0.7023
 5941SOL    HW229457   0.075   3.339  15.997 -0.6165 -0.0212 -0.0068
 5942SOL     OW29458   1.402   2.512  17.648 -0.3606  0.1529  0.3341
 5942SOL    HW129459   1.454   2.501  17.568 -0.0163 -0.4902  0.6503
 5942SOL    HW229460   1.450   2.582  17.692 -1.0406 -1.1593  3.1674
 5943SOL     OW29461   4.262   1.347  17.149  0.2468 -0.0470 -0.0118
 5943SOL    HW129462   4.270   1.373  17.241  1.0396  0.5864 -0.2571
 5943SOL    HW229463   4.218   1.425  17.114 -0.9503 -0.2216  1.1298
 5944SOL     OW29464   3.960   1.546  16.248 -0.2339 -0.1172  1.1867
 5944SOL    HW129465   3.909   1.487  16.192  0.1018  0.7743 -0.0514
 5944SOL    HW229466   4.044   1.550  16.202 -1.5057 -0.8766 -1.2136
 5945SOL     OW29467   4.384   3.227  15.065  0.0875 -0.1444 -0.0928
 5945SOL    HW129468   4.361   3.135  15.049 -0.9051  0.5558 -2.6029
 5945SOL    HW229469   4.480   3.229  15.057  0.1509  1.1014  1.0672
 5946SOL     OW29470   2.970   1.907   9.940 -0.1750 -0.0157 -0.0678
 5946SOL    HW129471   3.006   1.972  10.000 -2.1534  0.2129  0.8780
 5946SOL    HW229472   2.927   1.962   9.876  0.2073  0.5579  0.1704
 5947SOL     OW29473   0.118   3.010   1.431  0.0633 -0.9873  0.3370
 5947SOL    HW129474   0.099   2.974   1.518  0.9045  1.6003  1.6012
 5947SOL    HW229475   0.061   3.087   1.426 -1.3110 -1.9066  1.8076
 5948SOL     OW29476   3.522   1.874   5.650 -0.1787 -0.0218 -0.3270
 5948SOL    HW129477   3.502   1.798   5.705 -0.4524 -0.2917 -0.8012
 5948SOL    HW229478   3.496   1.950   5.702 -0.6231 -0.5981  0.2916
 5949SOL     OW29479   3.183   3.717   4.120  0.5250 -0.0715 -0.0818
 5949SOL    HW129480   3.149   3.704   4.209  0.0645 -0.9962 -0.4039
 5949SOL    HW229481   3.250   3.648   4.124 -0.2671 -0.6844  2.6619
 5950SOL     OW29482   1.962   1.058   8.010 -0.1910  0.1791 -0.3196
 5950SOL    HW129483   2.034   1.010   8.051  0.0993  1.5480  0.7720
 5950SOL    HW229484   1.888   1.007   8.042 -1.2662  0.3412 -2.6155
 5951SOL     OW29485   3.648   0.546   7.876  0.1176  0.0209  0.3873
 5951SOL    HW129486   3.604   0.629   7.890 -0.1743 -0.1358  0.3955
 5951SOL    HW229487   3.610   0.517   7.793  0.9192  1.1190 -0.3613
 5952SOL     OW29488   4.194   4.606  13.999 -0.4122  0.4093 -1.0994
 5952SOL    HW129489   4.130   4.673  13.977 -0.9963  0.7250  1.6453
 5952SOL    HW229490   4.150   4.534  13.954 -0.9489 -1.7976  2.9988
 5953SOL     OW29491   3.661   1.316   5.384 -0.9107  0.0701 -0.0276
 5953SOL    HW129492   3.573   1.336   5.352 -1.5919 -1.2802  1.0209
 5953SOL    HW229493   3.716   1.370   5.327 -0.7075  0.0130  0.1149
 5954SOL     OW29494   2.661   4.069   6.867 -0.4608  0.3781 -0.3494
 5954SOL    HW129495   2.623   3.985   6.842  1.9654 -1.2198  1.2761
 5954SOL    HW229496   2.689   4.094   6.778  1.0993  1.4557  0.4362
 5955SOL     OW29497   1.764   3.778   0.729  0.0871 -0.0122  0.3358
 5955SOL    HW129498   1.848   3.732   0.732  0.5111  0.8176  1.3306
 5955SOL    HW229499   1.743   3.744   0.642 -2.2864  0.2967  0.7746
 5956SOL     OW29500   3.309   1.582   5.176  0.0949  0.3780 -0.2100
 5956SOL    HW129501   3.219   1.556   5.158 -1.0391  3.1997  1.4715
 5956SOL    HW229502   3.316   1.659   5.121  1.6641  1.2995  1.2625
 5957SOL     OW29503   3.182   3.641   7.639  0.2784  0.1802  0.1919
 5957SOL    HW129504   3.196   3.634   7.733 -2.2436 -0.8207  0.5009
 5957SOL    HW229505   3.260   3.598   7.604 -0.0574 -0.2553 -0.0287
 5958SOL     OW29506   3.787   1.844   3.039 -0.4478  0.2996  0.0540
 5958SOL    HW129507   3.867   1.817   2.994 -1.2530 -1.0836 -0.5510
 5958SOL    HW229508   3.770   1.934   3.011 -2.4107 -0.2494 -0.5168
 5959SOL     OW29509   3.703   0.397  11.651 -0.2327 -0.1495  0.1303
 5959SOL    HW129510   3.655   0.474  11.620  0.2329 -0.3044 -1.0081
 5959SOL    HW229511   3.793   0.420  11.629 -0.8172 -0.3920 -2.5997
 5960SOL     OW29512   1.498   4.443   0.620  0.1252 -0.1614  0.3448
 5960SOL    HW129513   1.404   4.431   0.633  0.4666 -1.9983  1.0879
 5960SOL    HW229514   1.533   4.386   0.689 -0.0123 -0.2043  0.3806
 5961SOL     OW29515   1.912   1.037   7.188 -0.7067 -0.4407 -0.3457
 5961SOL    HW129516   1.851   1.110   7.186 -0.3688 -0.2530 -3.7937
 5961SOL    HW229517   1.907   1.003   7.277  1.4567 -0.8835 -0.3862
 5962SOL     OW29518   0.165   0.957  11.484  0.6382 -0.8506 -0.7898
 5962SOL    HW129519   0.123   0.909  11.556 -0.7913  2.7181  0.7628
 5962SOL    HW229520   0.106   0.943  11.410 -0.5637 -0.0752  0.0165
 5963SOL     OW29521   3.133   1.136  12.961  0.2530 -0.0842  0.4721
 5963SOL    HW129522   3.172   1.142  13.048 -0.5661 -3.1926  1.0475
 5963SOL    HW229523   3.135   1.228  12.932 -1.4848 -0.4050 -0.6687
 5964SOL     OW29524   0.375   2.141  12.144 -0.1517 -0.6826 -0.2026
 5964SOL    HW129525   0.285   2.144  12.114 -0.5040  1.3983  1.0738
 5964SOL    HW229526   0.370   2.163  12.237  0.1886  0.4537 -0.4557
 5965SOL     OW29527   3.713   3.874   4.281 -0.6978  0.7494 -0.4593
 5965SOL    HW129528   3.793   3.900   4.326  0.4379 -0.4091 -1.8145
 5965SOL    HW229529   3.686   3.823   4.357 -2.2712 -0.4699 -1.8464
 5966SOL     OW29530   2.430   1.551  15.366 -0.2953  0.3976 -0.1999
 5966SOL    HW129531   2.467   1.546  15.277  2.0573  1.3009  0.7042
 5966SOL    HW229532   2.384   1.468  15.376 -0.1944  0.3944  0.2313
 5967SOL     OW29533   1.867   4.089   3.657 -0.1910 -0.0627 -0.4703
 5967SOL    HW129534   1.824   4.043   3.729  0.3310  1.6664  0.9249
 5967SOL    HW229535   1.899   4.008   3.618  0.2812  0.3050 -0.8437
 5968SOL     OW29536   0.767   1.090   1.957 -0.5687 -0.0992  0.3031
 5968SOL    HW129537   0.742   1.042   2.036 -2.2030 -2.0502 -1.3996
 5968SOL    HW229538   0.781   1.024   1.889  2.2754 -0.3187  1.1070
 5969SOL     OW29539   3.080   4.007   4.383 -0.1577  0.4786 -0.1303
 5969SOL    HW129540   3.144   4.060   4.335 -1.4185 -0.5189 -2.8962
 5969SOL    HW229541   3.030   3.971   4.309  0.2241  0.5972 -0.4471
 5970SOL     OW29542   4.062   1.218  13.302  0.4963 -0.3017  0.8836
 5970SOL    HW129543   4.145   1.207  13.256 -0.3099 -0.1765 -0.6078
 5970SOL    HW229544   4.077   1.305  13.339  1.6998  0.5688 -1.6623
 5971SOL     OW29545   2.462   4.000   1.694 -0.0346 -0.3503 -0.1379
 5971SOL    HW129546   2.392   4.014   1.630 -0.0425  1.3609  0.2587
 5971SOL    HW229547   2.452   3.905   1.703  0.2733 -0.1239  2.3940
 5972SOL     OW29548   0.003   0.000   8.770  0.4255  0.3324  0.5177
 5972SOL    HW129549   0.003   4.643   8.751  2.9457  0.1785  1.3343
 5972SOL    HW229550   0.038   0.047   8.695  1.3033  3.3381  2.7825
 5973SOL     OW29551   0.707   2.682   6.719 -0.3267 -0.6933 -0.0541
 5973SOL    HW129552   0.672   2.604   6.677 -1.0154 -1.1958  1.4882
 5973SOL    HW229553   0.624   2.717   6.753  0.4290  0.3573  0.7015
 5974SOL     OW29554   2.882   1.208   3.905 -0.1708  0.2303  0.0251
 5974SOL    HW129555   2.963   1.235   3.950  2.0274 -2.0788 -2.5354
 5974SOL    HW229556   2.900   1.263   3.829  1.9071 -0.6247 -0.1180
 5975SOL     OW29557   0.481   1.170   9.327 -0.3768 -0.3800  0.4816
 5975SOL    HW129558   0.570   1.205   9.323 -0.0287 -1.4459 -0.9935
 5975SOL    HW229559   0.492   1.092   9.272 -1.4879  0.6259 -1.1524
 5976SOL     OW29560   4.607   2.306   3.820 -0.0508  0.7111 -0.5014
 5976SOL    HW129561   4.634   2.323   3.911  2.1260 -1.2058 -0.7633
 5976SOL    HW229562   4.686   2.323   3.769  1.4045  0.3528  1.6165
 5977SOL     OW29563   3.665   2.680   6.368 -0.1342 -0.3616 -0.2014
 5977SOL    HW129564   3.586   2.713   6.410  0.4276  1.1768 -0.3524
 5977SOL    HW229565   3.630   2.664   6.280 -4.3291  2.0282  1.0169
 5978SOL     OW29566   3.109   0.562   8.420 -0.7017 -0.0117 -0.3214
 5978SOL    HW129567   3.137   0.505   8.349 -2.4400  1.8489 -2.5351
 5978SOL    HW229568   3.025   0.596   8.388 -1.1804 -0.3385  0.6156
 5979SOL     OW29569   3.796   2.266  11.048 -0.4912 -0.4026 -0.2457
 5979SOL    HW129570   3.861   2.321  11.004 -1.7334  0.9854 -0.3412
 5979SOL    HW229571   3.758   2.324  11.114  0.6065  0.1381 -0.0825
 5980SOL     OW29572   3.338   3.400   9.891 -0.4086 -0.0207  0.3828
 5980SOL    HW129573   3.318   3.401   9.984  2.8725  2.8358  1.0236
 5980SOL    HW229574   3.427   3.365   9.893  0.4309  2.0962 -0.3085
 5981SOL     OW29575   0.572   1.434  17.259  0.2043  0.0099  0.6092
 5981SOL    HW129576   0.531   1.393  17.183  1.3111 -1.6618  0.9144
 5981SOL    HW229577   0.660   1.435  17.223 -1.0634  1.5757 -2.4727
 5982SOL     OW29578   2.491   1.092   5.769  0.2991 -0.0036  0.2115
 5982SOL    HW129579   2.426   1.153   5.804  2.7547  2.3663  0.6360
 5982SOL    HW229580   2.548   1.093   5.846  0.1984  4.7466  0.2370
 5983SOL     OW29581   1.944   2.118  10.303  0.8594 -0.0821 -0.2438
 5983SOL    HW129582   1.883   2.045  10.307 -1.9735  2.3174  0.3473
 5983SOL    HW229583   1.882   2.182  10.268  0.0653 -1.5899 -1.6034
 5984SOL     OW29584   1.428   3.255  10.745  0.1599 -0.4810  0.4787
 5984SOL    HW129585   1.359   3.319  10.728  0.5662  0.4532  2.3285
 5984SOL    HW229586   1.465   3.303  10.819 -0.8725  1.4515 -0.2521
 5985SOL     OW29587   4.429   1.044   1.642 -0.3515 -0.0473  0.2603
 5985SOL    HW129588   4.470   1.130   1.656 -1.9468  0.1818  3.6303
 5985SOL    HW229589   4.487   1.012   1.573 -0.8121  1.2642 -0.7310
 5986SOL     OW29590   2.564   4.255   0.779 -0.0749 -0.1252 -0.6173
 5986SOL    HW129591   2.493   4.233   0.840  0.7646  0.6149  0.6341
 5986SOL    HW229592   2.518   4.280   0.699  0.9197  0.3959 -1.0249
 5987SOL     OW29593   1.023   0.712   5.995 -0.4289 -0.3370 -0.1144
 5987SOL    HW129594   1.108   0.673   5.974 -0.6222 -2.0809  2.3954
 5987SOL    HW229595   1.049   0.748   6.079 -0.6552 -0.5341  0.0389
 5988SOL     OW29596   0.825   0.811  10.065  0.2334  0.1783  0.1069
 5988SOL    HW129597   0.756   0.818  10.132 -0.1126  1.4104 -0.3566
 5988SOL    HW229598   0.826   0.719  10.042 -0.4612 -0.0544  0.9854
 5989SOL     OW29599   1.098   2.112   7.886 -0.4255 -0.2977 -0.3404
 5989SOL    HW129600   1.165   2.180   7.881 -1.4227  0.5791 -1.7324
 5989SOL    HW229601   1.122   2.051   7.956  0.5057 -0.8539 -1.1477
 5990SOL     OW29602   0.230   3.434   4.151 -0.2691 -0.5279  0.4639
 5990SOL    HW129603   0.144   3.430   4.193  0.3789 -1.0767  1.7324
 5990SOL    HW229604   0.289   3.390   4.212  0.5722 -0.0523 -0.0026
 5991SOL     OW29605   2.646   4.311   5.789 -0.1346  0.0644 -0.0237
 5991SOL    HW129606   2.716   4.351   5.841  0.1824 -0.3759 -0.1074
 5991SOL    HW229607   2.685   4.225   5.770 -1.5901 -0.5333 -0.2722
 5992SOL     OW29608   1.420   2.164   5.579 -0.6423 -0.3399  0.2842
 5992SOL    HW129609   1.466   2.245   5.597 -0.8234 -0.0391 -0.5762
 5992SOL    HW229610   1.472   2.093   5.618 -0.7757 -0.5701  0.0445
 5993SOL     OW29611   0.590   1.694  13.009  0.1133 -0.1300 -0.2706
 5993SOL    HW129612   0.575   1.686  13.104 -1.2615 -0.9361 -0.5694
 5993SOL    HW229613   0.666   1.635  13.007 -0.7730 -1.2792  0.2105
 5994SOL     OW29614   3.246   2.843   5.980  0.2346 -0.0860  0.3791
 5994SOL    HW129615   3.281   2.925   6.014  3.0185 -0.3518 -1.8561
 5994SOL    HW229616   3.179   2.825   6.047 -0.3640  0.1697 -0.1475
 5995SOL     OW29617   0.908   3.851   3.480 -0.1294  0.0791  0.7159
 5995SOL    HW129618   0.923   3.936   3.439  0.9734 -0.9925 -1.1337
 5995SOL    HW229619   0.885   3.872   3.571  0.7303  0.2987  0.8798
 5996SOL     OW29620   3.193   2.778   3.399 -0.2780 -0.1942  0.5582
 5996SOL    HW129621   3.132   2.706   3.385 -1.8021  1.2655 -0.4327
 5996SOL    HW229622   3.139   2.838   3.451 -1.7677  0.5338 -1.8068
 5997SOL     OW29623   2.535   3.930   6.213  0.2609 -0.3205 -0.3909
 5997SOL    HW129624   2.616   3.908   6.166  1.6702  1.5053  1.1802
 5997SOL    HW229625   2.524   3.856   6.273  1.1742 -0.4701 -0.3989
 5998SOL     OW29626   0.635   3.252   5.496  0.3857 -0.3008  0.8427
 5998SOL    HW129627   0.601   3.215   5.578  0.8346 -0.4870  0.9412
 5998SOL    HW229628   0.552   3.284   5.460  0.5888  0.0510  0.6867
 5999SOL     OW29629   3.721   2.819   4.439 -0.1410  0.0673  0.3869
 5999SOL    HW129630   3.702   2.900   4.391 -1.4834 -0.3160  0.2449
 5999SOL    HW229631   3.652   2.760   4.407  0.6212 -0.7841  0.3328
 6000SOL     OW29632   4.209   1.587   8.405  0.1736  0.8113  0.3052
 6000SOL    HW129633   4.140   1.539   8.359  0.9521 -0.0711  0.0554
 6000SOL    HW229634   4.288   1.550   8.366 -0.0159  0.9972 -0.2633
 6001SOL     OW29635   2.279   3.424  10.354  0.7642 -0.1551  0.0030
 6001SOL    HW129636   2.340   3.356  10.385  1.0786 -0.3935 -1.1225
 6001SOL    HW229637   2.207   3.428  10.416 -0.7855 -1.3039 -1.7219
 6002SOL     OW29638   1.641   2.404  13.643  0.4656  0.1444  0.4069
 6002SOL    HW129639   1.551   2.434  13.630  0.0766 -0.9394  0.6397
 6002SOL    HW229640   1.654   2.391  13.550 -0.3954  0.6335  0.2178
 6003SOL     OW29641   4.028   2.770   9.989  0.2574 -0.6220  0.1797
 6003SOL    HW129642   4.012   2.861  10.015  0.8708 -0.9870  1.8387
 6003SOL    HW229643   4.124   2.770   9.984  0.1069  0.4453 -2.4541
 6004SOL     OW29644   1.968   3.377   3.132  0.1390  0.2983  0.1080
 6004SOL    HW129645   2.036   3.312   3.147  1.5704  2.1428  1.5969
 6004SOL    HW229646   1.965   3.430   3.212  0.1810 -0.9816  0.9396
 6005SOL     OW29647   4.108   2.450   9.973 -0.5925 -0.6952  0.2158
 6005SOL    HW129648   4.179   2.494  10.021 -0.7329  0.4789 -0.6425
 6005SOL    HW229649   4.034   2.458  10.033 -0.0729  0.3899  0.7085
 6006SOL     OW29650   1.509   0.002   2.346  0.2096 -0.1532  0.3886
 6006SOL    HW129651   1.560   4.699   2.275 -0.5604 -0.8000  0.2074
 6006SOL    HW229652   1.424   4.697   2.339 -0.8372  1.7908  1.5872
 6007SOL     OW29653   0.697   2.445   8.981  0.6604 -0.1235  0.0593
 6007SOL    HW129654   0.649   2.522   9.011  0.4263 -0.4931  0.6320
 6007SOL    HW229655   0.687   2.467   8.889 -0.3399 -1.4444 -0.1420
 6008SOL     OW29656   0.837   4.372   3.674  0.2047 -0.2117  0.0296
 6008SOL    HW129657   0.772   4.302   3.683  0.9705 -1.0597 -1.0603
 6008SOL    HW229658   0.814   4.429   3.747 -0.8202  0.6878 -0.9865
 6009SOL     OW29659   2.472   2.725   0.118 -0.1355  0.1721 -0.1434
 6009SOL    HW129660   2.527   2.779   0.176 -0.2944  0.2149 -0.0333
 6009SOL    HW229661   2.471   2.770   0.034  2.4213  0.3366 -0.1017
 6010SOL     OW29662   1.097   2.128   9.444  0.9302 -0.2167  0.2907
 6010SOL    HW129663   1.028   2.157   9.384  1.1849 -2.2486 -1.0015
 6010SOL    HW229664   1.138   2.213   9.462 -1.3142  0.9188  0.1419
 6011SOL     OW29665   3.668   1.740   8.945  0.1402 -1.3251 -0.1791
 6011SOL    HW129666   3.646   1.825   8.984 -1.4879 -0.8430 -2.1468
 6011SOL    HW229667   3.691   1.761   8.854 -1.7395 -0.2031 -0.3831
 6012SOL     OW29668   0.769   1.417   7.490  0.1783 -0.7040  0.4261
 6012SOL    HW129669   0.787   1.460   7.407  1.3014 -1.2196  0.4101
 6012SOL    HW229670   0.778   1.488   7.553  1.4320 -0.8452  0.3961
 6013SOL     OW29671   1.374   2.329   9.298 -0.2257  0.0037  0.2448
 6013SOL    HW129672   1.342   2.325   9.388 -0.5786 -0.1060  0.1167
 6013SOL    HW229673   1.304   2.360   9.239 -0.1379  1.5408  0.9538
 6014SOL     OW29674   3.610   0.447   7.377  0.2439 -0.0724  0.6053
 6014SOL    HW129675   3.683   0.386   7.364  1.6617  1.9198 -0.8667
 6014SOL    HW229676   3.537   0.416   7.323  0.9264  0.2666 -0.5137
 6015SOL     OW29677   0.516   3.394   6.417 -0.0679 -0.6081 -0.1336
 6015SOL    HW129678   0.573   3.452   6.365  1.8378 -2.1440  0.2525
 6015SOL    HW229679   0.451   3.376   6.349 -0.0812 -0.8295 -0.0596
 6016SOL     OW29680   2.596   4.558   3.866 -0.0018 -0.1418 -0.3604
 6016SOL    HW129681   2.563   4.625   3.926 -3.5822 -0.9635 -1.3756
 6016SOL    HW229682   2.602   4.493   3.936  0.3862  1.1522  0.7935
 6017SOL     OW29683   1.919   1.998   2.951  0.0488 -0.6802 -0.5308
 6017SOL    HW129684   1.884   1.950   2.876 -0.5641 -0.2061 -0.5503
 6017SOL    HW229685   1.842   2.005   3.008  0.2477  1.2061 -0.4802
 6018SOL     OW29686   2.080   1.397   6.037  0.1419 -0.1399  0.4562
 6018SOL    HW129687   2.029   1.318   6.020  1.1631 -0.3483 -1.6409
 6018SOL    HW229688   2.029   1.459   5.985  0.3689  0.8619  1.4400
 6019SOL     OW29689   0.508   1.195   5.452 -0.0033  0.2679 -0.0395
 6019SOL    HW129690   0.558   1.119   5.482  0.5694  0.5289 -0.3342
 6019SOL    HW229691   0.462   1.148   5.383 -1.1799 -0.5749  1.2907
 6020SOL     OW29692   3.665   4.351   2.184  0.2779  0.5224 -0.5371
 6020SOL    HW129693   3.670   4.391   2.097 -0.4580 -3.4403 -2.4295
 6020SOL    HW229694   3.757   4.355   2.210 -0.4521 -0.5754  2.2686
 6021SOL     OW29695   1.380   0.697  11.216  0.0114 -0.0352 -0.1194
 6021SOL    HW129696   1.314   0.747  11.264 -0.3441 -2.6633  2.1059
 6021SOL    HW229697   1.437   0.763  11.176  0.0392 -1.1423 -1.8821
 6022SOL     OW29698   3.491   1.718   7.827 -0.0479  0.2584  0.4969
 6022SOL    HW129699   3.481   1.805   7.788 -3.2830 -0.0883  0.5509
 6022SOL    HW229700   3.577   1.706   7.786 -1.2374  0.3742 -2.0694
 6023SOL     OW29701   0.469   3.029  16.258  0.1157  0.1931 -0.1180
 6023SOL    HW129702   0.491   2.960  16.195  1.2377  0.4160  0.0265
 6023SOL    HW229703   0.496   3.105  16.205 -1.0718  1.6781  1.4047
 6024SOL     OW29704   3.618   4.282   6.170  0.1020 -0.2144  0.6555
 6024SOL    HW129705   3.671   4.221   6.118 -1.9238 -1.7322  0.3952
 6024SOL    HW229706   3.666   4.276   6.253  0.6078 -0.8765  0.3104
 6025SOL     OW29707   1.256   3.727   8.685 -0.0738 -0.0486  0.4057
 6025SOL    HW129708   1.329   3.694   8.633  0.2369  1.5150 -0.1569
 6025SOL    HW229709   1.298   3.799   8.732 -1.1584  1.3054 -0.6956
 6026SOL     OW29710   4.319   3.897  13.584  0.1985 -0.1826 -0.4865
 6026SOL    HW129711   4.407   3.934  13.580 -0.3779  1.2493 -0.0557
 6026SOL    HW229712   4.298   3.914  13.676 -1.7356  0.2523 -1.0273
 6027SOL     OW29713   3.904   0.055   3.583  0.0959  0.4523  0.1182
 6027SOL    HW129714   3.923   4.698   3.575 -0.1873  0.2888  1.3546
 6027SOL    HW229715   3.843   0.057   3.657 -0.9602  1.9662 -0.8036
 6028SOL     OW29716   1.010   0.717   2.275 -0.3090  0.3087 -0.8106
 6028SOL    HW129717   1.048   0.632   2.297  0.9627  0.9914 -0.3364
 6028SOL    HW229718   0.919   0.693   2.292  0.5251 -0.5350  2.4554
 6029SOL     OW29719   3.298   1.826   2.786 -0.0562 -0.6985  0.1939
 6029SOL    HW129720   3.370   1.775   2.750  0.6029  0.7376 -0.5231
 6029SOL    HW229721   3.260   1.866   2.708  0.0009 -2.3929 -0.7044
 6030SOL     OW29722   3.975   1.723  13.368  0.1313 -0.5064  0.0052
 6030SOL    HW129723   3.924   1.789  13.414 -1.5141 -2.2196  0.6334
 6030SOL    HW229724   3.912   1.650  13.367 -2.0234  1.3377  1.4732
 6031SOL     OW29725   0.735   1.050  13.758 -0.2800 -0.1768 -0.3434
 6031SOL    HW129726   0.712   0.957  13.760  0.8216 -0.4323  0.3074
 6031SOL    HW229727   0.828   1.036  13.743 -0.2202  1.5397 -1.4906
 6032SOL     OW29728   3.760   3.927   3.999  0.3511  0.6023 -0.2140
 6032SOL    HW129729   3.759   3.919   4.095 -0.7730  1.2810 -0.1733
 6032SOL    HW229730   3.724   4.015   3.986  2.9409  1.6129 -0.5410
 6033SOL     OW29731   1.812   3.012   8.527 -0.0477 -0.0880 -0.1492
 6033SOL    HW129732   1.732   2.965   8.551 -0.5336  1.2707  0.8753
 6033SOL    HW229733   1.873   2.944   8.498  2.4949  1.1432  2.2887
 6034SOL     OW29734   0.005   2.534  10.360  0.1482  0.1316  0.4363
 6034SOL    HW129735   0.064   2.467  10.397  2.4345  1.5109 -0.6811
 6034SOL    HW229736   0.041   2.619  10.387  0.1830 -0.7506  3.2276
 6035SOL     OW29737   3.812   2.325   6.560 -0.0201  0.2523  0.5036
 6035SOL    HW129738   3.791   2.233   6.545 -0.1719  0.3220  0.2897
 6035SOL    HW229739   3.800   2.326   6.655  0.1773 -2.4936  0.5404
 6036SOL     OW29740   4.443   4.181  16.312  0.5914  0.4492  0.2509
 6036SOL    HW129741   4.427   4.227  16.394  1.2635 -0.1211  0.7068
 6036SOL    HW229742   4.518   4.223  16.271  1.6347 -1.6739 -0.0097
 6037SOL     OW29743   4.419   0.711   2.059 -0.2617  0.3686  0.1528
 6037SOL    HW129744   4.437   0.775   1.989 -1.5463  0.6436  0.0723
 6037SOL    HW229745   4.451   0.755   2.138 -1.7060  1.2286  0.2532
 6038SOL     OW29746   0.906   1.100   8.344 -0.3131  0.1112  0.0485
 6038SOL    HW129747   0.920   1.098   8.439 -0.8015 -1.6885  0.0807
 6038SOL    HW229748   0.813   1.082   8.329 -0.3453 -0.1301  0.5389
 6039SOL     OW29749   2.523   2.125  14.081 -0.2430 -0.1340  0.3808
 6039SOL    HW129750   2.444   2.072  14.086  0.1217 -0.5451  1.7586
 6039SOL    HW229751   2.587   2.058  14.104  1.8767  1.7499  0.0760
 6040SOL     OW29752   3.083   0.424   3.179  0.6619  0.4181  0.1958
 6040SOL    HW129753   3.172   0.421   3.143  1.7568  1.4919  2.8243
 6040SOL    HW229754   3.045   0.500   3.136 -0.4607  0.0293  0.5217
 6041SOL     OW29755   2.567   3.542   8.515 -0.2808  0.7087 -0.5224
 6041SOL    HW129756   2.525   3.471   8.466 -3.2853  1.9287  0.2569
 6041SOL    HW229757   2.619   3.568   8.439 -0.6313  1.2901 -0.5640
 6042SOL     OW29758   2.077   4.132   6.180 -0.4542 -0.0881 -0.1375
 6042SOL    HW129759   2.108   4.060   6.235  0.4075 -0.4194 -1.0569
 6042SOL    HW229760   2.060   4.087   6.097  0.4866  0.9208 -0.8884
 6043SOL     OW29761   4.654   1.508   1.118  0.4431  0.3139 -0.1585
 6043SOL    HW129762   4.583   1.570   1.108 -1.4286 -2.0520 -1.5264
 6043SOL    HW229763   4.629   1.457   1.195  0.6902 -2.7258 -2.0999
 6044SOL     OW29764   1.391   1.699   4.528 -0.0911  0.0936 -0.8298
 6044SOL    HW129765   1.318   1.637   4.526  0.0790 -0.1735  0.6161
 6044SOL    HW229766   1.412   1.688   4.621 -0.5430  1.4290 -0.5716
 6045SOL     OW29767   0.659   3.660   8.506 -0.1101  0.4393  0.4300
 6045SOL    HW129768   0.707   3.597   8.560  0.7035 -0.9326 -1.8913
 6045SOL    HW229769   0.715   3.654   8.429 -3.5720  0.8931 -2.0610
 6046SOL     OW29770   1.362   3.943   1.573  0.4226 -0.2649 -0.0066
 6046SOL    HW129771   1.279   3.906   1.545  0.3804  0.7349 -1.1611
 6046SOL    HW229772   1.408   3.862   1.598 -0.6305 -1.4085 -1.8153
 6047SOL     OW29773   3.020   1.800   6.808  0.2872 -0.2859  0.4855
 6047SOL    HW129774   3.022   1.730   6.743 -1.7720 -0.9300  1.1041
 6047SOL    HW229775   3.037   1.875   6.750  1.0725 -1.4089 -0.7353
 6048SOL     OW29776   0.142   4.021   3.169  0.2534  0.7763 -0.1785
 6048SOL    HW129777   0.150   3.988   3.258  1.0907  0.8366 -0.2275
 6048SOL    HW229778   0.057   4.066   3.175  0.4416  1.6247 -3.7232
 6049SOL     OW29779   0.772   2.876   2.006  0.6583  0.1110 -0.0065
 6049SOL    HW129780   0.794   2.950   2.062  1.1354 -1.2297  1.5654
 6049SOL    HW229781   0.723   2.824   2.070  0.0277 -1.0095 -1.3907
 6050SOL     OW29782   4.487   4.179   8.005 -0.2446  0.1374  0.4546
 6050SOL    HW129783   4.541   4.111   7.963  1.6336  3.1135 -1.9732
 6050SOL    HW229784   4.530   4.192   8.089  2.3133 -0.3483 -0.7627
 6051SOL     OW29785   2.074   3.463   2.166  0.3443 -0.3188 -0.2786
 6051SOL    HW129786   1.982   3.490   2.161 -0.0068 -1.0994  1.8591
 6051SOL    HW229787   2.094   3.488   2.256  0.2640 -0.6225 -0.1774
 6052SOL     OW29788   0.827   3.650   9.087  0.3827  0.5174 -0.0152
 6052SOL    HW129789   0.919   3.642   9.113  0.1904  0.9536  0.8188
 6052SOL    HW229790   0.796   3.565   9.118 -0.0176  0.4045 -0.7350
 6053SOL     OW29791   0.202   3.987  13.117  0.1078  0.4341 -0.2492
 6053SOL    HW129792   0.229   4.000  13.026  1.5175  0.2368  0.1448
 6053SOL    HW229793   0.250   4.061  13.154  0.3383  0.5216 -0.7259
 6054SOL     OW29794   4.679   2.441   2.586 -0.2124 -0.3400 -0.0167
 6054SOL    HW129795   4.700   2.464   2.495 -1.6900  0.6039 -0.1201
 6054SOL    HW229796   4.618   2.509   2.616  0.7255  0.6233 -0.2556
 6055SOL     OW29797   2.986   1.774  16.569 -0.1491  0.2426  0.4510
 6055SOL    HW129798   2.966   1.819  16.487  1.4623  0.6826  0.3021
 6055SOL    HW229799   2.971   1.685  16.538  0.0799 -0.4247  2.2120
 6056SOL     OW29800   1.602   1.358   0.704 -0.5442  0.2254  0.2054
 6056SOL    HW129801   1.603   1.445   0.665 -2.8349  1.3115  2.6001
 6056SOL    HW229802   1.667   1.369   0.773 -0.7011  0.4931  0.3072
 6057SOL     OW29803   0.958   1.311   4.154 -0.3625  0.3236  1.0949
 6057SOL    HW129804   1.004   1.237   4.114  0.2774  1.9173 -1.1272
 6057SOL    HW229805   0.959   1.372   4.081  0.1029 -1.3516 -0.3116
 6058SOL     OW29806   3.675   0.300  17.462 -0.0064 -0.4798  0.1030
 6058SOL    HW129807   3.665   0.220  17.514  0.9647 -0.7825 -0.1708
 6058SOL    HW229808   3.761   0.295  17.421  0.0431 -3.6143  0.6011
 6059SOL     OW29809   3.374   1.440   4.501 -0.1369 -0.3172  0.3115
 6059SOL    HW129810   3.322   1.359   4.494 -0.9836  0.3585 -1.1569
 6059SOL    HW229811   3.399   1.449   4.410 -0.5934 -0.3653  0.1802
 6060SOL     OW29812   2.036   3.799   5.426 -0.1239 -0.5254  0.3803
 6060SOL    HW129813   2.037   3.712   5.466 -0.0516 -1.8259 -2.4448
 6060SOL    HW229814   2.127   3.820   5.445  0.6556 -1.6458 -2.0365
 6061SOL     OW29815   1.062   0.807   6.564 -0.1488  0.3206 -0.1302
 6061SOL    HW129816   1.136   0.751   6.542 -1.6152 -0.6842 -2.4476
 6061SOL    HW229817   1.008   0.774   6.493 -1.1262 -0.2961  0.9001
 6062SOL     OW29818   0.132   0.103   5.808 -0.1157  0.0229  0.1662
 6062SOL    HW129819   0.041   0.088   5.836 -1.0158  0.2730 -2.6265
 6062SOL    HW229820   0.155   0.010   5.820  0.9359  0.2521 -0.0911
 6063SOL     OW29821   4.024   4.398   1.047  0.1897 -0.3795 -0.4646
 6063SOL    HW129822   4.081   4.362   1.116 -0.2107  0.6417  0.3824
 6063SOL    HW229823   4.042   4.491   1.059 -0.1295 -0.0303 -2.6524
 6064SOL     OW29824   3.493   1.279   3.806 -0.3126  0.6219 -0.0856
 6064SOL    HW129825   3.502   1.190   3.773  1.1338 -0.2096  2.5209
 6064SOL    HW229826   3.486   1.257   3.899  1.8416  2.1588  0.4580
 6065SOL     OW29827   3.184   2.132  11.960 -0.3648 -0.4546 -0.5473
 6065SOL    HW129828   3.260   2.144  12.017 -0.0650 -1.9142 -0.6492
 6065SOL    HW229829   3.218   2.092  11.880  0.0928  1.3118 -1.2380
 6066SOL     OW29830   4.233   0.006   3.623  0.2321 -0.3525 -0.1226
 6066SOL    HW129831   4.309   0.064   3.635  0.2306 -0.7414  1.7915
 6066SOL    HW229832   4.192   0.044   3.546  0.5359  3.4348  1.5830
 6067SOL     OW29833   4.444   4.165   4.162  0.0769 -0.0122  0.4372
 6067SOL    HW129834   4.412   4.106   4.093  1.1685  1.0797 -0.9963
 6067SOL    HW229835   4.468   4.240   4.108 -1.0885  0.1709  0.1618
 6068SOL     OW29836   3.087   2.802  12.450 -0.1727 -0.6995  0.1119
 6068SOL    HW129837   3.076   2.715  12.413 -0.5090 -1.9867  3.2084
 6068SOL    HW229838   3.069   2.857  12.373 -1.9689 -1.4863 -0.0062
 6069SOL     OW29839   1.523   4.470   3.067  0.3796 -0.2731 -0.1481
 6069SOL    HW129840   1.487   4.462   2.978 -0.7756  1.1723  0.1907
 6069SOL    HW229841   1.606   4.425   3.050  1.6547  1.6583  0.9708
 6070SOL     OW29842   3.045   0.027   5.961  0.0479  0.2733  0.4680
 6070SOL    HW129843   2.968   0.035   6.018  0.0918  0.3072  0.5220
 6070SOL    HW229844   3.112   0.042   6.027  1.0276 -0.4451 -0.3752
 6071SOL     OW29845   0.018   3.286  16.333 -0.2269  0.4530 -0.4829
 6071SOL    HW129846   0.085   3.310  16.397 -0.2500  0.5723 -0.5033
 6071SOL    HW229847   0.053   3.202  16.303 -0.1662  0.1606  0.4169
 6072SOL     OW29848   1.279   1.279   6.687  0.2915 -0.1695  0.0878
 6072SOL    HW129849   1.373   1.260   6.685  0.7940  2.2298  1.2394
 6072SOL    HW229850   1.247   1.190   6.671  1.0715 -0.4604  0.1325
 6073SOL     OW29851   0.758   0.900   6.222 -0.8924  0.2631  0.1796
 6073SOL    HW129852   0.752   0.918   6.129 -0.3216 -0.1794  0.0551
 6073SOL    HW229853   0.796   0.980   6.259 -0.7570  0.9203 -1.4027
 6074SOL     OW29854   0.480   4.067   5.750 -0.6851 -0.8928 -0.0919
 6074SOL    HW129855   0.453   3.975   5.751  1.0808 -1.3981  1.0513
 6074SOL    HW229856   0.411   4.101   5.693  0.3209  0.1126 -0.6961
 6075SOL     OW29857   3.342   4.344  13.859 -0.4381 -0.5454  0.4627
 6075SOL    HW129858   3.405   4.414  13.876 -1.4439  0.6200 -0.6375
 6075SOL    HW229859   3.394   4.266  13.881 -0.6249 -1.4981 -2.5401
 6076SOL     OW29860   1.981   0.602   1.037 -0.3641  0.4317  0.1245
 6076SOL    HW129861   1.966   0.590   0.943  0.4722 -0.6060  0.1127
 6076SOL    HW229862   1.925   0.530   1.067  0.6796 -0.3315  0.2276
 6077SOL     OW29863   0.123   2.417   6.421 -0.4122  0.2334 -0.7016
 6077SOL    HW129864   0.045   2.453   6.380 -0.1388  0.8719 -0.6652
 6077SOL    HW229865   0.088   2.349   6.478 -0.1511  0.7257  0.0499
 6078SOL     OW29866   4.564   1.752   5.949  0.4918  0.3884 -0.7393
 6078SOL    HW129867   4.488   1.808   5.935 -0.4905 -0.6899  0.2924
 6078SOL    HW229868   4.628   1.788   5.888 -0.2366  1.2469 -1.0037
 6079SOL     OW29869   3.490   3.860  10.369 -0.3223 -0.1675 -0.6834
 6079SOL    HW129870   3.506   3.921  10.296  1.0202  0.9829  0.5779
 6079SOL    HW229871   3.563   3.875  10.429 -1.6421  0.2934  0.8233
 6080SOL     OW29872   3.659   2.016   9.066  0.2287  0.2199  0.6476
 6080SOL    HW129873   3.753   2.020   9.080  0.5148 -0.7472 -0.9746
 6080SOL    HW229874   3.629   1.980   9.150  0.1013  0.8973  0.8935
 6081SOL     OW29875   4.515   0.538   6.577 -0.2936 -0.0669 -0.2042
 6081SOL    HW129876   4.591   0.550   6.520  0.4778  0.0369  0.8516
 6081SOL    HW229877   4.502   0.621   6.624 -3.2065 -0.9681  0.6058
 6082SOL     OW29878   1.801   0.745  16.088 -0.2771  0.1332 -0.2839
 6082SOL    HW129879   1.751   0.795  16.153 -2.2748 -3.1508  0.6751
 6082SOL    HW229880   1.889   0.755  16.124 -0.5729 -1.0846  0.7447
 6083SOL     OW29881   1.788   2.261   8.598  0.2459 -0.7242  0.3898
 6083SOL    HW129882   1.871   2.214   8.591  1.9819  2.5002 -0.8533
 6083SOL    HW229883   1.778   2.265   8.693  1.4640 -1.0606  0.5383
 6084SOL     OW29884   0.370   0.148   9.598  0.0232  0.4581 -0.2236
 6084SOL    HW129885   0.424   0.186   9.529 -1.2638  2.5200 -0.0888
 6084SOL    HW229886   0.383   0.207   9.673 -0.3374  2.0476 -1.4010
 6085SOL     OW29887   2.006   1.647  14.029  0.1363 -0.6475 -0.3999
 6085SOL    HW129888   2.021   1.737  14.057 -1.1881  0.1943 -2.3528
 6085SOL    HW229889   2.042   1.643  13.940  0.1931 -1.2956 -0.3493
 6086SOL     OW29890   4.361   0.620   5.968  0.2034  0.3387 -0.2430
 6086SOL    HW129891   4.277   0.663   5.987  0.0999  0.1682 -0.3099
 6086SOL    HW229892   4.399   0.620   6.056 -0.0513 -1.0400 -0.1364
 6087SOL     OW29893   4.009   0.782   5.507 -0.6040  0.1961  0.0619
 6087SOL    HW129894   4.048   0.700   5.478  0.2003  0.4737  0.3469
 6087SOL    HW229895   3.988   0.835   5.430  1.0593 -0.7720 -1.0527
 6088SOL     OW29896   0.488   4.068   4.751  0.6957  0.6014  0.5788
 6088SOL    HW129897   0.581   4.089   4.744  1.3830 -3.6905 -3.0527
 6088SOL    HW229898   0.461   4.135   4.814  0.2890 -0.7533  1.8433
 6089SOL     OW29899   2.967   1.062   6.402 -0.1978  0.4189 -0.1116
 6089SOL    HW129900   3.021   1.124   6.452  2.2646 -1.1463 -0.8706
 6089SOL    HW229901   3.028   1.044   6.331 -0.7258 -0.1426 -0.4280
 6090SOL     OW29902   4.083   2.506  13.308 -0.1627  0.2524 -0.1630
 6090SOL    HW129903   4.167   2.552  13.313  0.3702 -1.0458  2.9224
 6090SOL    HW229904   4.105   2.421  13.269  1.8762  0.0628  1.4028
 6091SOL     OW29905   1.759   0.274  17.075  0.5770  0.0483 -0.1572
 6091SOL    HW129906   1.668   0.243  17.068  0.4629  0.8858 -2.4022
 6091SOL    HW229907   1.796   0.262  16.988 -0.7227 -0.4841 -0.6405
 6092SOL     OW29908   1.483   0.883  12.959  0.4450 -0.3310  0.0249
 6092SOL    HW129909   1.513   0.909  13.046  1.8874 -1.8732 -0.0237
 6092SOL    HW229910   1.480   0.788  12.966 -2.4622 -0.0939  1.9063
 6093SOL     OW29911   0.117   3.946   6.795 -0.1048  0.1964  0.0360
 6093SOL    HW129912   0.193   3.888   6.799  1.0588  1.7532  0.0195
 6093SOL    HW229913   0.052   3.884   6.759 -2.5339  1.7401  1.8340
 6094SOL     OW29914   1.166   1.064   3.401  0.0285 -0.1189 -0.5044
 6094SOL    HW129915   1.251   1.024   3.382 -0.1064  0.0554 -1.4527
 6094SOL    HW229916   1.107   0.990   3.389 -1.0289  0.3947  1.4586
 6095SOL     OW29917   0.908   0.781   1.917 -0.1198  0.0868  0.0589
 6095SOL    HW129918   0.815   0.804   1.912  0.0966  0.4757 -1.9278
 6095SOL    HW229919   0.938   0.757   1.830  3.1955 -1.1105  1.5479
 6096SOL     OW29920   4.722   2.766   8.739  0.8552  0.6472 -0.5930
 6096SOL    HW129921   0.040   2.791   8.665 -0.6555 -0.5974 -2.1668
 6096SOL    HW229922   0.039   2.794   8.812  0.0442 -1.4048  0.7922
 6097SOL     OW29923   3.861   3.542   7.051  0.4977  0.2115  0.0398
 6097SOL    HW129924   3.851   3.547   6.955 -0.6764 -0.6786  0.1208
 6097SOL    HW229925   3.852   3.447   7.050 -2.9889  0.5413  2.7506
 6098SOL     OW29926   2.549   4.542  11.880  0.1267 -0.0934 -0.2100
 6098SOL    HW129927   2.537   4.574  11.970  2.2759 -0.4745  0.2148
 6098SOL    HW229928   2.578   4.621  11.834  1.5406 -0.1343  0.6079
 6099SOL     OW29929   3.167   3.237  17.731 -1.1395 -0.5420  0.0963
 6099SOL    HW129930   3.223   3.193   0.049  0.0099  1.9740  0.8216
 6099SOL    HW229931   3.129   3.307   0.039  1.3534  0.2717  0.7759
 6100SOL     OW29932   1.445   1.230   7.009  0.4947  0.2564 -0.2122
 6100SOL    HW129933   1.508   1.279   7.062  0.1856 -1.1291  1.4502
 6100SOL    HW229934   1.452   1.138   7.034 -1.7421 -0.3542 -1.8862
 6101SOL     OW29935   3.151   2.452  12.181 -0.1801 -0.3266 -0.0320
 6101SOL    HW129936   3.089   2.381  12.172  0.5697 -1.2405  2.1302
 6101SOL    HW229937   3.111   2.514  12.242 -1.9410  0.5239 -2.0445
 6102SOL     OW29938   0.907   1.559   9.334 -0.4891 -0.0219 -0.1933
 6102SOL    HW129939   0.952   1.642   9.329 -1.2076  0.3686 -0.2295
 6102SOL    HW229940   0.884   1.552   9.241 -0.0672 -1.6882 -0.1822
 6103SOL     OW29941   0.932   1.383   1.237  0.0180  0.2900  0.5555
 6103SOL    HW129942   1.011   1.432   1.215 -0.8603  1.6243  0.3963
 6103SOL    HW229943   0.890   1.444   1.297  0.1659 -0.8876  1.8614
 6104SOL     OW29944   2.936   0.490   4.552 -0.0791  0.0840 -0.0689
 6104SOL    HW129945   2.945   0.584   4.567 -1.3331  0.0836  0.6094
 6104SOL    HW229946   2.937   0.487   4.456 -1.5573  0.5590 -0.0889
 6105SOL     OW29947   2.580   2.315  15.084  0.3151  0.3708  0.1641
 6105SOL    HW129948   2.624   2.399  15.096  0.1982  0.6720 -1.4905
 6105SOL    HW229949   2.488   2.337  15.070  0.1492 -0.6200 -0.3157
 6106SOL     OW29950   4.140   3.170   3.495 -0.4287  0.0041  0.2605
 6106SOL    HW129951   4.184   3.171   3.410 -0.9819 -1.3087 -0.0438
 6106SOL    HW229952   4.163   3.251   3.539  0.5243 -0.0744 -0.0944
 6107SOL     OW29953   3.273   3.389   6.879 -0.3677 -0.2507 -0.9678
 6107SOL    HW129954   3.266   3.295   6.891 -1.1760 -0.1056 -0.3549
 6107SOL    HW229955   3.361   3.409   6.846 -0.3162 -0.6111 -1.0483
 6108SOL     OW29956   1.569   0.934  15.433  0.1128 -0.2554 -0.1259
 6108SOL    HW129957   1.606   0.924  15.521  0.9480  0.7030 -0.3629
 6108SOL    HW229958   1.481   0.896  15.437  0.1111 -0.2573 -0.1873
 6109SOL     OW29959   3.975   1.580   5.003 -0.2598 -0.3637  0.1139
 6109SOL    HW129960   4.014   1.638   5.068 -1.6836 -0.5781  1.1754
 6109SOL    HW229961   3.911   1.629   4.952  0.8064 -0.8955 -1.7170
 6110SOL     OW29962   4.190   2.147   8.287  0.0044  0.3142 -0.1098
 6110SOL    HW129963   4.222   2.192   8.365 -0.7463  0.9319 -0.1572
 6110SOL    HW229964   4.179   2.228   8.237 -0.1762  2.1081  2.8681
 6111SOL     OW29965   3.058   0.141   1.637  0.2774 -0.0391 -0.8479
 6111SOL    HW129966   2.964   0.124   1.643  0.7442 -2.5758 -0.8824
 6111SOL    HW229967   3.044   0.225   1.593  0.2152  0.9493  1.0539
 6112SOL     OW29968   1.265   3.815  11.578 -0.6626 -0.1294 -0.3193
 6112SOL    HW129969   1.238   3.882  11.515 -1.1541  0.0018  0.0318
 6112SOL    HW229970   1.335   3.854  11.629  0.5714 -0.5003 -1.7261
 6113SOL     OW29971   0.972   1.707   5.923 -0.0551  0.0480 -0.0612
 6113SOL    HW129972   0.904   1.774   5.931  0.2144  0.1424  1.3376
 6113SOL    HW229973   1.017   1.711   6.007  1.9970  0.8436 -1.1891
 6114SOL     OW29974   0.113   4.294   0.718 -1.0709 -0.6102 -0.3885
 6114SOL    HW129975   0.139   4.203   0.703 -1.2179 -1.0473  2.0552
 6114SOL    HW229976   0.096   4.291   0.812 -0.9247 -2.0293 -0.4072
 6115SOL     OW29977   3.511   2.778   4.176  0.8192  0.8132  0.0441
 6115SOL    HW129978   3.451   2.803   4.105  2.3642  2.8114 -0.5727
 6115SOL    HW229979   3.482   2.848   4.235 -0.2403  0.5464 -0.1456
 6116SOL     OW29980   0.987   3.783   2.220  0.3356  0.0032 -0.8509
 6116SOL    HW129981   1.021   3.786   2.309 -1.9422 -0.3676  0.0174
 6116SOL    HW229982   1.052   3.828   2.165 -0.2836 -0.2376 -1.7897
 6117SOL     OW29983   1.469   4.436   4.972 -0.5191 -0.3224  0.6104
 6117SOL    HW129984   1.437   4.359   5.019  1.0296 -1.9478 -0.9712
 6117SOL    HW229985   1.539   4.474   5.025  0.0392  1.0566 -1.1020
 6118SOL     OW29986   1.140   2.247  10.570  0.2132  0.3317  0.9016
 6118SOL    HW129987   1.055   2.288  10.587  0.5106  1.6981 -0.8387
 6118SOL    HW229988   1.160   2.227  10.661  0.2008  1.1985  1.1007
 6119SOL     OW29989   1.186   2.424   2.279  0.2540  0.1854 -0.1414
 6119SOL    HW129990   1.218   2.339   2.311 -0.8503 -0.5025 -0.8835
 6119SOL    HW229991   1.106   2.403   2.231  0.3012  0.7546 -0.4646
 6120SOL     OW29992   2.259   2.421  15.500  0.4778  0.2049  0.7015
 6120SOL    HW129993   2.283   2.487  15.564  2.2734  0.9659 -0.7623
 6120SOL    HW229994   2.190   2.471  15.457  1.2960  1.8377  1.2914
 6121SOL     OW29995   3.068   0.980  16.289 -0.3549 -0.2736  0.6006
 6121SOL    HW129996   3.055   0.911  16.223 -1.6590  0.8486 -0.3005
 6121SOL    HW229997   3.065   0.927  16.369  2.3299  1.0285  1.5718
 6122SOL     OW29998   0.125   2.003   8.338 -0.0141 -0.2787 -0.8386
 6122SOL    HW129999   0.067   2.075   8.364 -0.5763 -0.3644 -1.8422
 6122SOL    HW230000   0.181   1.996   8.415 -0.9559 -2.4093 -0.3467
 6123SOL     OW30001   1.107   1.194   9.865 -0.1600 -0.6260 -0.1409
 6123SOL    HW130002   1.054   1.125   9.906 -0.9088 -0.3770 -0.6793
 6123SOL    HW230003   1.075   1.203   9.775 -0.7140  1.8642  0.2969
 6124SOL     OW30004   0.680   4.163   3.791 -0.4651  1.3116  0.1749
 6124SOL    HW130005   0.635   4.161   3.875 -1.2260  1.1515 -0.2397
 6124SOL    HW230006   0.598   4.139   3.747  0.1281 -0.9075  0.2781
 6125SOL     OW30007   2.200   2.317  13.631  0.0338 -0.2979 -0.1082
 6125SOL    HW130008   2.276   2.344  13.682 -0.1086 -0.9424  0.4506
 6125SOL    HW230009   2.248   2.289  13.552  0.2526  2.1865 -0.8490
 6126SOL     OW30010   4.210   0.344   2.066  0.4877  0.1385 -0.1423
 6126SOL    HW130011   4.179   0.415   2.122 -1.1092  0.3789 -1.3232
 6126SOL    HW230012   4.170   0.374   1.985  0.8897  0.4439 -0.2239
 6127SOL     OW30013   1.928   2.298   5.909 -0.9322  0.4579 -0.0054
 6127SOL    HW130014   1.850   2.267   5.863  1.0594 -1.9818 -1.7638
 6127SOL    HW230015   1.983   2.219   5.910 -1.3385  0.1595 -1.3543
 6128SOL     OW30016   3.895   2.656   7.063  0.1925  0.4130  0.0832
 6128SOL    HW130017   3.974   2.675   7.114 -0.4474 -1.3012  1.7099
 6128SOL    HW230018   3.882   2.736   7.012  0.1647  1.1873  1.2877
 6129SOL     OW30019   4.242   1.098   5.629 -0.0370 -0.6686  0.6489
 6129SOL    HW130020   4.297   1.046   5.687  0.1637 -0.6592  0.4663
 6129SOL    HW230021   4.285   1.075   5.547  0.1479 -1.8010  1.0630
 6130SOL     OW30022   4.339   1.059  10.619 -0.2909  0.3405  0.3369
 6130SOL    HW130023   4.341   1.101  10.533  0.3852 -1.8969 -0.7540
 6130SOL    HW230024   4.360   0.971  10.588 -0.2383  0.0105  1.3088
 6131SOL     OW30025   2.590   1.306  16.293 -0.2372  0.3206  0.1277
 6131SOL    HW130026   2.552   1.226  16.257  0.8237 -0.3051  0.4060
 6131SOL    HW230027   2.512   1.357  16.314  0.5233  1.0369  1.1978
 6132SOL     OW30028   3.736   2.010  17.439  0.4108  0.2633  0.2075
 6132SOL    HW130029   3.657   1.964  17.411 -0.1954  0.6233  1.3102
 6132SOL    HW230030   3.700   2.041  17.522  0.9612  2.6261 -0.4382
 6133SOL     OW30031   2.310   0.563   1.462  0.0204 -0.1814 -0.0351
 6133SOL    HW130032   2.360   0.644   1.454  0.5671 -0.2645  2.5242
 6133SOL    HW230033   2.266   0.566   1.377 -2.3700  1.2124  1.2648
 6134SOL     OW30034   0.572   1.639  17.501  0.2106 -0.6299 -0.0080
 6134SOL    HW130035   0.640   1.659  17.565  0.2578  0.5390 -0.4194
 6134SOL    HW230036   0.623   1.650  17.420 -0.4291  1.8332 -0.0719
 6135SOL     OW30037   2.285   3.173  15.472 -0.1501  0.1864  0.0235
 6135SOL    HW130038   2.241   3.254  15.498 -0.4416  0.7830 -2.3441
 6135SOL    HW230039   2.324   3.155  15.558 -1.6491 -0.2611  0.6098
 6136SOL     OW30040   2.568   4.040  10.072  0.0659  0.1004 -0.1057
 6136SOL    HW130041   2.633   4.076  10.133 -0.9722 -0.4222  1.3024
 6136SOL    HW230042   2.489   4.063  10.122  2.0625  2.2397  2.0522
 6137SOL     OW30043   3.349   4.575   3.182 -0.4175  0.7127 -0.2233
 6137SOL    HW130044   3.375   4.497   3.230  1.4468  1.2501 -0.3716
 6137SOL    HW230045   3.297   4.624   3.245  0.1792  0.8746  0.1380
 6138SOL     OW30046   2.764   1.073   1.067  0.7631  0.3457  0.2228
 6138SOL    HW130047   2.729   1.097   0.981 -1.5759  1.1097  1.3797
 6138SOL    HW230048   2.772   0.979   1.055 -0.0287  0.4463 -1.1392
 6139SOL     OW30049   0.838   1.738   8.028  0.2622 -0.1160 -0.4571
 6139SOL    HW130050   0.811   1.668   7.969 -1.2339 -0.5788  0.7628
 6139SOL    HW230051   0.841   1.806   7.960 -0.1263  0.8468  0.4818
 6140SOL     OW30052   1.664   2.500  17.498 -0.4413  0.0706  0.2488
 6140SOL    HW130053   1.661   2.412  17.535 -1.6163  0.2368  0.5456
 6140SOL    HW230054   1.744   2.529  17.543 -0.4499  0.2458  0.1515
 6141SOL     OW30055   2.988   3.452   0.067  0.7811  0.0937 -0.5577
 6141SOL    HW130056   2.974   3.530   0.013  1.5656  0.9288  0.4315
 6141SOL    HW230057   2.999   3.483   0.157  1.0247 -0.1976 -0.4867
 6142SOL     OW30058   3.891   0.867  14.077 -0.4357  0.0496 -0.3444
 6142SOL    HW130059   3.964   0.885  14.137 -0.3064 -1.2349 -0.1000
 6142SOL    HW230060   3.819   0.902  14.130 -0.0092 -0.0086  0.2835
 6143SOL     OW30061   2.981   0.236   1.972 -0.2065 -1.2233 -0.4049
 6143SOL    HW130062   2.895   0.198   1.955 -0.5248 -0.0113 -1.5635
 6143SOL    HW230063   2.994   0.209   2.063  1.8952 -0.6089 -0.5097
 6144SOL     OW30064   3.277   0.265  10.319 -0.5370  0.1056 -0.6508
 6144SOL    HW130065   3.233   0.327  10.378 -0.3349 -0.6745  0.3296
 6144SOL    HW230066   3.207   0.200  10.310 -0.1036 -0.6320  1.1305
 6145SOL     OW30067   4.009   4.234   7.205  0.6188  0.2208 -0.2835
 6145SOL    HW130068   3.960   4.220   7.124  1.1760 -2.3801 -0.1738
 6145SOL    HW230069   3.946   4.208   7.272  1.0557  2.7361  1.1074
 6146SOL     OW30070   2.037   1.704   7.026 -0.9437 -0.0303 -0.2843
 6146SOL    HW130071   2.094   1.634   7.059 -0.5389  1.7906  2.8733
 6146SOL    HW230072   1.958   1.675   7.072  1.8346 -1.4098  3.6246
 6147SOL     OW30073   2.413   2.512  14.752 -0.0494 -0.3914 -0.5169
 6147SOL    HW130074   2.475   2.440  14.753  0.7773  0.3211 -1.0466
 6147SOL    HW230075   2.453   2.571  14.816 -0.3476 -0.6332 -0.1043
 6148SOL     OW30076   2.709   1.107  11.428 -0.1354 -0.7399  0.0727
 6148SOL    HW130077   2.617   1.132  11.420 -0.1279 -1.4483 -2.1333
 6148SOL    HW230078   2.707   1.045  11.355 -2.6775 -1.7673  0.9988
 6149SOL     OW30079   2.197   1.858   6.853 -0.0552  0.2967 -0.0996
 6149SOL    HW130080   2.137   1.795   6.891 -0.0175  0.1802 -0.2335
 6149SOL    HW230081   2.245   1.811   6.785 -2.0072  2.0013 -2.6772
 6150SOL     OW30082   3.212   0.509   0.947  0.9027 -0.1840  0.4240
 6150SOL    HW130083   3.282   0.540   1.004 -0.4618 -0.5029  2.2852
 6150SOL    HW230084   3.182   0.432   0.996 -1.3715  0.8893  0.7136
 6151SOL     OW30085   4.457   0.583   0.387  0.0003  0.4762 -0.3365
 6151SOL    HW130086   4.412   0.557   0.468  0.5474  2.2153  0.5103
 6151SOL    HW230087   4.476   0.676   0.397 -0.8308  0.3498  2.4617
 6152SOL     OW30088   4.635   4.107   3.204  0.3597 -0.3538 -0.0080
 6152SOL    HW130089   4.618   4.155   3.285 -0.3081  2.4497 -1.8331
 6152SOL    HW230090   4.565   4.041   3.201  1.6547 -1.8433  2.6933
 6153SOL     OW30091   1.050   2.425  11.026 -0.1549 -0.5497  0.1835
 6153SOL    HW130092   1.038   2.360  11.095 -2.6828 -2.4389 -2.0057
 6153SOL    HW230093   0.997   2.490  11.072 -3.9748 -3.1083 -0.5738
 6154SOL     OW30094   4.474   2.754   8.848  0.0000 -0.0880 -0.8299
 6154SOL    HW130095   4.458   2.824   8.911 -0.8093  1.6138 -2.9088
 6154SOL    HW230096   4.564   2.766   8.819  0.1829  2.4821  0.7761
 6155SOL     OW30097   0.403   4.517   2.610 -0.3146  0.0086  0.4934
 6155SOL    HW130098   0.415   4.498   2.703  1.7296  0.1232  0.2385
 6155SOL    HW230099   0.464   4.454   2.572  1.6519  0.8947  2.2228
 6156SOL     OW30100   1.041   0.296   6.923 -0.2048  0.0608  0.1106
 6156SOL    HW130101   0.986   0.323   6.997 -1.7467  4.3662 -2.6701
 6156SOL    HW230102   1.097   0.373   6.922  0.7807 -0.6687 -0.3259
 6157SOL     OW30103   0.222   0.720   7.817 -0.3319  0.3999 -0.2852
 6157SOL    HW130104   0.303   0.771   7.825  1.2866 -2.3095  0.7118
 6157SOL    HW230105   0.228   0.665   7.896  2.6754  0.9166 -0.1522
 6158SOL     OW30106   1.571   2.730   3.841 -0.2198  0.1883 -0.1476
 6158SOL    HW130107   1.584   2.713   3.748 -1.3015  1.0334 -0.4511
 6158SOL    HW230108   1.595   2.823   3.845 -0.8671  0.4746 -3.2873
 6159SOL     OW30109   3.424   1.648  10.846  0.3278  0.0999 -0.1789
 6159SOL    HW130110   3.410   1.580  10.779 -0.1776  0.5222 -0.5010
 6159SOL    HW230111   3.464   1.595  10.915 -0.9258 -0.6688 -0.0442
 6160SOL     OW30112   3.066   2.120   2.411 -0.2735 -0.1564 -0.5079
 6160SOL    HW130113   3.079   2.033   2.375  1.1916  0.2225 -0.9249
 6160SOL    HW230114   3.021   2.151   2.333 -0.7272  0.7942  0.1212
 6161SOL     OW30115   2.877   4.663   3.179 -0.1571 -0.4503  0.1746
 6161SOL    HW130116   2.940   4.731   3.156  0.6234 -1.4682 -0.7368
 6161SOL    HW230117   2.935   4.587   3.167  2.8759  2.1068 -1.5136
 6162SOL     OW30118   3.774   1.880  13.467  0.0288  0.3479  0.0147
 6162SOL    HW130119   3.797   1.827  13.543 -1.1799  0.8663  0.7248
 6162SOL    HW230120   3.723   1.956  13.495  0.1947  0.8969 -1.1671
 6163SOL     OW30121   1.086   3.667  14.324 -0.1283 -0.2789  0.1734
 6163SOL    HW130122   1.029   3.640  14.396 -0.4769  1.2486  0.4842
 6163SOL    HW230123   1.067   3.598  14.261 -0.0377  0.0642 -0.2268
 6164SOL     OW30124   1.762   0.714   9.145 -0.1451  0.0977  0.1945
 6164SOL    HW130125   1.701   0.642   9.128  0.1673 -0.5926  1.9796
 6164SOL    HW230126   1.844   0.664   9.146 -0.1744  0.0081 -1.6192
 6165SOL     OW30127   0.971   0.924   8.046 -0.4038 -0.0123 -0.0491
 6165SOL    HW130128   1.046   0.983   8.044 -0.4581  0.1429  2.0826
 6165SOL    HW230129   0.921   0.955   7.970  1.1681 -0.7263 -1.3546
 6166SOL     OW30130   1.652   0.151  14.580 -0.0063  0.5211 -0.9727
 6166SOL    HW130131   1.653   0.186  14.669 -2.5680 -0.8196 -0.3966
 6166SOL    HW230132   1.570   0.101  14.583 -0.0916  0.6691 -0.7914
 6167SOL     OW30133   3.743   2.543   8.161  0.0028  0.3533  0.0672
 6167SOL    HW130134   3.700   2.481   8.220 -0.6845  0.3820 -0.4112
 6167SOL    HW230135   3.686   2.617   8.144 -0.7021 -0.1740  0.1363
 6168SOL     OW30136   1.636   4.342   5.457 -0.3403 -0.0372 -0.2050
 6168SOL    HW130137   1.601   4.314   5.541 -0.5464  0.3012 -0.1768
 6168SOL    HW230138   1.587   4.291   5.392 -0.3045 -1.7951  1.1407
 6169SOL     OW30139   3.971   0.190   8.131 -0.1300 -0.0412  0.3051
 6169SOL    HW130140   3.996   0.282   8.134  4.9505 -1.4455  0.6911
 6169SOL    HW230141   4.030   0.149   8.195  1.8103 -0.1964 -1.6144
 6170SOL     OW30142   4.334   1.433   1.835  0.6357  0.2656 -0.3416
 6170SOL    HW130143   4.399   1.394   1.776  0.4765 -3.7947  2.1607
 6170SOL    HW230144   4.316   1.360   1.895 -0.0983  0.3175 -0.5036
 6171SOL     OW30145   4.705   3.137   2.440  0.8353  0.1252 -0.1404
 6171SOL    HW130146   4.674   3.095   2.360  2.6558 -1.4328 -0.0198
 6171SOL    HW230147   0.057   3.160   2.415  0.3246  3.6142  1.2711
 6172SOL     OW30148   3.712   4.059   5.050  0.2646 -0.4366  0.0557
 6172SOL    HW130149   3.787   4.005   5.022  1.4595  1.0961  0.3362
 6172SOL    HW230150   3.671   3.996   5.110 -0.1748  1.9136  2.1916
 6173SOL     OW30151   2.681   4.444   0.366  0.1741 -0.3363  0.1426
 6173SOL    HW130152   2.716   4.356   0.377 -0.5401 -0.5285  0.8773
 6173SOL    HW230153   2.761   4.487   0.336 -0.5408 -0.3475 -1.8097
 6174SOL     OW30154   3.064   3.268   5.236  0.4432  0.1353  1.2219
 6174SOL    HW130155   3.062   3.363   5.244  2.8293  0.3918 -1.5603
 6174SOL    HW230156   3.154   3.237   5.233 -0.1524 -1.1496 -3.3472
 6175SOL     OW30157   2.957   4.568  12.888 -0.3408 -0.2416  0.1420
 6175SOL    HW130158   3.028   4.519  12.930 -1.0386  0.6819  2.3755
 6175SOL    HW230159   2.915   4.608  12.964  1.1315 -0.0453  0.8592
 6176SOL     OW30160   2.350   1.614   3.992  0.0160  0.4272 -0.1598
 6176SOL    HW130161   2.353   1.633   3.899  1.2865  0.0046 -0.2030
 6176SOL    HW230162   2.432   1.659   4.012  1.3049 -2.7167  1.5898
 6177SOL     OW30163   0.127   0.759   5.605  0.2167  0.3336  0.2905
 6177SOL    HW130164   0.137   0.772   5.699  1.4574  0.3298  0.1609
 6177SOL    HW230165   0.079   0.839   5.584  0.0312  0.4586  1.1916
 6178SOL     OW30166   4.260   2.848  12.371  0.7513 -0.0875 -0.9060
 6178SOL    HW130167   4.339   2.804  12.338  1.8083 -0.4522  2.0756
 6178SOL    HW230168   4.201   2.774  12.386 -1.2776  1.2371 -2.4852
 6179SOL     OW30169   1.686   3.891   8.699  0.2541 -0.2884  0.3429
 6179SOL    HW130170   1.705   3.984   8.715  0.4527 -0.4467  1.0181
 6179SOL    HW230171   1.770   3.846   8.693  0.4794  0.2247 -0.3311
 6180SOL     OW30172   1.770   4.181   4.625  0.0201  0.1561 -0.3202
 6180SOL    HW130173   1.855   4.173   4.583 -0.5366 -0.2898 -1.3568
 6180SOL    HW230174   1.793   4.218   4.710  1.4907 -0.8026 -0.2966
 6181SOL     OW30175   1.867   4.398   9.385  0.0284  0.2416  0.0535
 6181SOL    HW130176   1.837   4.463   9.450 -1.6614 -2.6863  2.2091
 6181SOL    HW230177   1.785   4.350   9.374 -0.6379  1.1037  1.1868
 6182SOL     OW30178   0.288   1.874   8.155  0.3300  0.1536 -0.5786
 6182SOL    HW130179   0.272   1.943   8.091  1.3782  0.8475 -0.1012
 6182SOL    HW230180   0.223   1.899   8.221 -0.9481 -4.2571 -0.1880
 6183SOL     OW30181   2.607   3.961  11.641  0.5386  0.2420  0.0424
 6183SOL    HW130182   2.662   3.999  11.710 -0.0269  0.3847  0.4129
 6183SOL    HW230183   2.549   4.035  11.623  0.7124  0.1007 -1.0854
 6184SOL     OW30184   2.055   2.421   9.809 -0.1386  0.0903  0.3132
 6184SOL    HW130185   1.982   2.359   9.806 -0.3631  0.2577  2.3278
 6184SOL    HW230186   2.078   2.411   9.901 -0.5155  1.8726  0.6046
 6185SOL     OW30187   0.980   1.290   2.100  0.1578  0.0792  0.3950
 6185SOL    HW130188   0.976   1.231   2.025  0.3411 -0.8295  1.0977
 6185SOL    HW230189   0.893   1.326   2.080  0.5016  1.4956  1.5147
 6186SOL     OW30190   3.729   1.945   9.468 -0.5211  0.5198 -0.2601
 6186SOL    HW130191   3.717   1.951   9.563 -0.8889  3.4646 -0.4860
 6186SOL    HW230192   3.634   1.942   9.456 -0.5323 -2.5799  0.7464
 6187SOL     OW30193   2.199   3.004   7.004 -0.0538 -0.1973 -0.6786
 6187SOL    HW130194   2.107   2.981   6.991  0.2107 -1.0974 -0.9141
 6187SOL    HW230195   2.227   2.940   7.069  1.6105  0.9184 -0.2916
 6188SOL     OW30196   2.290   2.208  12.776 -1.1253 -0.0779 -0.0948
 6188SOL    HW130197   2.367   2.152  12.772 -1.3123 -0.4115  0.8285
 6188SOL    HW230198   2.294   2.229  12.870  0.3382 -0.6146 -0.0442
 6189SOL     OW30199   3.120   1.571   4.586  0.1783 -0.5503 -0.0556
 6189SOL    HW130200   3.142   1.653   4.631 -0.7769 -0.2265 -0.1798
 6189SOL    HW230201   3.209   1.548   4.557 -0.0506 -0.6847 -0.6367
 6190SOL     OW30202   2.949   0.650   4.851 -0.3058  0.0530 -0.2285
 6190SOL    HW130203   2.961   0.705   4.774 -0.2306  1.7630  1.0190
 6190SOL    HW230204   3.040   0.633   4.872  0.3627  1.4224 -2.0475
 6191SOL     OW30205   3.637   0.558  17.509  0.0039  0.2925 -0.0798
 6191SOL    HW130206   3.669   0.477  17.469 -1.7570 -0.7674  0.6657
 6191SOL    HW230207   3.574   0.576  17.439 -2.4848  0.6079  2.2348
 6192SOL     OW30208   1.628   1.113   0.591  0.6685 -0.1414 -0.2068
 6192SOL    HW130209   1.714   1.146   0.567  0.4493  0.1182 -0.6272
 6192SOL    HW230210   1.595   1.189   0.639 -0.6857 -0.1952 -1.0387
 6193SOL     OW30211   0.204   0.831   7.128 -0.1126  0.8307 -0.5795
 6193SOL    HW130212   0.179   0.883   7.205  2.0084 -2.3779  2.3084
 6193SOL    HW230213   0.299   0.835   7.138  0.0278 -3.1901 -0.4255
 6194SOL     OW30214   4.427   2.520   5.266 -0.7484 -0.2079  0.0441
 6194SOL    HW130215   4.403   2.594   5.210  0.4279  0.8006  0.8749
 6194SOL    HW230216   4.488   2.471   5.210 -0.7846 -0.2405  0.0331
 6195SOL     OW30217   2.780   0.655   9.014 -1.0199  0.7794  0.1190
 6195SOL    HW130218   2.871   0.629   9.002 -1.4532 -0.4643 -0.4790
 6195SOL    HW230219   2.785   0.729   9.074 -1.2348 -0.2745  1.4264
 6196SOL     OW30220   0.288   1.586   1.645  0.4528 -0.0514  0.3432
 6196SOL    HW130221   0.300   1.561   1.737  1.6798 -1.7359 -0.2868
 6196SOL    HW230222   0.269   1.501   1.606 -0.2790  0.5344 -0.5697
 6197SOL     OW30223   2.064   2.210   6.699  0.3571 -0.4026  0.0628
 6197SOL    HW130224   2.060   2.274   6.628  1.0229  0.3559  0.7051
 6197SOL    HW230225   2.158   2.206   6.719  0.3246  0.7399  0.4650
 6198SOL     OW30226   2.435   3.114  13.685 -0.1776  0.7330 -0.3559
 6198SOL    HW130227   2.413   3.097  13.777  2.8756 -1.1585  0.0323
 6198SOL    HW230228   2.355   3.092  13.638 -0.1899  1.5950 -0.7240
 6199SOL     OW30229   0.453   4.577   8.124 -0.6288  0.7141 -0.2398
 6199SOL    HW130230   0.540   4.553   8.093 -0.9541 -1.6241  0.7055
 6199SOL    HW230231   0.458   4.673   8.127 -1.2891  0.6789  1.5534
 6200SOL     OW30232   0.626   1.292   8.469 -0.3547 -0.2417  0.1763
 6200SOL    HW130233   0.546   1.337   8.443 -0.0863 -0.2638 -0.6847
 6200SOL    HW230234   0.687   1.365   8.480 -0.8537  0.2648 -0.4344
 6201SOL     OW30235   4.622   0.413   7.923 -0.2149  0.2809 -0.1144
 6201SOL    HW130236   4.595   0.499   7.890  0.1646 -0.0075 -1.1420
 6201SOL    HW230237   4.594   0.440   8.011  0.4531  0.7509 -0.0485
 6202SOL     OW30238   3.334   1.180   5.820 -0.6909 -0.3526 -0.0895
 6202SOL    HW130239   3.388   1.144   5.749  0.2408 -0.0719  0.4821
 6202SOL    HW230240   3.248   1.171   5.780 -1.1547  1.3064  0.5394
 6203SOL     OW30241   3.055   4.656   3.551  0.0162 -0.1646  0.3259
 6203SOL    HW130242   2.960   4.652   3.561  0.2724 -1.3351  2.3095
 6203SOL    HW230243   3.081   4.691   3.636  1.1813 -2.8823  1.0718
 6204SOL     OW30244   1.990   2.752   5.554  0.2109  0.5768  0.2120
 6204SOL    HW130245   1.973   2.796   5.470  0.2312  0.6407  0.2414
 6204SOL    HW230246   2.025   2.827   5.602 -0.2981 -0.5806  2.3947
 6205SOL     OW30247   0.430   1.629   5.828  0.1378  0.3178  0.2525
 6205SOL    HW130248   0.466   1.713   5.853  0.0997  0.5701 -0.5532
 6205SOL    HW230249   0.503   1.569   5.841  1.5438  1.3484 -2.8879
 6206SOL     OW30250   0.474   2.507   4.215 -0.5661 -0.2346  0.1758
 6206SOL    HW130251   0.436   2.447   4.279 -0.2580 -1.7728 -1.0762
 6206SOL    HW230252   0.416   2.582   4.224 -0.4738 -0.5684  3.5549
 6207SOL     OW30253   4.350   0.521  15.311  0.3881  0.3122 -0.3034
 6207SOL    HW130254   4.292   0.574  15.366 -0.8583 -1.4278  0.0520
 6207SOL    HW230255   4.433   0.533  15.358 -0.5420 -0.1208  1.4264
 6208SOL     OW30256   4.616   3.609   5.037  0.3567  0.2211  0.0245
 6208SOL    HW130257   4.698   3.625   4.990 -0.1670  0.6071 -0.7499
 6208SOL    HW230258   4.653   3.559   5.110 -1.9735 -2.3883 -0.5533
 6209SOL     OW30259   1.624   3.501  17.663 -0.8948  0.4648  0.1454
 6209SOL    HW130260   1.695   3.460  17.614 -0.4542  2.9291 -1.3141
 6209SOL    HW230261   1.595   3.426  17.714 -0.3252 -0.6340 -1.1573
 6210SOL     OW30262   1.630   0.987  12.740 -0.3828 -0.0340 -0.0225
 6210SOL    HW130263   1.561   0.968  12.804  2.3706 -2.0999  2.3341
 6210SOL    HW230264   1.703   1.011  12.797 -0.7522 -0.7441  0.7514
 6211SOL     OW30265   0.294   2.023   4.568  0.0371  0.0498  0.3734
 6211SOL    HW130266   0.358   1.965   4.527  1.4114  1.6918  0.1835
 6211SOL    HW230267   0.353   2.079   4.620  0.9003 -1.9427  1.5530
 6212SOL     OW30268   3.082   0.723  14.800 -0.0403 -0.2575 -0.1115
 6212SOL    HW130269   3.064   0.778  14.723  1.5953  1.1453  0.5150
 6212SOL    HW230270   3.166   0.689  14.771  0.2418  0.5489 -0.2481
 6213SOL     OW30271   0.106   0.134   7.177  0.1486  0.1424 -0.1411
 6213SOL    HW130272   0.152   0.065   7.129 -1.5855 -0.4538 -0.9524
 6213SOL    HW230273   0.179   0.150   7.235 -0.8166 -1.3155  1.4750
 6214SOL     OW30274   2.406   0.003   3.388  0.2710 -0.4741 -0.2302
 6214SOL    HW130275   2.452   4.658   3.367  2.3045  0.8702 -0.9986
 6214SOL    HW230276   2.345   0.014   3.315  0.1458 -1.6766 -0.3077
 6215SOL     OW30277   2.631   1.779  15.803  0.2532 -0.5059 -0.3566
 6215SOL    HW130278   2.617   1.758  15.711 -2.5776 -1.3725  0.2699
 6215SOL    HW230279   2.684   1.859  15.801  0.3052 -0.5108  1.0124
 6216SOL     OW30280   2.591   3.375   6.864 -0.0796 -0.5501 -0.7417
 6216SOL    HW130281   2.611   3.282   6.873 -1.5603 -0.7598  0.4090
 6216SOL    HW230282   2.640   3.422   6.931  0.7096 -1.7841 -0.4469
 6217SOL     OW30283   2.970   0.568   8.132  0.2084  0.4691  0.1802
 6217SOL    HW130284   2.894   0.510   8.139  0.3698  0.3926  1.4101
 6217SOL    HW230285   3.019   0.507   8.077  0.9446  0.4309  0.8803
 6218SOL     OW30286   3.814   0.315   0.428  0.3619 -0.1214 -0.4752
 6218SOL    HW130287   3.845   0.231   0.394 -0.0520 -1.0863  1.5323
 6218SOL    HW230288   3.722   0.329   0.405  1.7451  2.1444 -4.7429
 6219SOL     OW30289   3.786   1.221   4.646 -0.5795 -0.1328 -0.5882
 6219SOL    HW130290   3.723   1.287   4.676 -0.8602 -0.5922 -0.1762
 6219SOL    HW230291   3.855   1.279   4.614 -0.6976 -0.2285 -1.0204
 6220SOL     OW30292   1.885   2.734   8.471 -0.3845 -0.7144 -0.5461
 6220SOL    HW130293   1.810   2.679   8.451 -0.1167 -0.8345 -1.2123
 6220SOL    HW230294   1.922   2.697   8.551  0.2612 -0.5487 -0.7695
 6221SOL     OW30295   0.457   4.252   8.509 -0.4662  0.1552  0.3288
 6221SOL    HW130296   0.435   4.168   8.469 -1.8366  1.6415 -2.0204
 6221SOL    HW230297   0.416   4.320   8.457 -2.9902 -1.3586  0.3318
 6222SOL     OW30298   0.573   3.388   4.691 -0.1715 -0.1947  0.2922
 6222SOL    HW130299   0.493   3.370   4.642 -0.7007  0.3794  0.9666
 6222SOL    HW230300   0.612   3.301   4.683 -1.6356 -0.8880  0.8824
 6223SOL     OW30301   1.542   2.926   8.397  0.3915 -0.7391  0.7182
 6223SOL    HW130302   1.532   2.923   8.493  2.6459 -0.5432  0.9582
 6223SOL    HW230303   1.461   2.968   8.367  1.7762  1.2151 -0.3160
 6224SOL     OW30304   0.994   0.622   1.697 -0.6293  0.5198  0.3096
 6224SOL    HW130305   1.072   0.643   1.747  0.2077  0.9798 -1.1922
 6224SOL    HW230306   0.993   0.682   1.622  1.3764 -1.4294 -1.2717
 6225SOL     OW30307   0.542   3.872  13.099 -0.7859  0.2587  0.7418
 6225SOL    HW130308   0.469   3.863  13.037 -0.9189  2.4727  0.5627
 6225SOL    HW230309   0.602   3.924  13.045 -3.6341  1.6169 -1.0842
 6226SOL     OW30310   0.182   2.715  16.358  0.8297  0.2936 -0.3573
 6226SOL    HW130311   0.272   2.722  16.325  0.9724 -0.1241 -0.0570
 6226SOL    HW230312   0.135   2.742  16.279 -0.6399  0.5275  0.5949
 6227SOL     OW30313   3.477   1.785  13.592 -0.0461  0.4015 -0.0390
 6227SOL    HW130314   3.513   1.872  13.573 -0.4858  0.1380 -2.1101
 6227SOL    HW230315   3.562   1.746  13.612  0.2326  1.2321  0.3940
 6228SOL     OW30316   1.683   2.680   5.351 -0.4853 -0.4582 -0.1561
 6228SOL    HW130317   1.683   2.645   5.441  0.0101 -1.1966 -0.4491
 6228SOL    HW230318   1.683   2.599   5.300  2.9017  0.9987 -2.4325
 6229SOL     OW30319   4.268   3.854   5.260 -0.8741  0.3401 -0.3296
 6229SOL    HW130320   4.234   3.822   5.177  1.3481 -0.1047 -1.0700
 6229SOL    HW230321   4.362   3.836   5.262 -1.4202 -2.3042  1.6690
 6230SOL     OW30322   1.592   1.445   1.148  0.0572 -0.6084 -0.1505
 6230SOL    HW130323   1.519   1.445   1.210 -0.9529 -1.3383 -1.3427
 6230SOL    HW230324   1.671   1.410   1.190 -0.3822 -0.3973  0.8432
 6231SOL     OW30325   3.037   4.138   4.796  0.2628  0.1139  0.4897
 6231SOL    HW130326   3.063   4.124   4.887  3.8423 -2.1830 -0.8841
 6231SOL    HW230327   3.052   4.050   4.762  0.1885  0.4011 -0.2817
 6232SOL     OW30328   0.795   1.585   6.184  0.1045  0.3824 -0.1979
 6232SOL    HW130329   0.843   1.665   6.204 -0.9435  1.5737 -2.4436
 6232SOL    HW230330   0.708   1.620   6.204  0.1004 -0.2395  0.8845
 6233SOL     OW30331   2.102   1.530  11.387  0.3117 -0.1733  0.0495
 6233SOL    HW130332   2.177   1.482  11.421 -0.5880  0.0149  2.3474
 6233SOL    HW230333   2.138   1.618  11.378 -1.2836  0.2911 -1.8304
 6234SOL     OW30334   1.620   1.389  14.219  0.1142 -0.0234  0.0229
 6234SOL    HW130335   1.542   1.444  14.215  0.7715  1.1044  2.5132
 6234SOL    HW230336   1.686   1.450  14.187  0.2318  0.5727  1.3781
 6235SOL     OW30337   3.671   1.614   5.148 -0.2623 -0.0615 -0.1154
 6235SOL    HW130338   3.752   1.564   5.155 -1.2399 -1.4490  1.2617
 6235SOL    HW230339   3.654   1.627   5.241 -1.2420 -2.9268  0.1029
 6236SOL     OW30340   4.137   4.585  10.256  0.6609  0.4050  0.2518
 6236SOL    HW130341   4.121   4.503  10.303  0.8430  1.0531  1.4636
 6236SOL    HW230342   4.153   4.551  10.169 -1.3147  1.0186 -0.3537
 6237SOL     OW30343   2.334   0.090   1.925 -0.3110 -0.0694 -0.0768
 6237SOL    HW130344   2.398   0.049   1.866  0.6499  0.4475  0.5957
 6237SOL    HW230345   2.388   0.140   1.986  0.8066  0.5616 -1.5759
 6238SOL     OW30346   1.710   1.205   7.816  0.3721 -0.6260 -0.6332
 6238SOL    HW130347   1.652   1.200   7.892  1.5513  1.6548  0.4217
 6238SOL    HW230348   1.774   1.137   7.831  0.0124 -0.7403  0.3725
 6239SOL     OW30349   1.960   3.625   0.655 -0.1523 -0.6871  0.5077
 6239SOL    HW130350   2.046   3.626   0.697 -0.1939 -0.7655  0.5954
 6239SOL    HW230351   1.977   3.626   0.561  0.1959  1.3836  0.6014
 6240SOL     OW30352   2.932   1.183   2.723  0.0121 -0.3069 -0.3235
 6240SOL    HW130353   2.938   1.238   2.801 -0.0566 -2.1487  0.9875
 6240SOL    HW230354   2.987   1.108   2.746 -3.4909 -1.6349  3.7792
 6241SOL     OW30355   0.539   0.863   2.765  0.7359  0.1585 -0.1279
 6241SOL    HW130356   0.489   0.945   2.772 -1.3786 -1.0511 -0.9644
 6241SOL    HW230357   0.471   0.805   2.731  0.1284 -2.3929  5.3428
 6242SOL     OW30358   2.733   1.597   4.305 -0.6635  0.0325 -0.0051
 6242SOL    HW130359   2.812   1.649   4.321 -1.0616  0.8758 -0.7584
 6242SOL    HW230360   2.738   1.590   4.210 -0.3731 -0.0485  0.0147
 6243SOL     OW30361   1.086   0.711  16.307  0.2269  0.1196  0.0161
 6243SOL    HW130362   1.057   0.739  16.221 -0.5136  0.2302  0.2951
 6243SOL    HW230363   1.098   0.616  16.297 -1.2643 -0.0604 -0.1605
 6244SOL     OW30364   4.182   1.947   2.177  0.2949 -0.3622  0.0188
 6244SOL    HW130365   4.110   1.984   2.229  0.1959 -0.9271  0.2756
 6244SOL    HW230366   4.205   1.872   2.232 -1.8900 -1.4456 -0.5373
 6245SOL     OW30367   1.556   0.122   2.578  0.5151 -0.3267  0.6500
 6245SOL    HW130368   1.550   0.070   2.498 -1.0475  0.7128  0.0900
 6245SOL    HW230369   1.491   0.085   2.638 -2.0408 -0.3509 -2.1557
 6246SOL     OW30370   1.512   3.048  10.557 -0.1474  0.0104 -0.1351
 6246SOL    HW130371   1.455   3.062  10.482 -1.8504  1.8834  1.5063
 6246SOL    HW230372   1.455   3.085  10.625 -0.4565 -1.1133  0.2289
 6247SOL     OW30373   1.088   3.110   1.957 -0.0497  0.6833 -0.4531
 6247SOL    HW130374   1.166   3.055   1.950  0.0978  0.8364 -0.0109
 6247SOL    HW230375   1.054   3.100   1.868  3.8143 -2.8173 -1.5374
 6248SOL     OW30376   1.281   3.258   7.071 -0.1560  0.8593 -0.0621
 6248SOL    HW130377   1.352   3.271   7.133 -0.3898 -0.2681  0.4295
 6248SOL    HW230378   1.262   3.167   7.093  4.0939 -0.5471 -2.3241
 6249SOL     OW30379   4.673   0.242  12.695  0.4374 -0.3194 -0.7145
 6249SOL    HW130380   4.663   0.333  12.668  0.1073  0.1057  0.8182
 6249SOL    HW230381   4.678   0.210  12.605 -0.5597  1.0535 -1.2501
 6250SOL     OW30382   2.630   2.192   6.348  0.6321 -0.1316 -0.1298
 6250SOL    HW130383   2.648   2.281   6.379  1.0328 -0.6510  1.1536
 6250SOL    HW230384   2.611   2.145   6.430  1.3700 -0.8088 -0.3474
 6251SOL     OW30385   0.261   2.714   3.832 -0.3513  0.8147 -0.4783
 6251SOL    HW130386   0.316   2.792   3.840 -1.6982  1.9135 -2.1118
 6251SOL    HW230387   0.314   2.660   3.892 -0.3113  0.8989 -0.4372
 6252SOL     OW30388   0.346   3.091   3.337  0.8571  0.3935  0.3200
 6252SOL    HW130389   0.384   3.059   3.255 -1.2917 -2.4258  0.4192
 6252SOL    HW230390   0.297   3.016   3.371  2.6250 -0.7700  0.3538
 6253SOL     OW30391   0.727   2.327   5.863 -0.7302 -0.2817 -0.7069
 6253SOL    HW130392   0.746   2.379   5.785 -1.2382  0.7298 -0.1646
 6253SOL    HW230393   0.683   2.398   5.911  3.5119  0.6160  1.8538
 6254SOL     OW30394   0.082   4.069   8.421 -0.2490  0.4151  0.3475
 6254SOL    HW130395   0.115   4.156   8.443 -1.5304  0.6857  1.1842
 6254SOL    HW230396   0.150   4.021   8.469  0.2428 -1.6136 -2.3983
 6255SOL     OW30397   2.295   2.857  13.734  0.1823  0.0476 -0.0506
 6255SOL    HW130398   2.224   2.901  13.687  0.1906  1.8193  1.5970
 6255SOL    HW230399   2.349   2.856  13.655  0.2450  1.3899 -0.0265
 6256SOL     OW30400   2.674   0.816   4.146  0.2006  0.6108  0.2900
 6256SOL    HW130401   2.670   0.743   4.208 -0.6295 -0.5552 -1.1385
 6256SOL    HW230402   2.686   0.891   4.204  1.1112  1.6671 -1.2642
 6257SOL     OW30403   3.760   0.548   0.799  0.1617  0.1018  0.4322
 6257SOL    HW130404   3.790   0.637   0.780 -2.2430  0.9125  0.4273
 6257SOL    HW230405   3.737   0.545   0.892  0.5865 -0.7180  0.5160
 6258SOL     OW30406   2.180   3.220   7.805  0.2548 -0.1795 -0.4289
 6258SOL    HW130407   2.158   3.253   7.893  2.5315 -2.0411  0.8256
 6258SOL    HW230408   2.271   3.192   7.807  0.3635  0.1756 -0.2483
 6259SOL     OW30409   1.491   4.121   9.487  0.2171 -0.5012  0.3750
 6259SOL    HW130410   1.542   4.074   9.553  0.7089  0.5953  0.7585
 6259SOL    HW230411   1.411   4.068   9.486 -1.0824  1.5064 -2.7410
 6260SOL     OW30412   3.613   4.532   3.760 -0.3477 -0.2736 -0.5301
 6260SOL    HW130413   3.601   4.471   3.833 -2.0375  0.8759  0.1373
 6260SOL    HW230414   3.571   4.481   3.691  0.4791 -1.1694 -0.3645
 6261SOL     OW30415   2.178   4.059   2.156  0.3762 -0.1444  0.4277
 6261SOL    HW130416   2.135   3.988   2.203 -0.2831  0.7074  1.1090
 6261SOL    HW230417   2.195   4.018   2.071 -0.2705 -0.4392  0.4410
 6262SOL     OW30418   3.233   1.748  13.436  0.5001  0.1235  0.0649
 6262SOL    HW130419   3.314   1.745  13.486  1.2732  0.4660 -1.1563
 6262SOL    HW230420   3.217   1.655  13.422 -3.0846  0.6140  0.9190
 6263SOL     OW30421   3.466   1.532  15.993 -0.3469  0.2110 -0.1927
 6263SOL    HW130422   3.496   1.449  16.029 -0.3276  0.5774  0.6218
 6263SOL    HW230423   3.437   1.577  16.072  1.6911  0.0839  0.6172
 6264SOL     OW30424   1.051   0.307   7.637  0.1229 -0.4368  0.3282
 6264SOL    HW130425   0.989   0.380   7.641  0.6226  0.0349 -0.4330
 6264SOL    HW230426   1.109   0.328   7.711  0.9566  1.3816 -0.8207
 6265SOL     OW30427   0.352   3.419   5.903  0.4216 -0.2287 -0.2539
 6265SOL    HW130428   0.287   3.424   5.833  0.9008  0.7369 -0.6155
 6265SOL    HW230429   0.431   3.416   5.849 -0.2279  0.9051 -1.2536
 6266SOL     OW30430   0.417   1.880   5.966 -0.0432 -0.3587 -0.6794
 6266SOL    HW130431   0.358   1.952   5.941  1.9347  2.2271  1.9856
 6266SOL    HW230432   0.362   1.839   6.033  0.2548  0.5168  0.1103
 6267SOL     OW30433   1.953   2.398   0.857  0.4215 -0.4683  0.1685
 6267SOL    HW130434   2.005   2.478   0.856  0.7356 -0.6754  0.0591
 6267SOL    HW230435   1.977   2.371   0.945  2.2931  0.3581 -0.1013
 6268SOL     OW30436   2.383   0.806   5.674 -0.1263  0.2266  0.1093
 6268SOL    HW130437   2.459   0.762   5.634 -0.5222 -0.1076 -0.2705
 6268SOL    HW230438   2.428   0.889   5.688 -1.5968  0.9025  0.7385
 6269SOL     OW30439   3.768   1.542  14.705  0.0853  0.3994 -0.1055
 6269SOL    HW130440   3.700   1.507  14.763 -0.5846  0.4610 -0.8547
 6269SOL    HW230441   3.729   1.525  14.619 -0.3813 -1.5003  0.4882
 6270SOL     OW30442   0.050   3.704   9.500 -0.2801 -0.5077  0.5617
 6270SOL    HW130443   0.032   3.694   9.406  0.7512 -0.8544  0.3973
 6270SOL    HW230444   4.697   3.727   9.521  0.5234  1.5162  1.7318
 6271SOL     OW30445   0.194   4.476  14.323 -0.2114  0.5379 -0.1906
 6271SOL    HW130446   0.127   4.407  14.329 -0.1084  0.3747 -1.0013
 6271SOL    HW230447   0.150   4.557  14.298  3.4373  1.3110 -3.9345
 6272SOL     OW30448   3.382   1.760   9.054 -0.1228  0.2928  0.2775
 6272SOL    HW130449   3.380   1.773   8.960  0.3513  0.9776  0.3590
 6272SOL    HW230450   3.432   1.679   9.062 -0.3071  0.1384 -0.1271
 6273SOL     OW30451   4.492   4.165   1.624 -0.3031  0.2041  0.3589
 6273SOL    HW130452   4.459   4.114   1.550 -1.0059 -0.2257  0.9658
 6273SOL    HW230453   4.416   4.168   1.682  0.7755  1.7551  1.7022
 6274SOL     OW30454   3.770   0.216  13.809  0.2651 -0.0080  0.7330
 6274SOL    HW130455   3.803   0.277  13.743 -4.0036  2.1182  0.5599
 6274SOL    HW230456   3.690   0.262  13.836 -0.4552  0.5837 -2.4634
 6275SOL     OW30457   3.690   1.005   8.055 -0.4585  0.0036  0.3308
 6275SOL    HW130458   3.762   0.979   8.112  1.7871  0.2021 -2.4349
 6275SOL    HW230459   3.648   1.065   8.118  4.3109  4.3556 -0.6279
 6276SOL     OW30460   1.617   0.566   7.966  0.0618  0.0126  0.0503
 6276SOL    HW130461   1.554   0.599   8.030 -0.5604  1.2198 -1.1806
 6276SOL    HW230462   1.568   0.568   7.884 -0.5643 -0.6174  0.4094
 6277SOL     OW30463   2.213   2.340   6.277 -0.3455 -0.0424  0.4727
 6277SOL    HW130464   2.275   2.396   6.231  1.6303 -2.6184  0.0239
 6277SOL    HW230465   2.149   2.409   6.297  1.4296  1.0916  2.1711
 6278SOL     OW30466   0.550   1.130   3.755 -0.5695  0.8325  0.7573
 6278SOL    HW130467   0.508   1.118   3.670  0.4623 -1.4541  0.5626
 6278SOL    HW230468   0.610   1.203   3.738  0.6905 -0.6116 -0.9878
 6279SOL     OW30469   3.601   3.026   4.299 -0.0974 -0.5581 -0.8038
 6279SOL    HW130470   3.611   3.105   4.246 -0.7727 -0.5212 -0.8743
 6279SOL    HW230471   3.522   3.055   4.344  2.0661  2.5585  0.9829
 6280SOL     OW30472   0.275   1.753   3.162 -0.2889  0.3909 -0.3573
 6280SOL    HW130473   0.271   1.847   3.183  1.8596  0.6363 -1.0952
 6280SOL    HW230474   0.332   1.759   3.086 -0.1378 -0.0513 -0.2764
 6281SOL     OW30475   4.491   0.535   5.767  0.3983  0.2104  0.2503
 6281SOL    HW130476   4.493   0.621   5.725  1.8576 -0.1907 -0.5300
 6281SOL    HW230477   4.442   0.559   5.845 -0.1080  1.2283 -0.3816
 6282SOL     OW30478   3.108   0.330   6.348 -1.1721  0.1829  0.3446
 6282SOL    HW130479   3.156   0.401   6.306  0.7304 -1.7798 -0.8008
 6282SOL    HW230480   3.083   0.355   6.437  1.7759  2.2705  0.5848
 6283SOL     OW30481   1.947   1.508   1.768 -0.3731  0.5976 -0.1369
 6283SOL    HW130482   1.917   1.498   1.859  0.3218  1.8983  0.2451
 6283SOL    HW230483   1.882   1.566   1.728  0.2974  0.7483 -1.0041
 6284SOL     OW30484   2.433   1.098   2.089 -0.0139 -0.8463 -0.3886
 6284SOL    HW130485   2.452   1.149   2.167 -1.4729  0.3388 -0.8031
 6284SOL    HW230486   2.339   1.109   2.074 -0.2577  0.4633  2.0916
 6285SOL     OW30487   2.953   1.347   2.266  0.3616 -0.5439 -0.0300
 6285SOL    HW130488   2.914   1.259   2.262 -2.5702  0.7575 -0.3838
 6285SOL    HW230489   3.031   1.329   2.319  1.0793  3.3035  0.1676
 6286SOL     OW30490   0.355   4.599   3.747 -0.0573 -0.2782 -0.0800
 6286SOL    HW130491   0.383   4.528   3.689  1.1782  1.0355 -1.0905
 6286SOL    HW230492   0.293   4.649   3.694 -0.4501  1.0936  1.6487
 6287SOL     OW30493   4.670   4.683  10.020 -0.3553 -0.1962 -0.5961
 6287SOL    HW130494   4.717   4.630   9.956  1.4806  1.8451 -0.9351
 6287SOL    HW230495   4.639   0.014   9.960  0.9462  0.3266 -0.6879
 6288SOL     OW30496   3.590   1.414   4.683  0.4029 -0.6041  0.2514
 6288SOL    HW130497   3.506   1.413   4.638 -0.4708 -0.1355  1.8488
 6288SOL    HW230498   3.566   1.429   4.775  1.1296 -1.0876  0.5235
 6289SOL     OW30499   2.465   0.966  17.563 -0.3781 -0.2545  0.0403
 6289SOL    HW130500   2.428   0.879  17.548 -2.1241 -0.1426  3.7893
 6289SOL    HW230501   2.402   1.024  17.520  1.3217  2.5764  1.3902
 6290SOL     OW30502   1.428   1.876   6.437 -0.1770  0.2285  0.4180
 6290SOL    HW130503   1.459   1.836   6.518  1.4165 -1.7399 -1.1684
 6290SOL    HW230504   1.383   1.950   6.478 -3.1478 -0.8324 -0.9411
 6291SOL     OW30505   0.535   0.759   8.841 -0.2523 -0.4785  0.3491
 6291SOL    HW130506   0.489   0.750   8.758 -1.9097 -0.7594  1.3043
 6291SOL    HW230507   0.468   0.803   8.892  0.9241  0.1379  1.3826
 6292SOL     OW30508   4.520   4.444   8.274  0.0344 -0.5339 -0.1608
 6292SOL    HW130509   4.614   4.452   8.260 -0.1679  0.9057 -0.7337
 6292SOL    HW230510   4.502   4.351   8.264  2.0994 -0.8251 -1.0349
 6293SOL     OW30511   1.072   2.763   9.152 -0.0265  0.1570 -0.0368
 6293SOL    HW130512   1.034   2.768   9.240 -0.9948  1.0441 -0.5074
 6293SOL    HW230513   1.165   2.766   9.174 -0.1330 -3.0788  0.8960
 6294SOL     OW30514   1.511   0.588  12.989 -0.3253  0.2775  0.6419
 6294SOL    HW130515   1.604   0.578  13.011 -0.6769 -0.9937  1.5123
 6294SOL    HW230516   1.491   0.497  12.969 -0.1003  0.8507 -2.2212
 6295SOL     OW30517   2.501   1.408   5.604  0.1148  0.2385  0.3820
 6295SOL    HW130518   2.539   1.496   5.599 -0.3706  0.4886  1.0958
 6295SOL    HW230519   2.546   1.340   5.554  1.5842  1.6476 -0.2282
 6296SOL     OW30520   0.711   4.702  14.868  0.0757  0.1014 -0.2353
 6296SOL    HW130521   0.643   0.002  14.924  2.1607  3.6270  0.0125
 6296SOL    HW230522   0.748   0.051  14.844 -1.2519  0.4070 -1.2381
 6297SOL     OW30523   2.678   4.072   2.112 -0.0014  0.0281 -0.5177
 6297SOL    HW130524   2.676   4.100   2.020 -2.0217 -1.7188 -1.0166
 6297SOL    HW230525   2.631   3.989   2.100  0.7399 -0.3860 -0.5820
 6298SOL     OW30526   4.251   2.341   9.111 -0.1370 -0.2287  0.4253
 6298SOL    HW130527   4.196   2.403   9.159  1.1573  0.4874  0.9828
 6298SOL    HW230528   4.243   2.265   9.170 -2.4972  2.0874  3.0840
 6299SOL     OW30529   1.942   0.009   2.952 -0.2662 -0.0543 -0.1583
 6299SOL    HW130530   1.932   0.079   3.017 -1.5829  0.5198 -0.9626
 6299SOL    HW230531   1.872   0.022   2.888 -0.4893  0.1766  0.1341
 6300SOL     OW30532   4.523   0.496   1.850  0.0474 -0.0236 -0.0665
 6300SOL    HW130533   4.454   0.549   1.890  1.0519  0.6882  0.7411
 6300SOL    HW230534   4.600   0.553   1.854  1.2862 -1.7273  0.0428
 6301SOL     OW30535   4.452   0.374   4.970  0.4983  0.1701  0.4826
 6301SOL    HW130536   4.407   0.402   5.050 -2.8977 -1.9187 -0.6866
 6301SOL    HW230537   4.524   0.321   5.004  0.0397  0.0138  1.2195
 6302SOL     OW30538   0.959   1.214   3.255 -0.0945 -0.2681 -0.1902
 6302SOL    HW130539   0.864   1.203   3.258 -0.6491  3.9777 -2.5822
 6302SOL    HW230540   0.983   1.174   3.339  2.5015  2.6040  0.4311
 6303SOL     OW30541   1.772   2.086   9.076  0.2056  0.2012 -0.1869
 6303SOL    HW130542   1.816   2.030   9.011  0.7195 -1.2260  1.3699
 6303SOL    HW230543   1.806   2.171   9.047 -0.0879 -0.4086 -2.3033
 6304SOL     OW30544   0.401   3.202  15.643  0.1191  0.8511 -0.2489
 6304SOL    HW130545   0.347   3.263  15.693  0.9647 -0.9444  2.8058
 6304SOL    HW230546   0.419   3.254  15.564  1.8220 -0.2705 -0.5851
 6305SOL     OW30547   4.676   1.036   7.774 -0.4829  0.5644  0.9084
 6305SOL    HW130548   4.623   1.048   7.853 -0.9742  1.9496  0.3646
 6305SOL    HW230549   4.635   0.959   7.734  0.8013 -0.2834  1.2162
 6306SOL     OW30550   1.309   3.343   8.924  0.1258 -0.5624  0.0092
 6306SOL    HW130551   1.284   3.251   8.911 -0.7497 -0.3561  0.2183
 6306SOL    HW230552   1.307   3.348   9.020 -2.2629 -0.1452 -0.0451
 6307SOL     OW30553   3.548   4.252   4.959 -0.0087 -0.3720 -0.5549
 6307SOL    HW130554   3.614   4.320   4.945 -0.6842  0.4500  0.2353
 6307SOL    HW230555   3.609   4.185   4.989 -0.5379 -0.7871 -0.4219
 6308SOL     OW30556   0.003   1.759   4.534 -0.4637 -0.2308 -0.1684
 6308SOL    HW130557   0.025   1.810   4.612 -1.1941  0.3743 -0.3486
 6308SOL    HW230558   4.711   1.824   4.469  3.9858  0.4552 -1.4162
 6309SOL     OW30559   3.549   2.257   4.710  0.0139  0.0322  0.1014
 6309SOL    HW130560   3.537   2.275   4.617  0.3742 -0.3624 -0.0229
 6309SOL    HW230561   3.635   2.215   4.712  0.1525  0.3248  0.4126
 6310SOL     OW30562   3.613   0.439  11.340 -0.0716  0.0506  0.0828
 6310SOL    HW130563   3.563   0.484  11.408  0.3449  0.3495  0.1960
 6310SOL    HW230564   3.551   0.391  11.285  0.4032  1.8743 -2.0230
 6311SOL     OW30565   2.166   2.672  11.214 -0.5621 -0.2266  0.0335
 6311SOL    HW130566   2.071   2.688  11.213 -0.3389  1.0937  0.7068
 6311SOL    HW230567   2.161   2.581  11.243  0.3425 -0.3322 -0.1514
 6312SOL     OW30568   0.995   0.471   3.508  0.6768 -0.2974 -0.0655
 6312SOL    HW130569   1.070   0.530   3.520  2.4039 -2.1633 -1.6523
 6312SOL    HW230570   1.021   0.388   3.550  2.7738  0.4824  0.1966
 6313SOL     OW30571   3.861   2.124  13.711 -0.2035 -0.7983 -0.4000
 6313SOL    HW130572   3.874   2.189  13.642 -0.0154 -0.8726 -0.4367
 6313SOL    HW230573   3.769   2.130  13.736 -0.2712  1.2898 -1.1726
 6314SOL     OW30574   2.917   2.469   4.025  0.3384 -0.0021 -0.4555
 6314SOL    HW130575   2.985   2.518   4.072 -1.2625  0.8431  0.9853
 6314SOL    HW230576   2.892   2.522   3.949  1.5642  1.5226  0.1943
 6315SOL     OW30577   0.693   3.651  14.179  0.7098 -0.2818 -0.2617
 6315SOL    HW130578   0.747   3.730  14.178 -1.3719  1.1493 -0.0467
 6315SOL    HW230579   0.658   3.661  14.267 -2.3930  0.0523 -1.5300
 6316SOL     OW30580   2.823   3.468  11.678 -0.3985  0.4263 -0.4416
 6316SOL    HW130581   2.895   3.424  11.632  0.3602  0.5546  0.6109
 6316SOL    HW230582   2.753   3.439  11.619 -0.1872  0.1371 -0.5499
 6317SOL     OW30583   0.200   3.849  10.032 -0.3583  0.2657 -0.4251
 6317SOL    HW130584   0.108   3.870  10.048 -0.5878 -0.1230 -1.2467
 6317SOL    HW230585   0.229   3.851  10.124  1.0234  0.8198 -0.8772
 6318SOL     OW30586   3.218   1.676  11.667  0.0687  0.0804  0.3713
 6318SOL    HW130587   3.150   1.698  11.602  2.1053  0.0936 -1.7555
 6318SOL    HW230588   3.180   1.597  11.707 -1.4476 -0.0203 -1.2430
 6319SOL     OW30589   4.110   2.343  14.614  0.4218  0.3949 -0.2507
 6319SOL    HW130590   4.177   2.281  14.584 -1.9456 -3.0000  1.5142
 6319SOL    HW230591   4.163   2.409  14.660 -0.5408 -0.1556  1.6286
 6320SOL     OW30592   1.227   4.434   6.395  0.6415  0.6948  0.5710
 6320SOL    HW130593   1.261   4.517   6.360 -1.0228  1.1030 -0.0524
 6320SOL    HW230594   1.161   4.406   6.331 -0.5828  1.1713  1.6225
 6321SOL     OW30595   0.143   4.385   2.950 -0.2791 -0.1714  0.1229
 6321SOL    HW130596   0.194   4.312   2.915  0.5174 -0.5524  2.1140
 6321SOL    HW230597   0.121   4.438   2.873  0.8130  0.5462  0.2995
 6322SOL     OW30598   3.525   0.490   9.712  0.1655  0.1828 -0.3102
 6322SOL    HW130599   3.605   0.541   9.727 -0.2497  0.7410 -0.0086
 6322SOL    HW230600   3.555   0.432   9.641 -0.3000 -1.7257  1.0478
 6323SOL     OW30601   1.689   1.400   3.890  0.0336  0.3141  0.3547
 6323SOL    HW130602   1.606   1.430   3.928  0.6654  1.3084  0.9457
 6323SOL    HW230603   1.688   1.313   3.929  1.0906 -0.0894 -0.5258
 6324SOL     OW30604   1.378   2.031   5.150 -0.1603 -0.4468 -0.0492
 6324SOL    HW130605   1.353   2.109   5.199  0.7134  1.5837 -2.8410
 6324SOL    HW230606   1.424   1.984   5.220  1.2889 -0.3910 -0.9750
 6325SOL     OW30607   3.439   4.275   3.845 -0.2473  0.0688  0.7707
 6325SOL    HW130608   3.377   4.337   3.883 -0.2939 -0.3258  1.3307
 6325SOL    HW230609   3.411   4.270   3.754  1.2869 -1.0602  0.3599
 6326SOL     OW30610   2.461   2.801   7.038  0.0473 -0.1546  0.3104
 6326SOL    HW130611   2.544   2.785   7.083 -0.1776 -1.0319  0.4203
 6326SOL    HW230612   2.409   2.842   7.108 -1.3043 -0.0646 -0.7438
 6327SOL     OW30613   1.367   1.865  17.168  0.4297  0.6913 -0.0070
 6327SOL    HW130614   1.275   1.841  17.178  0.1460  0.9302 -2.1002
 6327SOL    HW230615   1.407   1.779  17.154  0.2621  0.7881 -1.0823
 6328SOL     OW30616   1.302   4.468   7.345  0.1956 -0.0462  0.3967
 6328SOL    HW130617   1.396   4.449   7.352 -0.4702 -2.6315  2.6180
 6328SOL    HW230618   1.303   4.537   7.280  3.7169  0.8278  1.3376
 6329SOL     OW30619   0.125   2.826  12.498 -0.6490  0.4155 -0.5379
 6329SOL    HW130620   0.089   2.893  12.439  0.5756 -0.0410 -1.8150
 6329SOL    HW230621   0.044   2.787  12.532  0.3357  0.9106  2.3884
 6330SOL     OW30622   2.366   3.189   6.605  0.0699  0.2475 -0.0084
 6330SOL    HW130623   2.354   3.097   6.625 -0.5678 -0.0443 -1.7241
 6330SOL    HW230624   2.445   3.216   6.653  0.6353  0.4462 -1.0484
 6331SOL     OW30625   1.737   0.726   1.851  0.3809 -0.0593  0.3926
 6331SOL    HW130626   1.701   0.714   1.763 -1.0582 -2.5155  1.3193
 6331SOL    HW230627   1.681   0.801   1.874  1.8450  0.8255  1.0185
 6332SOL     OW30628   4.175   2.970   9.680 -0.5856  0.6672  0.1778
 6332SOL    HW130629   4.182   3.004   9.591  1.5677  0.3820  0.2434
 6332SOL    HW230630   4.217   2.888   9.655  1.4666  0.9296  2.7583
 6333SOL     OW30631   2.988   1.958   5.088 -0.1311 -0.5385 -0.2186
 6333SOL    HW130632   2.928   1.980   5.159  0.5002 -1.8725  0.7414
 6333SOL    HW230633   2.933   1.907   5.028 -0.2669  0.5778 -1.0434
 6334SOL     OW30634   1.327   2.617   9.482  0.1883 -0.1325  0.3831
 6334SOL    HW130635   1.327   2.643   9.390 -0.0808 -1.3240  0.0532
 6334SOL    HW230636   1.324   2.706   9.519 -1.5363 -0.3484  0.7842
 6335SOL     OW30637   2.908   2.239   0.467  0.4065  0.0368  0.4494
 6335SOL    HW130638   2.887   2.249   0.374 -1.2694 -1.1081  0.6930
 6335SOL    HW230639   2.817   2.225   0.494 -0.2200  1.8234 -0.7282
 6336SOL     OW30640   1.315   3.546   0.106 -0.2600 -0.1344  0.7463
 6336SOL    HW130641   1.245   3.597   0.147 -2.0124 -0.5875 -1.6780
 6336SOL    HW230642   1.333   3.481   0.173 -1.8327 -1.3342  0.0057
 6337SOL     OW30643   3.776   4.409   7.201 -0.4376 -0.6906 -0.2454
 6337SOL    HW130644   3.799   4.342   7.266  0.5193 -0.9597 -0.8560
 6337SOL    HW230645   3.692   4.435   7.238 -0.5215  0.3534 -1.1686
 6338SOL     OW30646   2.565   1.494   9.717  0.4500 -0.0283  0.1643
 6338SOL    HW130647   2.533   1.461   9.801 -2.3680  0.0546 -0.8613
 6338SOL    HW230648   2.603   1.414   9.682 -0.9880  0.2602 -2.0653
 6339SOL     OW30649   4.168   0.294  11.611  0.1998  0.3210  0.0265
 6339SOL    HW130650   4.246   0.315  11.561  0.5503  2.3998  1.4493
 6339SOL    HW230651   4.194   0.328  11.697 -2.5177  1.5745  0.3586
 6340SOL     OW30652   4.397   0.173  12.710  0.4871 -0.2205 -0.1785
 6340SOL    HW130653   4.361   0.238  12.770 -0.3120  0.4132 -1.3452
 6340SOL    HW230654   4.489   0.189  12.731 -0.6217  1.9633  3.1029
 6341SOL     OW30655   0.522   3.609   4.017 -0.2187 -0.6806  0.2378
 6341SOL    HW130656   0.433   3.585   3.993 -0.2882 -0.9359  0.7439
 6341SOL    HW230657   0.565   3.525   4.002  0.2068  0.0223 -2.3898
 6342SOL     OW30658   1.156   1.890   8.875 -0.1634  0.2509 -0.0805
 6342SOL    HW130659   1.201   1.942   8.809  2.6031 -0.5094  1.1823
 6342SOL    HW230660   1.138   1.944   8.952 -0.2836  0.4869 -0.2757
 6343SOL     OW30661   3.195   1.882  12.767  0.0191  0.3083 -0.3823
 6343SOL    HW130662   3.240   1.799  12.753 -1.3719 -0.3461 -0.8694
 6343SOL    HW230663   3.196   1.897  12.673  2.2045 -1.6124 -0.6453
 6344SOL     OW30664   0.906   3.710  13.711  0.1779 -0.0035  0.3890
 6344SOL    HW130665   0.896   3.622  13.745  1.0437 -0.0541  0.5017
 6344SOL    HW230666   0.893   3.692  13.618 -0.8776 -1.3544  0.8032
 6345SOL     OW30667   3.526   3.268   8.144 -0.1713  0.6588  0.2372
 6345SOL    HW130668   3.621   3.255   8.141 -0.8667 -4.4156  0.1758
 6345SOL    HW230669   3.517   3.313   8.229  3.6671 -0.1035  1.0235
 6346SOL     OW30670   3.783   3.140   2.694  0.1741 -0.2059  0.0068
 6346SOL    HW130671   3.689   3.148   2.710 -0.0428 -1.0378 -0.8297
 6346SOL    HW230672   3.800   3.193   2.616 -0.7421  2.5151  1.6632
 6347SOL     OW30673   4.029   3.212   2.790  0.1897 -0.8794 -0.3759
 6347SOL    HW130674   3.936   3.216   2.768  0.3954 -0.1974 -1.1189
 6347SOL    HW230675   4.024   3.258   2.874  0.8226  0.2635 -0.9692
 6348SOL     OW30676   4.501   1.162   6.423  0.2431  0.3492  0.1316
 6348SOL    HW130677   4.459   1.138   6.506 -1.5986  1.8971 -0.3491
 6348SOL    HW230678   4.445   1.104   6.371  2.1015 -1.8958  0.6506
 6349SOL     OW30679   3.378   0.502   9.214  0.0268 -0.4278 -0.2996
 6349SOL    HW130680   3.414   0.436   9.272  0.8622 -0.0645 -0.4032
 6349SOL    HW230681   3.440   0.503   9.141  1.5607 -1.3099  1.0118
 6350SOL     OW30682   0.593   2.981   4.493  1.0536  0.0767  0.1393
 6350SOL    HW130683   0.499   2.992   4.484  0.7603 -3.8591 -1.6681
 6350SOL    HW230684   0.623   2.900   4.451  0.8542  1.1187 -1.9667
 6351SOL     OW30685   0.400   1.907   1.837 -0.3119  0.0241  0.0817
 6351SOL    HW130686   0.332   1.856   1.882 -0.9017 -1.7914 -2.9004
 6351SOL    HW230687   0.355   1.931   1.757  0.2151 -3.3721 -1.2500
 6352SOL     OW30688   2.360   2.388  17.351 -0.3697  0.4668 -0.4280
 6352SOL    HW130689   2.281   2.358  17.396 -0.6488 -1.1322 -1.9740
 6352SOL    HW230690   2.365   2.341  17.268 -0.1642 -0.8650  0.3464
 6353SOL     OW30691   0.490   1.733   1.245  0.6410 -0.1076  0.2522
 6353SOL    HW130692   0.438   1.720   1.165  2.9482  0.0981 -1.3058
 6353SOL    HW230693   0.577   1.716   1.209  0.6126  0.7479 -0.2087
 6354SOL     OW30694   1.138   2.178   4.221 -0.3438 -0.7687  0.2704
 6354SOL    HW130695   1.171   2.120   4.152  1.4756  0.7374 -0.1172
 6354SOL    HW230696   1.134   2.126   4.301  0.8819 -0.6310  0.4310
 6355SOL     OW30697   4.561   0.628  17.077 -1.0223 -0.1992  0.0813
 6355SOL    HW130698   4.591   0.584  16.997 -1.9241  0.4697 -0.6130
 6355SOL    HW230699   4.645   0.671  17.092 -2.0994  1.2595  1.8379
 6356SOL     OW30700   4.255   3.919   3.698 -0.2881  0.6508  0.3273
 6356SOL    HW130701   4.275   4.012   3.700  0.4762  0.4688  1.1746
 6356SOL    HW230702   4.301   3.894   3.618 -2.3587  3.2720 -1.7048
 6357SOL     OW30703   1.221   1.090  15.330  0.4561 -0.1325 -0.3922
 6357SOL    HW130704   1.255   1.011  15.287 -0.8454 -0.9746  0.1036
 6357SOL    HW230705   1.204   1.054  15.418  0.1804  0.3902 -0.2310
 6358SOL     OW30706   0.148   3.881   2.362  0.2907  0.4057  0.2191
 6358SOL    HW130707   0.231   3.879   2.409 -0.2988  0.1946  1.2475
 6358SOL    HW230708   0.133   3.786   2.358  2.1538  0.0350  2.3163
 6359SOL     OW30709   1.298   3.840   5.527  0.7403  0.4516 -0.1030
 6359SOL    HW130710   1.239   3.820   5.454  2.0178  1.7044 -1.4959
 6359SOL    HW230711   1.383   3.806   5.500  0.2306  0.9806 -2.3958
 6360SOL     OW30712   0.965   1.874  12.736 -0.0134  0.1618  0.3517
 6360SOL    HW130713   0.875   1.854  12.763 -0.5728 -0.2639 -1.8350
 6360SOL    HW230714   0.970   1.808  12.667  3.8908  0.6275  0.1876
 6361SOL     OW30715   0.178   0.725   0.846 -0.0603 -0.5149 -1.0237
 6361SOL    HW130716   0.247   0.662   0.865  1.7916  1.5719 -0.8350
 6361SOL    HW230717   0.231   0.774   0.783  0.9753  0.4495  0.5945
 6362SOL     OW30718   2.395   3.752   8.555 -0.8425 -0.1182  0.7071
 6362SOL    HW130719   2.451   3.820   8.593 -1.4329  0.8036 -0.0865
 6362SOL    HW230720   2.458   3.685   8.529 -1.3657 -0.6670  0.8596
 6363SOL     OW30721   2.164   0.740   3.140  0.3151 -0.2544 -0.0111
 6363SOL    HW130722   2.176   0.715   3.232  1.4324  0.8190  0.1398
 6363SOL    HW230723   2.202   0.828   3.143 -0.8634  0.2404  0.5337
 6364SOL     OW30724   1.525   2.128   3.601  0.1075  0.0127  0.4506
 6364SOL    HW130725   1.598   2.075   3.633  0.8589  0.9131  0.2271
 6364SOL    HW230726   1.563   2.212   3.628  1.0245  0.3842 -1.9983
 6365SOL     OW30727   3.173   2.471  15.445  0.2762 -0.1588 -0.2285
 6365SOL    HW130728   3.082   2.475  15.413  0.7867 -2.7392 -1.9890
 6365SOL    HW230729   3.190   2.561  15.472 -1.2964  0.1042 -0.0865
 6366SOL     OW30730   1.801   4.501   9.021 -0.3341  0.3510  0.1467
 6366SOL    HW130731   1.715   4.484   9.059 -0.6370 -2.3909 -1.7588
 6366SOL    HW230732   1.852   4.543   9.091 -1.4560 -2.2143  2.4819
 6367SOL     OW30733   1.835   0.202   6.316  0.3743 -0.2781  0.8259
 6367SOL    HW130734   1.768   0.237   6.257 -1.0317 -2.3822  1.1793
 6367SOL    HW230735   1.892   0.174   6.244  0.4550  2.6708 -0.2608
 6368SOL     OW30736   1.314   0.864   0.777  0.4331 -0.3869 -0.5965
 6368SOL    HW130737   1.369   0.892   0.704  2.7529  0.1505  1.3697
 6368SOL    HW230738   1.355   0.912   0.849  0.5672  0.8649 -1.5047
 6369SOL     OW30739   0.369   3.000   8.837  0.3137  0.6056 -0.1136
 6369SOL    HW130740   0.442   3.015   8.898  0.1300  0.5747  0.1140
 6369SOL    HW230741   0.378   3.064   8.767 -3.1610  2.2051  0.8977
 6370SOL     OW30742   1.996   0.790  16.261 -0.2354 -0.5095 -0.7255
 6370SOL    HW130743   2.084   0.822  16.243 -0.8621  2.1963  0.9858
 6370SOL    HW230744   1.974   0.828  16.346 -0.8721 -1.0000 -0.6690
 6371SOL     OW30745   1.358   3.432   7.531  0.2834  0.7262 -0.1192
 6371SOL    HW130746   1.361   3.472   7.618 -0.3021 -1.7800  1.0507
 6371SOL    HW230747   1.335   3.512   7.483 -0.5046  0.6468  0.1221
 6372SOL     OW30748   4.041   4.043   9.258 -0.3575  0.7970  0.7618
 6372SOL    HW130749   4.122   4.090   9.280  1.5569 -1.9543 -0.3428
 6372SOL    HW230750   3.967   4.093   9.291 -0.6852  0.7116  0.1609
 6373SOL     OW30751   0.267   4.622   9.956 -0.0229  0.0405  0.4175
 6373SOL    HW130752   0.227   4.708   9.965 -1.7111 -0.4935 -2.1564
 6373SOL    HW230753   0.296   4.627   9.865  0.3295  3.5042  0.7386
 6374SOL     OW30754   3.325   3.950   7.058  0.1194  0.4127  0.1221
 6374SOL    HW130755   3.246   3.956   7.110 -0.9155 -2.1449 -1.1486
 6374SOL    HW230756   3.301   3.882   6.995 -0.3412  1.0368 -0.3832
 6375SOL     OW30757   3.225   1.054   8.283  0.3661 -0.1901  0.2206
 6375SOL    HW130758   3.270   1.095   8.210  0.4455 -0.9934 -0.1788
 6375SOL    HW230759   3.200   0.973   8.238  0.8851 -0.4037  0.3206
 6376SOL     OW30760   3.519   1.735   7.381  0.0279 -0.0258  0.3237
 6376SOL    HW130761   3.459   1.720   7.308  1.1844 -1.1284 -0.3988
 6376SOL    HW230762   3.548   1.645   7.397 -0.6401  0.0711  2.1314
 6377SOL     OW30763   2.398   0.098   2.944 -0.6068 -0.0430 -0.5227
 6377SOL    HW130764   2.465   0.146   2.993 -1.4936  0.6898 -0.0356
 6377SOL    HW230765   2.329   0.163   2.953 -1.8348 -1.4445  0.1647
 6378SOL     OW30766   0.321   0.701   5.121 -0.5630  0.4544 -0.6990
 6378SOL    HW130767   0.256   0.689   5.190  1.2055  1.4130  1.1527
 6378SOL    HW230768   0.332   0.607   5.104 -2.8268  0.5933 -2.9139
 6379SOL     OW30769   4.596   1.206   2.965 -0.0133  0.1834 -0.1359
 6379SOL    HW130770   4.562   1.117   2.959  2.3266 -0.6649 -0.9342
 6379SOL    HW230771   4.551   1.251   2.893  1.0947  0.8066 -0.4514
 6380SOL     OW30772   2.711   1.063  12.366 -0.2813  0.3875  0.2108
 6380SOL    HW130773   2.624   1.102  12.355 -0.3054  0.0652 -0.7273
 6380SOL    HW230774   2.755   1.137  12.410  0.1189  0.3657 -0.1599
 6381SOL     OW30775   4.416   1.475   5.930  0.1091 -0.7350 -0.8031
 6381SOL    HW130776   4.444   1.383   5.927  0.6546 -0.5934 -0.1252
 6381SOL    HW230777   4.504   1.511   5.938 -0.4480  1.0752 -2.8476
 6382SOL     OW30778   2.493   1.992   4.930 -0.2157 -0.5541  0.1080
 6382SOL    HW130779   2.435   2.018   5.002  0.3017 -0.7678  0.6007
 6382SOL    HW230780   2.528   2.077   4.902  2.0916 -1.7733 -0.6508
 6383SOL     OW30781   4.683   0.877   6.631 -0.6858 -0.1991  0.1155
 6383SOL    HW130782   4.606   0.896   6.684  0.0497 -0.0031  1.1038
 6383SOL    HW230783   0.019   0.884   6.693 -1.0695  1.0262  0.4161
 6384SOL     OW30784   0.078   0.697   1.093  0.1366  0.5554  0.4714
 6384SOL    HW130785   4.720   0.687   1.099  0.6205 -3.4420  1.7351
 6384SOL    HW230786   0.090   0.727   1.003  0.5331  0.0876  0.3683
 6385SOL     OW30787   1.800   3.936   5.423  0.0448 -0.3773 -0.2940
 6385SOL    HW130788   1.819   4.028   5.407 -0.6638 -0.0976  0.4169
 6385SOL    HW230789   1.889   3.902   5.418  0.2846  0.6574 -2.7682
 6386SOL     OW30790   3.122   4.113  17.405  0.0541  0.8498  0.2443
 6386SOL    HW130791   3.030   4.096  17.425 -0.0446 -0.2531 -1.1291
 6386SOL    HW230792   3.143   4.189  17.460  0.0724  1.6224 -0.8358
 6387SOL     OW30793   3.816   1.901   0.045  0.4847  0.9253  0.6540
 6387SOL    HW130794   3.798   1.810   0.068 -0.7271  0.7345 -1.0816
 6387SOL    HW230795   3.891   1.913   0.103 -0.1663 -0.6064  1.8145
 6388SOL     OW30796   3.126   0.874   6.909  0.2180  0.6766  0.0285
 6388SOL    HW130797   3.172   0.917   6.981  0.3312  1.8691 -0.7509
 6388SOL    HW230798   3.182   0.889   6.832  0.5165  1.0960  0.3254
 6389SOL     OW30799   1.094   4.156   5.872 -0.4026  0.0261 -0.1837
 6389SOL    HW130800   1.012   4.109   5.858 -0.4889  0.2334 -0.3778
 6389SOL    HW230801   1.070   4.242   5.837 -0.3752  0.6718  1.3711
 6390SOL     OW30802   1.483   3.886  14.251 -0.6344 -0.3296  0.4544
 6390SOL    HW130803   1.418   3.952  14.229 -0.8897 -0.0043  2.2090
 6390SOL    HW230804   1.437   3.820  14.303 -0.9393  1.5331  2.5675
 6391SOL     OW30805   3.390   0.044   8.942 -0.4120 -0.2913 -0.2936
 6391SOL    HW130806   3.387   0.110   8.873 -0.2023 -1.5432 -1.4963
 6391SOL    HW230807   3.449   4.729   8.887  1.8593  0.4320  1.4302
 6392SOL     OW30808   1.042   0.445   8.001 -0.0983 -0.1777  0.2603
 6392SOL    HW130809   1.121   0.445   8.054 -0.9959 -0.1822  1.6112
 6392SOL    HW230810   1.052   0.535   7.972 -0.2636 -0.1122  0.4092
 6393SOL     OW30811   3.064   3.340   2.123 -0.4595 -0.2872  0.1968
 6393SOL    HW130812   3.061   3.312   2.215  2.8452  0.8571  0.6439
 6393SOL    HW230813   3.064   3.436   2.124  2.8128 -0.2557 -2.0289
 6394SOL     OW30814   2.123   3.777   9.195  0.5881  0.0163  0.3434
 6394SOL    HW130815   2.191   3.722   9.235  0.0113 -0.1055  1.1501
 6394SOL    HW230816   2.099   3.836   9.266  2.8581  0.3086  0.8611
 6395SOL     OW30817   0.834   0.729  16.414  0.3703  0.0607 -0.1363
 6395SOL    HW130818   0.922   0.712  16.378 -1.0209 -0.7138 -3.1583
 6395SOL    HW230819   0.782   0.711  16.336  0.4811  4.1299 -1.1535
 6396SOL     OW30820   1.961   2.991   4.375 -0.2242  0.2449  0.2157
 6396SOL    HW130821   1.923   2.988   4.463  1.3294  0.9731  0.9258
 6396SOL    HW230822   1.907   3.056   4.330 -1.1105 -1.1810 -0.7710
 6397SOL     OW30823   3.999   0.374   8.382  0.1042 -0.2668  0.2021
 6397SOL    HW130824   3.903   0.373   8.386  0.1046  0.8706  0.4489
 6397SOL    HW230825   4.007   0.405   8.292  0.2879  0.6371  0.5283
 6398SOL     OW30826   1.010   2.903   4.352 -0.4167  0.5983 -0.0476
 6398SOL    HW130827   1.063   2.829   4.380 -0.3122  0.4437 -0.6625
 6398SOL    HW230828   0.958   2.860   4.285 -0.0267  1.3190 -0.8275
 6399SOL     OW30829   0.973   0.385   1.011  0.6800 -0.1358  0.4896
 6399SOL    HW130830   0.961   0.455   0.946 -0.8499 -0.7462  0.1311
 6399SOL    HW230831   1.062   0.354   0.992  1.0442  1.0593  0.2527
 6400SOL     OW30832   3.593   0.484   3.329 -0.0159 -0.0513 -0.0909
 6400SOL    HW130833   3.520   0.422   3.331 -1.9903  2.3784  3.6277
 6400SOL    HW230834   3.626   0.480   3.418  2.0574 -0.2810 -0.8617
 6401SOL     OW30835   0.940   1.804  14.068 -0.1159  0.0261  0.7169
 6401SOL    HW130836   1.000   1.874  14.094  1.1674 -1.7463  2.5170
 6401SOL    HW230837   0.923   1.760  14.151 -1.2796  0.7201  0.8488
 6402SOL     OW30838   4.543   1.411   3.179  0.6987  0.6760  0.8246
 6402SOL    HW130839   4.580   1.330   3.143  1.2604  0.7678  1.1910
 6402SOL    HW230840   4.530   1.392   3.272 -0.7709  2.5865  1.0172
 6403SOL     OW30841   3.508   1.786   3.148 -0.4595 -0.5086  0.0351
 6403SOL    HW130842   3.600   1.802   3.131 -0.1893 -2.7826 -0.7056
 6403SOL    HW230843   3.464   1.863   3.112 -2.5239 -1.0986  1.2583
 6404SOL     OW30844   1.876   2.789   3.946  0.5144  0.8099 -0.8116
 6404SOL    HW130845   1.853   2.720   4.009 -0.1038  1.7954  0.0449
 6404SOL    HW230846   1.811   2.860   3.954  0.1813  0.3654  0.4914
 6405SOL     OW30847   1.311   3.251   4.846  0.0669 -0.2314  0.2662
 6405SOL    HW130848   1.347   3.200   4.919 -0.7042 -0.0004  0.8064
 6405SOL    HW230849   1.370   3.225   4.775  0.6816  0.9162  0.3626
 6406SOL     OW30850   0.345   3.152   5.068  0.2805 -0.1002 -0.4476
 6406SOL    HW130851   0.406   3.224   5.053  3.5466 -2.7294 -0.1297
 6406SOL    HW230852   0.353   3.092   4.993  2.2476  1.4337 -1.4488
 6407SOL     OW30853   3.103   2.422   6.280  0.2884  0.0580  0.1959
 6407SOL    HW130854   3.165   2.412   6.209  1.3351 -1.1145  1.2870
 6407SOL    HW230855   3.151   2.489   6.329 -0.7294  0.7103  0.3057
 6408SOL     OW30856   2.820   4.400  14.409 -0.1422  0.0891 -0.2249
 6408SOL    HW130857   2.883   4.378  14.340  0.2512 -1.5179  0.6393
 6408SOL    HW230858   2.868   4.362  14.483 -0.1763 -0.8675 -0.7031
 6409SOL     OW30859   3.675   3.717   5.535 -0.6865  0.2254 -0.2607
 6409SOL    HW130860   3.749   3.660   5.515 -0.9356 -0.8559  1.8624
 6409SOL    HW230861   3.714   3.750   5.615 -0.3110  0.4444 -0.5378
 6410SOL     OW30862   0.376   2.039   6.348  0.0658  0.3903  0.3264
 6410SOL    HW130863   0.357   1.966   6.289  2.2892 -0.9440  1.2822
 6410SOL    HW230864   0.400   1.998   6.431 -0.5687  1.0690  0.8515
 6411SOL     OW30865   1.734   0.158  11.156  0.1977  0.4956  0.3959
 6411SOL    HW130866   1.699   0.138  11.069 -1.8846  1.0215  1.1006
 6411SOL    HW230867   1.827   0.142  11.142  0.0235 -0.3077  0.1512
 6412SOL     OW30868   2.060   0.999   6.767 -0.6332 -0.0670 -0.0801
 6412SOL    HW130869   1.980   0.958   6.733 -2.1286  0.5726  2.6258
 6412SOL    HW230870   2.124   0.971   6.702  0.1504  1.3471  0.0716
 6413SOL     OW30871   3.037   4.402   0.482 -0.0627  0.1879  0.5892
 6413SOL    HW130872   3.004   4.429   0.396  0.5168 -1.1848 -0.0614
 6413SOL    HW230873   2.960   4.423   0.535 -0.3785 -1.2640  0.6807
 6414SOL     OW30874   0.898   4.515   7.884  0.4221  0.0210  0.8350
 6414SOL    HW130875   0.912   4.582   7.817  0.9485  0.5958  1.5280
 6414SOL    HW230876   0.986   4.485   7.906  0.4298 -0.7297 -0.1927
 6415SOL     OW30877   4.486   2.730   3.490  0.3377  0.4144  0.1383
 6415SOL    HW130878   4.546   2.673   3.539 -0.5616 -1.9332 -1.4978
 6415SOL    HW230879   4.550   2.798   3.471  0.4579 -0.2130 -1.6851
 6416SOL     OW30880   0.657   2.488   8.077 -0.3168  0.5611 -0.1705
 6416SOL    HW130881   0.584   2.431   8.054 -0.6474  1.2907 -0.9151
 6416SOL    HW230882   0.734   2.446   8.039 -0.4204 -1.5903  1.9774
 6417SOL     OW30883   1.609   0.411   2.863 -0.2447  0.1065 -0.0754
 6417SOL    HW130884   1.692   0.455   2.882  1.0944 -3.3410  2.0792
 6417SOL    HW230885   1.601   0.331   2.915  1.3218 -0.5889 -0.9021
 6418SOL     OW30886   2.105   4.463  14.779 -0.1521  0.2068 -0.0531
 6418SOL    HW130887   2.116   4.558  14.789  1.2644  0.3368 -2.8014
 6418SOL    HW230888   2.108   4.453  14.684  1.3021  0.6246 -0.0556
 6419SOL     OW30889   0.999   0.208  16.012  0.0802 -0.2081  0.1666
 6419SOL    HW130890   1.084   0.240  16.044 -0.5546  0.0602  1.5855
 6419SOL    HW230891   1.015   0.115  16.025  0.5371 -0.3755 -1.5855
 6420SOL     OW30892   2.171   3.294   8.326  0.0825 -0.0003  0.1706
 6420SOL    HW130893   2.138   3.341   8.402  0.7414  1.8712 -0.6931
 6420SOL    HW230894   2.141   3.204   8.344 -0.9643  0.2871 -0.1399
 6421SOL     OW30895   2.572   2.499  16.361  0.2008  0.2312  0.4541
 6421SOL    HW130896   2.668   2.499  16.372  0.3704  1.0191 -0.9212
 6421SOL    HW230897   2.547   2.430  16.422  0.6705  0.7881  1.2838
 6422SOL     OW30898   1.159   3.505   4.715 -0.0583  0.1488  0.2119
 6422SOL    HW130899   1.087   3.517   4.778  0.3908 -1.7751  1.0738
 6422SOL    HW230900   1.203   3.434   4.761  1.2695  1.4745  0.9682
 6423SOL     OW30901   0.172   3.382  16.535  0.1233 -0.2065 -0.3052
 6423SOL    HW130902   0.267   3.373  16.526  0.0153 -0.7763 -0.9805
 6423SOL    HW230903   0.156   3.475  16.548  2.4466 -0.0205  1.1760
 6424SOL     OW30904   0.033   4.703  14.278 -0.2267 -0.3322  0.1405
 6424SOL    HW130905   4.726   0.047  14.251  1.2220  0.3112 -0.2764
 6424SOL    HW230906   4.692   4.648  14.286 -2.7282  3.1918  0.1777
 6425SOL     OW30907   3.869   0.917  12.480 -0.5139  0.8733 -0.4186
 6425SOL    HW130908   3.953   0.962  12.487 -1.0255  1.6576  0.7486
 6425SOL    HW230909   3.825   0.961  12.407  2.1106  1.2681 -1.7534
 6426SOL     OW30910   2.918   3.153   4.878 -0.0577 -0.0911 -0.6411
 6426SOL    HW130911   2.921   3.059   4.895 -2.9485  0.0285  0.5918
 6426SOL    HW230912   2.992   3.158   4.817  0.9363 -0.4078  0.5554
 6427SOL     OW30913   4.133   3.142   6.049 -0.4868 -0.0997  0.5475
 6427SOL    HW130914   4.143   3.234   6.072 -0.4575  0.2785 -0.9471
 6427SOL    HW230915   4.049   3.136   6.005 -0.2864 -0.3959  0.2024
 6428SOL     OW30916   1.110   2.842   6.691 -0.3780  0.2305 -0.3636
 6428SOL    HW130917   1.093   2.827   6.598  0.0622 -1.4178 -0.1817
 6428SOL    HW230918   1.191   2.892   6.689  0.8705 -1.7311  0.8804
 6429SOL     OW30919   2.005   0.674   1.480 -0.1328 -0.0611 -0.1237
 6429SOL    HW130920   2.012   0.659   1.574 -1.8695  0.2848  0.0537
 6429SOL    HW230921   2.090   0.714   1.463 -0.7689  1.2622 -0.1822
 6430SOL     OW30922   3.041   2.390  13.058  0.4666  0.3099 -0.0073
 6430SOL    HW130923   2.996   2.360  13.137  0.1998 -0.2232 -0.3606
 6430SOL    HW230924   3.129   2.354  13.067  1.6043  3.0195 -0.2098
 6431SOL     OW30925   2.293   2.768   9.057  0.6746 -0.2832 -0.5116
 6431SOL    HW130926   2.360   2.833   9.076  1.0922 -0.5618 -1.0351
 6431SOL    HW230927   2.231   2.802   9.122  0.3902  0.3410 -1.1083
 6432SOL     OW30928   4.634   1.218  15.604 -1.0611  0.1236  0.2068
 6432SOL    HW130929   4.639   1.284  15.535  0.2077  0.0929  0.2684
 6432SOL    HW230930   4.727   1.221  15.629 -0.9622  1.5829 -0.3098
 6433SOL     OW30931   2.932   4.153   6.981  0.3379  0.5625 -0.2170
 6433SOL    HW130932   2.870   4.106   6.925 -0.9770  1.0622  0.8230
 6433SOL    HW230933   2.874   4.211   7.031  1.0645  0.5197  0.6597
 6434SOL     OW30934   1.473   3.216  15.871 -0.0988 -0.5017  0.4748
 6434SOL    HW130935   1.555   3.226  15.824  0.9681 -1.8952  2.0477
 6434SOL    HW230936   1.421   3.285  15.830  1.6915 -0.0693 -1.0573
 6435SOL     OW30937   4.578   3.259   3.972  0.1885  0.1903 -0.5571
 6435SOL    HW130938   4.586   3.231   3.881  0.2591  2.3460 -1.2298
 6435SOL    HW230939   4.544   3.183   4.020 -2.8141  1.5669 -0.4465
 6436SOL     OW30940   2.485   3.412   5.459 -0.4611  0.2330 -0.4204
 6436SOL    HW130941   2.477   3.335   5.402  1.3089 -0.7499  0.6849
 6436SOL    HW230942   2.575   3.425   5.431  0.0357 -1.5713  0.3549
 6437SOL     OW30943   3.071   0.684   3.543  0.0226 -0.5515  0.4401
 6437SOL    HW130944   3.002   0.747   3.561 -0.3238 -1.5241  2.5944
 6437SOL    HW230945   3.128   0.713   3.615 -0.2157 -0.5645  0.6347
 6438SOL     OW30946   1.268   1.955   9.300  0.1991 -0.5726  0.1070
 6438SOL    HW130947   1.208   2.008   9.352  1.2518 -2.6899  3.4463
 6438SOL    HW230948   1.256   2.001   9.216 -0.8034 -0.6359  0.2154
 6439SOL     OW30949   3.361   0.381   4.536 -0.1508  0.2365 -0.2391
 6439SOL    HW130950   3.356   0.299   4.486  1.6573  2.6706 -4.4250
 6439SOL    HW230951   3.334   0.340   4.618  2.8960 -1.8052 -0.2605
 6440SOL     OW30952   0.551   3.045  11.668  0.0502  0.0925  0.0114
 6440SOL    HW130953   0.464   3.017  11.641  0.2323  0.7521 -1.2451
 6440SOL    HW230954   0.546   3.016  11.759 -2.3485 -1.8281 -0.7301
 6441SOL     OW30955   2.230   3.563   5.499 -0.1956  0.2158 -0.4139
 6441SOL    HW130956   2.301   3.499   5.492 -0.3771  0.0199 -0.4665
 6441SOL    HW230957   2.217   3.557   5.594 -0.5976 -0.4690 -0.5109
 6442SOL     OW30958   4.719   3.541  11.612 -0.4268 -0.1005  0.1502
 6442SOL    HW130959   0.045   3.470  11.620 -0.0633  0.0865 -1.0742
 6442SOL    HW230960   0.039   3.617  11.619  0.2829 -0.5768 -0.3772
 6443SOL     OW30961   3.686   3.859   5.224  0.0888 -0.1308  0.4118
 6443SOL    HW130962   3.654   3.910   5.299 -1.4344 -1.1002  0.4271
 6443SOL    HW230963   3.734   3.786   5.264  1.5516  0.3675 -0.4182
 6444SOL     OW30964   1.160   1.525   5.428 -0.1684 -0.1507  0.5078
 6444SOL    HW130965   1.137   1.551   5.517  2.4286 -0.5468  1.3082
 6444SOL    HW230966   1.070   1.539   5.398 -0.4880  1.1858  2.1253
 6445SOL     OW30967   2.449   0.827   2.916 -0.5962 -0.6829 -0.2574
 6445SOL    HW130968   2.452   0.826   2.820  0.1466  2.7552 -0.2967
 6445SOL    HW230969   2.361   0.864   2.920 -0.1687  0.2142  0.7313
 6446SOL     OW30970   1.478   1.070  10.086 -0.4718  0.7454  0.1193
 6446SOL    HW130971   1.450   0.980  10.069 -0.3436  0.7269  0.0026
 6446SOL    HW230972   1.466   1.108   9.999 -1.6770 -0.3646 -0.1906
 6447SOL     OW30973   0.815   3.616   8.298  0.5496  0.0888  0.3176
 6447SOL    HW130974   0.789   3.534   8.256  1.1824  0.5841 -1.0321
 6447SOL    HW230975   0.909   3.601   8.292  0.4054 -0.3570 -0.7062
 6448SOL     OW30976   0.088   0.841   4.269  0.2396 -0.3194 -0.3145
 6448SOL    HW130977   0.090   0.837   4.174 -0.5931  0.5846 -0.3716
 6448SOL    HW230978   4.732   0.829   4.288 -0.1385  2.2293 -0.5499
 6449SOL     OW30979   0.651   1.648   4.125  0.6152  0.5880 -0.2671
 6449SOL    HW130980   0.719   1.712   4.106  1.6087 -0.0229  1.2417
 6449SOL    HW230981   0.650   1.607   4.038 -1.3998 -0.3125  0.1920
 6450SOL     OW30982   1.980   4.714   3.375 -0.2201  0.2277 -0.0935
 6450SOL    HW130983   2.058   4.696   3.323 -0.4281 -0.6629 -0.0940
 6450SOL    HW230984   1.911   4.734   3.311  0.9573  1.0895 -1.0921
 6451SOL     OW30985   0.707   2.243   7.267  0.2475 -0.4964 -0.1253
 6451SOL    HW130986   0.641   2.305   7.296 -0.6443 -1.0943 -0.8900
 6451SOL    HW230987   0.694   2.253   7.172  1.4813 -1.7248 -0.4286
 6452SOL     OW30988   2.572   0.245   9.637  0.1970 -0.4210  0.1166
 6452SOL    HW130989   2.511   0.260   9.709 -0.9171 -2.6614 -0.3573
 6452SOL    HW230990   2.636   0.183   9.670  0.6128  0.5054  1.0486
 6453SOL     OW30991   0.194   0.493   6.548 -0.0075  0.0886 -0.4341
 6453SOL    HW130992   0.216   0.462   6.460 -1.0583 -1.3221 -0.1934
 6453SOL    HW230993   0.126   0.558   6.535  0.7934  1.4597  2.1838
 6454SOL     OW30994   2.950   4.405  15.604  0.0353  0.0317  0.2879
 6454SOL    HW130995   2.897   4.340  15.651  3.1472 -1.6047  1.5109
 6454SOL    HW230996   2.946   4.367  15.516  0.0982 -0.4346  0.4843
 6455SOL     OW30997   3.771   0.086   0.953 -0.2004  0.1506  0.2846
 6455SOL    HW130998   3.695   0.038   0.919 -0.1300 -0.0624  0.4324
 6455SOL    HW230999   3.786   0.148   0.881  0.5387 -1.2064 -0.7369
 6456SOL     OW31000   4.338   1.747   8.134 -0.1431  0.1912 -0.8103
 6456SOL    HW131001   4.416   1.698   8.105 -0.1830 -0.5412  0.3349
 6456SOL    HW231002   4.289   1.755   8.052 -0.2768 -0.6852 -0.8170
 6457SOL     OW31003   2.769   3.930   5.521  0.5208  0.6755 -0.5191
 6457SOL    HW131004   2.808   3.845   5.502  0.7298  0.2481  1.8468
 6457SOL    HW231005   2.810   3.973   5.446 -1.9383 -0.2303 -2.3423
 6458SOL     OW31006   0.799   3.678  13.453  0.0160  0.0005 -0.0452
 6458SOL    HW131007   0.733   3.610  13.466 -1.3426  1.1759 -0.7703
 6458SOL    HW231008   0.730   3.737  13.423 -1.5163 -0.6561  2.1661
 6459SOL     OW31009   2.441   3.958  12.168  0.0868 -0.1962  0.3853
 6459SOL    HW131010   2.382   3.887  12.194  1.9860 -1.4839  1.1587
 6459SOL    HW231011   2.480   3.929  12.086 -0.6735  2.7799 -1.0123
 6460SOL     OW31012   0.892   4.016   5.378 -0.1322 -0.0896  0.8737
 6460SOL    HW131013   0.942   3.935   5.388  0.5925  0.0416 -1.6267
 6460SOL    HW231014   0.948   4.086   5.410 -0.1461  0.9342 -1.3023
 6461SOL     OW31015   3.252   3.151   2.389  0.0050 -0.7371  0.0145
 6461SOL    HW131016   3.317   3.096   2.433  1.7695  0.5603 -0.9691
 6461SOL    HW231017   3.219   3.087   2.325  1.4309 -1.3528 -0.0910
 6462SOL     OW31018   0.864   2.522   6.122 -0.2632 -0.3520 -0.0570
 6462SOL    HW131019   0.947   2.511   6.075  0.9197  0.1958  1.9089
 6462SOL    HW231020   0.826   2.590   6.067  0.3521  1.4133  1.6764
 6463SOL     OW31021   4.347   0.905   2.262  0.0063  0.0231  0.6164
 6463SOL    HW131022   4.289   0.952   2.202  2.4632  1.1102 -0.8898
 6463SOL    HW231023   4.418   0.968   2.276 -1.1356  1.5556 -0.3538
 6464SOL     OW31024   0.818   0.072   3.694  0.8632 -1.3147 -0.1405
 6464SOL    HW131025   0.802   0.144   3.755  0.1554 -0.5845 -1.2026
 6464SOL    HW231026   0.730   0.045   3.665 -0.4005  1.5625  1.0575
 6465SOL     OW31027   3.089   0.329   6.649 -0.4065 -0.2920  0.5592
 6465SOL    HW131028   3.091   0.234   6.661  0.3888 -0.3807 -0.2846
 6465SOL    HW231029   3.032   0.355   6.722 -0.0509 -0.1876  0.7979
 6466SOL     OW31030   1.217   3.010   5.951  0.5685 -0.1500  0.1908
 6466SOL    HW131031   1.174   2.994   6.034 -2.0147  2.2781 -0.6924
 6466SOL    HW231032   1.144   2.997   5.891  0.9556  0.7848 -0.4787
 6467SOL     OW31033   1.425   0.464   7.107 -0.5493  0.4030  0.2631
 6467SOL    HW131034   1.504   0.504   7.141 -0.0562 -1.5642  1.4155
 6467SOL    HW231035   1.450   0.376   7.081  0.2917  0.9343 -0.7397
 6468SOL     OW31036   0.459   2.944   5.400  0.3422 -0.2093 -0.4380
 6468SOL    HW131037   0.385   3.003   5.385  0.2229 -0.4347 -0.7371
 6468SOL    HW231038   0.426   2.854   5.392 -1.9803  0.3749  2.4281
 6469SOL     OW31039   0.523   2.072  12.889  0.5511  0.2714 -0.2053
 6469SOL    HW131040   0.427   2.072  12.894  0.4484  0.1232 -2.0297
 6469SOL    HW231041   0.543   2.151  12.838  0.1605  0.8612  0.5684
 6470SOL     OW31042   0.035   3.297   8.080 -0.5430  0.2442 -0.3726
 6470SOL    HW131043   0.003   3.382   8.109 -1.2890 -0.2536  0.2677
 6470SOL    HW231044   4.692   3.254   8.049 -0.1303  0.1365 -1.3007
 6471SOL     OW31045   1.373   0.074   2.780  0.1413  0.3754 -0.0916
 6471SOL    HW131046   1.296   0.074   2.837  0.4793 -2.3283  0.3422
 6471SOL    HW231047   1.380   4.717   2.762 -2.1321  0.1451  0.2412
 6472SOL     OW31048   0.575   2.757   7.499  0.6266  0.0547  0.0483
 6472SOL    HW131049   0.503   2.709   7.458  0.0167  0.5655  0.5002
 6472SOL    HW231050   0.638   2.733   7.432 -0.3231 -1.1131 -0.4210
 6473SOL     OW31051   2.707   3.455   1.860  0.3426 -0.4363 -0.2974
 6473SOL    HW131052   2.794   3.428   1.889 -0.4980 -1.4374  1.3094
 6473SOL    HW231053   2.660   3.478   1.940 -1.3378 -0.6711 -1.2121
 6474SOL     OW31054   2.760   3.819   9.947  0.3202  0.3043 -0.0454
 6474SOL    HW131055   2.747   3.763   9.870  0.4037 -0.4815  0.5146
 6474SOL    HW231056   2.686   3.787  10.000  0.5681 -1.5608 -0.8161
 6475SOL     OW31057   2.806   2.296   2.395 -0.5847  0.4649 -0.2747
 6475SOL    HW131058   2.878   2.322   2.454 -2.4115  0.8263  1.7960
 6475SOL    HW231059   2.848   2.273   2.312  1.2863  2.0752  0.2101
 6476SOL     OW31060   2.432   3.726   5.792  0.9341 -0.3576 -0.1695
 6476SOL    HW131061   2.514   3.684   5.816  0.1271 -2.2795 -0.8336
 6476SOL    HW231062   2.371   3.653   5.782  1.1743 -0.7666  1.4778
 6477SOL     OW31063   2.042   1.984   7.525 -0.8078 -0.1467  0.6731
 6477SOL    HW131064   1.962   1.947   7.487  0.0323 -1.1413 -0.1418
 6477SOL    HW231065   2.005   1.999   7.612 -2.6419 -2.4666  0.2839
 6478SOL     OW31066   0.350   4.203  13.794 -0.4277  0.3006  0.2372
 6478SOL    HW131067   0.427   4.148  13.808  0.1304  0.9419 -0.2835
 6478SOL    HW231068   0.355   4.243  13.880  0.1957  0.9005 -0.0819
 6479SOL     OW31069   1.222   3.667   1.181  0.0184 -0.3246 -0.0926
 6479SOL    HW131070   1.203   3.574   1.195 -2.1399  0.0710 -0.2989
 6479SOL    HW231071   1.299   3.661   1.125 -1.6691 -0.4984 -2.4259
 6480SOL     OW31072   2.668   1.083   9.977  0.5716 -0.0844 -0.5589
 6480SOL    HW131073   2.725   1.010  10.001 -0.1248 -0.4524 -0.0556
 6480SOL    HW231074   2.709   1.089   9.890  1.8885 -0.4466  0.0471
 6481SOL     OW31075   0.635   2.338  14.319 -0.1126 -0.2274  0.1073
 6481SOL    HW131076   0.654   2.282  14.243 -1.2116 -0.7833  0.2389
 6481SOL    HW231077   0.546   2.310  14.341 -0.1348 -1.1737 -1.1434
 6482SOL     OW31078   1.487   1.684   7.793  0.6082 -0.1838 -0.1983
 6482SOL    HW131079   1.446   1.753   7.741 -0.8828  0.7112  2.1459
 6482SOL    HW231080   1.424   1.675   7.865 -0.1197  1.8044 -0.5976
 6483SOL     OW31081   0.823   3.104   4.305  0.0765 -0.2026 -0.4811
 6483SOL    HW131082   0.808   3.016   4.338 -1.3782 -0.5831 -2.1275
 6483SOL    HW231083   0.915   3.086   4.289  0.5426 -0.2581  2.1455
 6484SOL     OW31084   0.373   4.376   2.008  0.0617  0.3668  0.5569
 6484SOL    HW131085   0.373   4.441   1.938  3.4350 -0.3027 -0.0487
 6484SOL    HW231086   0.280   4.352   2.006  0.3927 -0.8087 -0.7794
 6485SOL     OW31087   1.184   2.018  17.413  0.1527 -0.5050 -0.3546
 6485SOL    HW131088   1.217   1.953  17.352  0.0566 -0.7521 -0.1415
 6485SOL    HW231089   1.169   1.968  17.493 -1.3275  1.1656  0.4339
 6486SOL     OW31090   1.989   0.288   3.657  0.0302  0.4319 -0.5261
 6486SOL    HW131091   1.898   0.318   3.656  0.3381  1.3619 -0.5608
 6486SOL    HW231092   2.032   0.351   3.714  0.2791  0.2914 -0.5576
 6487SOL     OW31093   2.277   3.101   3.852 -0.2587  0.4362  0.0664
 6487SOL    HW131094   2.264   3.126   3.944 -0.8818 -0.0972  0.1203
 6487SOL    HW231095   2.372   3.088   3.847 -0.6380 -2.2293  0.1389
 6488SOL     OW31096   2.634   3.032   4.749  0.1024 -0.2500 -0.2316
 6488SOL    HW131097   2.704   3.031   4.684  0.9702 -1.0928  0.7098
 6488SOL    HW231098   2.565   3.080   4.704 -0.7742 -0.9208  0.3829
 6489SOL     OW31099   3.686   3.380   1.374 -0.1206  0.2947  1.0213
 6489SOL    HW131100   3.736   3.309   1.333  0.6779  1.0490  0.6830
 6489SOL    HW231101   3.637   3.426   1.306  3.1026  1.7015 -0.3944
 6490SOL     OW31102   3.791   3.604   2.245  0.6855  0.1623 -0.9852
 6490SOL    HW131103   3.764   3.529   2.192  0.1806 -1.0107  0.9640
 6490SOL    HW231104   3.708   3.645   2.270  0.0223 -2.1670  0.5673
 6491SOL     OW31105   3.616   2.329   4.241  0.5736 -0.3827 -0.3899
 6491SOL    HW131106   3.547   2.379   4.196  0.0626 -1.5303 -0.8749
 6491SOL    HW231107   3.660   2.289   4.167 -0.3036 -1.1723 -0.4840
 6492SOL     OW31108   3.063   1.312  13.373  0.4317  0.0695 -0.2340
 6492SOL    HW131109   3.045   1.331  13.465 -0.7965 -3.6698  0.2893
 6492SOL    HW231110   2.975   1.320  13.339  0.6247 -0.6980 -0.9048
 6493SOL     OW31111   0.927   4.562  14.450  0.9934  0.7778  0.4550
 6493SOL    HW131112   0.908   4.553  14.543 -0.1544  1.1784  0.2592
 6493SOL    HW231113   0.845   4.587  14.407  1.4949 -0.6018 -1.3080
 6494SOL     OW31114   4.197   0.724  14.628  0.0587  0.1753 -0.1878
 6494SOL    HW131115   4.155   0.796  14.674  1.4071  0.0818  1.1983
 6494SOL    HW231116   4.259   0.694  14.694 -0.1950 -0.2817 -0.1564
 6495SOL     OW31117   2.956   0.201   5.595  1.1690 -0.2707  0.3794
 6495SOL    HW131118   2.968   0.192   5.689  0.6311 -2.5857  0.2202
 6495SOL    HW231119   2.875   0.251   5.593  0.6779 -1.0284  1.3335
 6496SOL     OW31120   2.294   3.133   4.130 -0.0432 -0.0694 -0.2735
 6496SOL    HW131121   2.247   3.189   4.192 -0.7474 -1.7475  0.7098
 6496SOL    HW231122   2.251   3.049   4.145 -0.5271  0.0777 -0.8176
 6497SOL     OW31123   1.665   4.575  11.774  0.5321 -0.4999 -0.0575
 6497SOL    HW131124   1.586   4.521  11.772 -0.3946  0.7769  1.4909
 6497SOL    HW231125   1.643   4.649  11.831  0.2173 -0.0876 -0.7113
 6498SOL     OW31126   0.010   1.061   1.825  0.1867 -0.4888  0.1884
 6498SOL    HW131127   0.010   1.149   1.862 -0.9899 -0.8703  1.1102
 6498SOL    HW231128   0.046   1.011   1.898 -1.0160 -1.6720 -0.0247
 6499SOL     OW31129   3.682   3.826   7.075  0.4281  0.9218 -0.3687
 6499SOL    HW131130   3.730   3.779   7.144  0.8066  1.0983 -0.5111
 6499SOL    HW231131   3.632   3.755   7.037  0.8870  1.1466 -1.3909
 6500SOL     OW31132   3.252   2.072   5.489  0.1924 -0.1356 -0.4189
 6500SOL    HW131133   3.308   2.033   5.421  1.3090 -0.6168  0.7948
 6500SOL    HW231134   3.173   2.091   5.437 -0.4755  1.1082  1.0796
 6501SOL     OW31135   0.374   2.802  12.620  0.0818 -0.3468  0.7450
 6501SOL    HW131136   0.348   2.756  12.700 -0.0883 -0.2282  0.7568
 6501SOL    HW231137   0.291   2.810  12.575  0.4361  0.9965  0.3181
 6502SOL     OW31138   2.884   3.312  13.559  0.0021  0.5102 -0.1182
 6502SOL    HW131139   2.826   3.380  13.523 -0.4772 -0.5141 -1.2777
 6502SOL    HW231140   2.942   3.299  13.483 -0.3371  1.5831 -0.5731
 6503SOL     OW31141   0.534   3.571   2.122 -0.2458  0.1020  0.9652
 6503SOL    HW131142   0.604   3.584   2.186 -0.6745 -0.7214  1.5968
 6503SOL    HW231143   0.529   3.657   2.081  0.4672 -0.2647  0.1244
 6504SOL     OW31144   0.059   1.517  17.266 -0.2902  0.5185 -0.0359
 6504SOL    HW131145   0.090   1.532  17.177  0.4595  2.8296  0.6298
 6504SOL    HW231146   0.138   1.492  17.315 -0.5587  1.8460  1.0909
 6505SOL     OW31147   3.331   3.929   2.145  0.2731  0.3711 -0.3835
 6505SOL    HW131148   3.348   3.917   2.052 -1.8781 -1.8768 -0.4717
 6505SOL    HW231149   3.411   3.977   2.169 -0.0315  0.1039  1.1522
 6506SOL     OW31150   2.500   4.173  16.227  0.1237 -0.7693  0.4112
 6506SOL    HW131151   2.557   4.227  16.172 -0.7868  0.5785  0.7890
 6506SOL    HW231152   2.551   4.093  16.237 -0.2704 -0.8493  1.7922
 6507SOL     OW31153   0.313   0.723   3.097 -0.1458  0.2766 -0.1040
 6507SOL    HW131154   0.400   0.726   3.058  0.2102  1.3855  0.8013
 6507SOL    HW231155   0.309   0.635   3.134  0.9948 -0.9147 -2.8252
 6508SOL     OW31156   1.199   4.425   4.751  0.0515 -0.5645  0.1501
 6508SOL    HW131157   1.130   4.434   4.816 -1.0585 -1.2784 -0.9293
 6508SOL    HW231158   1.197   4.329   4.741  0.8619 -0.6982  1.1765
 6509SOL     OW31159   2.256   2.133   8.361  0.5053  0.0944  0.0996
 6509SOL    HW131160   2.193   2.139   8.289 -1.2786  0.2067  1.6722
 6509SOL    HW231161   2.310   2.065   8.321 -0.7505  0.5988 -2.4341
 6510SOL     OW31162   4.157   1.458  16.016  0.0935  0.5528 -0.5733
 6510SOL    HW131163   4.090   1.395  15.989  2.2403 -2.3320  0.8740
 6510SOL    HW231164   4.221   1.402  16.060 -0.6985 -0.2038 -0.3772
 6511SOL     OW31165   1.871   1.600   3.905 -0.3387 -0.2845 -0.1229
 6511SOL    HW131166   1.822   1.658   3.847 -1.1597  0.2709  1.1310
 6511SOL    HW231167   1.824   1.517   3.905 -1.8668  0.5865  0.3290
 6512SOL     OW31168   2.402   4.270   5.877  0.1270 -0.0274  0.3912
 6512SOL    HW131169   2.414   4.178   5.902  1.1143  0.0814  0.3188
 6512SOL    HW231170   2.493   4.297   5.865 -0.2622  0.2329 -1.9765
 6513SOL     OW31171   2.663   0.846   7.266 -0.2240  0.5094 -0.4171
 6513SOL    HW131172   2.725   0.850   7.193 -1.8742 -1.5615 -1.9417
 6513SOL    HW231173   2.592   0.797   7.224 -0.6147  0.4288  0.3341
 6514SOL     OW31174   2.834   3.136   2.484 -0.4739  0.1441  0.0496
 6514SOL    HW131175   2.792   3.131   2.398 -1.2285  1.4234  0.3452
 6514SOL    HW231176   2.821   3.044   2.506 -0.8718  0.1278 -0.2612
 6515SOL     OW31177   4.254   2.630   9.408  0.1511 -0.2869 -0.3539
 6515SOL    HW131178   4.170   2.586   9.423 -1.0559  1.9690 -0.4991
 6515SOL    HW231179   4.242   2.661   9.318 -1.6463 -1.8750 -0.6849
 6516SOL     OW31180   3.122   0.594   2.451 -0.4501  0.6283 -0.5467
 6516SOL    HW131181   3.148   0.514   2.405  1.3191  0.6263  0.4274
 6516SOL    HW231182   3.166   0.580   2.535 -0.4436  1.5889 -0.3934
 6517SOL     OW31183   0.458   4.691   6.880  0.7610 -0.0546  0.6302
 6517SOL    HW131184   0.517   0.030   6.879 -0.2320  0.7037 -0.9047
 6517SOL    HW231185   0.481   4.654   6.794 -1.0084 -0.3052  0.2698
 6518SOL     OW31186   0.582   1.398   6.315  0.4080  0.0159  1.1603
 6518SOL    HW131187   0.647   1.331   6.293 -0.8541 -0.8843  0.1258
 6518SOL    HW231188   0.597   1.410   6.408 -0.8570  0.9841  1.2416
 6519SOL     OW31189   4.201   3.571   5.137 -0.3847  0.5776  0.0390
 6519SOL    HW131190   4.113   3.535   5.132 -0.6278  1.4514 -1.8945
 6519SOL    HW231191   4.211   3.575   5.232 -0.3545 -2.6631  0.1822
 6520SOL     OW31192   1.830   1.928  12.092 -0.1803 -0.0330  0.1149
 6520SOL    HW131193   1.891   1.882  12.149  1.8265 -0.0266 -2.0279
 6520SOL    HW231194   1.745   1.893  12.120  0.5350 -2.0357 -0.2830
 6521SOL     OW31195   3.699   0.280   4.798  0.6897 -0.4295 -0.3313
 6521SOL    HW131196   3.786   0.240   4.800  0.3738 -1.1452 -0.8548
 6521SOL    HW231197   3.678   0.260   4.707  0.8629 -1.8547 -0.0554
 6522SOL     OW31198   0.106   3.883   5.924  0.0829 -1.2383 -0.2473
 6522SOL    HW131199   0.079   3.974   5.928  0.9290 -1.1104  2.5312
 6522SOL    HW231200   0.025   3.838   5.947 -0.7485 -0.3356 -1.4518
 6523SOL     OW31201   3.511   0.447   8.379  0.9674  0.1227 -0.2987
 6523SOL    HW131202   3.491   0.539   8.364 -0.7233 -0.4020 -1.3230
 6523SOL    HW231203   3.437   0.397   8.344 -0.0021 -0.4158  2.4953
 6524SOL     OW31204   3.912   0.659  16.787 -0.3398  0.1766 -0.0984
 6524SOL    HW131205   3.995   0.693  16.752 -0.7512  1.2570 -0.0185
 6524SOL    HW231206   3.880   0.738  16.830  0.3522  1.1227 -1.3376
 6525SOL     OW31207   0.995   3.644   0.003 -0.2884 -0.2009 -0.4577
 6525SOL    HW131208   0.940   3.643   0.082  0.5709  0.9912  0.1715
 6525SOL    HW231209   0.991   3.735  17.718  0.8440 -0.5490 -1.6042
 6526SOL     OW31210   0.847   0.561   2.881  0.3622 -0.3360 -0.5091
 6526SOL    HW131211   0.847   0.525   2.793 -1.0166 -1.7606  0.0796
 6526SOL    HW231212   0.912   0.505   2.923 -0.0494 -0.7122 -0.3771
 6527SOL     OW31213   4.182   2.203   6.510 -0.2262  0.3211  0.4174
 6527SOL    HW131214   4.235   2.156   6.445  1.2086 -0.0392  1.8483
 6527SOL    HW231215   4.094   2.207   6.472 -0.4050  0.3862  0.8320
 6528SOL     OW31216   3.732   4.439   4.875  0.1053  0.3522  0.0057
 6528SOL    HW131217   3.726   4.433   4.779 -1.8418 -1.7175  0.2462
 6528SOL    HW231218   3.812   4.490   4.877  0.8673 -0.7824 -1.7704
 6529SOL     OW31219   4.137   3.630   2.976 -0.0998 -0.2745 -0.3883
 6529SOL    HW131220   4.070   3.666   3.033 -0.5139 -0.5823 -0.6846
 6529SOL    HW231221   4.082   3.629   2.898 -1.2963 -1.1848  0.4852
 6530SOL     OW31222   0.537   4.349   6.018  0.2548 -0.1931 -0.7107
 6530SOL    HW131223   0.576   4.265   5.992 -1.4452 -0.3208 -2.9016
 6530SOL    HW231224   0.453   4.316   6.049  1.3360 -1.2239  1.0831
 6531SOL     OW31225   2.235   1.470   8.862  0.1186 -0.5073 -0.2286
 6531SOL    HW131226   2.143   1.488   8.883 -0.0393 -2.3089  0.5872
 6531SOL    HW231227   2.282   1.538   8.911 -0.2160  1.0449 -2.0467
 6532SOL     OW31228   2.512   3.153   8.982  0.5215  0.0766 -0.3510
 6532SOL    HW131229   2.585   3.113   8.934 -0.0640 -0.1877 -1.0108
 6532SOL    HW231230   2.542   3.244   8.987  1.1369 -0.1843  0.7147
 6533SOL     OW31231   2.466   1.293   6.469  0.5040  0.0542 -0.4789
 6533SOL    HW131232   2.476   1.329   6.381 -1.6465  0.0524 -0.7231
 6533SOL    HW231233   2.431   1.362   6.525  1.4581 -0.0642  0.2684
 6534SOL     OW31234   4.477   3.437   8.726  0.0848 -0.3458  0.0600
 6534SOL    HW131235   4.489   3.451   8.632 -0.1885  1.9924  0.3891
 6534SOL    HW231236   4.539   3.367   8.747 -1.6299 -1.4893  1.4083
 6535SOL     OW31237   1.028   1.016   3.665 -0.5305  0.3561  0.0827
 6535SOL    HW131238   0.957   1.080   3.657 -0.2979  0.5109 -0.7837
 6535SOL    HW231239   1.056   1.005   3.574  0.0619 -1.4345  0.4901
 6536SOL     OW31240   2.208   0.094   7.377  0.6238  0.3175 -0.3621
 6536SOL    HW131241   2.282   0.039   7.354  0.2927  0.2363 -1.2369
 6536SOL    HW231242   2.143   0.047   7.324 -0.1860  0.8250  0.1783
 6537SOL     OW31243   4.405   3.014   5.573 -0.0322  0.4021  0.4651
 6537SOL    HW131244   4.337   2.962   5.530  0.5178  0.6427 -0.6866
 6537SOL    HW231245   4.349   3.088   5.596 -0.7104  0.0926 -0.1969
 6538SOL     OW31246   3.880   1.007   6.854  0.1251 -0.1266  0.6569
 6538SOL    HW131247   3.860   0.914   6.857 -0.3869  0.0583  2.6573
 6538SOL    HW231248   3.963   1.020   6.807 -0.0269  0.3236  0.5122
 6539SOL     OW31249   0.869   0.468   0.701  0.2596  0.4061 -0.5758
 6539SOL    HW131250   0.885   0.558   0.726  0.4623  1.1076 -3.2462
 6539SOL    HW231251   0.951   0.431   0.668  1.5765  2.1343  0.8020
 6540SOL     OW31252   0.871   3.511   4.492 -0.2650 -0.4857  0.2001
 6540SOL    HW131253   0.915   3.427   4.485 -1.1551 -0.7578 -2.3829
 6540SOL    HW231254   0.908   3.556   4.416  0.0971  2.1163  1.9260
 6541SOL     OW31255   3.503   0.157   8.493  0.2007 -0.2364 -0.3832
 6541SOL    HW131256   3.515   0.062   8.495  0.1559 -0.2220  0.5416
 6541SOL    HW231257   3.483   0.163   8.400  2.0736 -0.1185 -0.7752
 6542SOL     OW31258   2.410   4.163  11.646  0.3245  0.7083  0.3349
 6542SOL    HW131259   2.349   4.230  11.615  1.2665  2.1335  1.5900
 6542SOL    HW231260   2.431   4.204  11.730 -2.0957  1.2462  0.6713
 6543SOL     OW31261   2.172   1.259   3.032 -0.1616 -0.4486  0.0773
 6543SOL    HW131262   2.081   1.287   3.033  0.5938  2.0801 -0.4805
 6543SOL    HW231263   2.164   1.183   3.089  1.6785 -1.0406 -0.4478
 6544SOL     OW31264   1.545   2.220   6.118 -0.0411  0.2567 -0.8844
 6544SOL    HW131265   1.515   2.219   6.209  0.8388  1.4845 -0.5843
 6544SOL    HW231266   1.459   2.230   6.078 -0.0054  0.0881 -1.0056
 6545SOL     OW31267   2.783   2.648   0.448  0.0144 -0.2394  0.2153
 6545SOL    HW131268   2.839   2.587   0.495  1.2313  1.5058  1.0303
 6545SOL    HW231269   2.715   2.662   0.515  0.6653  1.5348  0.5022
 6546SOL     OW31270   4.055   2.769   3.786  0.2440  0.4998 -0.1653
 6546SOL    HW131271   4.139   2.801   3.753  1.5739 -0.8933  1.8210
 6546SOL    HW231272   4.056   2.804   3.875 -0.5611  0.3986 -0.1158
 6547SOL     OW31273   4.087   3.816   4.321 -0.1902 -0.8618  0.8471
 6547SOL    HW131274   4.129   3.864   4.392 -1.7422  0.6664  0.7205
 6547SOL    HW231275   4.111   3.876   4.251 -0.2680  1.2351  2.6337
 6548SOL     OW31276   1.872   3.121   2.652  0.5600  0.0427 -0.2930
 6548SOL    HW131277   1.961   3.156   2.656  0.6646 -0.3319  0.7244
 6548SOL    HW231278   1.884   3.028   2.634  0.3968  0.1892 -1.1423
 6549SOL     OW31279   2.988   1.044   7.891  0.0508  0.3189 -0.3583
 6549SOL    HW131280   2.928   1.021   7.961  0.9766  0.5159  0.4934
 6549SOL    HW231281   3.072   1.006   7.915  0.7159  2.9853  1.5421
 6550SOL     OW31282   2.284   0.003   2.254 -0.1128 -0.3041  0.0915
 6550SOL    HW131283   2.268   0.051   2.335 -1.1014 -0.0985 -0.2275
 6550SOL    HW231284   2.243   0.068   2.197  1.2262 -0.4770 -1.0487
 6551SOL     OW31285   1.073   0.161   7.980 -0.5383 -0.8523 -0.1576
 6551SOL    HW131286   0.991   0.114   7.998  0.5362 -2.4089  0.6442
 6551SOL    HW231287   1.042   0.251   7.973  0.6786 -0.3830  0.5024
 6552SOL     OW31288   1.452   2.220  14.136  0.1377 -0.5958 -0.0028
 6552SOL    HW131289   1.441   2.283  14.207  1.3555  0.5880 -0.8736
 6552SOL    HW231290   1.546   2.208  14.148  0.3823  0.5426 -0.7985
 6553SOL     OW31291   1.576   3.339   7.878 -0.0346 -0.5707 -0.1912
 6553SOL    HW131292   1.600   3.416   7.930  0.5683  0.0964 -1.4465
 6553SOL    HW231293   1.661   3.298   7.890 -0.5864 -1.3056  1.2167
 6554SOL     OW31294   3.347   1.134  10.150 -0.6535  0.2218  0.2745
 6554SOL    HW131295   3.272   1.142  10.091 -1.6499  0.7042  1.6125
 6554SOL    HW231296   3.328   1.044  10.177  0.3815  0.7558  2.7291
 6555SOL     OW31297   3.105   4.217  12.519  0.6371  0.2192  0.0084
 6555SOL    HW131298   3.177   4.278  12.539  0.2704 -0.0353  2.0256
 6555SOL    HW231299   3.151   4.134  12.511 -0.5132 -0.4185  0.0738
 6556SOL     OW31300   0.438   4.605   5.472  0.4754 -0.5714  0.4701
 6556SOL    HW131301   0.390   4.540   5.524 -0.4157 -0.3699 -0.1109
 6556SOL    HW231302   0.390   4.607   5.390  1.1327  1.4360  0.1268
 6557SOL     OW31303   4.251   1.995   4.714  0.3492  0.4275  0.1484
 6557SOL    HW131304   4.181   1.973   4.652  0.3833  2.1979 -0.5243
 6557SOL    HW231305   4.207   1.998   4.799 -1.2969  1.0618 -0.7322
 6558SOL     OW31306   3.192   1.391   8.191 -0.1368 -0.4804 -0.0017
 6558SOL    HW131307   3.172   1.409   8.283 -2.5971  1.0458 -0.8232
 6558SOL    HW231308   3.103   1.400   8.155 -1.3113 -1.7016  2.5919
 6559SOL     OW31309   0.746   0.228   4.922  0.0415  0.1008  0.3017
 6559SOL    HW131310   0.790   0.306   4.888  0.9881 -0.6924 -0.2993
 6559SOL    HW231311   0.799   0.218   5.001 -1.0513  1.3330  1.1885
 6560SOL     OW31312   0.296   4.190  14.480 -0.0147  0.4221 -0.2574
 6560SOL    HW131313   0.216   4.197  14.532 -0.0293  0.0773 -0.2309
 6560SOL    HW231314   0.278   4.264  14.422  0.1242 -0.1359 -1.0152
 6561SOL     OW31315   2.497   0.120   7.473 -0.2278 -0.0414  0.1375
 6561SOL    HW131316   2.472   0.029   7.457 -1.0169  0.1380  0.3403
 6561SOL    HW231317   2.575   0.135   7.421  0.7278 -1.5512  1.1486
 6562SOL     OW31318   3.564   4.225   7.929  0.3553 -0.0788 -0.3224
 6562SOL    HW131319   3.473   4.194   7.928  0.5393 -0.5972 -1.4091
 6562SOL    HW231320   3.580   4.201   8.020  0.8030 -1.0076 -0.6422
 6563SOL     OW31321   3.959   1.050  13.093  0.8375 -0.0588  0.2506
 6563SOL    HW131322   4.053   1.067  13.083  0.7030  1.8559  2.3451
 6563SOL    HW231323   3.936   1.113  13.161  1.2087  0.5613 -0.1953
 6564SOL     OW31324   0.142   1.139   2.049 -0.4454 -0.0874 -0.0335
 6564SOL    HW131325   0.153   1.077   2.122 -1.7932 -2.3204 -1.7472
 6564SOL    HW231326   0.153   1.217   2.104 -0.4852 -0.5046  0.5706
 6565SOL     OW31327   0.797   0.512   8.278 -0.0792 -0.4764  0.1349
 6565SOL    HW131328   0.796   0.467   8.194 -1.3149  0.5541 -0.3956
 6565SOL    HW231329   0.793   0.599   8.239  1.0880 -0.5719 -0.1807
 6566SOL     OW31330   0.783   1.043  15.385  0.3294 -0.3789 -0.5589
 6566SOL    HW131331   0.777   1.065  15.477  0.8589  0.3455 -0.6982
 6566SOL    HW231332   0.694   1.030  15.353 -0.0330 -1.7606  1.0032
 6567SOL     OW31333   3.800   1.767   1.977 -0.5933  0.6324 -0.3905
 6567SOL    HW131334   3.751   1.693   1.940  0.8716 -0.1131 -0.8384
 6567SOL    HW231335   3.881   1.760   1.926 -1.0831  0.2311 -1.1194
 6568SOL     OW31336   0.909   4.134   3.374 -0.2375 -0.7684 -0.1971
 6568SOL    HW131337   0.971   4.129   3.301  0.3865 -0.3029  0.3047
 6568SOL    HW231338   0.953   4.200   3.428 -0.2972  0.2800 -1.4563
 6569SOL     OW31339   4.459   2.826   7.525  0.2719  0.7115  0.3946
 6569SOL    HW131340   4.455   2.921   7.517  0.2885  0.5763 -1.0953
 6569SOL    HW231341   4.480   2.794   7.437 -1.8479 -2.1973  0.9289
 6570SOL     OW31342   1.977   1.462   4.967  0.5890 -0.2372 -0.4752
 6570SOL    HW131343   2.010   1.380   4.930  0.8075 -0.2854 -0.1739
 6570SOL    HW231344   1.998   1.442   5.058  2.0622 -2.1741 -1.2515
 6571SOL     OW31345   3.276   2.630   1.497 -0.1463  0.7291 -0.5853
 6571SOL    HW131346   3.228   2.596   1.422 -1.0960  0.8499 -0.0404
 6571SOL    HW231347   3.257   2.563   1.563 -2.1728  2.4952  0.6481
 6572SOL     OW31348   2.189   0.132   1.248 -0.3956  0.6999  0.1539
 6572SOL    HW131349   2.275   0.094   1.234 -0.8267 -1.1101  2.4427
 6572SOL    HW231350   2.189   0.194   1.174 -1.3187  1.6223  0.9238
 6573SOL     OW31351   4.675   2.112   2.494 -0.3856  0.0573  0.0196
 6573SOL    HW131352   4.601   2.153   2.538  0.0736 -2.6523  3.2546
 6573SOL    HW231353   4.649   2.023   2.467 -0.1034 -0.7296  2.3248
 6574SOL     OW31354   0.429   1.955   1.374  0.4221 -0.2467  0.1378
 6574SOL    HW131355   0.440   1.868   1.335  1.0170  0.1414 -0.5668
 6574SOL    HW231356   0.369   1.997   1.312 -0.5093 -2.6852 -0.6032
 6575SOL     OW31357   4.644   0.383   4.221  0.6055 -0.3750  0.2594
 6575SOL    HW131358   4.566   0.423   4.182  0.8333 -1.1508 -0.9911
 6575SOL    HW231359   4.661   0.437   4.298 -0.9264  1.6242 -0.8051
 6576SOL     OW31360   0.355   4.630  17.493  0.2940  0.2122 -0.0874
 6576SOL    HW131361   0.372   4.703  17.553 -0.1066 -0.0474  0.3458
 6576SOL    HW231362   0.433   4.622  17.438 -0.1369  0.4643 -0.7423
 6577SOL     OW31363   3.425   4.605   5.777 -0.2788  0.5525  0.5035
 6577SOL    HW131364   3.461   4.527   5.820 -0.4848  1.4110  2.2318
 6577SOL    HW231365   3.510   4.649   5.774 -0.2008  0.3474 -0.3293
 6578SOL     OW31366   3.918   2.577   4.924 -0.9625  0.1614  0.0655
 6578SOL    HW131367   3.961   2.571   4.839  0.7732 -0.8817  1.0041
 6578SOL    HW231368   3.850   2.638   4.896  0.0763  1.1672 -0.2934
 6579SOL     OW31369   4.310   3.057   7.562 -0.4746 -0.0822 -0.9164
 6579SOL    HW131370   4.289   3.012   7.643 -2.0441 -0.2352 -1.4027
 6579SOL    HW231371   4.221   3.076   7.532 -0.8820 -0.9262 -0.2348
 6580SOL     OW31372   4.045   1.318   6.970 -0.0991  0.3919 -0.2041
 6580SOL    HW131373   4.030   1.387   6.906 -0.0062  2.5510  2.1234
 6580SOL    HW231374   3.960   1.306   7.013 -0.1167 -0.0213 -0.3545
 6581SOL     OW31375   3.059   2.397   2.454  0.5692 -0.1261  0.1342
 6581SOL    HW131376   3.112   2.450   2.395 -0.1197  0.7973  0.3423
 6581SOL    HW231377   3.100   2.311   2.452  0.8010 -0.0574  1.9772
 6582SOL     OW31378   3.795   4.656   6.283 -0.0538  0.3201  0.2801
 6582SOL    HW131379   3.702   4.671   6.296  0.2586  2.7480 -0.1221
 6582SOL    HW231380   3.820   4.564   6.294 -4.4290 -0.5647  2.4003
 6583SOL     OW31381   3.862   0.436   3.246  0.1286  0.3136 -0.0425
 6583SOL    HW131382   3.894   0.381   3.175 -0.3735  1.3631 -1.0863
 6583SOL    HW231383   3.776   0.400   3.268 -0.6392  2.3506  0.2825
 6584SOL     OW31384   1.363   3.186   7.817  0.2856  0.1577  0.0968
 6584SOL    HW131385   1.325   3.249   7.879 -2.3819 -0.2515 -1.1691
 6584SOL    HW231386   1.453   3.219   7.813  0.0547  1.1324  2.6449
 6585SOL     OW31387   4.030   2.680  13.102 -0.3141 -0.1093  0.5187
 6585SOL    HW131388   4.028   2.755  13.161  2.2567 -0.2847  0.8138
 6585SOL    HW231389   4.048   2.599  13.150  1.8215 -0.8585 -1.5308
 6586SOL     OW31390   0.425   3.168   2.708  0.3911  0.1530  0.0769
 6586SOL    HW131391   0.337   3.192   2.737  0.3762  1.1010 -0.7494
 6586SOL    HW231392   0.476   3.229   2.762 -0.0331 -0.3771  1.0839
 6587SOL     OW31393   2.748   3.604   3.778  0.0301  0.1113 -0.2912
 6587SOL    HW131394   2.689   3.530   3.762 -1.7366  1.2844  0.8022
 6587SOL    HW231395   2.741   3.618   3.872 -2.0908 -0.8859 -0.2982
 6588SOL     OW31396   1.149   4.438  14.446 -0.6697 -0.1371 -0.1334
 6588SOL    HW131397   1.201   4.506  14.489 -2.0601  0.7396  0.1750
 6588SOL    HW231398   1.065   4.481  14.463 -1.3378 -1.3923 -0.2834
 6589SOL     OW31399   1.685   3.019   3.903 -0.3352 -0.0966 -0.3379
 6589SOL    HW131400   1.739   3.087   3.861 -0.6498  0.1688 -0.3106
 6589SOL    HW231401   1.599   3.043   3.870 -0.8897 -1.1202  0.3803
 6590SOL     OW31402   3.577   3.855   7.520 -0.1327 -0.0222  0.1004
 6590SOL    HW131403   3.507   3.919   7.509 -0.7837 -0.5291  1.3757
 6590SOL    HW231404   3.540   3.772   7.549  1.7331 -1.2003 -0.8293
 6591SOL     OW31405   2.076   1.789   2.692  0.6725  0.3942  0.0113
 6591SOL    HW131406   2.119   1.706   2.672  0.2315  0.1650  0.0101
 6591SOL    HW231407   2.018   1.755   2.760  2.9220  0.5806  1.9899
 6592SOL     OW31408   0.678   1.808   5.951  0.3503  0.0060  0.4444
 6592SOL    HW131409   0.674   1.744   6.022 -3.3059 -1.8667 -1.4117
 6592SOL    HW231410   0.587   1.831   5.968  0.0662 -1.6820  1.2903
 6593SOL     OW31411   3.119   3.153   2.951  0.8864  0.2703  0.5769
 6593SOL    HW131412   3.203   3.129   2.988  0.3921 -0.7128  1.0666
 6593SOL    HW231413   3.124   3.248   2.952 -1.9785  0.4343 -0.7895
 6594SOL     OW31414   0.843   0.379   5.770 -0.5924 -0.6560 -0.1357
 6594SOL    HW131415   0.765   0.365   5.716 -1.8553 -0.8505  1.7371
 6594SOL    HW231416   0.919   0.370   5.711  0.2361  0.1693  0.8076
 6595SOL     OW31417   4.038   2.364   3.307  0.5106 -0.0523 -0.3450
 6595SOL    HW131418   4.000   2.440   3.263  0.8654  0.7105  0.6650
 6595SOL    HW231419   4.062   2.390   3.396 -0.4549  2.2536 -0.7786
 6596SOL     OW31420   4.283   0.226   6.461  0.1394 -0.3802  0.2397
 6596SOL    HW131421   4.372   0.194   6.480  0.4097 -2.0749 -3.8404
 6596SOL    HW231422   4.238   0.145   6.440  0.5417 -0.9677  1.6211
 6597SOL     OW31423   1.192   4.001   7.692  0.0397 -0.2324 -0.7161
 6597SOL    HW131424   1.284   3.976   7.699  1.0147  3.2786 -0.8850
 6597SOL    HW231425   1.182   3.976   7.600 -0.1748  2.3636 -1.4082
 6598SOL     OW31426   2.457   3.314  10.572 -0.0545 -0.1208 -0.7946
 6598SOL    HW131427   2.434   3.393  10.620 -0.5276  0.5722 -2.1675
 6598SOL    HW231428   2.508   3.263  10.635  0.6869  0.6103 -0.8016
 6599SOL     OW31429   0.878   3.193   3.356 -0.0227 -0.1946 -0.2511
 6599SOL    HW131430   0.957   3.167   3.309  1.4810  0.7187  1.7802
 6599SOL    HW231431   0.819   3.117   3.353  0.6702 -0.6429 -2.0587
 6600SOL     OW31432   1.990   4.710   2.423 -0.9222  0.4438  0.0846
 6600SOL    HW131433   2.076   4.685   2.459 -0.2171  1.9703 -0.5721
 6600SOL    HW231434   1.969   0.054   2.469 -1.9174 -0.1743  0.7339
 6601SOL     OW31435   0.315   4.234  13.189 -0.2427  0.4563  0.2339
 6601SOL    HW131436   0.378   4.290  13.144 -0.3683 -0.1098 -0.6256
 6601SOL    HW231437   0.281   4.293  13.257 -1.0753  2.0230 -1.5599
 6602SOL     OW31438   1.784   0.799   6.803  0.0358  0.1100  0.4399
 6602SOL    HW131439   1.760   0.877   6.753 -0.2160 -0.0134  0.3627
 6602SOL    HW231440   1.782   0.730   6.737  0.9740 -0.3340  0.8762
 6603SOL     OW31441   3.112   1.478   3.818 -0.6484 -0.1511  0.1210
 6603SOL    HW131442   3.157   1.545   3.868 -0.0895 -1.6259  1.5963
 6603SOL    HW231443   3.175   1.444   3.755  0.0965  0.9569  0.2775
 6604SOL     OW31444   0.931   2.720   2.895 -0.3912  0.3554 -0.8852
 6604SOL    HW131445   0.900   2.757   2.813  0.9591 -0.1756 -1.6441
 6604SOL    HW231446   1.014   2.687   2.859 -0.6333  0.1613 -1.2654
 6605SOL     OW31447   0.256   2.166   4.873 -0.6304  0.3328  0.0669
 6605SOL    HW131448   0.187   2.113   4.911 -1.7233  0.9674 -1.0448
 6605SOL    HW231449   0.226   2.245   4.918  0.4538  1.0189 -0.3915
 6606SOL     OW31450   1.642   1.626   3.061  0.5493 -0.0580 -0.0384
 6606SOL    HW131451   1.660   1.569   3.136  0.2790  0.8062  0.6872
 6606SOL    HW231452   1.554   1.604   3.029 -0.0160  0.0363  1.4601
 6607SOL     OW31453   1.862   4.526   6.209 -0.0812  0.2657  0.1738
 6607SOL    HW131454   1.942   4.578   6.211 -0.1756  0.4170  0.0564
 6607SOL    HW231455   1.879   4.458   6.144  0.2277  0.8650 -0.3784
 6608SOL     OW31456   1.250   2.569   8.377  0.8833 -0.1672  0.1869
 6608SOL    HW131457   1.187   2.535   8.314 -0.0802  0.8433  0.6171
 6608SOL    HW231458   1.336   2.564   8.335  0.3421 -0.6298 -0.8544
 6609SOL     OW31459   0.932   4.135   5.127  0.0337  0.0772  0.3739
 6609SOL    HW131460   0.952   4.228   5.126 -0.7418  0.2500  0.8993
 6609SOL    HW231461   0.915   4.124   5.220  0.8417 -2.8960  0.1843
 6610SOL     OW31462   4.108   0.737   5.900 -0.4748  0.3827 -0.5568
 6610SOL    HW131463   4.032   0.793   5.914  1.0145  2.6680 -1.6204
 6610SOL    HW231464   4.071   0.655   5.867 -1.8464  0.9097 -0.3508
 6611SOL     OW31465   3.345   4.029   7.657 -0.2301  0.4333 -0.0858
 6611SOL    HW131466   3.378   4.105   7.609  2.2303  1.0790  2.5831
 6611SOL    HW231467   3.286   3.988   7.594 -2.0924 -0.5698  2.3410
 6612SOL     OW31468   0.667   2.574   7.290 -0.6495 -0.1088 -0.1608
 6612SOL    HW131469   0.726   2.563   7.216 -1.2209 -2.1904 -0.3014
 6612SOL    HW231470   0.647   2.494   7.339  0.4444 -1.0227 -1.1886
 6613SOL     OW31471   0.710   4.461   3.432 -0.2579 -0.1934  0.4508
 6613SOL    HW131472   0.720   4.556   3.426 -0.9800 -0.0911  0.9078
 6613SOL    HW231473   0.788   4.429   3.478 -0.9796 -1.0305  1.1039
 6614SOL     OW31474   3.226   4.241   8.255  0.1162 -0.2752  0.0952
 6614SOL    HW131475   3.133   4.254   8.272 -0.1485 -0.8296 -0.9179
 6614SOL    HW231476   3.268   4.320   8.290 -0.3379 -0.6173  1.3990
 6615SOL     OW31477   2.723   1.199   2.021  0.2647 -0.2546 -0.2694
 6615SOL    HW131478   2.753   1.136   2.086  2.8552  0.0325 -1.1669
 6615SOL    HW231479   2.656   1.146   1.978 -0.4870 -1.1731  2.0396
 6616SOL     OW31480   4.352   0.814  14.421 -0.4328  0.5665  0.3199
 6616SOL    HW131481   4.341   0.730  14.375  0.5614  0.9777 -0.6705
 6616SOL    HW231482   4.283   0.799  14.486  0.6782  0.7416  1.5552
 6617SOL     OW31483   0.536   0.502   4.669  0.1445 -0.1888  0.1712
 6617SOL    HW131484   0.503   0.577   4.719 -2.1830 -1.5143  0.6306
 6617SOL    HW231485   0.484   0.510   4.589  2.9076  0.8022 -1.5184
 6618SOL     OW31486   4.254   4.132   8.160 -0.4057  1.0291 -0.2073
 6618SOL    HW131487   4.196   4.086   8.100  2.3339 -4.1154  1.0934
 6618SOL    HW231488   4.332   4.147   8.106 -0.3876 -1.1456 -0.7762
 6619SOL     OW31489   1.903   2.840   3.664  1.0482 -0.0660  0.1646
 6619SOL    HW131490   1.863   2.810   3.746  0.2754 -2.9205 -1.2497
 6619SOL    HW231491   1.842   2.895   3.614  0.3134 -0.1855  0.9161
 6620SOL     OW31492   2.796   2.150   6.129 -0.3749 -0.0340 -0.0467
 6620SOL    HW131493   2.745   2.153   6.210  0.8002  2.3369  0.6151
 6620SOL    HW231494   2.759   2.228   6.087  1.0029  0.4627 -0.3513
 6621SOL     OW31495   0.379   1.323  11.047  0.2274 -0.6910  0.5897
 6621SOL    HW131496   0.445   1.273  11.094  1.1295 -0.5587 -0.5447
 6621SOL    HW231497   0.423   1.349  10.966 -0.3311 -1.9246 -0.1062
 6622SOL     OW31498   2.232   3.514  10.697 -0.2592  0.1244  0.2376
 6622SOL    HW131499   2.168   3.503  10.627  0.4496  0.7037 -0.5142
 6622SOL    HW231500   2.203   3.439  10.749 -1.0362 -0.9024 -1.6972
 6623SOL     OW31501   4.501   3.480   5.760  0.3585 -0.3587 -0.3877
 6623SOL    HW131502   4.556   3.416   5.715  0.0894  0.1409 -1.4109
 6623SOL    HW231503   4.565   3.536   5.806  0.2576 -1.9708  1.7469
 6624SOL     OW31504   1.704   3.314   2.782 -0.1184 -0.0570 -0.5510
 6624SOL    HW131505   1.760   3.246   2.744 -0.6147 -0.3852 -0.7014
 6624SOL    HW231506   1.718   3.293   2.875 -2.4936 -0.0872 -0.1816
 6625SOL     OW31507   0.519   0.927   7.131 -0.1039 -0.6415 -0.0063
 6625SOL    HW131508   0.591   0.988   7.149 -1.1813  0.7019 -0.2660
 6625SOL    HW231509   0.563   0.876   7.063 -1.6745 -0.7349 -0.9580
 6626SOL     OW31510   0.991   0.819   2.869  0.1964  0.0989  0.3279
 6626SOL    HW131511   1.060   0.764   2.907  0.9692  0.2505 -0.8355
 6626SOL    HW231512   0.936   0.745   2.843 -0.7556  1.4838 -1.5487
 6627SOL     OW31513   2.099   2.916   4.163 -0.5219  0.5619  0.0369
 6627SOL    HW131514   2.040   2.941   4.235 -1.2715  1.5517 -0.9274
 6627SOL    HW231515   2.110   2.822   4.177  0.7143  0.6512 -0.3799
 6628SOL     OW31516   2.479   1.008  14.934  0.0301  0.4097 -0.1090
 6628SOL    HW131517   2.544   0.940  14.916  0.4413  0.5031  1.0073
 6628SOL    HW231518   2.458   1.028  14.843 -0.2305 -2.6888 -0.7182
 6629SOL     OW31519   4.699   2.786   6.427  0.5221  0.9446  0.3958
 6629SOL    HW131520   4.684   2.750   6.339 -2.6580 -1.1535  1.8062
 6629SOL    HW231521   4.654   2.871   6.431 -1.2110  0.0545 -0.3504
 6630SOL     OW31522   0.618   3.972   1.600  0.6857 -0.1070 -0.4803
 6630SOL    HW131523   0.560   3.919   1.655 -0.4801 -0.9571 -2.5703
 6630SOL    HW231524   0.549   4.027   1.564 -0.9326 -1.9727 -0.2288
 6631SOL     OW31525   4.159   0.896   6.542  0.2507  0.0602  0.0170
 6631SOL    HW131526   4.162   0.991   6.541  2.2275 -0.0016  0.2721
 6631SOL    HW231527   4.084   0.876   6.486 -1.2123 -2.6264  2.9606
 6632SOL     OW31528   1.998   2.833   6.935  0.5091 -0.2852 -0.0100
 6632SOL    HW131529   2.074   2.775   6.939 -0.2673 -1.3632 -0.9814
 6632SOL    HW231530   1.929   2.772   6.960  1.0363 -1.3706 -1.1829
 6633SOL     OW31531   3.100   1.670   9.103 -0.1921 -0.7015 -0.5350
 6633SOL    HW131532   3.066   1.685   9.191 -2.0761 -0.9884 -1.2212
 6633SOL    HW231533   3.190   1.700   9.121 -0.4988  0.1334 -0.3774
 6634SOL     OW31534   4.431   0.651   3.671 -0.1904 -0.1199  0.2103
 6634SOL    HW131535   4.412   0.616   3.584  1.6945 -1.9580  0.5579
 6634SOL    HW231536   4.339   0.666   3.693 -0.6405 -0.8184 -1.1675
 6635SOL     OW31537   3.859   1.444   5.243  0.3870  0.1561  0.1495
 6635SOL    HW131538   3.928   1.478   5.186 -1.0419  0.5491 -1.3605
 6635SOL    HW231539   3.903   1.458   5.326 -2.0913 -2.5411  1.9154
 6636SOL     OW31540   3.696   1.603   5.923 -0.1433 -0.4702 -0.4128
 6636SOL    HW131541   3.654   1.572   5.843 -0.3231  0.7561 -0.7946
 6636SOL    HW231542   3.783   1.633   5.898 -0.5425  2.2369  1.4191
 6637SOL     OW31543   2.472   1.565  11.342 -1.0257  0.0144  0.2521
 6637SOL    HW131544   2.436   1.647  11.310  2.0283  0.7935 -1.2135
 6637SOL    HW231545   2.483   1.515  11.261 -0.4223  0.9990 -0.2741
 6638SOL     OW31546   1.339   0.962  14.001 -0.0843 -0.5237  0.1938
 6638SOL    HW131547   1.270   1.007  14.050 -0.7533 -1.7412  0.3842
 6638SOL    HW231548   1.341   0.878  14.046 -0.9527 -0.1568  0.9149
 6639SOL     OW31549   0.768   4.603   6.387  0.1609 -0.5865 -0.1639
 6639SOL    HW131550   0.801   4.546   6.457 -0.4414  2.1020  2.2921
 6639SOL    HW231551   0.692   4.554   6.355 -0.5013  0.0227  0.4915
 6640SOL     OW31552   2.661   3.618   9.489  0.0758 -0.5287  0.0978
 6640SOL    HW131553   2.585   3.604   9.546  0.1120  1.5115  0.6599
 6640SOL    HW231554   2.660   3.714   9.485  1.8311 -0.4389  1.6483
 6641SOL     OW31555   1.353   3.698  14.380  0.5143  0.4398  0.4605
 6641SOL    HW131556   1.269   3.707  14.334  0.3912 -1.5852  0.2833
 6641SOL    HW231557   1.342   3.629  14.445 -0.6509  1.5207  1.4133
 6642SOL     OW31558   0.615   3.536   9.602 -0.6011  0.8174 -0.5568
 6642SOL    HW131559   0.527   3.540   9.641  0.4229  4.0462  1.3828
 6642SOL    HW231560   0.642   3.627   9.600 -0.9952  0.9355 -0.4908
 6643SOL     OW31561   4.396   3.743  10.980 -0.4172 -0.1188 -0.2613
 6643SOL    HW131562   4.377   3.800  11.054  0.6570 -0.0992  0.0074
 6643SOL    HW231563   4.491   3.738  10.994 -0.9757 -2.1500  2.8337
 6644SOL     OW31564   4.410   1.566   2.985 -0.3879 -0.2269 -0.0057
 6644SOL    HW131565   4.468   1.518   3.044  0.2825  0.3224 -0.2260
 6644SOL    HW231566   4.323   1.530   3.005 -0.1196 -1.3686 -0.9123
 6645SOL     OW31567   3.188   2.135  12.916 -0.3181  0.0645  0.3612
 6645SOL    HW131568   3.256   2.186  12.872 -0.6856 -0.0274 -0.3239
 6645SOL    HW231569   3.195   2.048  12.876  1.4093  0.1088  0.5854
 6646SOL     OW31570   1.439   1.733   7.328  0.0761 -0.3167 -0.1604
 6646SOL    HW131571   1.502   1.757   7.260  0.1660 -2.3668 -0.7933
 6646SOL    HW231572   1.452   1.806   7.389 -0.2293  1.4130 -2.1585
 6647SOL     OW31573   1.658   1.171   8.548  0.0499 -0.2967  0.1770
 6647SOL    HW131574   1.572   1.142   8.578  0.8250 -1.2306  1.4817
 6647SOL    HW231575   1.655   1.107   8.477 -0.9681 -0.3225  0.2404
 6648SOL     OW31576   4.455   2.338   8.419 -0.1566 -0.1015 -0.1873
 6648SOL    HW131577   4.378   2.386   8.450  1.1508  0.2312  2.5720
 6648SOL    HW231578   4.520   2.407   8.436 -1.1752  0.2519  2.2472
 6649SOL     OW31579   0.990   3.819   7.821 -0.3462 -0.3212 -0.0970
 6649SOL    HW131580   1.006   3.764   7.745  1.7994  2.3050 -1.5471
 6649SOL    HW231581   0.992   3.906   7.781 -0.1432 -0.8377 -1.2060
 6650SOL     OW31582   1.332   0.679   2.317  0.4148  0.3531  0.3528
 6650SOL    HW131583   1.363   0.628   2.392 -0.3513 -0.6236  0.0046
 6650SOL    HW231584   1.347   0.764   2.360 -1.3895  1.5321 -1.3257
 6651SOL     OW31585   1.325   0.837   7.920  0.2299 -0.3193 -0.0557
 6651SOL    HW131586   1.413   0.811   7.895 -0.1599 -0.6809 -1.0247
 6651SOL    HW231587   1.273   0.815   7.843 -0.2674 -1.7104  0.6758
 6652SOL     OW31588   3.566   0.088   9.891 -0.2551  0.4123  0.1473
 6652SOL    HW131589   3.490   0.130   9.931 -1.3027  0.4236 -1.8476
 6652SOL    HW231590   3.575   4.735   9.921 -0.2527  0.5101  0.4408
 6653SOL     OW31591   2.535   3.102   4.329 -0.1918  0.3501 -0.0815
 6653SOL    HW131592   2.488   3.091   4.246  1.8875  0.3935 -1.2496
 6653SOL    HW231593   2.470   3.151   4.380 -0.8452 -0.0105 -0.5685
 6654SOL     OW31594   1.800   1.753   8.397  0.3810  0.5685 -0.1114
 6654SOL    HW131595   1.726   1.806   8.428  1.6528  2.1138  0.2677
 6654SOL    HW231596   1.817   1.699   8.474 -1.6098 -0.9433 -0.7382
 6655SOL     OW31597   1.219   1.483   6.111 -0.0456  0.7808  0.3989
 6655SOL    HW131598   1.172   1.559   6.146 -2.5988 -0.8842  0.6166
 6655SOL    HW231599   1.224   1.502   6.017 -1.1397 -1.5648 -0.1442
 6656SOL     OW31600   3.589   1.978   1.985  0.2394  0.2987 -0.1835
 6656SOL    HW131601   3.662   2.024   2.027  0.6114 -1.6378  1.3533
 6656SOL    HW231602   3.637   1.907   1.943  1.7947  1.0709  0.2800
 6657SOL     OW31603   2.306   4.249   1.475  0.6087  0.6632  0.2529
 6657SOL    HW131604   2.315   4.307   1.551 -0.7725  0.4473  0.5735
 6657SOL    HW231605   2.248   4.187   1.518 -1.5822  0.0901 -3.5518
 6658SOL     OW31606   3.327   4.078   8.950 -0.5381  0.1246  0.0508
 6658SOL    HW131607   3.323   4.012   9.020  3.0291 -0.8621 -0.6392
 6658SOL    HW231608   3.372   4.149   8.996 -0.1322  0.7556 -1.3182
 6659SOL     OW31609   1.039   1.917   2.144  0.0901 -0.2166 -0.2154
 6659SOL    HW131610   1.076   1.863   2.074 -1.0891 -1.1394 -0.1229
 6659SOL    HW231611   1.037   2.011   2.124 -3.5200 -0.0694  0.8517
 6660SOL     OW31612   2.909   1.289   1.229  0.2343 -0.1343 -0.1086
 6660SOL    HW131613   2.855   1.240   1.167  0.5142 -1.6288  0.8071
 6660SOL    HW231614   2.945   1.215   1.278  1.5578  1.7859  1.7808
 6661SOL     OW31615   0.171   3.688  15.059  0.3595  0.6954  0.0081
 6661SOL    HW131616   0.121   3.649  15.131 -0.7950 -1.5758 -2.0103
 6661SOL    HW231617   0.256   3.645  15.052 -0.7792 -1.4028 -1.2836
 6662SOL     OW31618   1.829   0.376   4.286  0.4455  0.2802 -0.3311
 6662SOL    HW131619   1.750   0.322   4.299  0.9296  0.1792  2.1316
 6662SOL    HW231620   1.813   0.459   4.330  0.6001 -0.3888  0.9765
 6663SOL     OW31621   4.198   3.755  13.836  0.3571 -0.4576 -0.3827
 6663SOL    HW131622   4.114   3.743  13.791  0.2165  1.0077 -0.5064
 6663SOL    HW231623   4.160   3.752  13.923 -0.7068  1.3754 -0.7909
 6664SOL     OW31624   4.197   2.004   8.726 -0.0952 -0.1456 -0.8622
 6664SOL    HW131625   4.146   1.932   8.689 -0.8885  0.7799 -1.5587
 6664SOL    HW231626   4.200   2.063   8.651  0.1660  1.4263  0.3969
 6665SOL     OW31627   3.058   0.008  11.653  0.4724 -0.6582 -0.4123
 6665SOL    HW131628   3.033   4.656  11.629 -1.2404  0.3491 -2.2158
 6665SOL    HW231629   3.080   4.737  11.746 -1.2444  1.3735  0.1708
 6666SOL     OW31630   3.698   1.445  12.081 -1.0255  0.0592 -0.1034
 6666SOL    HW131631   3.641   1.411  12.013 -1.5541 -0.0857  0.4132
 6666SOL    HW231632   3.778   1.393  12.072 -1.0999 -0.1592  0.5024
 6667SOL     OW31633   2.795   2.581  13.267 -0.2502  0.2396  0.1879
 6667SOL    HW131634   2.848   2.646  13.221  1.0236  0.0795  1.4609
 6667SOL    HW231635   2.713   2.627  13.249 -0.0940  1.0026  1.4134
 6668SOL     OW31636   0.464   1.442   4.603  0.2845  0.3175 -0.0310
 6668SOL    HW131637   0.458   1.474   4.513 -3.4215  1.4451  0.6131
 6668SOL    HW231638   0.560   1.438   4.600  0.3350  1.4245  0.0859
 6669SOL     OW31639   2.156   1.115   2.005  0.0305  0.2663 -0.6413
 6669SOL    HW131640   2.186   1.167   1.930 -2.3625  2.2184 -0.2300
 6669SOL    HW231641   2.063   1.131   1.994  0.0321  0.1312 -0.8453
 6670SOL     OW31642   1.583   4.481   6.114 -0.5837 -0.1081 -0.0152
 6670SOL    HW131643   1.573   4.576   6.121 -0.1619 -0.0211 -0.6230
 6670SOL    HW231644   1.646   4.450   6.178 -2.7227  0.2484  2.2711
 6671SOL     OW31645   4.390   4.614   8.434  0.0692  0.3909  0.2077
 6671SOL    HW131646   4.336   4.561   8.493  0.3620  1.1485  1.1477
 6671SOL    HW231647   4.435   4.548   8.381 -0.5220 -0.2767  0.5375
 6672SOL     OW31648   3.186   3.547   5.259 -0.1657  0.8248  0.1549
 6672SOL    HW131649   3.151   3.631   5.229 -1.0444  0.1860 -0.6305
 6672SOL    HW231650   3.250   3.577   5.324 -1.9577  0.6680  2.0117
 6673SOL     OW31651   4.614   0.668   7.008 -0.7857 -0.5132 -0.0930
 6673SOL    HW131652   4.686   0.620   7.051 -1.5289 -0.0731  1.6321
 6673SOL    HW231653   4.541   0.630   7.057  0.3589 -0.4822  1.6633
 6674SOL     OW31654   3.120   4.379  17.564 -0.0816 -0.1570  0.1966
 6674SOL    HW131655   3.100   4.379  17.470  0.3529  1.6911  0.0991
 6674SOL    HW231656   3.104   4.469  17.592 -2.0608 -0.7220  0.8856
 6675SOL     OW31657   3.944   2.050   6.327  0.6414 -0.3722  0.0666
 6675SOL    HW131658   3.856   2.035   6.362  0.3642 -1.7175 -1.1943
 6675SOL    HW231659   4.001   2.000   6.386 -1.1424 -1.6018  0.7506
 6676SOL     OW31660   3.103   1.971   1.514 -0.0190  0.2031 -0.2914
 6676SOL    HW131661   3.103   1.946   1.422  0.4601  0.0410 -0.2525
 6676SOL    HW231662   3.102   1.886   1.558  2.1136  1.1608  1.6583
 6677SOL     OW31663   0.797   0.194   7.832  0.4938  0.2221 -0.1345
 6677SOL    HW131664   0.873   0.138   7.816  1.2880  1.8262 -1.9655
 6677SOL    HW231665   0.734   0.123   7.817  0.7992  0.0815 -0.7548
 6678SOL     OW31666   0.308   3.012   3.790  0.2984  0.0114 -0.2904
 6678SOL    HW131667   0.220   3.029   3.758  0.5505 -1.3284 -1.7170
 6678SOL    HW231668   0.324   3.090   3.843 -0.2659  0.7963 -1.2631
 6679SOL     OW31669   1.598   3.237  16.172 -0.8091  0.0764  0.6597
 6679SOL    HW131670   1.653   3.228  16.093  0.5265  1.2642  1.4426
 6679SOL    HW231671   1.615   3.328  16.198 -0.4793 -0.3238  1.8332
 6680SOL     OW31672   4.574   4.006   9.344 -0.1594 -0.0260 -0.1492
 6680SOL    HW131673   4.587   3.922   9.386 -2.4365  0.4368  1.5154
 6680SOL    HW231674   4.497   3.995   9.287 -0.6292  1.2836  0.2256
 6681SOL     OW31675   2.830   2.051  12.091  0.2260  0.0442  0.0989
 6681SOL    HW131676   2.758   1.994  12.116 -0.7306  1.4995  0.6284
 6681SOL    HW231677   2.857   2.015  12.007  0.6057 -0.3911  0.4024
 6682SOL     OW31678   2.614   1.185   8.549  0.1379 -0.0307  0.3640
 6682SOL    HW131679   2.524   1.180   8.584 -0.1382  2.2046 -0.0013
 6682SOL    HW231680   2.646   1.140   8.627  0.6177  1.1790  0.8605
 6683SOL     OW31681   0.921   3.484   2.697  0.3242  0.9371 -0.1896
 6683SOL    HW131682   1.005   3.439   2.710  0.7569  1.7693 -0.1108
 6683SOL    HW231683   0.884   3.493   2.785 -0.0365 -0.6456 -0.1799
 6684SOL     OW31684   3.694   2.068  10.666  0.5145  0.9328  0.2937
 6684SOL    HW131685   3.738   2.002  10.720  1.0377  0.8172 -0.2738
 6684SOL    HW231686   3.611   2.020  10.665  0.9124  0.2460 -0.0528
 6685SOL     OW31687   4.178   3.460   5.921 -0.2566  0.0373  0.1691
 6685SOL    HW131688   4.128   3.536   5.947 -0.2379  1.0467 -2.6822
 6685SOL    HW231689   4.112   3.399   5.886 -1.3383  1.3688 -0.0999
 6686SOL     OW31690   1.273   0.547   2.979 -0.4831  0.1937 -0.1757
 6686SOL    HW131691   1.365   0.550   3.004 -1.2750 -1.5557  2.9278
 6686SOL    HW231692   1.280   0.515   2.889 -2.2190  0.5604 -0.4524
 6687SOL     OW31693   1.879   3.129  15.440  0.1570 -0.6708 -0.7529
 6687SOL    HW131694   1.860   3.222  15.457 -1.3041 -1.2767  0.9125
 6687SOL    HW231695   1.950   3.132  15.376  0.3049 -0.4762 -0.5807
 6688SOL     OW31696   3.387   2.521   4.198  0.5336  0.4960  0.0597
 6688SOL    HW131697   3.418   2.611   4.210 -0.3477  1.0512 -1.8477
 6688SOL    HW231698   3.296   2.517   4.229  1.0944  0.2610  1.7131
 6689SOL     OW31699   1.997   3.183   8.653  0.3182  0.1116  0.1931
 6689SOL    HW131700   1.948   3.109   8.619 -1.6377  1.6362 -0.3164
 6689SOL    HW231701   2.079   3.136   8.668  0.5050  0.4296  0.1798
 6690SOL     OW31702   4.679   4.262   2.687 -0.4774 -0.4821  0.1487
 6690SOL    HW131703   4.684   4.197   2.617 -0.3299 -2.1823  1.7471
 6690SOL    HW231704   4.697   4.210   2.765  1.8204  0.8841  0.5222
 6691SOL     OW31705   2.941   3.273   1.184 -0.6926  0.3452 -0.0914
 6691SOL    HW131706   2.997   3.206   1.145  0.1824 -1.2076  3.8653
 6691SOL    HW231707   2.939   3.248   1.276  1.0163  1.0117  0.1447
 6692SOL     OW31708   1.277   4.242   5.095  0.3648 -0.2297  0.1930
 6692SOL    HW131709   1.234   4.172   5.046  0.4510 -0.9843  1.1750
 6692SOL    HW231710   1.199   4.283   5.132 -0.5039 -0.2956 -1.5970
 6693SOL     OW31711   2.633   0.270   5.377  0.1678 -0.0087  0.0801
 6693SOL    HW131712   2.553   0.223   5.353  0.2639 -1.6411  2.9933
 6693SOL    HW231713   2.661   0.304   5.291  4.0662 -1.7085  0.6812
 6694SOL     OW31714   4.534   2.498   5.613 -0.6423  0.0505 -0.3147
 6694SOL    HW131715   4.507   2.476   5.524  1.4042  1.6377 -1.3105
 6694SOL    HW231716   4.600   2.430   5.629 -1.4076 -0.3468  1.1901
 6695SOL     OW31717   2.846   3.687   4.340 -0.4359  0.0523  0.1395
 6695SOL    HW131718   2.930   3.721   4.371 -0.8555  0.7104  0.5509
 6695SOL    HW231719   2.822   3.621   4.405 -1.4927  1.0964  0.7920
 6696SOL     OW31720   0.368   0.803   0.650  0.5146  0.0221 -0.5719
 6696SOL    HW131721   0.454   0.785   0.611  0.0505 -1.6056 -0.8386
 6696SOL    HW231722   0.355   0.886   0.604  1.4684  1.1291  1.1376
 6697SOL     OW31723   2.106   0.666   4.533 -0.9459 -0.6209 -0.2922
 6697SOL    HW131724   2.173   0.709   4.586 -2.2272  2.0772 -0.8439
 6697SOL    HW231725   2.159   0.635   4.460  0.5619  1.4908 -0.0860
 6698SOL     OW31726   3.718   2.357  11.921  0.0432 -0.1831  0.2042
 6698SOL    HW131727   3.636   2.360  11.970 -0.0198  1.2335 -0.0015
 6698SOL    HW231728   3.783   2.367  11.989  2.5092  0.9418 -2.3211
 6699SOL     OW31729   3.780   2.980   3.985 -0.2620  0.0040 -0.9189
 6699SOL    HW131730   3.731   2.956   3.907  0.9958 -1.2120 -1.3399
 6699SOL    HW231731   3.767   2.900   4.035  1.3051  0.2119 -0.1490
 6700SOL     OW31732   4.714   1.616   9.320  1.3369 -0.4131  0.2229
 6700SOL    HW131733   4.678   1.704   9.330 -2.5558 -1.9656 -0.1635
 6700SOL    HW231734   4.677   1.576   9.398  2.3280  0.5378  1.1794
 6701SOL     OW31735   0.928   2.144   4.629  0.3667  0.1220  0.1292
 6701SOL    HW131736   0.921   2.199   4.707  0.4677  2.2527 -1.3742
 6701SOL    HW231737   1.000   2.179   4.576  0.3644  0.7047  0.5147
 6702SOL     OW31738   2.940   3.526   5.475 -0.0996  0.3219  0.2104
 6702SOL    HW131739   3.000   3.591   5.440  0.9422 -0.0655  1.2904
 6702SOL    HW231740   2.869   3.578   5.513 -0.2583 -1.8631  2.8791
 6703SOL     OW31741   3.747   2.421  11.646  0.0424  0.2339  0.0704
 6703SOL    HW131742   3.743   2.403  11.740 -2.1352 -2.1768 -0.4783
 6703SOL    HW231743   3.658   2.453  11.630  0.2083  1.9510  2.5541
 6704SOL     OW31744   0.816   0.922   4.222  0.2318 -0.5531  0.1327
 6704SOL    HW131745   0.739   0.883   4.264 -1.1062 -0.5383 -2.3286
 6704SOL    HW231746   0.772   0.990   4.172  0.9799  2.5949  3.7642
 6705SOL     OW31747   4.103   1.651  16.776 -0.0119  0.6962 -0.3196
 6705SOL    HW131748   4.124   1.724  16.835  4.2742 -0.6796 -0.1221
 6705SOL    HW231749   4.018   1.632  16.816  0.5496 -0.7389  0.2052
 6706SOL     OW31750   3.320   4.548   4.449 -0.0346 -0.0833 -0.5542
 6706SOL    HW131751   3.275   4.592   4.521  0.2696 -0.8837  0.1237
 6706SOL    HW231752   3.246   4.492   4.424  1.5044 -2.2570 -0.2347
 6707SOL     OW31753   3.987   2.512   9.168 -0.1647  0.6524  0.1629
 6707SOL    HW131754   3.911   2.453   9.163  1.0710 -0.7900 -1.4810
 6707SOL    HW231755   4.016   2.492   9.257 -1.7130 -2.7358 -0.0891
 6708SOL     OW31756   2.403   2.283  17.103 -0.2228 -0.2040  0.0535
 6708SOL    HW131757   2.423   2.208  17.047  0.9909 -0.3579  0.6902
 6708SOL    HW231758   2.481   2.336  17.087 -1.7914  1.9677 -0.3772
 6709SOL     OW31759   1.931   1.328   7.276  0.5721  0.5646  0.2554
 6709SOL    HW131760   1.890   1.362   7.355 -1.9298 -1.3520 -0.2084
 6709SOL    HW231761   2.016   1.306   7.313 -0.1332  1.1688  2.2294
 6710SOL     OW31762   0.186   4.671   0.819 -0.0342  0.6421  0.4953
 6710SOL    HW131763   0.232   0.018   0.826 -1.8223  1.6540  0.1953
 6710SOL    HW231764   0.095   4.695   0.802  0.2105  1.8109  0.8328
 6711SOL     OW31765   2.871   3.773  15.882  0.0107 -0.1117  0.2759
 6711SOL    HW131766   2.929   3.799  15.954  2.0229  1.8580 -2.0854
 6711SOL    HW231767   2.808   3.718  15.930 -1.1709  0.5997 -0.4539
 6712SOL     OW31768   1.792   4.562   5.790 -0.1777  0.0348 -0.4993
 6712SOL    HW131769   1.726   4.632   5.790 -0.9911 -0.7428  0.3037
 6712SOL    HW231770   1.868   4.608   5.755  0.0994  0.0864  0.1816
 6713SOL     OW31771   4.257   4.165   4.712 -0.2646  0.0776  0.6130
 6713SOL    HW131772   4.218   4.149   4.798 -1.7140 -0.3535 -0.1239
 6713SOL    HW231773   4.347   4.141   4.735 -1.2483 -0.9653  3.3948
 6714SOL     OW31774   1.200   4.679   9.235  0.2961  0.6585  0.3119
 6714SOL    HW131775   1.259   4.607   9.256  1.0147  1.9671  2.6706
 6714SOL    HW231776   1.124   4.664   9.292  0.3116  0.8865  0.3908
 6715SOL     OW31777   3.879   2.692   5.774 -0.8299  0.1305  0.2496
 6715SOL    HW131778   3.931   2.663   5.849 -0.2608  0.6164  0.0431
 6715SOL    HW231779   3.814   2.622   5.770  0.8426 -1.4826  1.0659
 6716SOL     OW31780   4.255   0.079  14.895  0.1218  0.0256  0.4720
 6716SOL    HW131781   4.195   0.140  14.851  1.2794  1.2876  0.6612
 6716SOL    HW231782   4.207   0.039  14.968  0.6013 -0.2789  0.6210
 6717SOL     OW31783   0.631   0.090   6.162  0.1863 -0.1704 -0.1216
 6717SOL    HW131784   0.651   4.734   6.150 -0.9657 -0.8754  3.2950
 6717SOL    HW231785   0.697   0.142   6.116 -0.1243  0.9398  0.6766
 6718SOL     OW31786   3.932   0.877   5.264 -0.3885  0.2077  0.0332
 6718SOL    HW131787   3.935   0.958   5.214  3.0699  2.5030  4.0408
 6718SOL    HW231788   3.904   0.818   5.193  0.1432  0.5588 -0.4685
 6719SOL     OW31789   2.479   3.211   7.167  0.1776 -0.2519 -0.3630
 6719SOL    HW131790   2.557   3.176   7.123 -0.6836 -0.5489 -1.6363
 6719SOL    HW231791   2.484   3.152   7.241  3.0111 -1.3950 -1.4659
 6720SOL     OW31792   0.201   2.871  10.140  0.1401 -0.0121 -0.0060
 6720SOL    HW131793   0.286   2.893  10.103  0.5024  0.8978  1.3409
 6720SOL    HW231794   0.156   2.955  10.133  1.6354  0.6752 -1.4572
 6721SOL     OW31795   2.713   0.978   3.894  0.1636  0.2818  0.3514
 6721SOL    HW131796   2.731   0.913   3.962  0.5745 -1.7999 -1.7491
 6721SOL    HW231797   2.776   1.049   3.906  1.7956 -1.2302  0.7902
 6722SOL     OW31798   0.576   0.768  11.168 -0.5693  0.7196 -0.1401
 6722SOL    HW131799   0.664   0.804  11.161  0.4027 -1.5261  0.3726
 6722SOL    HW231800   0.555   0.765  11.075  1.5387  0.8555 -0.6279
 6723SOL     OW31801   0.222   4.403   8.045 -0.0060 -0.7809  0.2590
 6723SOL    HW131802   0.258   4.314   8.041  0.0188 -0.8072  1.0511
 6723SOL    HW231803   0.296   4.457   8.070 -0.3171  0.2374 -1.0279
 6724SOL     OW31804   0.874   2.560   7.078 -0.1984  0.0315  0.0339
 6724SOL    HW131805   0.795   2.537   7.028  0.8091 -0.2103 -1.4750
 6724SOL    HW231806   0.866   2.655   7.079  1.7720  0.2426 -1.7941
 6725SOL     OW31807   3.220   2.889   1.189  0.3338  0.5795  0.2237
 6725SOL    HW131808   3.199   2.961   1.249  0.3813  1.9528 -1.3984
 6725SOL    HW231809   3.304   2.913   1.151  0.9670 -0.9757  0.6333
 6726SOL     OW31810   4.291   3.838  12.857 -0.3439  0.4857  0.4990
 6726SOL    HW131811   4.221   3.902  12.869  0.0839  0.7829  1.4892
 6726SOL    HW231812   4.304   3.804  12.946 -1.8751  0.1900  0.6056
 6727SOL     OW31813   4.155   2.807   0.311  0.0505 -0.0539  0.3677
 6727SOL    HW131814   4.100   2.835   0.238 -0.0189 -0.3642  0.2996
 6727SOL    HW231815   4.149   2.711   0.308 -1.8748 -0.0154  2.4175
 6728SOL     OW31816   1.801   2.981  15.675 -0.7127  0.3803 -0.0165
 6728SOL    HW131817   1.849   2.906  15.641 -0.3942  0.9883 -0.9187
 6728SOL    HW231818   1.805   3.037  15.598  0.3063 -0.4964 -0.5837
 6729SOL     OW31819   1.475   4.124   3.602  0.0419 -0.0445  0.2475
 6729SOL    HW131820   1.534   4.199   3.601  0.8941 -0.6780  2.5398
 6729SOL    HW231821   1.405   4.154   3.544  1.2389 -4.0500 -3.2474
 6730SOL     OW31822   1.863   1.952  16.491  0.1843 -0.3610  0.1149
 6730SOL    HW131823   1.780   1.917  16.522 -0.6564  0.9664 -0.6872
 6730SOL    HW231824   1.830   2.013  16.425  0.9006 -1.6551 -1.4447
 6731SOL     OW31825   4.665   4.422   8.672  0.9749  0.2091  0.1614
 6731SOL    HW131826   4.599   4.356   8.655 -0.6864  1.5831  1.2819
 6731SOL    HW231827   4.671   4.426   8.768 -0.8349  0.4258  0.2700
 6732SOL     OW31828   0.291   1.763  10.070 -0.4487  0.4545  0.6496
 6732SOL    HW131829   0.349   1.692  10.095  0.9243  2.2697  2.6067
 6732SOL    HW231830   0.364   1.825  10.070 -0.1739  0.1273  1.5929
 6733SOL     OW31831   2.694   0.596   7.891  0.1800 -0.5205 -0.1560
 6733SOL    HW131832   2.767   0.563   7.838  1.4564 -0.8570  1.8048
 6733SOL    HW231833   2.653   0.515   7.923 -1.5188 -0.4879 -2.2525
 6734SOL     OW31834   3.795   2.629   3.446 -0.3542  0.3579 -0.2206
 6734SOL    HW131835   3.840   2.573   3.509 -3.3443  1.2958  2.7906
 6734SOL    HW231836   3.775   2.702   3.505  1.6625  0.1703  0.6867
 6735SOL     OW31837   2.694   2.849   8.121  0.1292 -0.0670 -0.2363
 6735SOL    HW131838   2.731   2.894   8.045  0.8614 -1.5842 -0.7944
 6735SOL    HW231839   2.763   2.784   8.139 -1.3621 -1.2141  1.2657
 6736SOL     OW31840   1.535   1.305   2.115 -0.8583 -0.2588 -0.2413
 6736SOL    HW131841   1.531   1.238   2.184  1.8630  0.5357  0.6539
 6736SOL    HW231842   1.441   1.316   2.097 -0.7025 -1.0514 -1.5339
 6737SOL     OW31843   1.614   3.316   0.121 -0.0192  0.1034  0.1714
 6737SOL    HW131844   1.543   3.323   0.185  1.8236  3.4143  1.8170
 6737SOL    HW231845   1.607   3.222   0.103 -0.3113 -0.3014  2.3782
 6738SOL     OW31846   2.784   1.272  16.548 -0.2606  0.5016 -0.1093
 6738SOL    HW131847   2.758   1.210  16.617  1.2528 -0.0118 -0.0007
 6738SOL    HW231848   2.715   1.335  16.569 -0.7937 -0.0002 -0.3500
 6739SOL     OW31849   0.455   2.993  17.320 -0.0896 -0.4898  0.5255
 6739SOL    HW131850   0.416   3.004  17.233  1.5118 -3.4162 -0.5702
 6739SOL    HW231851   0.454   3.086  17.342 -0.7992 -1.0021  2.6464
 6740SOL     OW31852   0.117   4.576   5.657  0.0846 -0.4192  0.2780
 6740SOL    HW131853   0.112   4.544   5.747  0.2509 -0.9963  0.0851
 6740SOL    HW231854   0.158   4.498   5.620  0.7479  0.8585 -1.7101
 6741SOL     OW31855   2.698   3.832  17.694 -0.4224 -0.4504  0.1683
 6741SOL    HW131856   2.695   3.845   0.043  2.1002  0.1569  0.1521
 6741SOL    HW231857   2.688   3.921  17.660 -0.5682 -0.1763  0.9248
 6742SOL     OW31858   3.084   1.336   6.819  0.4200 -0.5952 -0.1748
 6742SOL    HW131859   3.152   1.331   6.886 -0.2428  1.5344  0.6763
 6742SOL    HW231860   3.015   1.291   6.869 -1.2681  3.3712  1.1013
 6743SOL     OW31861   3.076   2.089   8.899 -0.1368 -0.0948 -0.3376
 6743SOL    HW131862   3.001   2.047   8.856 -1.5070  1.1002  0.9006
 6743SOL    HW231863   3.142   2.028   8.867 -0.4294 -0.3953 -0.3572
 6744SOL     OW31864   1.371   1.778  12.428 -0.2858 -0.5910  0.4617
 6744SOL    HW131865   1.352   1.871  12.443  0.1521 -0.4706  0.2633
 6744SOL    HW231866   1.291   1.757  12.379 -0.4100  0.7815  0.0793
 6745SOL     OW31867   1.870   0.962  11.251  0.2668  0.1042 -0.6992
 6745SOL    HW131868   1.849   0.928  11.165 -0.3618  0.2576 -0.6051
 6745SOL    HW231869   1.801   0.915  11.297 -0.5629  1.6506 -0.3642
 6746SOL     OW31870   3.002   0.095   9.511 -0.1432 -0.0009  0.0890
 6746SOL    HW131871   3.030   0.151   9.583  0.0412 -1.3450  1.0643
 6746SOL    HW231872   3.062   0.021   9.517 -1.0068 -0.7379 -0.4036
 6747SOL     OW31873   3.175   2.986   0.694  0.0010 -0.1647  0.1699
 6747SOL    HW131874   3.250   2.960   0.641 -0.9992  0.1755 -1.4260
 6747SOL    HW231875   3.192   2.940   0.776  0.4500 -4.3475 -2.2284
 6748SOL     OW31876   0.840   3.027   6.188  0.1187  0.0157  0.6279
 6748SOL    HW131877   0.867   3.112   6.225  0.3342 -0.1276  0.8028
 6748SOL    HW231878   0.757   3.017   6.234 -1.3202 -0.4640 -2.1051
 6749SOL     OW31879   0.313   2.824   1.299  0.0570 -0.5644  0.1091
 6749SOL    HW131880   0.302   2.737   1.337  0.2066 -0.6150  0.0360
 6749SOL    HW231881   0.245   2.878   1.339  2.6025  1.6039  1.4626
 6750SOL     OW31882   1.874   2.024  11.810  0.2015 -0.5067  0.3205
 6750SOL    HW131883   1.799   2.032  11.869  0.3045  0.0421  0.3805
 6750SOL    HW231884   1.831   2.033  11.725 -0.5335 -0.2578  0.7138
 6751SOL     OW31885   1.940   3.825  12.383  0.4171 -0.1890 -0.5750
 6751SOL    HW131886   1.876   3.799  12.317  0.9028 -1.2741 -0.6153
 6751SOL    HW231887   1.951   3.737  12.420 -0.3212 -1.0918 -2.5040
 6752SOL     OW31888   1.400   2.606   8.792 -0.2065  0.3195  0.9260
 6752SOL    HW131889   1.467   2.606   8.724  2.2055  3.0414  3.2723
 6752SOL    HW231890   1.321   2.565   8.758  1.1123 -1.7806  0.3881
 6753SOL     OW31891   3.494   1.387   8.368  0.1692 -0.4100 -0.4834
 6753SOL    HW131892   3.436   1.462   8.376  0.8903  0.2615 -1.5397
 6753SOL    HW231893   3.494   1.356   8.278 -3.5405  1.0614 -0.9923
 6754SOL     OW31894   0.718   4.728   4.726 -0.7601  0.1409  0.5366
 6754SOL    HW131895   0.697   0.073   4.682  1.0154  1.2289  1.7174
 6754SOL    HW231896   0.714   4.669   4.651 -2.8935  1.1089 -0.1021
 6755SOL     OW31897   4.224   3.121   3.850 -0.3395 -0.0117 -0.4012
 6755SOL    HW131898   4.156   3.103   3.915  0.0025 -1.2544 -0.3905
 6755SOL    HW231899   4.201   3.061   3.779 -0.7408 -2.5662  1.8842
 6756SOL     OW31900   1.192   1.522   2.522 -0.0715  0.3508 -0.1973
 6756SOL    HW131901   1.227   1.435   2.500  1.1114  0.7360  0.1343
 6756SOL    HW231902   1.243   1.569   2.456 -0.5377  0.5108 -0.4417
 6757SOL     OW31903   1.002   0.738  11.508 -0.5181  0.1767  0.2372
 6757SOL    HW131904   0.936   0.691  11.457 -1.0665  0.2491  0.8803
 6757SOL    HW231905   1.044   0.661  11.546 -0.3781 -0.9838 -2.2981
 6758SOL     OW31906   0.655   4.196   9.117  0.1536 -0.0737 -0.3499
 6758SOL    HW131907   0.740   4.182   9.078  1.8916  2.4150  2.4972
 6758SOL    HW231908   0.661   4.125   9.181 -1.9282  0.3746  0.3791
 6759SOL     OW31909   2.426   1.660   7.682 -0.6015 -0.0644 -0.4695
 6759SOL    HW131910   2.384   1.574   7.680  0.2171 -0.4128 -2.4905
 6759SOL    HW231911   2.355   1.720   7.660  0.3386  1.2326  0.0697
 6760SOL     OW31912   0.679   4.248  12.381 -0.0038  0.2718 -0.3879
 6760SOL    HW131913   0.675   4.266  12.287  2.8624  0.4188 -0.4928
 6760SOL    HW231914   0.741   4.176  12.386  0.0054  0.2523 -0.7963
 6761SOL     OW31915   2.313   2.789   6.353 -0.6007 -0.0082 -0.3505
 6761SOL    HW131916   2.231   2.838   6.360 -0.4351 -0.1558  2.5666
 6761SOL    HW231917   2.337   2.791   6.446 -0.5601 -2.8607 -0.2829
 6762SOL     OW31918   1.189   1.813   6.582 -0.8679 -0.1828  0.7689
 6762SOL    HW131919   1.141   1.887   6.621 -0.4607  0.9995 -0.9411
 6762SOL    HW231920   1.209   1.759   6.658 -1.0032  0.9615  1.6307
 6763SOL     OW31921   3.541   2.452   6.665  0.0425 -0.0205 -0.9086
 6763SOL    HW131922   3.603   2.525   6.660  0.8288 -0.6909 -0.8914
 6763SOL    HW231923   3.568   2.401   6.589  0.2718 -0.5531 -0.4672
 6764SOL     OW31924   1.394   4.269   2.241  0.2333 -0.3357  0.8365
 6764SOL    HW131925   1.481   4.280   2.204  0.3628 -1.7224  0.7152
 6764SOL    HW231926   1.396   4.177   2.266  0.9348  0.3779  3.3780
 6765SOL     OW31927   2.840   0.968   4.894  0.1577  0.0551 -0.1075
 6765SOL    HW131928   2.853   1.061   4.877 -0.8219  0.3780  0.8476
 6765SOL    HW231929   2.768   0.948   4.835 -1.3123 -2.0721  2.4003
 6766SOL     OW31930   1.105   1.008   4.670 -1.0263  0.4094  0.0919
 6766SOL    HW131931   1.106   0.923   4.628  2.5822 -0.4137  1.8213
 6766SOL    HW231932   1.019   1.048   4.656 -1.4254 -1.0750 -1.5612
 6767SOL     OW31933   2.352   2.085  11.781 -0.3444  0.0597  0.3313
 6767SOL    HW131934   2.323   2.006  11.737  0.5933  0.6810 -1.3869
 6767SOL    HW231935   2.425   2.049  11.830 -0.6519 -1.6782 -0.5098
 6768SOL     OW31936   0.206   1.752   4.991  0.0356  0.3728  0.4927
 6768SOL    HW131937   0.227   1.744   4.898  2.0759 -1.2289  1.1007
 6768SOL    HW231938   0.249   1.836   5.004  1.1959 -0.1914  0.2870
 6769SOL     OW31939   1.643   3.407   6.356 -0.6700 -0.1443  0.1054
 6769SOL    HW131940   1.656   3.500   6.336 -0.9051  0.1442  1.2957
 6769SOL    HW231941   1.728   3.391   6.397 -1.2143  0.6288  1.5159
 6770SOL     OW31942   0.995   3.895   4.445  0.1239  0.2884  0.1490
 6770SOL    HW131943   1.038   3.818   4.480  2.6526  1.5440 -0.2020
 6770SOL    HW231944   1.061   3.913   4.378  0.1153  0.7744  0.2676
 6771SOL     OW31945   1.208   1.930   0.771  0.2076 -0.7733  0.2968
 6771SOL    HW131946   1.212   1.835   0.774  1.6006 -0.6941  0.6047
 6771SOL    HW231947   1.259   1.948   0.692  0.1915 -1.8194  0.0574
 6772SOL     OW31948   0.481   4.185   2.242  0.0496 -0.1294  0.1037
 6772SOL    HW131949   0.448   4.200   2.153 -0.6805 -1.2771  0.1827
 6772SOL    HW231950   0.419   4.233   2.297 -0.0795 -0.3581  0.1562
 6773SOL     OW31951   4.206   4.410  12.929 -0.3104  0.0560 -0.0000
 6773SOL    HW131952   4.147   4.464  12.876 -0.9042  1.0862  1.7127
 6773SOL    HW231953   4.175   4.326  12.893 -1.7008  1.2922 -1.7108
 6774SOL     OW31954   3.808   3.448   9.449  0.6816 -0.2173  0.2156
 6774SOL    HW131955   3.818   3.540   9.422  0.3459 -0.3845 -0.4962
 6774SOL    HW231956   3.779   3.456   9.540 -1.0250  1.7077 -0.4833
 6775SOL     OW31957   1.262   4.699   7.180  0.3455  0.6993 -0.3262
 6775SOL    HW131958   1.249   4.632   7.112  5.8688  1.3686 -2.0055
 6775SOL    HW231959   1.283   0.039   7.128  1.3231  0.1405 -0.7419
 6776SOL     OW31960   2.418   0.523   7.635 -0.1978 -0.3901 -0.5386
 6776SOL    HW131961   2.446   0.522   7.543  0.5848  0.8870 -0.3032
 6776SOL    HW231962   2.452   0.605   7.670  1.7490 -1.0240 -0.9784
 6777SOL     OW31963   0.780   0.725   0.819 -0.2908  0.2920  0.1372
 6777SOL    HW131964   0.704   0.669   0.836 -1.1618  1.2347 -0.6433
 6777SOL    HW231965   0.846   0.703   0.884  0.4394  1.7022 -0.1162
 6778SOL     OW31966   3.982   3.252   3.108  0.1363  0.4209  0.3673
 6778SOL    HW131967   4.068   3.209   3.110  0.5087  1.0448 -2.0562
 6778SOL    HW231968   3.995   3.335   3.153 -0.9155  1.9012 -2.0074
 6779SOL     OW31969   0.698   1.172   7.193 -0.1463 -0.2439 -0.4332
 6779SOL    HW131970   0.734   1.126   7.268  0.4328 -1.5319 -1.4908
 6779SOL    HW231971   0.765   1.239   7.181  1.3993 -1.2322  2.7550
 6780SOL     OW31972   1.908   3.930  12.834 -0.3585  0.5591 -0.1928
 6780SOL    HW131973   1.944   3.867  12.772 -2.8313  0.4272 -1.4809
 6780SOL    HW231974   1.954   4.010  12.809  0.0917  0.4344  0.2280
 6781SOL     OW31975   3.770   4.560   3.454  0.0557  0.6174 -0.3369
 6781SOL    HW131976   3.787   4.492   3.519  1.5740  2.5687  1.3200
 6781SOL    HW231977   3.678   4.571   3.479 -0.4296 -1.5038 -1.2060
 6782SOL     OW31978   1.834   4.552  11.099  0.1030  0.0822 -0.4807
 6782SOL    HW131979   1.923   4.571  11.069  0.0606  1.0789  0.0187
 6782SOL    HW231980   1.788   4.580  11.020 -0.7717  3.9727  1.3966
 6783SOL     OW31981   0.828   2.130   7.627 -0.4391  0.0455  0.2268
 6783SOL    HW131982   0.805   2.223   7.627  0.9422  0.3891  1.2232
 6783SOL    HW231983   0.923   2.134   7.637 -0.4208 -1.2956  0.6361
 6784SOL     OW31984   1.710   3.323   3.085  0.5488  1.4759  0.2741
 6784SOL    HW131985   1.797   3.343   3.120  0.6745 -0.7768  1.2249
 6784SOL    HW231986   1.678   3.411   3.064  1.3453  1.2074 -2.0813
 6785SOL     OW31987   0.919   4.303   9.255  0.5876 -0.0977  0.2397
 6785SOL    HW131988   0.925   4.355   9.176  1.4657 -0.0580  0.3289
 6785SOL    HW231989   0.921   4.375   9.318 -0.5341 -0.6561  0.9238
 6786SOL     OW31990   4.688   2.286   9.134 -0.5232 -0.0240 -0.3280
 6786SOL    HW131991   4.614   2.323   9.086 -0.0763  0.8150 -0.3794
 6786SOL    HW231992   4.648   2.259   9.216 -0.1423  1.7130  0.4213
 6787SOL     OW31993   0.562   4.552   8.852  0.4621  0.6085  0.1939
 6787SOL    HW131994   0.481   4.601   8.838 -0.2193 -0.4488  0.4452
 6787SOL    HW231995   0.619   4.626   8.873  1.4162 -0.2233  0.5252
 6788SOL     OW31996   4.355   1.821   5.663  0.3265 -0.0287  0.3262
 6788SOL    HW131997   4.288   1.856   5.605 -0.3904 -1.0832  0.5129
 6788SOL    HW231998   4.333   1.728   5.661 -1.9321  0.5112  0.8225
 6789SOL     OW31999   3.799   3.234   8.076  0.0257  0.6901  0.8895
 6789SOL    HW132000   3.844   3.193   8.150 -1.8732 -0.4832  1.4084
 6789SOL    HW232001   3.790   3.157   8.020 -0.5174  0.7102  0.9432
 6790SOL     OW32002   2.297   0.117   8.320 -0.4799  0.3403 -0.3274
 6790SOL    HW132003   2.354   0.064   8.376 -1.1620  0.3557  0.3747
 6790SOL    HW232004   2.324   0.093   8.232 -1.3246  0.6994 -0.6823
 6791SOL     OW32005   1.303   0.004  15.822  0.7554 -0.3536  0.2035
 6791SOL    HW132006   1.353   0.081  15.847 -0.1427  0.0411  0.7819
 6791SOL    HW232007   1.284   4.694  15.903 -0.2672 -0.9581 -0.3681
 6792SOL     OW32008   1.203   4.259   9.411 -0.4809 -0.3525  0.1240
 6792SOL    HW132009   1.125   4.255   9.356 -0.0845  1.1047 -0.5450
 6792SOL    HW232010   1.227   4.167   9.420 -0.3008 -0.4792 -1.6116
 6793SOL     OW32011   0.232   4.436  14.704 -0.1602 -0.0167  0.0742
 6793SOL    HW132012   0.242   4.513  14.648  0.6249  0.3847  0.7527
 6793SOL    HW232013   0.317   4.396  14.724 -0.2855 -0.9540 -1.3054
 6794SOL     OW32014   1.008   0.717   7.846 -0.3053  0.2055 -0.8994
 6794SOL    HW132015   0.984   0.775   7.918 -1.0309  0.3757 -1.2759
 6794SOL    HW232016   1.060   0.778   7.794 -2.9891  0.1533 -3.6721
 6795SOL     OW32017   3.160   2.419  17.205 -0.4404  0.4263 -0.6045
 6795SOL    HW132018   3.201   2.431  17.119  1.2224  0.6045  0.2155
 6795SOL    HW232019   3.120   2.333  17.189 -1.2472  1.1091 -2.2396
 6796SOL     OW32020   4.562   3.194   3.694 -0.0132  0.1163  0.5662
 6796SOL    HW132021   4.474   3.212   3.660  0.8811  2.2094 -0.6623
 6796SOL    HW232022   4.624   3.254   3.652  0.4049 -0.3655  0.5026
 6797SOL     OW32023   4.074   3.379   7.742  0.4157 -0.3069 -0.1978
 6797SOL    HW132024   3.997   3.396   7.797  1.0175 -0.8196  0.8117
 6797SOL    HW232025   4.024   3.348   7.667 -1.6622 -1.0380  1.4819
 6798SOL     OW32026   2.766   4.191   2.547  0.5081  0.3084 -0.1266
 6798SOL    HW132027   2.713   4.240   2.484  0.3831  1.2749  0.7528
 6798SOL    HW232028   2.854   4.218   2.520  0.5114 -0.9646 -1.4283
 6799SOL     OW32029   2.094   2.945   6.386 -0.1626 -0.3423 -0.2616
 6799SOL    HW132030   2.029   2.896   6.435  0.0229 -0.4273 -0.1007
 6799SOL    HW232031   2.051   2.980   6.308 -3.5501 -1.4741  1.1000
 6800SOL     OW32032   4.641   2.484   4.368  0.8009 -0.2076 -0.0554
 6800SOL    HW132033   4.713   2.494   4.430 -0.8310  3.4550  1.2652
 6800SOL    HW232034   4.575   2.526   4.424  1.5860  0.5283  0.3071
 6801SOL     OW32035   4.512   0.353   3.171 -0.4867 -0.3233 -0.3299
 6801SOL    HW132036   4.556   0.329   3.089  0.6879  3.8893 -0.9537
 6801SOL    HW232037   4.586   0.361   3.231  1.0033 -0.5354 -2.1135
 6802SOL     OW32038   1.134   4.333  10.102  0.4133 -0.2069  0.8126
 6802SOL    HW132039   1.050   4.325  10.146  0.2968  0.2754  0.6778
 6802SOL    HW232040   1.198   4.377  10.157  1.2602  0.8630 -1.0338
 6803SOL     OW32041   4.172   0.756   4.311 -0.4363  0.2374 -0.1505
 6803SOL    HW132042   4.175   0.785   4.402 -0.7204  0.2122 -0.1337
 6803SOL    HW232043   4.140   0.832   4.263 -2.7930 -2.0836 -2.1936
 6804SOL     OW32044   4.573   0.301   9.700 -0.2119 -0.3775  0.0100
 6804SOL    HW132045   4.641   0.282   9.764  0.5221  0.2187 -0.5882
 6804SOL    HW232046   4.549   0.385   9.738  1.5085  0.2654 -0.2993
 6805SOL     OW32047   2.256   2.313   1.960  0.4509  0.4493  0.0721
 6805SOL    HW132048   2.232   2.367   1.885 -0.0262 -0.1094 -0.1813
 6805SOL    HW232049   2.174   2.263   1.962  0.8998 -0.2341  1.3179
 6806SOL     OW32050   3.113   0.763   1.131 -0.1443 -0.1212 -0.4070
 6806SOL    HW132051   3.195   0.806   1.156  0.1557 -0.3341 -0.9995
 6806SOL    HW232052   3.118   0.683   1.183  1.7122 -0.2087 -0.7130
 6807SOL     OW32053   1.859   3.708   5.835  0.3682 -0.5090  0.1883
 6807SOL    HW132054   1.832   3.782   5.782 -0.8530 -0.9973  0.1260
 6807SOL    HW232055   1.848   3.765   5.911  1.8175  0.7824 -0.5755
 6808SOL     OW32056   0.778   1.224   6.657 -0.1133  0.2101 -0.5408
 6808SOL    HW132057   0.770   1.319   6.667 -0.1222  0.2595 -1.0101
 6808SOL    HW232058   0.819   1.202   6.740  1.3076  1.1609 -0.9900
 6809SOL     OW32059   3.426   1.794   3.402  0.2717 -0.1306 -0.2020
 6809SOL    HW132060   3.377   1.712   3.393  2.2641 -1.4086  0.7524
 6809SOL    HW232061   3.491   1.764   3.339 -0.1261 -2.1121  0.3215
 6810SOL     OW32062   1.248   3.200  12.260 -0.2528  0.1145  0.5939
 6810SOL    HW132063   1.205   3.286  12.262 -0.8881 -0.1811 -0.5362
 6810SOL    HW232064   1.173   3.142  12.243 -0.0193  0.2978 -1.0229
 6811SOL     OW32065   2.811   2.970   8.545 -0.5803 -0.6594  0.6387
 6811SOL    HW132066   2.904   2.958   8.562 -0.7809  0.1598  2.2522
 6811SOL    HW232067   2.814   3.041   8.480  1.0723 -1.6394 -0.3633
 6812SOL     OW32068   2.617   1.275   5.167  0.6336 -0.2926  0.6387
 6812SOL    HW132069   2.596   1.214   5.238  0.3083  0.5284  1.2439
 6812SOL    HW232070   2.531   1.296   5.131  1.1019  2.2203  1.0028
 6813SOL     OW32071   1.817   3.572   8.582  0.0386  0.1448  0.2185
 6813SOL    HW132072   1.869   3.640   8.625 -0.3979  1.2244 -0.9542
 6813SOL    HW232073   1.880   3.500   8.585  0.9871  0.9086 -1.5358
 6814SOL     OW32074   1.756   3.868   9.591 -0.4112  0.4373  0.3987
 6814SOL    HW132075   1.778   3.823   9.672 -0.2549  0.5793  0.4358
 6814SOL    HW232076   1.677   3.819   9.570 -0.4515  0.6708 -0.0148
 6815SOL     OW32077   2.006   1.335  13.480 -0.0926 -0.2637 -0.2002
 6815SOL    HW132078   2.057   1.338  13.399  1.6130 -0.4209  0.8523
 6815SOL    HW232079   2.001   1.428  13.501  1.5568 -0.7227  2.2357
 6816SOL     OW32080   3.850   2.147   8.362 -0.4377 -0.0921 -0.3282
 6816SOL    HW132081   3.861   2.100   8.445 -1.6757 -0.1212 -0.1767
 6816SOL    HW232082   3.795   2.222   8.385 -2.4625 -1.6421 -0.0908
 6817SOL     OW32083   2.309   2.757   1.159 -0.3371 -0.3468  0.1102
 6817SOL    HW132084   2.357   2.686   1.115 -0.1439 -0.2418  0.1529
 6817SOL    HW232085   2.367   2.827   1.129  0.3996 -0.3080  1.6428
 6818SOL     OW32086   0.952   2.462  17.612  0.1355 -0.1751  0.7062
 6818SOL    HW132087   0.938   2.497  17.524 -1.7563  2.8944  2.1924
 6818SOL    HW232088   0.869   2.490  17.652  0.6118  0.6191  1.1323
 6819SOL     OW32089   0.263   1.819   6.216 -0.0700  0.1449  0.1895
 6819SOL    HW132090   0.217   1.813   6.300 -2.3728 -0.7614 -1.1095
 6819SOL    HW232091   0.181   1.827   6.166 -1.1254  0.5784  1.9911
 6820SOL     OW32092   1.690   3.539  16.947 -0.5451 -0.1695 -0.2443
 6820SOL    HW132093   1.720   3.472  17.007 -3.6151 -0.2068  1.2457
 6820SOL    HW232094   1.731   3.619  16.981  0.2495 -1.8502  2.6892
 6821SOL     OW32095   0.271   3.377   7.985 -0.4610  0.6416 -0.1485
 6821SOL    HW132096   0.187   3.331   7.996 -0.7874  0.9826 -1.1579
 6821SOL    HW232097   0.304   3.358   8.072  1.1864 -0.9786 -1.1148
 6822SOL     OW32098   2.064   4.218   4.881  0.1298 -0.3495  0.0842
 6822SOL    HW132099   2.094   4.181   4.964  0.2160 -3.8303 -1.5074
 6822SOL    HW232100   1.969   4.225   4.888  0.1273  0.9088 -1.1131
 6823SOL     OW32101   0.120   4.109   4.640 -0.2316 -0.5391  0.6735
 6823SOL    HW132102   0.115   4.075   4.551 -0.4623  2.5136 -0.4706
 6823SOL    HW232103   0.162   4.036   4.686  0.9338  1.0956  2.1915
 6824SOL     OW32104   2.578   3.802  15.200 -0.0567  0.3968  0.1555
 6824SOL    HW132105   2.563   3.836  15.111  1.2676  0.3058 -0.0992
 6824SOL    HW232106   2.612   3.878  15.247  2.5721  0.4589 -1.8499
 6825SOL     OW32107   2.534   0.879  16.554 -0.4117 -0.2942  0.4200
 6825SOL    HW132108   2.491   0.883  16.469 -1.6321 -1.0217  1.0153
 6825SOL    HW232109   2.608   0.939  16.541 -1.1525  1.0385  2.2485
 6826SOL     OW32110   1.408   1.441  16.201  0.5137 -0.5302  0.0874
 6826SOL    HW132111   1.330   1.470  16.247  0.7830  0.2932  0.0257
 6826SOL    HW232112   1.457   1.394  16.269  0.1446  0.0632  0.7633
 6827SOL     OW32113   0.585   0.544   0.845 -0.1092  1.0169  0.0442
 6827SOL    HW132114   0.494   0.529   0.873  0.3625  1.7637  2.0116
 6827SOL    HW232115   0.609   0.459   0.881  2.0689  1.7002  0.1718
 6828SOL     OW32116   1.227   3.317   8.341 -0.4449  0.0411 -0.3762
 6828SOL    HW132117   1.292   3.361   8.396 -2.3965  0.6334  1.4833
 6828SOL    HW232118   1.185   3.389   8.293 -0.4558  0.3692  0.1254
 6829SOL     OW32119   2.158   3.369   4.866 -0.2505 -0.1388  0.2109
 6829SOL    HW132120   2.122   3.295   4.914 -5.5902  1.9002 -0.6313
 6829SOL    HW232121   2.093   3.440   4.870  0.1562  0.2312  0.2284
 6830SOL     OW32122   1.883   0.684   4.848  0.0558  0.0397 -0.0739
 6830SOL    HW132123   1.886   0.708   4.941  1.2830  1.4193 -0.4853
 6830SOL    HW232124   1.863   0.771   4.815  2.0107  1.0376  1.3892
 6831SOL     OW32125   4.727   0.127  11.808  0.3041 -0.2573  0.1256
 6831SOL    HW132126   0.080   0.153  11.790 -0.6241  2.8641 -0.0791
 6831SOL    HW232127   4.676   0.198  11.769 -0.3931 -0.5692  0.4477
 6832SOL     OW32128   3.704   2.450   7.189  0.2502 -0.3936 -0.5155
 6832SOL    HW132129   3.682   2.365   7.151 -3.6988  1.1106 -1.6487
 6832SOL    HW232130   3.762   2.484   7.121  0.3219  0.3842 -0.0584
 6833SOL     OW32131   0.627   3.719   4.357 -0.1795  0.2300  0.6341
 6833SOL    HW132132   0.668   3.805   4.356  2.0470 -0.8325  1.6713
 6833SOL    HW232133   0.571   3.738   4.432  1.6538 -1.1421  2.3566
 6834SOL     OW32134   1.179   2.008  12.660  0.2465  0.1315 -0.3242
 6834SOL    HW132135   1.245   1.967  12.716 -1.9690  1.0841  2.9863
 6834SOL    HW232136   1.100   1.963  12.692 -0.4081  1.8850  0.4933
 6835SOL     OW32137   2.231   2.697   6.955  0.3260 -0.3722  0.2223
 6835SOL    HW132138   2.321   2.719   6.978  0.6677 -2.7521  1.1306
 6835SOL    HW232139   2.231   2.668   6.864  1.4524 -2.4106  0.8703
 6836SOL     OW32140   1.594   2.143   2.774  0.2706  0.2634  0.0877
 6836SOL    HW132141   1.630   2.055   2.773 -1.4133 -0.4349  0.6952
 6836SOL    HW232142   1.505   2.128   2.741  0.6102  0.8484 -1.0950
 6837SOL     OW32143   2.733   1.368   2.603  0.0342  0.3797 -0.6202
 6837SOL    HW132144   2.775   1.451   2.580  1.5500 -0.2213 -0.0250
 6837SOL    HW232145   2.806   1.310   2.625  2.2689  3.3225 -0.3123
 6838SOL     OW32146   0.681   1.444   2.901  0.6997  0.5839 -0.1005
 6838SOL    HW132147   0.722   1.364   2.868 -0.4288 -0.7261  1.6421
 6838SOL    HW232148   0.757   1.502   2.893 -0.3246  1.7182 -1.7029
 6839SOL     OW32149   1.039   2.367   5.723  0.0106  0.2426  0.2590
 6839SOL    HW132150   0.947   2.395   5.730 -0.7651 -2.9426  2.5458
 6839SOL    HW232151   1.035   2.367   5.627 -0.3328 -0.4322  0.2748
 6840SOL     OW32152   4.200   4.205   6.750 -0.0112 -0.0007 -0.3919
 6840SOL    HW132153   4.243   4.228   6.668 -0.5654  0.6223 -0.5098
 6840SOL    HW232154   4.192   4.290   6.794  1.1687  0.3238 -0.7846
 6841SOL     OW32155   2.691   1.787   6.580  0.2403  0.5288 -0.2006
 6841SOL    HW132156   2.662   1.875   6.605  2.1825  0.8563  0.8743
 6841SOL    HW232157   2.693   1.789   6.485 -0.6176  3.9529 -0.1729
 6842SOL     OW32158   0.717   3.798  17.734 -0.4363  0.2869 -0.3160
 6842SOL    HW132159   0.740   3.804  17.641 -2.2953  1.5418 -0.6929
 6842SOL    HW232160   0.748   3.883   0.019 -1.6359 -0.3495  2.6084
 6843SOL     OW32161   3.487   1.829  14.073 -0.4338 -0.4246 -0.2830
 6843SOL    HW132162   3.564   1.881  14.049 -2.0943  2.0104 -0.3988
 6843SOL    HW232163   3.417   1.870  14.021 -1.1040  0.0462  0.9835
 6844SOL     OW32164   1.397   3.169   9.392  0.3053  0.8941  0.2280
 6844SOL    HW132165   1.377   3.172   9.486  0.2469  1.7704  0.1858
 6844SOL    HW232166   1.467   3.105   9.405 -0.0756  0.3839 -0.2598
 6845SOL     OW32167   0.572   1.310   6.989 -0.2452  0.6187 -0.5640
 6845SOL    HW132168   0.569   1.401   7.016 -0.9941  0.0269  1.3318
 6845SOL    HW232169   0.609   1.263   7.064  2.0684 -0.1935 -2.2145
 6846SOL     OW32170   4.713   0.724   3.321 -1.1634 -0.0794 -0.6262
 6846SOL    HW132171   4.695   0.772   3.241  2.8191  1.4233 -0.6437
 6846SOL    HW232172   4.673   0.788   3.379 -1.7492 -0.8753 -0.1497
 6847SOL     OW32173   2.756   0.606   7.466 -0.1042 -0.1001 -0.3864
 6847SOL    HW132174   2.672   0.577   7.432  0.0988 -1.2353  0.0800
 6847SOL    HW232175   2.739   0.700   7.479 -1.4396 -0.4223  0.2538
 6848SOL     OW32176   2.354   3.504   6.000  0.1994 -0.5296 -0.1109
 6848SOL    HW132177   2.273   3.476   5.958 -0.1889 -0.6905  0.7491
 6848SOL    HW232178   2.316   3.578   6.046  0.4464 -0.6438  0.2764
 6849SOL     OW32179   3.022   2.977  13.444 -0.3002 -0.2274 -0.4040
 6849SOL    HW132180   2.972   2.910  13.490 -0.4921  0.8191  0.9209
 6849SOL    HW232181   3.016   2.941  13.355  0.3056 -0.0464 -0.5164
 6850SOL     OW32182   0.978   0.551   4.414 -0.1454  0.4142 -0.3903
 6850SOL    HW132183   1.066   0.527   4.386  0.1012  0.2629  0.4947
 6850SOL    HW232184   0.933   0.494   4.352  1.0772 -1.6434  0.6401
 6851SOL     OW32185   2.090   1.128  13.667 -0.3569 -0.2343 -0.2957
 6851SOL    HW132186   2.070   1.191  13.597 -0.8082  2.2759  2.0941
 6851SOL    HW232187   2.150   1.173  13.726 -3.6186  2.0503  1.2509
 6852SOL     OW32188   0.939   3.229   5.557 -0.4528  0.1176  0.0020
 6852SOL    HW132189   1.020   3.198   5.517  0.5129 -0.4716  2.4407
 6852SOL    HW232190   0.889   3.149   5.573  0.0588 -0.3964 -0.9880
 6853SOL     OW32191   0.823   4.514   7.166 -0.3071  0.0782 -0.0696
 6853SOL    HW132192   0.854   4.473   7.247  1.6495 -0.3009 -1.0258
 6853SOL    HW232193   0.729   4.528   7.180 -0.1047  3.4947 -2.2556
 6854SOL     OW32194   4.467   3.706  13.835  0.1030 -0.4255 -0.1378
 6854SOL    HW132195   4.465   3.800  13.817 -1.8032 -0.0892  1.9957
 6854SOL    HW232196   4.375   3.700  13.860  0.4682 -0.9519  1.0320
 6855SOL     OW32197   2.590   2.345   9.017  0.2626  0.1620  0.4197
 6855SOL    HW132198   2.534   2.325   8.942  1.0501 -2.4791  0.5571
 6855SOL    HW232199   2.535   2.420   9.037 -0.0228  0.6031 -2.0042
 6856SOL     OW32200   3.859   0.324   3.818  0.1611 -0.0670  0.1511
 6856SOL    HW132201   3.911   0.298   3.894  0.6652 -0.8285 -0.4446
 6856SOL    HW232202   3.861   0.245   3.763 -0.6576  0.6890 -0.9673
 6857SOL     OW32203   0.598   0.497   0.539  0.2407  0.2518 -0.7514
 6857SOL    HW132204   0.663   0.437   0.503 -0.2918  0.4739 -2.0919
 6857SOL    HW232205   0.637   0.521   0.624  0.1890 -2.0210 -0.0992
 6858SOL     OW32206   3.718   2.658   6.711  0.1215 -0.6053  0.0099
 6858SOL    HW132207   3.798   2.613   6.739  0.2835 -0.1197  0.3428
 6858SOL    HW232208   3.698   2.716   6.784  0.8915 -1.5340  0.9525
 6859SOL     OW32209   1.345   1.317   5.290 -0.1538 -0.3593  0.4617
 6859SOL    HW132210   1.258   1.288   5.262  0.5455 -0.4160 -1.6263
 6859SOL    HW232211   1.314   1.386   5.349  1.8504  1.2698 -0.3628
 6860SOL     OW32212   3.756   4.431   6.630  0.2835 -0.5795  0.4653
 6860SOL    HW132213   3.845   4.459   6.613 -0.3018  1.1252  0.2427
 6860SOL    HW232214   3.771   4.381   6.710  1.1243 -0.7334  0.2044
 6861SOL     OW32215   1.656   0.667   0.615  0.5420 -0.1398  0.1847
 6861SOL    HW132216   1.729   0.644   0.557  0.1178  0.6521 -0.6555
 6861SOL    HW232217   1.612   0.733   0.562  0.9949 -0.9482 -1.1849
 6862SOL     OW32218   4.733   0.567  12.550 -0.2765  0.1411  0.4417
 6862SOL    HW132219   4.687   0.569  12.634  0.2384  0.1177  0.7278
 6862SOL    HW232220   0.084   0.582  12.585 -0.3673 -0.6597  1.0111
 6863SOL     OW32221   2.895   2.530  15.561  0.0854  0.0618 -0.0313
 6863SOL    HW132222   2.899   2.527  15.465 -1.1952 -0.8476 -0.0545
 6863SOL    HW232223   2.888   2.625  15.570  1.4759  0.0772  0.8758
 6864SOL     OW32224   1.534   3.643   8.659  0.4505  0.2801 -0.2558
 6864SOL    HW132225   1.556   3.731   8.689 -1.8316  0.2737  1.3719
 6864SOL    HW232226   1.620   3.603   8.644  0.8493  1.2099 -0.4029
 6865SOL     OW32227   1.064   3.785  11.254 -0.2852 -0.0219  0.4245
 6865SOL    HW132228   1.038   3.710  11.307  0.4244 -2.0192 -2.0603
 6865SOL    HW232229   0.978   3.820  11.233 -0.1142 -0.5156 -1.0637
 6866SOL     OW32230   4.370   2.863   3.903 -0.3052  0.3979  0.4450
 6866SOL    HW132231   4.451   2.853   3.853 -0.2579  0.6379  0.4739
 6866SOL    HW232232   4.327   2.931   3.852 -0.6128  1.9388  2.7572
 6867SOL     OW32233   0.351   2.704   5.376 -0.4471 -0.0230  0.2026
 6867SOL    HW132234   0.262   2.711   5.411  0.2906 -1.2177  2.2769
 6867SOL    HW232235   0.336   2.618   5.337  1.3099  0.3142 -1.2330
 6868SOL     OW32236   2.903   2.396  13.819  0.5487  0.2475 -0.4247
 6868SOL    HW132237   2.859   2.431  13.897  2.3325  0.0748  0.6527
 6868SOL    HW232238   2.976   2.344  13.853  2.5871  0.2116 -4.9274
 6869SOL     OW32239   1.248   2.926  12.434 -0.0107  0.6653  0.0482
 6869SOL    HW132240   1.295   2.951  12.355 -1.5929 -0.4682 -1.2529
 6869SOL    HW232241   1.241   3.008  12.483  0.6752  1.3251 -0.9830
 6870SOL     OW32242   2.433   2.117   1.991  0.2981  0.4714 -0.6387
 6870SOL    HW132243   2.391   2.088   1.909  1.5825 -2.2471 -0.3462
 6870SOL    HW232244   2.387   2.199   2.010 -3.3947 -1.9488  1.0376
 6871SOL     OW32245   4.558   1.978   8.754 -0.0124 -0.3433  0.1439
 6871SOL    HW132246   4.578   2.016   8.840  2.6626  0.6485 -0.9239
 6871SOL    HW232247   4.465   2.000   8.744  0.1324 -0.6960 -1.9019
 6872SOL     OW32248   2.174   2.490   7.392  0.4064  0.3312 -0.5312
 6872SOL    HW132249   2.135   2.416   7.439 -0.9407 -0.4915 -2.9924
 6872SOL    HW232250   2.223   2.524   7.467  0.7868 -1.0314 -0.1592
 6873SOL     OW32251   2.791   3.498   4.552 -0.0392 -0.1421 -0.8355
 6873SOL    HW132252   2.832   3.443   4.619 -2.1072  0.2646  0.7442
 6873SOL    HW232253   2.719   3.539   4.600  2.6659  2.7256  0.7838
 6874SOL     OW32254   0.975   3.839   3.061 -0.2028 -0.5730 -0.1307
 6874SOL    HW132255   0.926   3.780   3.119 -0.0412 -0.6286 -0.0515
 6874SOL    HW232256   0.906   3.864   2.999  1.1098  0.9137 -1.0114
 6875SOL     OW32257   1.119   3.186   3.145  0.3916 -0.2048  0.0112
 6875SOL    HW132258   1.195   3.163   3.092  0.0687 -2.2661  0.4170
 6875SOL    HW232259   1.098   3.104   3.189  0.3190 -0.9102 -1.3240
 6876SOL     OW32260   1.598   4.088  11.549  0.0154  0.6521  0.3200
 6876SOL    HW132261   1.663   4.096  11.618  0.7238  0.5068 -0.3291
 6876SOL    HW232262   1.551   4.171  11.556 -1.5344 -0.1739 -0.2493
 6877SOL     OW32263   1.925   3.784   8.729 -0.2838 -0.2626 -0.1140
 6877SOL    HW132264   1.972   3.769   8.811 -0.6718 -1.7304 -0.1517
 6877SOL    HW232265   2.002   3.810   8.679  0.2441 -0.1997  0.7288
 6878SOL     OW32266   4.672   1.940   6.983  0.3618  0.4836 -0.2900
 6878SOL    HW132267   4.697   2.014   6.927 -1.9153  1.2675 -0.3056
 6878SOL    HW232268   0.019   1.907   7.015 -1.2180 -2.3396  0.9183
 6879SOL     OW32269   3.722   3.266   5.541 -0.1376 -0.2623 -0.5233
 6879SOL    HW132270   3.721   3.181   5.497  1.1265 -0.7935  0.4603
 6879SOL    HW232271   3.686   3.249   5.629 -0.1789 -0.6298 -0.6099
 6880SOL     OW32272   2.240   1.497   5.415 -0.2747 -0.1079  0.4143
 6880SOL    HW132273   2.239   1.513   5.509 -0.4419  1.4475  0.1387
 6880SOL    HW232274   2.320   1.541   5.387 -0.2622 -0.5543 -0.2621
 6881SOL     OW32275   0.444   0.119   9.123  0.2524  0.2651  0.4209
 6881SOL    HW132276   0.413   0.029   9.120  0.2128  0.2844  0.2223
 6881SOL    HW232277   0.538   0.104   9.132  0.7349  3.1902  0.2983
 6882SOL     OW32278   3.182   1.027   1.760 -0.4959  0.2193  0.4557
 6882SOL    HW132279   3.144   0.942   1.780  1.1619 -1.3478 -3.0808
 6882SOL    HW232280   3.237   1.045   1.836 -0.1332 -0.4947  0.3586
 6883SOL     OW32281   0.464   1.578   0.987  0.2078 -0.2826  0.5063
 6883SOL    HW132282   0.464   1.483   0.976 -0.8327 -0.0184 -1.9027
 6883SOL    HW232283   0.382   1.594   0.939  1.2037 -1.0572 -1.4421
 6884SOL     OW32284   1.862   3.703   7.770  0.0337  0.8592 -0.7149
 6884SOL    HW132285   1.768   3.688   7.757 -0.2680  2.6521 -0.5189
 6884SOL    HW232286   1.901   3.656   7.696 -0.0659  0.2985 -0.4102
 6885SOL     OW32287   4.655   1.469  15.333  0.1560 -0.3310  0.1059
 6885SOL    HW132288   4.589   1.522  15.287 -0.9427 -1.4940  0.3312
 6885SOL    HW232289   4.733   1.525  15.335 -1.1948  1.5636 -0.1241
 6886SOL     OW32290   2.285   1.482   4.922 -0.9409 -0.2681  0.0294
 6886SOL    HW132291   2.245   1.441   4.845  1.0172 -0.6373 -0.7979
 6886SOL    HW232292   2.225   1.553   4.943 -0.2262  0.4190 -0.2401
 6887SOL     OW32293   3.356   3.105   4.387  0.6560  0.3036  0.8501
 6887SOL    HW132294   3.304   3.168   4.337 -1.1430 -0.7841  1.3316
 6887SOL    HW232295   3.302   3.078   4.462 -0.2536 -1.3856 -0.4109
 6888SOL     OW32296   3.635   2.227   5.668  0.0855 -0.4961  0.3513
 6888SOL    HW132297   3.553   2.186   5.696  0.6343 -0.1634  2.4654
 6888SOL    HW232298   3.608   2.261   5.583  0.0474 -1.0144  0.1550
 6889SOL     OW32299   1.789   1.408   8.148 -0.0380 -0.4242 -0.4454
 6889SOL    HW132300   1.705   1.443   8.118  0.6918 -0.3604 -2.3881
 6889SOL    HW232301   1.772   1.398   8.242  1.4576 -2.8131 -0.4037
 6890SOL     OW32302   4.642   2.370   3.510 -0.0795 -0.6055  0.5328
 6890SOL    HW132303   4.717   2.351   3.567 -0.1251 -0.5783  0.6017
 6890SOL    HW232304   4.589   2.406   3.581 -0.6780  0.1447 -0.2932
 6891SOL     OW32305   0.367   0.180   7.822 -0.0114  0.0291 -0.8279
 6891SOL    HW132306   0.363   0.177   7.726 -3.8183  2.4727 -0.7616
 6891SOL    HW232307   0.277   0.198   7.850  0.6908  0.7841  0.9190
 6892SOL     OW32308   0.037   1.438   7.842 -0.0381  0.3652 -0.8764
 6892SOL    HW132309   0.058   1.346   7.827 -0.7905  0.0566 -0.0435
 6892SOL    HW232310   4.682   1.420   7.860  0.2866  0.0897  0.5585
 6893SOL     OW32311   0.322   4.226   3.442  0.3050  0.1374  0.1589
 6893SOL    HW132312   0.306   4.140   3.481 -0.7928  0.3750  0.2485
 6893SOL    HW232313   0.237   4.249   3.402  0.8937  0.1981 -1.0528
 6894SOL     OW32314   0.527   3.107   8.074  0.0232  0.0003  0.3812
 6894SOL    HW132315   0.529   3.125   7.980 -3.0570  0.7314  0.4476
 6894SOL    HW232316   0.504   3.014   8.078 -2.9043  0.5951 -2.4497
 6895SOL     OW32317   3.566   0.952   3.059 -0.0398  0.0473 -0.3045
 6895SOL    HW132318   3.598   0.929   2.972  0.6520  0.2310 -0.1008
 6895SOL    HW232319   3.504   0.879   3.061 -1.7236  1.5109  1.5288
 6896SOL     OW32320   1.216   1.351  15.153  0.2687  0.0791 -0.0564
 6896SOL    HW132321   1.297   1.402  15.147 -0.1154  0.5273 -1.5264
 6896SOL    HW232322   1.227   1.296  15.075 -0.6777  0.2045 -0.2713
 6897SOL     OW32323   3.399   1.234  12.407 -0.0665 -0.0628  0.1573
 6897SOL    HW132324   3.344   1.241  12.328  1.0351  2.9447 -0.3664
 6897SOL    HW232325   3.449   1.315  12.396  1.3893 -1.0537 -0.3919
 6898SOL     OW32326   2.285   3.492   1.983  0.8420 -0.3987 -0.2122
 6898SOL    HW132327   2.315   3.582   1.969 -1.9488  0.3179 -1.5120
 6898SOL    HW232328   2.221   3.501   2.054  0.1299  1.8854 -1.1680
 6899SOL     OW32329   0.051   1.194   5.401 -0.0118 -0.3979 -0.0476
 6899SOL    HW132330   0.099   1.156   5.327 -1.9430 -1.4696 -0.7468
 6899SOL    HW232331   4.713   1.234   5.358 -1.3612 -2.7955  0.0615
 6900SOL     OW32332   1.339   0.582   1.359 -0.4525 -0.2259 -0.4067
 6900SOL    HW132333   1.363   0.516   1.424 -0.2527  0.1789 -0.0618
 6900SOL    HW232334   1.402   0.567   1.289  1.3562  0.7734  0.9833
 6901SOL     OW32335   2.060   0.128   5.238 -0.0442  0.1238 -0.4278
 6901SOL    HW132336   2.043   0.169   5.323 -3.3790  0.4384 -1.2498
 6901SOL    HW232337   2.028   0.037   5.240  0.0796  0.1160  1.5117
 6902SOL     OW32338   2.001   4.286   6.855  0.3036 -0.3303  0.0036
 6902SOL    HW132339   1.992   4.209   6.910  0.8782 -0.4544 -0.0791
 6902SOL    HW232340   1.969   4.358   6.910  1.2162  0.4213 -0.4561
 6903SOL     OW32341   3.079   2.234   1.960  0.1288 -0.4301  0.3895
 6903SOL    HW132342   3.161   2.228   1.911 -0.6237 -1.6455 -0.7272
 6903SOL    HW232343   3.048   2.144   1.952 -0.1043 -0.3514  0.3806
 6904SOL     OW32344   4.229   3.832   8.596  0.2341 -0.1096 -0.1559
 6904SOL    HW132345   4.293   3.829   8.668 -0.5231 -2.1422  0.4298
 6904SOL    HW232346   4.164   3.778   8.641  1.2842  0.2581  1.8409
 6905SOL     OW32347   0.345   1.663  17.614 -0.0009 -0.0755 -0.4444
 6905SOL    HW132348   0.374   1.743  17.658  2.8765 -1.1744 -0.3734
 6905SOL    HW232349   0.428   1.645  17.571  0.4321 -0.1772  0.4361
 6906SOL     OW32350   3.574   2.787   2.851  0.3662  0.5569 -0.2738
 6906SOL    HW132351   3.482   2.804   2.834  0.0322 -0.3338  0.7069
 6906SOL    HW232352   3.598   2.752   2.765  1.2364 -0.1067  0.2453
 6907SOL     OW32353   0.243   3.221   1.660 -0.2609 -0.5172  0.3662
 6907SOL    HW132354   0.269   3.212   1.568  0.6428  4.4255  0.1488
 6907SOL    HW232355   0.265   3.314   1.664  0.2466 -0.6270  0.1543
 6908SOL     OW32356   0.072   4.702  14.681 -0.3866 -0.5094  1.1259
 6908SOL    HW132357   0.015   0.012  14.741 -0.3767  0.0855  0.6720
 6908SOL    HW232358   0.048   4.611  14.700 -2.5692 -0.3578 -0.8801
 6909SOL     OW32359   3.293   0.661   2.015  0.2420 -0.3238 -0.1582
 6909SOL    HW132360   3.333   0.701   2.092 -2.1574  1.5233  0.1020
 6909SOL    HW232361   3.355   0.676   1.943  0.3627 -2.2672 -0.4769
 6910SOL     OW32362   0.308   1.429   5.321  0.1732 -0.6073 -0.1909
 6910SOL    HW132363   0.350   1.370   5.259  2.0680  1.4628 -0.9257
 6910SOL    HW232364   0.297   1.371   5.396 -0.8070 -0.8830 -0.5523
 6911SOL     OW32365   3.278   1.279   4.980  0.0710  0.6068 -0.2165
 6911SOL    HW132366   3.272   1.262   5.075  0.3495 -2.1517 -0.6846
 6911SOL    HW232367   3.273   1.188   4.951 -0.1549  1.0089 -1.4065
 6912SOL     OW32368   2.973   2.479  15.804  0.1698 -0.3689 -0.5929
 6912SOL    HW132369   2.950   2.386  15.807 -2.1655  0.2338  0.5806
 6912SOL    HW232370   2.945   2.497  15.715 -2.3312 -1.0105  0.0598
 6913SOL     OW32371   2.555   2.296   6.832 -0.5484 -0.1745 -0.1007
 6913SOL    HW132372   2.520   2.210   6.810 -0.8215 -0.0756 -0.0451
 6913SOL    HW232373   2.480   2.337   6.874 -0.6134  0.1444 -0.5329
 6914SOL     OW32374   4.023   4.440   4.814  0.0030  0.7394  0.0929
 6914SOL    HW132375   3.978   4.356   4.824  0.5588  0.1943 -2.2011
 6914SOL    HW232376   4.035   4.453   4.720 -1.0474  1.3984  0.0403
 6915SOL     OW32377   4.450   4.066   9.652 -0.3562 -0.8668 -0.2015
 6915SOL    HW132378   4.430   3.996   9.713  1.0593  0.2032  1.4949
 6915SOL    HW232379   4.461   4.023   9.567 -1.6051 -1.0049 -0.2917
 6916SOL     OW32380   0.769   2.166   0.147  0.2977 -0.2013  0.2597
 6916SOL    HW132381   0.862   2.181   0.127 -0.0443 -0.5205 -1.6018
 6916SOL    HW232382   0.772   2.135   0.237  0.0466  2.1402  1.0671
 6917SOL     OW32383   2.921   0.702  17.633 -0.8554  0.3640 -0.1148
 6917SOL    HW132384   2.898   0.686  17.725 -0.8497  0.4914 -0.0901
 6917SOL    HW232385   2.829   0.716  17.610 -1.1481 -2.1683 -0.4395
 6918SOL     OW32386   2.520   2.531   4.954 -0.7069  0.5931  0.3098
 6918SOL    HW132387   2.553   2.568   4.872  1.9425 -1.9032  0.2273
 6918SOL    HW232388   2.428   2.510   4.939 -0.4565 -0.7036  0.5536
 6919SOL     OW32389   4.478   2.470  15.832  0.0447 -0.2681  0.2916
 6919SOL    HW132390   4.569   2.445  15.812  0.3912  0.0251  1.5024
 6919SOL    HW232391   4.431   2.396  15.793  0.9487 -0.9447  0.4765
 6920SOL     OW32392   3.262   2.735   8.563 -0.1075  0.3396 -0.0447
 6920SOL    HW132393   3.289   2.652   8.603 -1.6634  0.0275  0.3407
 6920SOL    HW232394   3.172   2.720   8.536  0.1339 -1.6855  0.2432
 6921SOL     OW32395   2.996   3.840   0.177  0.1987  0.2047  0.6221
 6921SOL    HW132396   2.942   3.815   0.252 -0.3596  0.0432  0.1610
 6921SOL    HW232397   3.008   3.756   0.133 -1.9164 -0.1506  0.7454
 6922SOL     OW32398   4.276   0.875   7.723 -0.0845  0.0314 -0.0512
 6922SOL    HW132399   4.251   0.963   7.696 -2.9613 -0.6263  0.4268
 6922SOL    HW232400   4.365   0.870   7.688  0.4302 -0.4719  1.3033
 6923SOL     OW32401   0.892   1.923   7.848  0.4510 -0.1796 -0.8682
 6923SOL    HW132402   0.866   1.954   7.761 -0.6239 -0.3209 -0.5938
 6923SOL    HW232403   0.965   1.983   7.864  1.1970 -1.4868  0.6596
 6924SOL     OW32404   2.990   0.140   9.235  0.3770  0.0791 -0.1276
 6924SOL    HW132405   2.982   0.146   9.330 -0.5658  0.6749 -0.2352
 6924SOL    HW232406   3.079   0.107   9.227 -0.2071 -1.8293  1.1475
 6925SOL     OW32407   2.285   2.758   4.698 -0.5365 -0.2237 -0.0048
 6925SOL    HW132408   2.348   2.709   4.646  0.9820  0.3872  1.2585
 6925SOL    HW232409   2.260   2.821   4.630  1.0368  1.1009  0.6598
 6926SOL     OW32410   0.559   0.645   7.641  0.2590 -0.3313 -0.0794
 6926SOL    HW132411   0.496   0.660   7.571  2.1548  0.1075 -1.6799
 6926SOL    HW232412   0.519   0.574   7.692  0.1414  0.2798  0.6669
 6927SOL     OW32413   2.784   1.505   3.343  0.5355  0.1898 -0.2143
 6927SOL    HW132414   2.701   1.499   3.297 -0.4000 -2.7538  1.8030
 6927SOL    HW232415   2.848   1.535   3.279  0.1305 -3.4017 -2.3220
 6928SOL     OW32416   4.732   3.329  10.996 -0.3911 -0.4865  0.2561
 6928SOL    HW132417   4.701   3.309  10.907  1.5300  0.1827 -0.5742
 6928SOL    HW232418   0.059   3.258  11.007 -0.0218 -0.1484  0.3196
 6929SOL     OW32419   0.038   4.159   8.990 -0.4270 -0.2193  0.1746
 6929SOL    HW132420   0.088   4.111   9.055 -0.1071 -0.2255 -0.0770
 6929SOL    HW232421   0.024   4.240   9.040  0.4215 -2.2588  3.7265
 6930SOL     OW32422   2.329   0.673   8.316  0.2996  0.2770  0.1111
 6930SOL    HW132423   2.251   0.643   8.362  0.4918  0.0404  0.2801
 6930SOL    HW232424   2.302   0.644   8.229  2.8212  1.5256 -1.1094
 6931SOL     OW32425   2.382   3.912   8.891  0.4821 -0.1047  0.0841
 6931SOL    HW132426   2.457   3.893   8.835 -1.1876 -1.7291 -1.6293
 6931SOL    HW232427   2.405   3.887   8.980 -0.4494 -1.6415 -0.1071
 6932SOL     OW32428   4.037   3.531   4.323 -0.1085  0.2666  0.0563
 6932SOL    HW132429   4.130   3.517   4.341  0.5079  3.4962 -0.7046
 6932SOL    HW232430   4.031   3.626   4.324 -1.5152  0.1495  2.4733
 6933SOL     OW32431   2.455   0.074   6.169  0.1385 -0.1825 -0.0771
 6933SOL    HW132432   2.446   4.716   6.176  0.9082 -0.3494 -1.4617
 6933SOL    HW232433   2.539   0.091   6.213  1.0048 -0.0084 -1.8134
 6934SOL     OW32434   4.184   1.424   3.393  0.5315  0.4490 -0.5997
 6934SOL    HW132435   4.221   1.500   3.437 -2.6152  1.0723  0.9913
 6934SOL    HW232436   4.117   1.469   3.341  0.4957  0.1858 -0.7818
 6935SOL     OW32437   2.192   0.507   5.729 -0.2597  0.1163 -0.7836
 6935SOL    HW132438   2.140   0.585   5.749  1.0866  1.3998 -2.2976
 6935SOL    HW232439   2.188   0.504   5.633  2.1838 -1.7052 -0.8296
 6936SOL     OW32440   1.246   3.318   2.105  0.3382 -0.3127 -0.0065
 6936SOL    HW132441   1.212   3.248   2.050 -1.7749  2.2947 -2.0269
 6936SOL    HW232442   1.336   3.320   2.071  0.9191  0.8242  1.5975
 6937SOL     OW32443   3.822   1.463   3.560 -0.1265  0.6057  0.8716
 6937SOL    HW132444   3.876   1.472   3.638 -1.4136 -0.3278  1.8611
 6937SOL    HW232445   3.770   1.384   3.573  0.1293  0.5269  1.4081
 6938SOL     OW32446   1.535   0.583   3.543 -0.5368 -0.1039 -0.2771
 6938SOL    HW132447   1.475   0.635   3.596  0.4344  1.8664 -1.0954
 6938SOL    HW232448   1.482   0.526   3.487 -1.0866 -2.2484  2.4508
 6939SOL     OW32449   1.883   1.877  14.989 -0.1306  0.2162 -0.2721
 6939SOL    HW132450   1.954   1.812  14.990 -1.6410 -1.4092  1.7627
 6939SOL    HW232451   1.829   1.842  14.918  1.6541  3.3813 -3.2049
 6940SOL     OW32452   0.090   2.549   8.968  0.1185 -0.0909 -0.4692
 6940SOL    HW132453   0.054   2.614   9.029 -0.2916 -1.6712  0.9798
 6940SOL    HW232454   0.132   2.490   9.031 -1.3166 -0.9781 -0.3418
 6941SOL     OW32455   1.317   4.151  11.748 -0.3170 -0.3521  0.0341
 6941SOL    HW132456   1.339   4.209  11.674 -0.2940 -2.4392 -1.6042
 6941SOL    HW232457   1.364   4.185  11.824 -1.2771  0.2407  0.3630
 6942SOL     OW32458   4.450   1.618   1.442 -0.1553 -0.3470 -0.0654
 6942SOL    HW132459   4.505   1.675   1.496  2.3089  0.4312 -3.4352
 6942SOL    HW232460   4.514   1.552   1.415 -0.0977 -0.3328  0.0356
 6943SOL     OW32461   0.522   2.936   3.627 -0.6283 -0.4709 -0.7153
 6943SOL    HW132462   0.470   3.001   3.675  0.1549  1.1113 -2.0230
 6943SOL    HW232463   0.552   2.878   3.697  0.4728  0.6477 -0.2673
 6944SOL     OW32464   3.330   3.971  17.007  0.0695  0.0897  0.1268
 6944SOL    HW132465   3.318   4.036  17.075 -0.0042 -2.0772  2.1893
 6944SOL    HW232466   3.398   3.914  17.044 -0.0473 -1.5416 -2.1343
 6945SOL     OW32467   3.835   1.563   6.157 -0.6028  0.3965  0.2662
 6945SOL    HW132468   3.838   1.472   6.129  1.5759  0.2084  1.1005
 6945SOL    HW232469   3.773   1.594   6.091  0.3653 -0.3891 -1.0002
 6946SOL     OW32470   1.832   4.569  15.040 -0.0254 -0.0518 -0.1335
 6946SOL    HW132471   1.903   4.505  15.043  0.6242  0.6517 -0.7036
 6946SOL    HW232472   1.853   4.634  15.107 -2.7701  0.5135  0.2063
 6947SOL     OW32473   0.088   2.807  10.395  0.8633  0.3886 -0.2026
 6947SOL    HW132474   0.078   2.900  10.416 -0.2114  0.5560 -1.4590
 6947SOL    HW232475   0.109   2.802  10.302 -0.8259 -1.6494 -0.4577
 6948SOL     OW32476   3.756   0.690   0.437 -0.3908  0.1299 -0.1429
 6948SOL    HW132477   3.799   0.621   0.386  0.0686  0.6309 -0.4457
 6948SOL    HW232478   3.812   0.689   0.514  0.4960 -1.9474 -0.8384
 6949SOL     OW32479   4.619   0.710   5.350 -0.3279 -0.0668 -0.6751
 6949SOL    HW132480   4.531   0.711   5.311  0.5826  1.3103 -2.7003
 6949SOL    HW232481   4.598   0.701   5.443  0.9918 -2.0752 -0.5830
 6950SOL     OW32482   3.308   3.278  13.146  0.1643  0.5801  0.3512
 6950SOL    HW132483   3.392   3.312  13.180  0.0082  0.7860  0.5344
 6950SOL    HW232484   3.241   3.341  13.173 -0.7934 -0.5926  0.6639
 6951SOL     OW32485   1.285   4.629  15.247 -0.1124  0.8563  0.1069
 6951SOL    HW132486   1.279   4.640  15.152 -2.0791 -2.3569 -0.1388
 6951SOL    HW232487   1.278   4.535  15.262 -0.7758  0.7834 -0.6762
 6952SOL     OW32488   3.490   3.190   0.447  0.0661 -0.5354 -0.2661
 6952SOL    HW132489   3.433   3.115   0.466 -0.7889 -0.1278 -1.2023
 6952SOL    HW232490   3.424   3.244   0.403  0.7078  0.4502 -0.0219
 6953SOL     OW32491   3.636   3.779   8.506 -0.4176  0.0764 -0.2710
 6953SOL    HW132492   3.627   3.704   8.565  0.6324  0.1410 -0.0220
 6953SOL    HW232493   3.637   3.736   8.421 -0.1050  2.2086 -1.3493
 6954SOL     OW32494   2.324   0.729  17.529 -0.4346 -0.4603  0.6006
 6954SOL    HW132495   2.344   0.640  17.500 -2.7654 -0.5558 -0.7607
 6954SOL    HW232496   2.230   0.713  17.541 -0.0827 -3.5229 -0.4556
 6955SOL     OW32497   4.499   1.631   2.725  0.1886  0.1058 -0.3060
 6955SOL    HW132498   4.461   1.577   2.794  3.4080 -1.1521  0.5192
 6955SOL    HW232499   4.481   1.584   2.644  1.4865 -1.2777  0.2136
 6956SOL     OW32500   3.131   3.240   0.565 -0.2043 -0.1817 -0.8972
 6956SOL    HW132501   3.132   3.151   0.601 -0.4594  1.2966  2.8339
 6956SOL    HW232502   3.098   3.225   0.477 -1.9156 -0.8197 -0.1422
 6957SOL     OW32503   1.295   4.112   6.030 -0.1439  0.0013 -0.3365
 6957SOL    HW132504   1.226   4.134   5.967 -0.7811 -1.3272 -0.1095
 6957SOL    HW232505   1.348   4.192   6.026 -0.5181  0.3826  2.0075
 6958SOL     OW32506   3.072   3.847   7.966 -0.1220  0.1889  0.1198
 6958SOL    HW132507   3.018   3.888   7.899 -0.4510  0.5894  0.6354
 6958SOL    HW232508   3.036   3.894   8.041  1.3175  1.0663  0.2570
 6959SOL     OW32509   2.428   0.927   1.103 -0.1909  0.2339  0.0865
 6959SOL    HW132510   2.427   0.936   1.007  1.2077  0.4317  0.0883
 6959SOL    HW232511   2.465   0.844   1.133 -2.1674 -0.3044  1.0207
 6960SOL     OW32512   2.260   2.955  13.463  0.0420  0.1726 -0.0355
 6960SOL    HW132513   2.167   2.938  13.447  0.1527  1.6636 -2.1971
 6960SOL    HW232514   2.281   3.015  13.391 -0.1496 -0.3630 -0.5434
 6961SOL     OW32515   1.868   1.662   2.922 -0.3673 -0.0747  0.3894
 6961SOL    HW132516   1.802   1.665   2.991 -1.8921  2.3584 -1.1665
 6961SOL    HW232517   1.897   1.571   2.920 -2.2357 -0.6640  0.0018
 6962SOL     OW32518   2.565   3.125   5.849  0.0523  0.1425 -0.3272
 6962SOL    HW132519   2.630   3.132   5.780  1.0203 -1.8042  0.3908
 6962SOL    HW232520   2.601   3.173   5.924 -0.2775 -0.6691  0.3479
 6963SOL     OW32521   3.149   4.484   5.311 -0.4797 -0.9244  0.3935
 6963SOL    HW132522   3.182   4.498   5.399  3.0156 -0.8505 -0.9491
 6963SOL    HW232523   3.195   4.553   5.265 -0.7926 -2.2034 -1.8416
 6964SOL     OW32524   0.670   2.955   8.905  0.1718 -0.4048  0.9461
 6964SOL    HW132525   0.651   3.035   8.856  2.1337 -0.4051  0.1736
 6964SOL    HW232526   0.763   2.959   8.927  0.6245  1.0131 -1.2021
 6965SOL     OW32527   1.574   3.574   3.985 -0.2770 -0.1019  1.1467
 6965SOL    HW132528   1.581   3.501   4.047  0.5512  1.8516  3.3673
 6965SOL    HW232529   1.515   3.634   4.031  0.0110  1.5782 -0.6953
 6966SOL     OW32530   4.068   2.632  17.675  0.1089  0.0565 -0.3999
 6966SOL    HW132531   4.088   2.611  17.583 -2.2907  1.2593 -1.1884
 6966SOL    HW232532   4.021   2.551  17.697 -0.0465  1.1107  3.1227
 6967SOL     OW32533   2.303   0.628  12.188  0.1031 -0.1293  0.2763
 6967SOL    HW132534   2.305   0.583  12.272  1.5329 -0.4342  0.0865
 6967SOL    HW232535   2.385   0.676  12.190  0.5116 -0.6877 -2.7843
 6968SOL     OW32536   3.462   4.193  11.979  0.2060 -0.2341  0.1143
 6968SOL    HW132537   3.456   4.214  12.072  1.1503 -0.5430  0.2521
 6968SOL    HW232538   3.554   4.206  11.954 -0.3846  1.2103 -1.3668
 6969SOL     OW32539   3.516   0.783  12.435 -0.1174 -0.2903 -0.8129
 6969SOL    HW132540   3.525   0.858  12.493 -0.4167  0.1330 -1.3101
 6969SOL    HW232541   3.461   0.725  12.488  2.0720 -1.7574 -0.1487
 6970SOL     OW32542   2.189   2.553  12.427 -0.7894 -0.2095  0.0354
 6970SOL    HW132543   2.242   2.530  12.503 -0.4133  0.4428 -0.0302
 6970SOL    HW232544   2.098   2.530  12.447 -0.5580 -0.7681  0.4370
 6971SOL     OW32545   1.493   2.356   8.312 -0.6418  0.6246 -0.1154
 6971SOL    HW132546   1.526   2.383   8.226  0.3944  0.1592  0.1339
 6971SOL    HW232547   1.467   2.266   8.291 -2.4696  1.2368 -0.4505
 6972SOL     OW32548   0.523   1.191   4.433  0.2069 -0.3186 -0.7682
 6972SOL    HW132549   0.589   1.217   4.368  0.7496  0.9938  0.3246
 6972SOL    HW232550   0.510   1.107   4.390 -1.4323  0.0520 -0.9669
 6973SOL     OW32551   1.307   3.027   0.389  0.4592 -0.2801  0.1863
 6973SOL    HW132552   1.316   3.055   0.480 -2.4849  0.3930  0.2679
 6973SOL    HW232553   1.213   3.014   0.375 -0.4084  4.6124  1.3153
 6974SOL     OW32554   1.991   2.545  17.339  0.0171 -0.1137  0.3651
 6974SOL    HW132555   1.898   2.565  17.350 -0.0323 -0.4982  0.6303
 6974SOL    HW232556   2.021   2.632  17.313 -1.8977  1.1771  2.4538
 6975SOL     OW32557   0.248   1.888  14.265  0.1045  0.1858  0.5094
 6975SOL    HW132558   0.289   1.921  14.345  1.3209  0.1858 -0.1231
 6975SOL    HW232559   0.230   1.799  14.297  0.5609 -0.5041 -1.1110
 6976SOL     OW32560   2.114   1.028   4.314 -0.1715 -0.1037  0.1630
 6976SOL    HW132561   2.171   0.972   4.366 -1.5418 -2.1064 -0.4913
 6976SOL    HW232562   2.168   1.106   4.322 -1.5262  0.8043  0.6275
 6977SOL     OW32563   4.451   1.862   3.007 -0.2171  0.4709 -0.1514
 6977SOL    HW132564   4.465   1.890   2.917  1.6268  1.5996  0.5005
 6977SOL    HW232565   4.454   1.767   2.995 -1.7497  0.5229 -0.9569
 6978SOL     OW32566   1.178   1.664   9.608 -0.1615 -0.2028  0.7862
 6978SOL    HW132567   1.240   1.700   9.671  1.5196  1.0457 -1.5634
 6978SOL    HW232568   1.234   1.604   9.559 -0.7796 -1.0016  1.0703
 6979SOL     OW32569   3.552   0.675  14.981  0.2143  0.5334  0.3546
 6979SOL    HW132570   3.478   0.713  15.029 -0.6141 -0.4249 -0.1777
 6979SOL    HW232571   3.576   0.757  14.938  0.8674 -0.0413 -0.3689
 6980SOL     OW32572   2.943   0.680   0.858  0.0956  0.5524  0.1171
 6980SOL    HW132573   2.982   0.703   0.942  0.3736 -0.4239  0.2590
 6980SOL    HW232574   3.000   0.612   0.823 -1.1394  0.2780 -1.3308
 6981SOL     OW32575   2.915   1.199   7.004  0.0984  0.1203 -0.4549
 6981SOL    HW132576   2.822   1.178   6.994 -0.4307  1.4141  1.9621
 6981SOL    HW232577   2.943   1.123   7.056 -0.2111 -0.2654 -0.8487
 6982SOL     OW32578   4.031   1.776   5.200 -0.0034  0.1132 -0.7041
 6982SOL    HW132579   4.092   1.829   5.250 -2.0553 -0.6618  2.6179
 6982SOL    HW232580   4.019   1.706   5.264 -0.2096 -0.3691 -1.2728
 6983SOL     OW32581   4.717   0.168   1.138 -0.7262 -0.2142 -0.1433
 6983SOL    HW132582   0.025   0.085   1.125 -0.2337  0.0824 -0.3314
 6983SOL    HW232583   0.040   0.210   1.199  1.4142 -0.5184 -2.0170
 6984SOL     OW32584   3.089   0.262   9.718 -0.6190 -0.3634  0.2505
 6984SOL    HW132585   2.995   0.251   9.732 -0.5622 -0.5156  0.5099
 6984SOL    HW232586   3.135   0.196   9.770  1.0097  0.6552  0.0944
 6985SOL     OW32587   1.527   3.740   9.554 -0.6614 -0.7470  0.1305
 6985SOL    HW132588   1.438   3.760   9.525 -0.7768 -1.7035 -0.1838
 6985SOL    HW232589   1.532   3.645   9.565  0.4282 -0.8003 -0.8054
 6986SOL     OW32590   0.561   3.969  16.471  0.5782  0.1578  0.6560
 6986SOL    HW132591   0.494   4.023  16.430  2.1191 -0.6684 -2.9478
 6986SOL    HW232592   0.552   3.897  16.409  2.2427  0.2725  0.2780
 6987SOL     OW32593   3.350   2.506   8.671  0.2790 -0.1091  0.0415
 6987SOL    HW132594   3.396   2.424   8.651  2.0740  0.1858  2.9876
 6987SOL    HW232595   3.257   2.485   8.672  0.6852 -1.8488  1.5442
 6988SOL     OW32596   3.516   3.567   2.591  0.0715 -0.4902  0.1528
 6988SOL    HW132597   3.485   3.480   2.566 -1.3355 -0.6974  2.6326
 6988SOL    HW232598   3.434   3.615   2.579  0.5135 -0.0426 -1.1413
 6989SOL     OW32599   0.879   0.270  10.869 -0.8801 -0.0907 -0.5930
 6989SOL    HW132600   0.896   0.181  10.901 -0.0540  0.2721 -0.0120
 6989SOL    HW232601   0.888   0.267  10.774 -1.6045  0.2844 -0.6736
 6990SOL     OW32602   3.027   2.729   7.524  0.2288  0.1777  0.2816
 6990SOL    HW132603   3.068   2.651   7.487 -0.9816  0.2627 -1.2303
 6990SOL    HW232604   3.103   2.784   7.540  0.8160 -0.4320 -0.4191
 6991SOL     OW32605   1.627   2.999   2.863 -0.1176  0.2032 -0.2212
 6991SOL    HW132606   1.714   2.980   2.897  1.0077  4.5138 -0.6389
 6991SOL    HW232607   1.565   2.972   2.931  0.3342  1.0518  0.5209
 6992SOL     OW32608   1.938   3.368   7.704 -0.4922 -0.2063  0.4087
 6992SOL    HW132609   2.018   3.341   7.749  0.3827  1.8604  0.0886
 6992SOL    HW232610   1.987   3.425   7.645 -1.9931  1.4915  0.8301
 6993SOL     OW32611   3.717   2.100   2.976 -0.0541  0.2514  0.0067
 6993SOL    HW132612   3.791   2.160   2.968  0.5249 -0.2959  1.5215
 6993SOL    HW232613   3.669   2.122   2.896  2.2278 -2.4556 -2.1012
 6994SOL     OW32614   2.493   4.405   3.665  0.4115  0.1218 -0.5035
 6994SOL    HW132615   2.525   4.478   3.719  0.1459 -0.1294  0.0018
 6994SOL    HW232616   2.406   4.437   3.642  0.3538 -1.5305 -2.5056
 6995SOL     OW32617   2.569   0.804  12.415 -0.1165  0.2034  0.2846
 6995SOL    HW132618   2.498   0.839  12.469 -0.9888  0.8893 -1.3014
 6995SOL    HW232619   2.643   0.852  12.454 -0.9089 -0.4991  2.6250
 6996SOL     OW32620   3.050   3.179   0.325 -0.1998 -0.1581  0.0735
 6996SOL    HW132621   2.962   3.169   0.289 -0.0477  1.1307 -0.6177
 6996SOL    HW232622   3.099   3.124   0.264 -2.0712  0.3772 -1.8906
 6997SOL     OW32623   3.812   3.231   2.435 -0.5444 -0.3878 -0.0266
 6997SOL    HW132624   3.731   3.253   2.391 -0.6532  1.5813  1.1660
 6997SOL    HW232625   3.844   3.321   2.445 -1.0900 -0.1841 -0.1119
 6998SOL     OW32626   0.708   1.228   4.251  0.1907 -0.5201 -0.8840
 6998SOL    HW132627   0.652   1.213   4.175 -2.5702  0.3876  0.9588
 6998SOL    HW232628   0.790   1.253   4.209  0.8962 -0.6468  0.4200
 6999SOL     OW32629   4.736   3.476   8.935  0.1739  0.0629  0.0312
 6999SOL    HW132630   0.068   3.497   8.998 -0.6917  0.1081  0.9611
 6999SOL    HW232631   0.028   3.388   8.909 -2.0069 -0.6390  0.0149
 7000SOL     OW32632   0.475   3.239   3.536 -0.4869  0.4880 -0.3638
 7000SOL    HW132633   0.408   3.301   3.567  0.0431  1.7326 -1.7177
 7000SOL    HW232634   0.436   3.175   3.476  0.0423  2.0658 -2.3876
 7001SOL     OW32635   0.208   1.794   7.002  0.3404 -0.2563 -0.4832
 7001SOL    HW132636   0.277   1.812   7.066 -0.3494 -1.3691  0.5643
 7001SOL    HW232637   0.241   1.846   6.928 -1.1201 -0.8826 -1.5551
 7002SOL     OW32638   3.704   3.731   4.953 -0.2236  0.2109  0.2566
 7002SOL    HW132639   3.635   3.766   4.897  0.0433  2.6085  1.4418
 7002SOL    HW232640   3.670   3.771   5.033  0.7344 -2.4086  1.9928
 7003SOL     OW32641   1.958   4.489   7.875  0.1428  0.0982  0.7807
 7003SOL    HW132642   2.027   4.451   7.930  1.5939  0.4001 -0.8403
 7003SOL    HW232643   1.961   4.428   7.802 -2.9145  0.5609  0.2923
 7004SOL     OW32644   4.545   1.295  16.510  0.0055  0.3996  0.3295
 7004SOL    HW132645   4.461   1.301  16.556  0.3652 -3.1792  1.4100
 7004SOL    HW232646   4.515   1.326  16.424  0.8246  0.7025  0.1561
 7005SOL     OW32647   0.119   4.450  16.327  0.0144 -0.3416 -0.1526
 7005SOL    HW132648   0.166   4.533  16.332 -2.6695  1.0708  2.0068
 7005SOL    HW232649   0.033   4.470  16.364 -0.7060 -0.0340 -2.0275
 7006SOL     OW32650   3.885   0.584   3.837 -0.0471 -0.2635 -0.3578
 7006SOL    HW132651   3.822   0.601   3.907 -1.4901  0.5613 -1.8645
 7006SOL    HW232652   3.875   0.489   3.830 -3.4648  0.2410 -2.2359
 7007SOL     OW32653   0.337   1.698  13.394  0.2396  0.5878  0.0818
 7007SOL    HW132654   0.391   1.766  13.434  0.4587  0.1984  0.4619
 7007SOL    HW232655   0.389   1.665  13.321  0.9864 -1.4588  1.5303
 7008SOL     OW32656   1.324   0.842   2.634  0.5135  0.9279  0.1157
 7008SOL    HW132657   1.317   0.822   2.727  0.8733  0.9191  0.1387
 7008SOL    HW232658   1.237   0.829   2.596  1.0300  2.1174 -1.4738
 7009SOL     OW32659   4.041   1.849  13.129 -0.1218 -0.0419  0.0856
 7009SOL    HW132660   4.032   1.798  13.210  0.5267 -0.0033  0.1769
 7009SOL    HW232661   3.961   1.900  13.142 -0.2556 -0.3209  0.3472
 7010SOL     OW32662   4.630   2.118  10.565  0.2379 -0.3382  0.5130
 7010SOL    HW132663   4.621   2.035  10.520  1.1208 -0.4757  0.6010
 7010SOL    HW232664   4.549   2.155  10.530  0.4125  0.8836  1.3786
 7011SOL     OW32665   4.200   2.296   6.051  0.5338 -0.4344 -0.0573
 7011SOL    HW132666   4.160   2.317   5.966  0.4336 -1.3460 -0.2401
 7011SOL    HW232667   4.180   2.204   6.070 -1.3591 -0.4362 -2.0079
 7012SOL     OW32668   3.296   0.098   5.566 -0.0650 -0.0766  0.1798
 7012SOL    HW132669   3.238   0.174   5.573 -2.2516 -1.8224  0.8939
 7012SOL    HW232670   3.304   0.068   5.656  1.1028 -0.1411  0.0601
 7013SOL     OW32671   1.628   0.531   1.447  0.0011 -0.0680  0.1570
 7013SOL    HW132672   1.568   0.459   1.467 -2.0169  1.4667 -0.2532
 7013SOL    HW232673   1.688   0.516   1.519 -0.9511  0.0864  0.9856
 7014SOL     OW32674   3.788   2.723   7.709 -0.9111 -0.2452 -0.4180
 7014SOL    HW132675   3.785   2.752   7.800 -1.4435  0.5018 -0.6738
 7014SOL    HW232676   3.723   2.653   7.707 -0.2921 -0.8363  0.3046
 7015SOL     OW32677   0.182   1.535   2.383  0.1360  0.1047 -0.5222
 7015SOL    HW132678   0.140   1.565   2.463  0.4746 -0.2656 -0.2064
 7015SOL    HW232679   0.112   1.559   2.322 -0.5277 -2.4322 -0.7518
 7016SOL     OW32680   0.466   1.797  11.830 -0.1904 -0.4073 -0.3502
 7016SOL    HW132681   0.524   1.863  11.868 -0.8262  1.5612 -2.7317
 7016SOL    HW232682   0.433   1.835  11.748  1.0889 -1.1047 -1.1843
 7017SOL     OW32683   0.019   2.499  16.082  0.4696  0.0516  0.5292
 7017SOL    HW132684   0.086   2.566  16.097 -0.3896  0.7363  1.3542
 7017SOL    HW232685   4.678   2.541  16.121  0.2322  0.3200 -0.2340
 7018SOL     OW32686   2.296   2.960   6.130  0.2206 -0.8432 -0.3829
 7018SOL    HW132687   2.337   2.933   6.048 -1.3635  0.5877 -1.6574
 7018SOL    HW232688   2.329   2.893   6.190 -1.2503 -1.8919 -0.7290
 7019SOL     OW32689   3.327   2.547  11.450 -0.2436  0.1699 -0.2768
 7019SOL    HW132690   3.319   2.607  11.524  1.7354  1.3700 -1.0353
 7019SOL    HW232691   3.265   2.478  11.475 -0.0289  0.1980  0.3516
 7020SOL     OW32692   0.703   1.222   0.454 -0.0491 -0.2565  0.2878
 7020SOL    HW132693   0.642   1.157   0.418  1.0488 -0.8842 -0.4526
 7020SOL    HW232694   0.650   1.299   0.472 -0.0615  0.3735 -2.4055
 7021SOL     OW32695   1.417   0.373   2.416  0.3910  0.2766 -0.4503
 7021SOL    HW132696   1.338   0.387   2.364 -0.2485 -0.2991  0.3765
 7021SOL    HW232697   1.434   0.279   2.414  1.0458  0.3615  1.5165
 7022SOL     OW32698   3.781   3.641   4.492  0.0295  0.4902 -0.0707
 7022SOL    HW132699   3.864   3.651   4.539 -0.8369 -2.5848  2.0968
 7022SOL    HW232700   3.808   3.572   4.432  0.9271  1.0361 -0.3077
 7023SOL     OW32701   2.312   3.494   1.707 -0.3870  0.1436  0.2995
 7023SOL    HW132702   2.240   3.443   1.669 -0.3113 -0.2760  0.7144
 7023SOL    HW232703   2.285   3.491   1.799  0.2597 -0.3692  0.4714
 7024SOL     OW32704   2.372   0.939  13.457  0.2214 -0.6288 -0.2305
 7024SOL    HW132705   2.323   0.858  13.449 -1.0910  0.2237 -0.9488
 7024SOL    HW232706   2.398   0.924  13.548  0.3418  0.9980  0.0092
 7025SOL     OW32707   2.938   2.136   3.775  0.1088  0.1816 -0.5456
 7025SOL    HW132708   2.967   2.161   3.862  0.5129 -0.8153 -0.3880
 7025SOL    HW232709   2.855   2.184   3.773  0.1695  0.2655 -1.0292
 7026SOL     OW32710   1.110   0.437  16.969  0.5211  0.4869  0.2990
 7026SOL    HW132711   1.179   0.430  17.035 -0.2191  2.1832  1.2452
 7026SOL    HW232712   1.061   0.355  16.963 -3.7205  2.9223  1.5537
 7027SOL     OW32713   4.379   0.323   8.550  0.4744  0.2950  0.3429
 7027SOL    HW132714   4.320   0.393   8.521 -0.8306 -0.2687  1.6482
 7027SOL    HW232715   4.460   0.344   8.505  1.1411 -0.9532  0.9746
 7028SOL     OW32716   3.580   2.863   4.677 -0.6892 -0.1566  0.0021
 7028SOL    HW132717   3.635   2.859   4.598 -3.0256  0.2909 -1.6609
 7028SOL    HW232718   3.544   2.951   4.673  1.6584  0.9442  3.2896
 7029SOL     OW32719   3.976   3.957   3.361  0.0280 -0.4267 -0.5963
 7029SOL    HW132720   4.029   3.888   3.402 -1.9011 -1.6919 -0.2315
 7029SOL    HW232721   3.903   3.912   3.318  1.9917 -1.4943 -2.8165
 7030SOL     OW32722   3.564   3.909   3.681 -0.3112  0.4047 -0.4071
 7030SOL    HW132723   3.653   3.937   3.659 -1.1947  1.4726 -2.6531
 7030SOL    HW232724   3.513   3.988   3.699 -0.5765  0.0502  0.3895
 7031SOL     OW32725   3.234   2.793   5.696 -0.5131  0.2426 -0.2211
 7031SOL    HW132726   3.235   2.809   5.790 -0.8635  2.9889 -0.6889
 7031SOL    HW232727   3.248   2.879   5.657  2.8721 -0.8748 -1.4822
 7032SOL     OW32728   1.880   3.189   3.408  0.2676 -0.5910  0.2262
 7032SOL    HW132729   1.920   3.146   3.331 -0.0082  0.9751 -0.7879
 7032SOL    HW232730   1.808   3.131   3.431 -0.6674  0.4284 -0.1613
 7033SOL     OW32731   0.033   3.191   7.750  0.0823 -0.0996  0.1082
 7033SOL    HW132732   4.723   3.270   7.721 -0.5103  0.0280  1.4407
 7033SOL    HW232733   4.694   3.152   7.792 -0.8466  1.6022  0.0043
 7034SOL     OW32734   4.112   3.308  15.852 -0.2569 -0.1230  0.0683
 7034SOL    HW132735   4.144   3.392  15.820 -0.6871 -0.1587 -0.4508
 7034SOL    HW232736   4.032   3.289  15.804 -1.9473  2.1037  2.0020
 7035SOL     OW32737   2.629   2.320  14.219  0.0021 -0.0957  0.3938
 7035SOL    HW132738   2.594   2.240  14.180  0.4466  0.0378 -0.2752
 7035SOL    HW232739   2.690   2.340  14.148 -1.5530 -1.3816 -1.2964
 7036SOL     OW32740   2.729   3.128   7.059 -0.2841  0.2856 -0.0927
 7036SOL    HW132741   2.723   3.118   6.964 -0.4053  0.7123 -0.1310
 7036SOL    HW232742   2.757   3.041   7.088  0.3390  0.6236  0.3005
 7037SOL     OW32743   3.245   0.563   4.361 -0.2488  0.3503  0.4984
 7037SOL    HW132744   3.300   0.501   4.409  0.4175 -0.6683 -1.6154
 7037SOL    HW232745   3.164   0.515   4.347  0.4178 -0.2474 -1.2323
 7038SOL     OW32746   2.236   2.960   3.072  0.3982  0.2918 -0.2587
 7038SOL    HW132747   2.281   2.952   3.156  2.1564  0.2021 -1.1878
 7038SOL    HW232748   2.306   2.972   3.007 -0.0332 -0.2819 -0.8280
 7039SOL     OW32749   0.207   0.858   4.699  0.1707  0.1191  0.0368
 7039SOL    HW132750   0.114   0.867   4.681  0.4110  0.9771 -0.7967
 7039SOL    HW232751   0.207   0.888   4.790  1.9908  0.9187 -0.2271
 7040SOL     OW32752   0.684   1.436   5.282 -0.2674  0.1791 -0.5648
 7040SOL    HW132753   0.611   1.385   5.248 -1.0703  2.4825 -2.2970
 7040SOL    HW232754   0.751   1.397   5.226  1.0795 -0.0426  1.1950
 7041SOL     OW32755   2.691   0.446   6.752 -0.2307 -0.1053 -0.2227
 7041SOL    HW132756   2.656   0.489   6.829  0.2346  0.6032 -0.4145
 7041SOL    HW232757   2.664   0.355   6.764  2.5258 -0.7556  1.1612
 7042SOL     OW32758   1.071   1.260   6.472  0.1885 -0.1806  0.2564
 7042SOL    HW132759   1.146   1.249   6.530 -0.5218 -1.5950  0.9174
 7042SOL    HW232760   1.035   1.344   6.500  0.3372  0.3625 -1.1512
 7043SOL     OW32761   0.386   1.946   5.002  0.0867  0.4720 -0.0089
 7043SOL    HW132762   0.458   1.911   4.950  1.0858 -0.6074  2.1034
 7043SOL    HW232763   0.351   2.025   4.960 -0.5705  1.2423  1.9911
 7044SOL     OW32764   1.410   4.672  10.045  0.4476 -0.6948 -0.0032
 7044SOL    HW132765   1.326   4.712  10.025  0.1178 -0.5260  1.7124
 7044SOL    HW232766   1.431   4.731  10.117  1.8714 -2.0411  0.6973
 7045SOL     OW32767   0.890   0.068   0.899  0.1444 -0.4192 -0.0288
 7045SOL    HW132768   0.942   4.726   0.914  0.4354  0.0754  1.5932
 7045SOL    HW232769   0.920   0.099   0.813  0.2637 -1.6776 -0.4438
 7046SOL     OW32770   1.727   4.708  14.015 -0.3962  0.4111  0.1830
 7046SOL    HW132771   1.739   0.056  14.058  0.5007  1.1594 -1.5177
 7046SOL    HW232772   1.814   4.699  13.976  0.1875  0.6420  1.4462
 7047SOL     OW32773   3.975   1.604   2.788 -0.0520  0.1420 -0.2470
 7047SOL    HW132774   4.000   1.695   2.805  0.7031 -0.1090 -0.0278
 7047SOL    HW232775   3.948   1.576   2.876  1.4729  0.4309  0.3014
 7048SOL     OW32776   2.554   0.260   3.100  0.3671 -0.1159  0.0994
 7048SOL    HW132777   2.482   0.253   3.163  1.6398 -0.1428  1.5590
 7048SOL    HW232778   2.603   0.182   3.125  2.2720  0.8836 -0.4670
 7049SOL     OW32779   3.190   1.081   9.879  0.7734 -0.0370  0.5375
 7049SOL    HW132780   3.283   1.060   9.884  0.5387 -0.5521  2.7825
 7049SOL    HW232781   3.178   1.115   9.790 -0.7249  0.1961  0.8231
 7050SOL     OW32782   2.998   1.699   2.031 -0.1626 -0.1593 -0.1027
 7050SOL    HW132783   2.974   1.671   2.119 -2.6254  0.8422 -0.4643
 7050SOL    HW232784   2.929   1.759   2.003  0.2377 -0.1680 -1.1067
 7051SOL     OW32785   1.800   1.721   3.644  0.2261  0.1492 -0.0663
 7051SOL    HW132786   1.806   1.780   3.570 -2.2694 -0.7835 -1.0174
 7051SOL    HW232787   1.738   1.653   3.618  0.8998 -0.0614 -1.0954
 7052SOL     OW32788   2.971   1.954   7.684 -0.0527 -0.0523 -0.1636
 7052SOL    HW132789   2.910   1.904   7.739  0.0405  1.4295  1.2887
 7052SOL    HW232790   3.035   1.992   7.744 -0.1702 -0.6435  0.3449
 7053SOL     OW32791   0.621   1.929   3.282  0.2912  0.3045  0.5028
 7053SOL    HW132792   0.533   1.892   3.293 -0.0068  0.0685 -2.6295
 7053SOL    HW232793   0.673   1.858   3.246 -0.1725  0.3141 -0.1995
 7054SOL     OW32794   1.677   0.113   3.855 -0.4957 -0.7156  0.1236
 7054SOL    HW132795   1.685   0.116   3.950  1.3226  1.4152 -0.1144
 7054SOL    HW232796   1.735   0.179   3.817 -1.4083  0.4556  0.7869
 7055SOL     OW32797   3.165   3.199   5.790 -0.5120  0.1740 -0.3437
 7055SOL    HW132798   3.095   3.143   5.826 -0.5539  1.1350  1.0831
 7055SOL    HW232799   3.132   3.286   5.770 -0.6603 -0.0657 -1.1533
 7056SOL     OW32800   0.420   1.899  17.732 -0.3775  0.5893 -0.1527
 7056SOL    HW132801   0.379   1.973   0.031 -0.8969 -0.2849  0.8212
 7056SOL    HW232802   0.508   1.904   0.025 -0.0364  0.0212 -0.8664
 7057SOL     OW32803   2.377   4.673   8.511  0.8010 -0.3231  0.3709
 7057SOL    HW132804   2.393   4.705   8.600 -1.3624 -0.2044  0.7256
 7057SOL    HW232805   2.399   4.580   8.515 -1.9672 -0.8835  2.8900
 7058SOL     OW32806   4.261   3.927   6.419  0.4511 -0.0326 -0.3640
 7058SOL    HW132807   4.231   4.000   6.474 -1.3855 -0.3864 -0.8738
 7058SOL    HW232808   4.182   3.877   6.400 -0.6504  2.3022 -2.0693
 7059SOL     OW32809   0.520   2.083   4.022  0.2235 -0.2568  0.5845
 7059SOL    HW132810   0.586   2.041   4.078 -0.6033 -1.1976  0.8584
 7059SOL    HW232811   0.435   2.089   4.065 -0.4756 -0.2009 -0.7911
 7060SOL     OW32812   3.825   0.776  10.018 -0.5054  0.4837  0.4354
 7060SOL    HW132813   3.865   0.862  10.008  1.5223 -0.4006  0.8753
 7060SOL    HW232814   3.789   0.775  10.107 -0.7791 -1.2151  0.3116
 7061SOL     OW32815   1.224   4.013  11.382 -0.5710 -0.0450  0.0557
 7061SOL    HW132816   1.176   4.023  11.300  0.8772  0.1394 -0.7743
 7061SOL    HW232817   1.316   4.003  11.358 -0.3996  1.4290  0.0937
 7062SOL     OW32818   1.419   2.954   1.107  0.2389 -0.1753 -0.9974
 7062SOL    HW132819   1.348   2.896   1.081  1.9380 -2.0792 -1.3352
 7062SOL    HW232820   1.454   2.983   1.023 -1.3973  1.3335 -1.1466
 7063SOL     OW32821   2.583   4.342  14.295 -0.0544 -0.1920  0.4674
 7063SOL    HW132822   2.526   4.393  14.352 -1.5261  1.6126 -2.6372
 7063SOL    HW232823   2.667   4.359  14.338  0.9772  1.2085 -2.1291
 7064SOL     OW32824   1.116   3.878  16.484 -0.4927 -0.5156 -0.5018
 7064SOL    HW132825   1.067   3.797  16.501 -0.8470 -0.0088  0.9095
 7064SOL    HW232826   1.198   3.876  16.533  0.7826  1.7230 -2.5501
 7065SOL     OW32827   0.630   2.969   5.605  0.0932 -0.2845  0.1648
 7065SOL    HW132828   0.572   2.944   5.533  1.0356  1.6159 -1.2782
 7065SOL    HW232829   0.559   2.941   5.661  0.7247 -0.7639  0.7250
 7066SOL     OW32830   0.662   2.385   7.528  0.1865  0.4215  0.0304
 7066SOL    HW132831   0.594   2.347   7.582  0.5254  2.1678  1.6985
 7066SOL    HW232832   0.737   2.418   7.578 -1.0791 -0.8206  2.6704
 7067SOL     OW32833   1.497   2.072   4.217 -0.6565 -0.1048  0.1618
 7067SOL    HW132834   1.512   2.010   4.288  0.7260  1.5829  1.3389
 7067SOL    HW232835   1.448   2.144   4.257  0.2839  0.0089  1.1019
 7068SOL     OW32836   0.631   2.936  16.868 -0.5795  0.0223 -0.2453
 7068SOL    HW132837   0.564   2.965  16.929  0.5739 -1.9308  1.9401
 7068SOL    HW232838   0.586   2.879  16.806 -0.1630 -0.5884  0.0179
 7069SOL     OW32839   2.107   1.511  13.809  0.0697 -0.0452  0.0425
 7069SOL    HW132840   2.202   1.510  13.816  0.1958 -1.2017 -1.9602
 7069SOL    HW232841   2.105   1.470  13.723  0.0056 -1.3427  0.6752
 7070SOL     OW32842   2.398   0.328   3.750 -0.1585  0.1499  0.1650
 7070SOL    HW132843   2.333   0.316   3.680 -0.2351 -3.4068  0.8566
 7070SOL    HW232844   2.479   0.301   3.707 -0.9565 -3.3502  0.8112
 7071SOL     OW32845   4.571   1.490   4.099  0.0839  0.7781  0.1791
 7071SOL    HW132846   4.639   1.531   4.045  0.4631 -0.5321 -0.3265
 7071SOL    HW232847   4.592   1.402   4.068 -0.5771  0.2184  1.3599
 7072SOL     OW32848   4.463   4.222   5.534  0.4610 -0.1267  0.0772
 7072SOL    HW132849   4.541   4.231   5.589 -1.2218 -0.5350  2.5562
 7072SOL    HW232850   4.495   4.241   5.446  2.3606  0.0944  0.8260
 7073SOL     OW32851   1.716   3.470  16.298  0.2077 -0.1037 -0.4078
 7073SOL    HW132852   1.810   3.481  16.306  0.0310  1.8796 -1.0081
 7073SOL    HW232853   1.683   3.466  16.388  0.0778  1.6777 -0.3734
 7074SOL     OW32854   4.077   3.608  17.015 -0.2457 -0.5655 -0.0646
 7074SOL    HW132855   4.092   3.516  17.039 -1.7462 -0.2191  2.2054
 7074SOL    HW232856   4.138   3.653  17.073 -0.7076 -0.1280  0.0806
 7075SOL     OW32857   0.173   2.191   5.392  0.2049 -0.3970 -0.5355
 7075SOL    HW132858   0.238   2.125   5.368  0.0418 -0.6281 -0.3353
 7075SOL    HW232859   0.228   2.264   5.420 -1.0906 -0.8942  3.2386
 7076SOL     OW32860   0.809   1.684  17.627  0.1695  0.0262 -0.1130
 7076SOL    HW132861   0.842   1.710  17.714  1.1173 -2.3625  0.2430
 7076SOL    HW232862   0.884   1.707  17.572 -1.3362  0.8043 -1.8437
 7077SOL     OW32863   4.200   0.470   3.897  0.2779 -0.3504 -0.0367
 7077SOL    HW132864   4.192   0.535   3.826 -0.4529  0.2490  0.6026
 7077SOL    HW232865   4.255   0.406   3.852  0.9411  1.9339 -2.5016
 7078SOL     OW32866   0.165   0.592   1.328  0.0258  0.2758  0.1208
 7078SOL    HW132867   0.141   0.505   1.298 -0.3933  0.6556 -0.6421
 7078SOL    HW232868   0.166   0.635   1.242 -1.1206 -1.7712 -0.8986
 7079SOL     OW32869   3.399   1.206   6.967  0.2838 -0.3817  0.0764
 7079SOL    HW132870   3.494   1.199   6.963  0.2078 -0.3291 -1.6455
 7079SOL    HW232871   3.362   1.119   6.983  0.1879 -0.4006 -0.2609
 7080SOL     OW32872   3.777   2.440   6.051  0.4375 -0.1041 -0.5997
 7080SOL    HW132873   3.713   2.413   6.118 -0.5647  0.9745 -1.1176
 7080SOL    HW232874   3.812   2.361   6.011 -1.5924 -0.4838 -1.6189
 7081SOL     OW32875   2.675   0.726   2.443  0.2706 -0.0726  0.2472
 7081SOL    HW132876   2.651   0.777   2.365  1.0888 -0.4036 -0.2175
 7081SOL    HW232877   2.769   0.740   2.443  0.2007  0.4279  1.4939
 7082SOL     OW32878   2.133   0.029  17.120  0.0313  0.0310 -0.4681
 7082SOL    HW132879   2.075   0.048  17.046  0.8145  1.0216 -0.8148
 7082SOL    HW232880   2.104   4.678  17.146  1.3051  0.4938  2.4609
 7083SOL     OW32881   0.280   3.241   7.495  0.2101  0.6755 -0.1054
 7083SOL    HW132882   0.326   3.158   7.482 -1.6708 -0.5967  1.2506
 7083SOL    HW232883   0.339   3.272   7.563 -0.8649 -0.1430  1.2222
 7084SOL     OW32884   0.617   4.565   9.451 -0.4407  0.0628 -0.0058
 7084SOL    HW132885   0.523   4.574   9.460 -0.5528 -1.6204  0.4135
 7084SOL    HW232886   0.628   4.550   9.357  0.1288 -0.3098  0.1185
 7085SOL     OW32887   0.486   1.015   1.656  0.0633  0.3791  0.3584
 7085SOL    HW132888   0.468   0.984   1.567  3.7546 -4.4977  1.3173
 7085SOL    HW232889   0.578   1.041   1.650  0.0826 -0.1803 -1.7582
 7086SOL     OW32890   1.388   3.589   7.773  0.4107 -0.2510  0.0290
 7086SOL    HW132891   1.414   3.569   7.863  1.0244 -1.9960 -0.5352
 7086SOL    HW232892   1.471   3.613   7.733 -0.3462  1.1568 -0.6796
 7087SOL     OW32893   3.923   0.594   8.936  0.0406 -0.0236 -0.0738
 7087SOL    HW132894   3.890   0.506   8.919 -1.8786  0.8738 -0.9555
 7087SOL    HW232895   4.018   0.584   8.927 -0.0141 -0.6277  0.0280
 7088SOL     OW32896   1.176   2.392   9.122  0.5089  0.0537  0.3136
 7088SOL    HW132897   1.087   2.359   9.110 -0.6082  2.8085  0.8779
 7088SOL    HW232898   1.171   2.485   9.099  0.4363  0.4377  1.8851
 7089SOL     OW32899   1.094   2.960  15.414  0.0575  0.6562 -0.5407
 7089SOL    HW132900   1.027   2.981  15.478  0.2384  0.7479 -0.3793
 7089SOL    HW232901   1.041   2.904  15.357 -0.4377  1.4265 -0.8310
 7090SOL     OW32902   4.548   0.191  15.895  0.0546 -0.2880 -0.1140
 7090SOL    HW132903   4.462   0.231  15.885  1.6722  2.9286 -1.3607
 7090SOL    HW232904   4.588   0.215  15.811  1.4549  1.0011  0.9352
 7091SOL     OW32905   1.881   1.640   9.226 -0.5108 -0.0959  0.1165
 7091SOL    HW132906   1.914   1.637   9.136  1.2951  0.1567  0.7826
 7091SOL    HW232907   1.789   1.632   9.199 -1.2506  1.7433  2.1337
 7092SOL     OW32908   4.488   2.130   4.121 -0.3184 -0.0321  0.6294
 7092SOL    HW132909   4.517   2.221   4.109  1.2106 -0.5205  0.5891
 7092SOL    HW232910   4.400   2.139   4.085 -0.3016  0.4796  0.7161
 7093SOL     OW32911   4.646   1.233   5.131  0.0901 -0.1113 -0.1635
 7093SOL    HW132912   4.661   1.271   5.044  0.4856 -2.6305 -1.2053
 7093SOL    HW232913   4.583   1.167   5.103  0.1887 -0.4094  0.3369
 7094SOL     OW32914   4.457   3.668   1.749  0.1466 -0.2270 -0.0872
 7094SOL    HW132915   4.513   3.594   1.774  2.2926  1.7567  1.0204
 7094SOL    HW232916   4.490   3.743   1.799  1.4417 -1.9964  1.7165
 7095SOL     OW32917   1.416   0.099   2.055  0.0576 -0.3778 -0.0813
 7095SOL    HW132918   1.326   0.065   2.061 -1.3715  3.1666 -1.6272
 7095SOL    HW232919   1.475   0.027   2.076 -0.1398 -0.7676 -0.8571
 7096SOL     OW32920   2.660   4.296  13.539  0.2138 -0.0919 -0.5524
 7096SOL    HW132921   2.666   4.338  13.625 -3.1138  0.2336 -0.4815
 7096SOL    HW232922   2.711   4.355  13.484  0.5696 -0.3125 -0.4576
 7097SOL     OW32923   3.012   0.743   4.175 -0.1894  0.0361 -0.0886
 7097SOL    HW132924   2.958   0.720   4.099  1.4604  1.2301 -1.6210
 7097SOL    HW232925   3.072   0.803   4.132  0.3880  0.3348  1.1487
 7098SOL     OW32926   4.282   3.219   7.880  0.4811 -0.6046 -0.1498
 7098SOL    HW132927   4.264   3.241   7.971  1.1776  0.5128 -0.2809
 7098SOL    HW232928   4.227   3.278   7.829 -0.9681 -1.6710  0.1842
 7099SOL     OW32929   4.376   1.058  15.508  0.4957  0.2728  0.2084
 7099SOL    HW132930   4.445   1.124  15.499 -2.0645  2.6531 -2.0432
 7099SOL    HW232931   4.328   1.101  15.579  1.5958 -2.5674  2.6588
 7100SOL     OW32932   2.934   3.232  12.804 -0.0468 -0.3805  0.3268
 7100SOL    HW132933   2.905   3.224  12.895  3.4249 -0.4309  1.4070
 7100SOL    HW232934   3.029   3.233  12.806 -0.0181  0.4414 -1.4548
 7101SOL     OW32935   0.340   4.545   9.427 -1.1410  0.4270  0.0058
 7101SOL    HW132936   0.250   4.575   9.437 -0.8912  1.1315  0.1456
 7101SOL    HW232937   0.351   4.555   9.332  1.1729 -0.0522  0.2392
 7102SOL     OW32938   1.975   0.412   1.376 -0.4018  0.5123 -0.2754
 7102SOL    HW132939   2.015   0.348   1.434 -1.4732  0.1218  0.0366
 7102SOL    HW232940   2.014   0.493   1.410 -0.3440 -0.4503  1.9707
 7103SOL     OW32941   0.915   1.262   8.122 -0.0079  0.0898 -0.5421
 7103SOL    HW132942   0.910   1.189   8.184 -1.6713 -0.4458 -1.2945
 7103SOL    HW232943   0.867   1.330   8.170  0.1415 -0.2826  0.1434
 7104SOL     OW32944   2.610   3.850   8.750  0.4010 -0.2722  0.3142
 7104SOL    HW132945   2.637   3.760   8.763 -0.2503 -0.5455 -0.2247
 7104SOL    HW232946   2.681   3.882   8.696  0.4893 -0.4665  0.3173
 7105SOL     OW32947   3.590   2.384   3.692 -0.3088  0.1471 -0.5277
 7105SOL    HW132948   3.598   2.290   3.676  0.2737  0.0978  0.0829
 7105SOL    HW232949   3.529   2.391   3.765  2.0189  1.9244  1.2611
 7106SOL     OW32950   0.716   2.436   4.518  0.1756 -0.0104 -0.4944
 7106SOL    HW132951   0.808   2.464   4.516 -0.6354  2.6503  0.0607
 7106SOL    HW232952   0.707   2.381   4.440 -2.8956 -0.2614  0.0541
 7107SOL     OW32953   2.780   3.370   8.977 -0.2822 -0.1561  0.4340
 7107SOL    HW132954   2.722   3.447   8.978 -2.5285 -1.8387  1.8786
 7107SOL    HW232955   2.755   3.318   8.901 -0.8662 -1.7475  1.7176
 7108SOL     OW32956   3.150   1.749   3.628  0.0311  0.0203 -0.1660
 7108SOL    HW132957   3.123   1.703   3.549 -0.3323  1.0283 -0.6301
 7108SOL    HW232958   3.211   1.809   3.586 -0.7970  0.7161 -0.3884
 7109SOL     OW32959   3.192   2.388  11.651  0.0933 -0.3549 -0.2238
 7109SOL    HW132960   3.105   2.424  11.637  0.0067 -0.1127  0.9567
 7109SOL    HW232961   3.208   2.403  11.744  1.8156 -1.8031 -0.2759
 7110SOL     OW32962   0.446   1.474   3.182  0.1587 -0.1461  0.4235
 7110SOL    HW132963   0.402   1.399   3.223 -2.6720  1.8694  1.0659
 7110SOL    HW232964   0.376   1.501   3.122  0.3230  0.7497  0.6336
 7111SOL     OW32965   1.294   0.480   0.293 -0.0672 -0.1293  0.4405
 7111SOL    HW132966   1.280   0.575   0.293  0.2706 -0.0783  0.8129
 7111SOL    HW232967   1.386   0.473   0.319 -0.3266 -1.6778  0.9510
 7112SOL     OW32968   1.838   0.747   8.790 -0.1487  0.0301 -0.0669
 7112SOL    HW132969   1.914   0.713   8.836 -0.1604  1.1931  0.7972
 7112SOL    HW232970   1.841   0.838   8.819  0.9066 -0.5390  1.5961
 7113SOL     OW32971   1.066   0.409   3.032 -0.5574 -0.2396 -0.8101
 7113SOL    HW132972   1.146   0.461   3.028 -0.7416  0.0711 -0.4143
 7113SOL    HW232973   1.100   0.321   3.018  1.0057 -0.0715  2.0990
 7114SOL     OW32974   0.296   4.353   7.408  0.5375  0.1840  0.1179
 7114SOL    HW132975   0.289   4.448   7.406  0.9313  0.2270  0.7143
 7114SOL    HW232976   0.344   4.344   7.325 -0.0257  0.1454 -0.2066
 7115SOL     OW32977   3.795   1.094   9.843 -0.8057 -0.0174 -0.2829
 7115SOL    HW132978   3.887   1.068   9.831 -0.2940  0.8288  1.9093
 7115SOL    HW232979   3.763   1.102   9.753 -0.8017  4.2840  0.1100
 7116SOL     OW32980   4.638   2.950   5.400 -0.5531  0.2504  0.6313
 7116SOL    HW132981   4.609   3.009   5.330  2.9086  1.3811  0.1566
 7116SOL    HW232982   4.564   2.946   5.460 -0.3557  0.0025  0.8561
 7117SOL     OW32983   4.259   4.610   7.059 -0.0674 -0.6326  0.1367
 7117SOL    HW132984   4.330   4.661   7.098 -1.3288  1.0767  0.1780
 7117SOL    HW232985   4.205   4.593   7.137  0.1471  1.7826  0.7890
 7118SOL     OW32986   2.924   1.863   3.881  0.4346  0.3709 -0.3298
 7118SOL    HW132987   2.829   1.858   3.884  0.4080 -0.2938 -2.0735
 7118SOL    HW232988   2.935   1.937   3.821 -1.7990  1.3462  0.4681
 7119SOL     OW32989   2.744   1.962   5.857 -0.1866  0.5675 -0.2815
 7119SOL    HW132990   2.813   1.986   5.919 -0.0578  0.6121 -0.4450
 7119SOL    HW232991   2.759   1.868   5.851  0.4146  0.8980 -3.6756
 7120SOL     OW32992   4.197   4.531   8.847 -0.4865  0.2006 -0.1307
 7120SOL    HW132993   4.149   4.611   8.824 -2.4016 -0.8027  0.4144
 7120SOL    HW232994   4.283   4.569   8.864  1.3729 -4.1962  0.2260
 7121SOL     OW32995   4.209   4.144   8.585  0.6708 -0.0404  0.2800
 7121SOL    HW132996   4.168   4.061   8.564 -2.2042  0.7154  3.0449
 7121SOL    HW232997   4.183   4.161   8.675 -0.4209  1.5905 -0.3365
 7122SOL     OW32998   1.241   2.481   7.524 -0.4044  0.4847 -0.1818
 7122SOL    HW132999   1.194   2.505   7.604  0.3746 -0.5205  0.5848
 7122SOL    HW233000   1.168   2.484   7.462 -1.9876  0.9789  1.7262
 7123SOL     OW33001   4.499   0.948   2.946  0.5981 -0.0037  0.3301
 7123SOL    HW133002   4.405   0.941   2.929  0.5645  0.3125  0.3851
 7123SOL    HW233003   4.502   0.921   3.038 -1.7369  0.2870  0.4825
 7124SOL     OW33004   2.010   0.918  17.656  0.3596 -1.0011 -0.1031
 7124SOL    HW133005   2.100   0.915  17.688  0.1763  0.0684  0.5155
 7124SOL    HW233006   1.982   0.846  17.713  0.4558 -1.2995 -0.4328
 7125SOL     OW33007   2.400   2.287  15.318  0.7727  0.4472  0.2599
 7125SOL    HW133008   2.346   2.329  15.385 -2.5187 -1.9709 -0.8679
 7125SOL    HW233009   2.356   2.333  15.247 -0.3651 -1.0641 -0.0235
 7126SOL     OW33010   0.569   0.423  10.305 -0.1001 -0.2827  0.0255
 7126SOL    HW133011   0.608   0.421  10.392  1.6531 -1.0195 -0.7949
 7126SOL    HW233012   0.506   0.495  10.316  1.3981  0.5765  3.0158
 7127SOL     OW33013   1.269   3.057   8.954 -0.4221 -0.0194 -0.0318
 7127SOL    HW133014   1.276   3.001   9.032  2.2436 -2.0637 -1.7279
 7127SOL    HW233015   1.246   2.995   8.885  1.2125 -1.1585  0.4217
 7128SOL     OW33016   1.499   3.287   2.030 -0.0503 -0.4179  0.5828
 7128SOL    HW133017   1.519   3.283   1.937 -0.1607  0.8240  0.5111
 7128SOL    HW233018   1.569   3.230   2.063  1.1187  0.2524 -0.7597
 7129SOL     OW33019   0.461   4.311   5.185 -0.5279 -0.3846 -0.0877
 7129SOL    HW133020   0.515   4.334   5.109 -0.4710 -1.9612 -0.5439
 7129SOL    HW233021   0.533   4.274   5.237  0.6503 -0.4656 -1.7716
 7130SOL     OW33022   1.868   3.421   7.015  0.1157 -0.4003 -0.0036
 7130SOL    HW133023   1.869   3.395   7.107  1.2302 -0.0454  0.0843
 7130SOL    HW233024   1.840   3.513   7.017 -0.6114 -0.6738  2.2052
 7131SOL     OW33025   2.036   2.481   5.570  0.1724  0.0898 -0.4541
 7131SOL    HW133026   2.110   2.448   5.620 -0.8680  2.5088  2.6638
 7131SOL    HW233027   2.036   2.576   5.584 -0.7374  0.4425 -2.7961
 7132SOL     OW33028   0.232   4.453   5.276  0.0017 -0.6095 -0.3257
 7132SOL    HW133029   0.321   4.427   5.251  1.2638  1.2108  2.3064
 7132SOL    HW233030   0.172   4.402   5.222 -0.5998 -1.7760  1.4560
 7133SOL     OW33031   4.662   2.694   5.768  0.1615 -0.4580  0.3872
 7133SOL    HW133032   4.676   2.630   5.837  1.2785 -1.5077 -0.8173
 7133SOL    HW233033   4.624   2.634   5.703  1.2912  1.2500 -1.8515
 7134SOL     OW33034   2.685   3.647   4.039 -0.1803  0.5935 -0.2396
 7134SOL    HW133035   2.655   3.581   4.101  2.1257 -0.8275 -0.6679
 7134SOL    HW233036   2.676   3.724   4.095  1.5367  0.7390 -0.1821
 7135SOL     OW33037   3.922   3.493   2.447 -0.0152 -0.4426 -0.9853
 7135SOL    HW133038   3.880   3.494   2.533 -0.9289 -0.7606 -1.4242
 7135SOL    HW233039   3.863   3.547   2.394 -1.2361 -0.1341  0.7041
 7136SOL     OW33040   0.645   0.065   5.503 -0.3546 -0.1393 -0.2156
 7136SOL    HW133041   0.577   0.120   5.465 -1.3720 -0.6166  0.9107
 7136SOL    HW233042   0.593   0.024   5.572 -1.3141 -0.8159 -1.3557
 7137SOL     OW33043   2.625   2.279  13.866 -0.5197 -0.0166 -0.3469
 7137SOL    HW133044   2.696   2.216  13.875 -0.9229 -0.2303  1.2723
 7137SOL    HW233045   2.567   2.231  13.926  0.9638 -0.5254  0.6722
 7138SOL     OW33046   0.094   3.970   4.399  0.4914  0.2114  0.0717
 7138SOL    HW133047   0.005   3.938   4.385  0.8834  0.5334 -3.1998
 7138SOL    HW233048   0.118   4.012   4.316 -0.7004  0.7937  0.0190
 7139SOL     OW33049   0.984   4.701   7.407 -0.2686 -0.1742  0.0018
 7139SOL    HW133050   1.076   4.677   7.401 -0.8118 -1.7274 -2.3143
 7139SOL    HW233051   0.960   4.729   7.318  0.3776  1.3985  0.3243
 7140SOL     OW33052   0.986   2.234  10.252  0.1931  0.5148 -0.1296
 7140SOL    HW133053   0.985   2.157  10.307 -0.7065 -0.0810 -0.9734
 7140SOL    HW233054   1.076   2.234  10.221  0.9139  0.2659  1.9726
 7141SOL     OW33055   0.403   0.168   5.998  0.1455  0.4507 -0.0904
 7141SOL    HW133056   0.466   0.131   6.059  1.1733 -0.0398 -1.4404
 7141SOL    HW233057   0.432   0.255   5.970  0.0543  1.3098  2.5706
 7142SOL     OW33058   4.593   0.207   9.180  0.0808 -0.0959 -0.2425
 7142SOL    HW133059   4.549   0.232   9.262  0.1858 -0.4893 -0.0636
 7142SOL    HW233060   4.520   0.175   9.127  1.1866 -0.6933 -1.4177
 7143SOL     OW33061   3.454   2.930   0.566 -0.1725 -0.5428  0.3850
 7143SOL    HW133062   3.511   2.994   0.609 -1.0307 -0.8327  1.9354
 7143SOL    HW233063   3.519   2.868   0.534 -1.2801  0.3630 -3.6364
 7144SOL     OW33064   3.469   4.504   9.704 -0.1429 -0.6759 -0.4235
 7144SOL    HW133065   3.534   4.441   9.671 -0.0699 -0.6441 -0.3401
 7144SOL    HW233066   3.497   4.510   9.795 -4.3351 -2.5991  0.9805
 7145SOL     OW33067   3.924   4.425  16.411 -0.2145  0.4860  0.1349
 7145SOL    HW133068   3.830   4.440  16.399 -0.5902 -0.6590  1.7510
 7145SOL    HW233069   3.922   4.363  16.483  2.9502  1.4340  1.0671
 7146SOL     OW33070   1.542   2.710   7.787 -0.3055  0.1720  0.6280
 7146SOL    HW133071   1.496   2.794   7.792 -1.8977 -0.6013 -0.8724
 7146SOL    HW233072   1.590   2.712   7.704 -1.2674 -0.0346  0.0690
 7147SOL     OW33073   1.406   2.656   4.678 -0.2064  0.1909  0.3567
 7147SOL    HW133074   1.375   2.719   4.613  1.4153  0.5451 -0.0903
 7147SOL    HW233075   1.466   2.611   4.618 -0.3933  0.0842  0.2517
 7148SOL     OW33076   3.929   3.898   4.940 -0.2496  0.7844  0.3990
 7148SOL    HW133077   4.024   3.900   4.928 -0.1983 -2.5037  0.4054
 7148SOL    HW233078   3.907   3.809   4.912 -0.2716  2.6327 -5.3525
 7149SOL     OW33079   1.600   0.137  16.558 -0.4532  0.0731  0.4646
 7149SOL    HW133080   1.597   0.090  16.641  0.0939 -2.2155 -0.7933
 7149SOL    HW233081   1.572   0.067  16.499  1.2333 -1.1534  1.1153
 7150SOL     OW33082   0.843   3.930   0.592 -0.5663 -0.4987 -0.4674
 7150SOL    HW133083   0.850   3.853   0.649  1.6837 -0.5504 -0.7841
 7150SOL    HW233084   0.803   3.897   0.512 -0.1053 -2.3623  0.0571
 7151SOL     OW33085   3.781   2.243   5.256 -0.5206  0.0931  0.1762
 7151SOL    HW133086   3.797   2.155   5.222 -0.0490 -0.9054  2.9519
 7151SOL    HW233087   3.709   2.232   5.319 -0.2524 -0.7782  0.3338
 7152SOL     OW33088   3.623   0.954   7.521  0.6077  0.3616  0.0217
 7152SOL    HW133089   3.636   0.882   7.459 -1.1895  0.4128 -0.4223
 7152SOL    HW233090   3.530   0.974   7.515 -0.1591 -3.8668 -2.2291
 7153SOL     OW33091   3.081   0.760  16.102  0.1088 -0.0743  0.4502
 7153SOL    HW133092   3.002   0.785  16.054 -0.8071 -1.5472  1.1724
 7153SOL    HW233093   3.135   0.730  16.030  0.4754  1.6761  0.0060
 7154SOL     OW33094   1.228   0.159   8.222 -0.4079 -0.8967 -0.5098
 7154SOL    HW133095   1.183   0.143   8.139 -0.8441 -0.7177 -0.3092
 7154SOL    HW233096   1.157   0.156   8.286  0.0405 -1.3118 -0.0345
 7155SOL     OW33097   4.076   2.901   9.055 -0.5128 -0.0376  0.5398
 7155SOL    HW133098   3.994   2.851   9.049 -1.2978  1.2559  0.5964
 7155SOL    HW233099   4.040   2.985   9.029 -1.1986 -0.7670 -0.9287
 7156SOL     OW33100   0.352   3.411  13.289  0.2925  0.2302  0.2385
 7156SOL    HW133101   0.423   3.474  13.276 -1.6361  2.2276 -0.6949
 7156SOL    HW233102   0.280   3.473  13.277  0.6360  0.8843  1.5888
 7157SOL     OW33103   0.179   1.806   5.477  0.0483  0.0839 -0.5616
 7157SOL    HW133104   0.253   1.757   5.513 -1.3963 -1.7469 -0.0869
 7157SOL    HW233105   0.214   1.829   5.391 -0.1939 -0.5154 -0.8129
 7158SOL     OW33106   3.905   2.633  12.348 -0.9432 -0.1550 -0.7898
 7158SOL    HW133107   3.971   2.618  12.416 -0.3480 -0.9703 -1.5526
 7158SOL    HW233108   3.901   2.728  12.356  2.4670 -0.0496 -0.2138
 7159SOL     OW33109   3.445   0.255   3.383  0.5344 -0.7983  0.0440
 7159SOL    HW133110   3.387   0.233   3.310 -0.7719  2.1212  0.2041
 7159SOL    HW233111   3.431   0.176   3.436 -2.6925  0.2089  0.6962
 7160SOL     OW33112   1.805   1.551   6.209 -0.3655 -0.2776  0.5060
 7160SOL    HW133113   1.731   1.591   6.164  1.4353  3.9051  1.3218
 7160SOL    HW233114   1.797   1.466   6.165 -1.9109  0.1460 -0.0379
 7161SOL     OW33115   0.019   4.366   6.898 -0.0280 -0.5015 -0.3344
 7161SOL    HW133116   4.682   4.314   6.929 -0.5042  0.4295  0.1109
 7161SOL    HW233117   4.711   4.450   6.905  1.4780  0.2609  0.0388
 7162SOL     OW33118   1.075   2.231   3.821  0.1804 -0.4885  0.1054
 7162SOL    HW133119   1.007   2.235   3.754 -0.3834 -1.2369  0.6309
 7162SOL    HW233120   1.132   2.165   3.782  1.2553  1.2712 -1.3041
 7163SOL     OW33121   0.619   1.628   8.816  0.0240 -0.5209  0.3000
 7163SOL    HW133122   0.682   1.557   8.805 -0.5185 -0.9625  0.0665
 7163SOL    HW233123   0.646   1.681   8.741 -0.0996 -1.3098 -0.3028
 7164SOL     OW33124   4.383   2.721  14.396 -0.3455  0.1291 -0.2144
 7164SOL    HW133125   4.403   2.759  14.311  1.2928  0.4136  0.3138
 7164SOL    HW233126   4.443   2.647  14.406  0.6191  1.0951  1.0840
 7165SOL     OW33127   1.115   0.834   5.491  0.1480 -0.5452 -0.2950
 7165SOL    HW133128   1.109   0.739   5.480 -0.0672 -0.2491 -2.7771
 7165SOL    HW233129   1.103   0.847   5.585  3.2865  1.4276 -0.1806
 7166SOL     OW33130   1.961   4.103   1.921  0.3066 -0.2147  0.2724
 7166SOL    HW133131   2.039   4.151   1.893  0.3368 -0.3988  0.0415
 7166SOL    HW233132   1.955   4.042   1.848 -1.4593  1.7256 -1.1950
 7167SOL     OW33133   2.683   1.210   0.235 -0.1291 -0.1147 -0.4420
 7167SOL    HW133134   2.725   1.246   0.313 -1.7648  0.8803 -0.0175
 7167SOL    HW233135   2.753   1.178   0.179  0.2595  0.0956 -0.0747
 7168SOL     OW33136   3.527   4.094   3.304  0.3822  0.6394  0.5284
 7168SOL    HW133137   3.590   4.024   3.321 -0.6473 -0.9107 -1.9060
 7168SOL    HW233138   3.444   4.047   3.315  0.6990 -0.5957 -2.0739
 7169SOL     OW33139   0.164   3.554   5.027  0.0655  0.4400 -0.4893
 7169SOL    HW133140   0.248   3.584   5.061  0.1563 -0.4133  0.0444
 7169SOL    HW233141   0.167   3.459   5.037  1.7121  0.9453  3.5205
 7170SOL     OW33142   3.998   4.143  14.977  0.5373  0.0207  0.4782
 7170SOL    HW133143   4.071   4.187  15.021  0.2708  0.7841  0.1510
 7170SOL    HW233144   4.032   4.054  14.965 -2.4200 -1.1888  1.0937
 7171SOL     OW33145   1.174   3.412   2.340 -0.4310  0.4497 -0.4362
 7171SOL    HW133146   1.210   3.375   2.260  1.0497  2.3926 -0.6614
 7171SOL    HW233147   1.083   3.414   2.312 -0.4994  0.7161 -0.1968
 7172SOL     OW33148   3.731   2.298   2.585  0.3827  0.2748  0.3997
 7172SOL    HW133149   3.636   2.289   2.590  0.2376  1.6872  0.1544
 7172SOL    HW233150   3.745   2.216   2.538 -0.7290  1.2125 -1.5607
 7173SOL     OW33151   3.104   1.739   6.416 -0.0610 -0.5022  0.0474
 7173SOL    HW133152   3.030   1.752   6.357 -1.1567 -0.7878  1.3551
 7173SOL    HW233153   3.061   1.671   6.468  1.8929 -2.0501 -0.3714
 7174SOL     OW33154   2.489   1.079  15.798 -0.7866  0.2056 -0.1305
 7174SOL    HW133155   2.411   1.128  15.822 -1.7555 -0.8017 -1.2513
 7174SOL    HW233156   2.551   1.145  15.767  0.6047 -1.0612 -0.0679
 7175SOL     OW33157   4.724   1.599   2.180  0.1547 -0.1515  0.2574
 7175SOL    HW133158   4.651   1.536   2.184  0.7318 -0.8318  0.0274
 7175SOL    HW233159   4.724   1.619   2.087 -0.6014  0.9957  0.5087
 7176SOL     OW33160   2.782   3.376  12.508  0.6794 -0.1997  0.5990
 7176SOL    HW133161   2.825   3.459  12.525  0.3517 -0.5354  3.0734
 7176SOL    HW233162   2.698   3.408  12.475 -0.2248 -0.8063  2.2958
 7177SOL     OW33163   2.073   1.440   2.420 -0.7807 -0.2543 -0.1011
 7177SOL    HW133164   2.014   1.423   2.347  0.8612 -1.3576 -1.1801
 7177SOL    HW233165   2.090   1.347   2.440  0.9331  0.2817  0.9631
 7178SOL     OW33166   0.382   2.519  11.037 -0.0221  0.0998 -0.0147
 7178SOL    HW133167   0.301   2.469  11.028  0.2061  0.2048 -2.5385
 7178SOL    HW233168   0.414   2.532  10.948  1.1349 -1.2869  0.1880
 7179SOL     OW33169   0.850   2.425   7.715  0.3423 -0.0050  0.7278
 7179SOL    HW133170   0.865   2.376   7.796  0.4397  0.9449  1.2791
 7179SOL    HW233171   0.852   2.517   7.742  1.0068  0.5026 -1.0425
 7180SOL     OW33172   3.089   4.619  14.532  0.0645  0.1109  0.1971
 7180SOL    HW133173   3.144   4.696  14.548  2.1727 -0.9089 -2.0453
 7180SOL    HW233174   3.039   4.655  14.459 -0.8900  1.9290  1.7505
 7181SOL     OW33175   3.168   3.830   3.674 -0.5164 -0.1084 -0.1156
 7181SOL    HW133176   3.131   3.830   3.762 -1.6729 -0.7399 -0.6034
 7181SOL    HW233177   3.108   3.777   3.621 -0.9873  1.4910 -1.2015
 7182SOL     OW33178   3.745   3.392   3.429 -0.2959 -0.3385 -0.8037
 7182SOL    HW133179   3.660   3.387   3.386 -1.0528 -1.2739  0.7863
 7182SOL    HW233180   3.765   3.306   3.466 -0.9263 -0.5891 -1.0498
 7183SOL     OW33181   2.027   1.313   8.010  0.1326  0.3862  0.0303
 7183SOL    HW133182   1.948   1.330   8.061 -1.0500  1.4875 -2.1473
 7183SOL    HW233183   2.015   1.218   8.002 -0.8658  0.6609 -1.8209
 7184SOL     OW33184   4.542   2.118   6.096 -0.2253 -0.4640 -0.2245
 7184SOL    HW133185   4.484   2.047   6.066 -0.9381 -0.7892  1.8770
 7184SOL    HW233186   4.559   2.152   6.009 -0.7446 -1.1198 -0.5846
 7185SOL     OW33187   4.441   1.331   8.587 -0.3094 -0.4267  0.1388
 7185SOL    HW133188   4.478   1.394   8.648  1.0378 -0.7260 -0.3728
 7185SOL    HW233189   4.469   1.372   8.505  0.3336 -1.5745 -0.2119
 7186SOL     OW33190   1.836   0.554   0.452 -0.9436  0.2483  0.1828
 7186SOL    HW133191   1.927   0.583   0.464 -1.0802  1.7276 -2.4541
 7186SOL    HW233192   1.849   0.494   0.379 -0.9557 -0.2491  0.5871
 7187SOL     OW33193   3.623   2.659   9.236 -0.0616  0.9264  0.4328
 7187SOL    HW133194   3.591   2.627   9.152 -0.1577 -1.0977  1.2233
 7187SOL    HW233195   3.544   2.691   9.280  0.0339  2.5114 -0.5572
 7188SOL     OW33196   1.272   1.368   7.215 -0.3090 -0.0984  0.4928
 7188SOL    HW133197   1.311   1.358   7.127  0.3358 -0.2389  0.7926
 7188SOL    HW233198   1.266   1.277   7.245 -0.2222 -0.6639 -1.1680
 7189SOL     OW33199   2.729   4.073   0.614 -0.1155 -0.3467 -0.1520
 7189SOL    HW133200   2.752   4.127   0.538 -2.5351 -0.6109 -1.0858
 7189SOL    HW233201   2.651   4.121   0.641 -0.7754 -1.9718  0.7872
 7190SOL     OW33202   1.234   2.040  14.816  0.2872 -0.0750  0.3000
 7190SOL    HW133203   1.189   2.069  14.736  0.8303  0.8949  0.3439
 7190SOL    HW233204   1.162   2.047  14.878  0.2684  0.0549  0.2635
 7191SOL     OW33205   1.017   1.081   2.766 -0.3894  0.6606 -0.4503
 7191SOL    HW133206   1.015   1.109   2.857 -1.5531 -0.2957 -0.1816
 7191SOL    HW233207   1.009   0.986   2.778 -0.1075  0.7267  0.2713
 7192SOL     OW33208   0.360   1.051   0.520 -0.2856  0.1455  0.3621
 7192SOL    HW133209   0.367   1.142   0.548 -1.9627 -0.5998  3.2017
 7192SOL    HW233210   0.390   1.063   0.430  2.0360 -1.0148  0.9833
 7193SOL     OW33211   1.475   1.603  17.162 -0.2644  0.7029  0.0701
 7193SOL    HW133212   1.570   1.597  17.150 -0.0663  0.5403  1.7486
 7193SOL    HW233213   1.439   1.521  17.128  2.0455 -0.0288 -0.6120
 7194SOL     OW33214   2.148   1.324  17.273  0.5832 -0.1017  0.1910
 7194SOL    HW133215   2.057   1.308  17.297  0.2905  1.3118  0.0703
 7194SOL    HW233216   2.134   1.328  17.178 -1.2172 -1.8950  0.3911
 7195SOL     OW33217   1.214   2.365   9.538  0.0298 -0.3041  0.2002
 7195SOL    HW133218   1.246   2.453   9.519  2.2991 -1.2362 -0.2498
 7195SOL    HW233219   1.173   2.381   9.623 -0.0216  0.2717  0.0676
 7196SOL     OW33220   4.479   4.689   6.659 -0.3344  0.4564  0.2959
 7196SOL    HW133221   4.517   4.701   6.746 -1.3209 -0.5580  0.8698
 7196SOL    HW233222   4.467   0.041   6.624 -1.1548 -0.3461 -1.4874
 7197SOL     OW33223   2.390   0.149  11.206 -0.4430  0.4375 -0.1864
 7197SOL    HW133224   2.404   0.082  11.138 -0.6072  0.8791 -0.6494
 7197SOL    HW233225   2.414   0.111  11.290  1.3755  0.6271 -0.6333
 7198SOL     OW33226   2.845   1.976  17.083  0.4769 -0.4556 -0.5048
 7198SOL    HW133227   2.793   2.031  17.025  0.7804  0.1352 -0.2172
 7198SOL    HW233228   2.773   1.922  17.116  0.7263  1.1009  2.5910
 7199SOL     OW33229   3.557   3.239   6.097 -0.2293 -0.1676 -0.4246
 7199SOL    HW133230   3.538   3.328   6.069  0.9983  1.6112  4.4249
 7199SOL    HW233231   3.601   3.255   6.180 -0.7966 -0.9492  0.0319
 7200SOL     OW33232   1.770   1.541   6.831 -0.4623 -0.5141 -0.2105
 7200SOL    HW133233   1.829   1.512   6.901 -1.7842  2.9599  2.2858
 7200SOL    HW233234   1.827   1.607   6.791 -1.5913  0.8285  0.4392
 7201SOL     OW33235   1.391   3.610   2.077 -0.1450  0.4359 -0.3349
 7201SOL    HW133236   1.320   3.546   2.070  1.2503 -0.9095 -2.6017
 7201SOL    HW233237   1.348   3.694   2.068  0.7826  0.6403 -2.9778
 7202SOL     OW33238   3.131   0.878  13.836 -0.3891  0.9013  0.1827
 7202SOL    HW133239   3.185   0.942  13.789  2.1990 -2.2762 -1.1159
 7202SOL    HW233240   3.173   0.875  13.922 -0.5468  1.3799  0.2776
 7203SOL     OW33241   1.190   3.811   9.283 -0.2011  0.0324  0.0109
 7203SOL    HW133242   1.280   3.843   9.273  0.3252 -1.2418  0.7015
 7203SOL    HW233243   1.142   3.856   9.213  1.6938  0.6202 -0.9206
 7204SOL     OW33244   1.583   4.042   6.921  0.3134  0.1628  0.0964
 7204SOL    HW133245   1.516   4.013   6.860  0.5455  0.5705 -0.3520
 7204SOL    HW233246   1.538   4.053   7.005  0.7998  2.0546  0.1302
 7205SOL     OW33247   1.309   3.929   3.347 -0.3020 -0.3887 -0.2375
 7205SOL    HW133248   1.279   4.008   3.390 -0.0872  0.3538 -1.4593
 7205SOL    HW233249   1.379   3.969   3.296 -3.3419  1.8557 -2.5694
 7206SOL     OW33250   3.774   2.521  16.991 -0.0405  0.4144 -0.0567
 7206SOL    HW133251   3.724   2.517  16.910  0.5422 -0.3959 -0.3724
 7206SOL    HW233252   3.778   2.430  17.022 -3.0672 -0.9579 -3.7257
 7207SOL     OW33253   1.097   0.763   4.566 -0.1934  0.1117 -0.2766
 7207SOL    HW133254   1.174   0.717   4.600 -0.7037 -0.3266  0.2935
 7207SOL    HW233255   1.063   0.706   4.497 -0.5510 -0.9575  0.7764
 7208SOL     OW33256   0.940   4.441   4.880 -0.1775  0.0584  0.2087
 7208SOL    HW133257   0.995   4.519   4.880 -2.6446  1.8131  1.1631
 7208SOL    HW233258   0.869   4.475   4.934 -0.5644 -1.1855  0.4730
 7209SOL     OW33259   3.562   4.713   8.751 -0.0677 -0.2722  0.6741
 7209SOL    HW133260   3.604   0.046   8.700  1.2879 -1.2602  0.4469
 7209SOL    HW233261   3.555   4.645   8.685  0.4168  0.5919 -0.2612
 7210SOL     OW33262   2.648   2.856   9.496 -0.5963  0.5611  0.3940
 7210SOL    HW133263   2.617   2.827   9.582 -0.6345 -1.0198 -0.1518
 7210SOL    HW233264   2.697   2.787   9.452  0.4190  0.8271  1.0952
 7211SOL     OW33265   2.825   4.330   1.688  0.1470  0.0022  0.5078
 7211SOL    HW133266   2.832   4.271   1.613 -0.4816  1.5303 -0.7247
 7211SOL    HW233267   2.757   4.285   1.739 -1.0161  1.0026 -0.1709
 7212SOL     OW33268   1.036   4.647  16.434 -0.4561  0.0443  0.3639
 7212SOL    HW133269   0.994   4.612  16.512  0.6852  0.7686  1.3147
 7212SOL    HW233270   1.066   4.568  16.389 -2.0074 -1.0855  1.3156
 7213SOL     OW33271   1.043   1.598   0.988  0.5289 -0.0525 -0.9846
 7213SOL    HW133272   0.953   1.600   0.956  0.0480  1.6361  0.4552
 7213SOL    HW233273   1.097   1.642   0.922 -0.9047  1.9355 -0.8229
 7214SOL     OW33274   3.897   1.850   4.292  0.1999  0.4914 -0.0680
 7214SOL    HW133275   3.872   1.923   4.236 -1.7716  1.5038  2.1387
 7214SOL    HW233276   3.940   1.788   4.233  1.2784  0.9265  0.2596
 7215SOL     OW33277   0.520   0.460   8.621  0.2698  0.3816 -0.4102
 7215SOL    HW133278   0.445   0.420   8.665  1.1858 -3.0536 -1.9912
 7215SOL    HW233279   0.580   0.463   8.696 -0.6505  1.4709  0.2771
 7216SOL     OW33280   4.565   3.930  13.515  0.0852  0.1684  0.0242
 7216SOL    HW133281   4.633   3.864  13.498  0.2809 -0.9608  5.1332
 7216SOL    HW233282   4.617   4.003  13.549 -0.1200 -0.0067  0.7096
 7217SOL     OW33283   1.142   1.000   8.788  0.3803  0.0216 -0.3721
 7217SOL    HW133284   1.139   0.974   8.880 -2.2531 -4.7680 -1.8188
 7217SOL    HW233285   1.214   0.941   8.766 -1.0329 -1.6176 -0.6019
 7218SOL     OW33286   1.182   3.292   5.947 -0.4994  0.0483 -0.5681
 7218SOL    HW133287   1.238   3.329   5.879 -0.2132  1.5208  0.4721
 7218SOL    HW233288   1.212   3.202   5.957  0.5890  0.4027 -0.6489
 7219SOL     OW33289   3.396   1.215   8.135 -0.0221 -0.1620  0.1929
 7219SOL    HW133290   3.325   1.274   8.159  0.3455  0.2614  0.2322
 7219SOL    HW233291   3.439   1.258   8.061  0.2709  0.5154  0.7557
 7220SOL     OW33292   4.509   1.444  17.705 -0.1377  0.2828 -0.0331
 7220SOL    HW133293   4.457   1.524  17.707  0.3111  0.5908 -0.4864
 7220SOL    HW233294   4.578   1.474   0.019 -0.1641 -0.7338  0.5250
 7221SOL     OW33295   0.755   1.532   8.512 -0.2279  0.1122 -0.7341
 7221SOL    HW133296   0.845   1.517   8.483  0.0694 -1.1522  0.8336
 7221SOL    HW233297   0.776   1.595   8.581 -0.7230 -0.5969  0.0621
 7222SOL     OW33298   3.567   3.266   2.319  0.6127  0.9948  0.2416
 7222SOL    HW133299   3.516   3.253   2.239 -0.8228  0.1264  1.2964
 7222SOL    HW233300   3.510   3.228   2.387  1.2850 -1.2437 -0.4672
 7223SOL     OW33301   2.642   3.676   8.279  0.5819 -0.8451 -0.3783
 7223SOL    HW133302   2.676   3.682   8.190 -0.3707  2.0508 -0.5375
 7223SOL    HW233303   2.555   3.708   8.256  0.2259 -0.8780  0.9027
 7224SOL     OW33304   0.665   3.214  16.071  0.5034  0.6619 -0.4184
 7224SOL    HW133305   0.708   3.299  16.079  0.3942  0.4794  1.9831
 7224SOL    HW233306   0.576   3.244  16.051 -0.6747 -2.4617  0.1264
 7225SOL     OW33307   0.507   3.680   3.121  0.3566  0.1368 -0.4620
 7225SOL    HW133308   0.564   3.747   3.160  1.1892 -0.1010 -1.2608
 7225SOL    HW233309   0.491   3.627   3.199 -0.5574  1.4077  0.1984
 7226SOL     OW33310   3.886   1.253   3.237 -0.3880  0.0674 -0.0536
 7226SOL    HW133311   3.830   1.176   3.224 -0.3610  0.0705 -0.1851
 7226SOL    HW233312   3.817   1.318   3.226 -1.0610 -0.8063 -1.0103
 7227SOL     OW33313   0.330   3.681   9.578 -0.0742 -0.0643  0.3418
 7227SOL    HW133314   0.352   3.765   9.619 -1.0233  1.2326 -1.8374
 7227SOL    HW233315   0.238   3.692   9.554  0.4479  0.5749 -1.3537
 7228SOL     OW33316   1.859   4.548   8.545 -0.4512  0.5144  0.2947
 7228SOL    HW133317   1.819   4.594   8.472 -0.3201  1.9671  1.1361
 7228SOL    HW233318   1.825   4.601   8.617  0.2197  1.6344 -0.2166
 7229SOL     OW33319   4.246   2.015  10.359 -0.3514  0.2237 -0.3422
 7229SOL    HW133320   4.229   1.999  10.267  1.3111  0.0558 -0.6194
 7229SOL    HW233321   4.252   1.927  10.397  0.8347 -0.3851 -1.9232
 7230SOL     OW33322   1.804   1.832  16.824 -0.0735 -0.1148  0.1374
 7230SOL    HW133323   1.883   1.866  16.782 -0.3960  0.5768  0.0918
 7230SOL    HW233324   1.811   1.874  16.910  2.3943 -1.8139  0.7523
 7231SOL     OW33325   1.701   3.948   8.067 -0.7430  0.0329 -0.1840
 7231SOL    HW133326   1.755   3.992   8.133  1.3178 -0.8892 -1.2452
 7231SOL    HW233327   1.639   4.014   8.035 -0.6605 -0.2966 -1.0383
 7232SOL     OW33328   2.821   0.805   1.136  0.5423 -0.6457 -0.3041
 7232SOL    HW133329   2.916   0.803   1.128  0.3861  0.4650 -2.5841
 7232SOL    HW233330   2.798   0.719   1.099  1.2145 -0.6942 -0.6146
 7233SOL     OW33331   2.553   3.857  14.942 -0.4257 -0.0049 -0.7645
 7233SOL    HW133332   2.502   3.831  14.865 -1.3395 -0.4601 -0.0034
 7233SOL    HW233333   2.631   3.805  14.925  0.1656 -0.2358  2.6294
 7234SOL     OW33334   0.825   2.599  15.982 -0.4944  0.1137  0.2810
 7234SOL    HW133335   0.899   2.659  15.990  0.5907 -1.4205  1.7140
 7234SOL    HW233336   0.770   2.611  16.059 -0.0274  0.2337  0.6001
 7235SOL     OW33337   2.940   2.480  15.299 -0.0188  0.1763  0.0306
 7235SOL    HW133338   2.998   2.441  15.233  1.3966  0.7142  0.9369
 7235SOL    HW233339   2.869   2.500  15.239  2.3340  1.6075 -2.2677
 7236SOL     OW33340   3.863   4.454  16.042 -0.0620 -0.3130  0.1813
 7236SOL    HW133341   3.844   4.546  16.021  0.1492 -0.8829 -2.4939
 7236SOL    HW233342   3.954   4.455  16.072 -0.1451  2.2705  0.3648
 7237SOL     OW33343   2.701   3.538   1.452 -0.1088 -0.3563  0.4881
 7237SOL    HW133344   2.734   3.527   1.363  0.7863 -0.8026  0.8737
 7237SOL    HW233345   2.614   3.497   1.447 -1.1552  2.0743 -1.3250
 7238SOL     OW33346   4.563   3.258  11.205  0.4721  0.1492 -0.7272
 7238SOL    HW133347   4.503   3.310  11.153  0.0283 -0.1182 -0.4874
 7238SOL    HW233348   4.640   3.278  11.153  0.4921 -0.2504 -0.8490
 7239SOL     OW33349   2.228   0.245   4.172  0.2422 -0.0332  0.7607
 7239SOL    HW133350   2.257   0.288   4.253 -1.2730 -1.6704  2.1644
 7239SOL    HW233351   2.296   0.258   4.106 -1.0508  0.3205 -0.4930
 7240SOL     OW33352   1.654   0.322   9.604  0.4427  0.0876  0.0210
 7240SOL    HW133353   1.617   0.295   9.688  0.1233 -0.9483 -0.4518
 7240SOL    HW233354   1.714   0.389   9.637  0.0996  0.5309 -0.2532
 7241SOL     OW33355   0.162   2.786  16.062 -0.2462  0.1516  0.2229
 7241SOL    HW133356   0.102   2.837  16.006  0.6805  0.6644 -0.3021
 7241SOL    HW233357   0.228   2.764  15.997 -0.1640  1.0513 -0.0044
 7242SOL     OW33358   2.671   1.926   7.394  0.1845  0.0042 -0.0011
 7242SOL    HW133359   2.740   1.919   7.460  1.3489 -1.3996 -1.3650
 7242SOL    HW233360   2.659   1.833   7.375 -1.5665  0.2836 -0.2175
 7243SOL     OW33361   4.659   0.521   9.160 -0.1628 -0.4268 -0.2391
 7243SOL    HW133362   4.664   0.434   9.199  3.0355 -0.7641 -1.3668
 7243SOL    HW233363   0.008   0.515   9.118  1.0998 -0.4205  2.3891
 7244SOL     OW33364   3.848   3.201   6.818 -0.2084 -0.7884 -0.5830
 7244SOL    HW133365   3.904   3.151   6.759 -0.7407 -1.3919 -0.5854
 7244SOL    HW233366   3.847   3.288   6.780 -2.6102 -0.9012 -0.7777
 7245SOL     OW33367   1.145   2.272  16.128  0.3019 -0.1715  0.9224
 7245SOL    HW133368   1.113   2.309  16.211 -0.7468  3.4577 -1.1279
 7245SOL    HW233369   1.178   2.351  16.087 -0.3717 -0.1773  0.3589
 7246SOL     OW33370   4.386   3.519   3.230 -0.1130 -0.7370  0.4061
 7246SOL    HW133371   4.346   3.582   3.290  1.0737 -1.0644  1.5412
 7246SOL    HW233372   4.450   3.480   3.290 -1.8983 -1.4597  1.8203
 7247SOL     OW33373   1.621   1.635   9.142 -0.3159 -0.0718 -0.2504
 7247SOL    HW133374   1.578   1.567   9.092 -0.9932 -1.4783  2.2238
 7247SOL    HW233375   1.548   1.675   9.189 -0.3517 -1.2293  0.6686
 7248SOL     OW33376   4.447   3.434  12.357 -0.0833 -0.1627 -0.0349
 7248SOL    HW133377   4.484   3.491  12.425  0.6688 -1.0918  0.3408
 7248SOL    HW233378   4.509   3.452  12.287  0.6627 -1.5800  0.2423
 7249SOL     OW33379   0.784   4.435   8.745  0.3450 -0.5134 -0.1401
 7249SOL    HW133380   0.712   4.496   8.760  0.6796 -0.3883  0.9478
 7249SOL    HW233381   0.739   4.351   8.743 -0.9917  0.2292 -0.8642
 7250SOL     OW33382   3.028   1.903   8.337  0.1590  0.0127  0.6728
 7250SOL    HW133383   2.954   1.888   8.279  0.0948  3.0403 -0.0227
 7250SOL    HW233384   3.014   1.843   8.411 -0.6307 -0.9967 -0.3028
 7251SOL     OW33385   2.101   1.706   4.948  0.1768 -0.8094  0.2967
 7251SOL    HW133386   2.025   1.649   4.940 -2.0084  2.2459 -0.3647
 7251SOL    HW233387   2.064   1.784   4.989  2.5995  0.8660 -0.6358
 7252SOL     OW33388   0.515   0.321   1.024  0.0198  0.5206 -0.4748
 7252SOL    HW133389   0.604   0.299   1.053 -0.6027 -2.3787 -0.7678
 7252SOL    HW233390   0.456   0.251   1.053  2.9569 -2.0221 -0.6580
 7253SOL     OW33391   2.877   2.664   0.828  0.1737  0.4518 -0.8259
 7253SOL    HW133392   2.803   2.716   0.797  0.0415 -1.3869 -3.5865
 7253SOL    HW233393   2.883   2.586   0.773  0.9265  0.1390 -0.3032
 7254SOL     OW33394   0.671   3.442   9.134  0.0091 -0.2049 -0.3899
 7254SOL    HW133395   0.705   3.369   9.082  0.1642  0.0519 -0.6487
 7254SOL    HW233396   0.575   3.439   9.140 -0.0615  1.0671 -0.7859
 7255SOL     OW33397   2.505   0.754   5.990  0.1629 -0.5963 -0.1432
 7255SOL    HW133398   2.420   0.745   5.947 -1.2711  1.8593  2.0980
 7255SOL    HW233399   2.486   0.824   6.053  2.0008  2.5962 -3.1404
 7256SOL     OW33400   1.128   1.524   4.500  0.4506 -0.0173  0.3441
 7256SOL    HW133401   1.076   1.525   4.420  1.3186  2.1045 -0.1983
 7256SOL    HW233402   1.104   1.440   4.539  1.0866 -0.2897  0.1699
 7257SOL     OW33403   3.125   3.051  12.592  0.8451  0.1937 -0.8787
 7257SOL    HW133404   3.112   3.026  12.684  1.1455  0.0980 -0.8631
 7257SOL    HW233405   3.048   3.009  12.553  0.9631 -1.6323  0.8703
 7258SOL     OW33406   4.593   2.369  10.025  0.0995 -0.2234 -0.4814
 7258SOL    HW133407   4.574   2.295  10.082 -0.7385 -0.5222 -1.1622
 7258SOL    HW233408   4.677   2.337   9.993 -0.0113 -1.5902  0.5741
 7259SOL     OW33409   0.429   1.401  16.008  0.2100  0.0195  0.0327
 7259SOL    HW133410   0.410   1.481  15.958 -1.5653 -2.1088 -2.6594
 7259SOL    HW233411   0.471   1.444  16.083  0.4745 -0.5663  0.2178
 7260SOL     OW33412   0.912   0.477   8.916  0.5634 -0.0851 -0.1713
 7260SOL    HW133413   0.932   0.475   9.010  2.1904 -0.6147 -0.5352
 7260SOL    HW233414   0.948   0.393   8.888  0.4014  0.0543 -0.7857
 7261SOL     OW33415   1.169   3.472  17.616 -0.3433  0.6791  0.3627
 7261SOL    HW133416   1.242   3.484  17.678  0.4373  1.4801 -0.7154
 7261SOL    HW233417   1.127   3.557  17.627 -1.3310  0.2386 -0.1138
 7262SOL     OW33418   3.810   2.442   3.874  0.4665 -0.2278  0.0910
 7262SOL    HW133419   3.848   2.501   3.809  1.2053 -0.9347 -0.1247
 7262SOL    HW233420   3.722   2.432   3.839  1.8324  1.5212 -3.8162
 7263SOL     OW33421   4.530   3.500   4.747 -0.3591  0.3494 -0.7044
 7263SOL    HW133422   4.580   3.565   4.797 -2.6319 -0.8146  3.0854
 7263SOL    HW233423   4.472   3.465   4.814  0.5375 -0.8165 -0.5478
 7264SOL     OW33424   4.403   3.389   5.286  0.1447 -0.2804  0.4584
 7264SOL    HW133425   4.330   3.444   5.312  0.9446  1.5913 -1.2198
 7264SOL    HW233426   4.461   3.460   5.259 -3.9912  2.1999 -1.7496
 7265SOL     OW33427   0.529   0.416   7.872 -0.1390 -0.4280 -0.6931
 7265SOL    HW133428   0.481   0.335   7.852  1.0165 -0.8956 -1.5659
 7265SOL    HW233429   0.612   0.383   7.904 -0.2017  0.4139  0.3062
 7266SOL     OW33430   4.073   1.593  13.686  0.3092 -0.6469  0.3708
 7266SOL    HW133431   4.056   1.687  13.692 -2.1928 -1.0219 -0.6038
 7266SOL    HW233432   3.992   1.551  13.657 -0.8029  1.6785  0.1152
 7267SOL     OW33433   0.146   2.926   5.549 -0.3849 -0.3385  0.3611
 7267SOL    HW133434   0.197   2.963   5.477 -0.6028  0.5676  0.6808
 7267SOL    HW233435   0.059   2.956   5.522  0.5709  1.5384 -0.5978
 7268SOL     OW33436   4.377   0.976   8.940  0.4782  0.1398  0.0753
 7268SOL    HW133437   4.471   0.991   8.927  0.3190 -0.3997 -1.6395
 7268SOL    HW233438   4.335   1.050   8.897 -0.8076 -0.5009  0.2246
 7269SOL     OW33439   2.780   0.369   8.156 -0.3402 -0.0239  0.1521
 7269SOL    HW133440   2.698   0.324   8.136  0.1094 -1.0105  0.5173
 7269SOL    HW233441   2.841   0.298   8.134 -0.0964  0.2698 -0.1255
 7270SOL     OW33442   1.729   0.422  16.480 -0.3001 -0.6216  0.6345
 7270SOL    HW133443   1.703   0.358  16.546  0.6402  0.7743  2.3550
 7270SOL    HW233444   1.811   0.451  16.519 -0.4371  2.2893 -1.1860
 7271SOL     OW33445   3.433   2.111   1.816 -0.3936 -0.5341 -0.2283
 7271SOL    HW133446   3.494   2.074   1.880  0.6675  1.3743 -0.1144
 7271SOL    HW233447   3.480   2.189   1.787 -0.1018 -0.3559  0.7395
 7272SOL     OW33448   1.983   4.129   2.542  0.3490 -0.6169 -0.6987
 7272SOL    HW133449   1.955   4.187   2.471  0.2279 -0.0710 -0.2051
 7272SOL    HW233450   1.912   4.158   2.600  1.3260 -1.9362  1.1363
 7273SOL     OW33451   2.822   0.266   6.006  0.4549 -0.1178 -0.1441
 7273SOL    HW133452   2.874   0.340   6.037  1.7419 -1.0152 -0.1893
 7273SOL    HW233453   2.734   0.302   6.014  0.6859  0.1578  1.2174
 7274SOL     OW33454   0.323   0.447   5.055  0.6691 -0.2684  0.7849
 7274SOL    HW133455   0.328   0.368   5.001  1.5836  0.7146 -0.5708
 7274SOL    HW233456   0.272   0.405   5.124 -0.3124  1.8767  1.3673
 7275SOL     OW33457   2.352   3.469   6.866 -0.0426 -0.0620  0.8926
 7275SOL    HW133458   2.315   3.401   6.922 -1.6011 -1.3472 -1.6876
 7275SOL    HW233459   2.438   3.431   6.849  0.5391  0.4442  2.6434
 7276SOL     OW33460   4.726   2.861   2.179 -0.1115  0.3107 -0.4279
 7276SOL    HW133461   0.002   2.880   2.086 -1.3815  0.4043 -0.5901
 7276SOL    HW233462   0.075   2.888   2.212  0.3954  0.7809 -2.1140
 7277SOL     OW33463   0.090   3.661   7.726  0.3539 -0.2394 -0.0429
 7277SOL    HW133464   0.091   3.749   7.688 -0.3212  0.3162  1.2548
 7277SOL    HW233465   0.181   3.657   7.756  0.6771  0.4560 -0.9200
 7278SOL     OW33466   1.154   1.441   8.040  0.1002  0.1557 -0.0403
 7278SOL    HW133467   1.093   1.368   8.048 -1.7660  1.7394  0.3067
 7278SOL    HW233468   1.116   1.506   8.099 -0.0811  0.0802 -0.0743
 7279SOL     OW33469   3.963   1.679  17.547  0.3590 -0.3026  0.2824
 7279SOL    HW133470   3.982   1.637  17.630  1.1025  0.5588  0.5486
 7279SOL    HW233471   3.875   1.711  17.568  0.4570  1.2992 -1.7187
 7280SOL     OW33472   1.570   1.750   1.815 -0.1635 -0.1307  0.2994
 7280SOL    HW133473   1.476   1.745   1.795  0.8728 -1.4122 -4.2945
 7280SOL    HW233474   1.575   1.765   1.909  0.7053  0.3215  0.1752
 7281SOL     OW33475   3.932   1.092  11.493 -0.2887  0.8459 -0.2951
 7281SOL    HW133476   4.007   1.148  11.476 -0.7938  1.9033  0.8926
 7281SOL    HW233477   3.858   1.153  11.495  0.8510  2.1643  2.5354
 7282SOL     OW33478   4.155   0.585   7.315 -0.4028 -0.1867 -0.3387
 7282SOL    HW133479   4.125   0.498   7.342  0.1717 -0.1045  0.5918
 7282SOL    HW233480   4.159   0.626   7.402 -0.7048  1.4194 -1.0938
 7283SOL     OW33481   2.736   1.084   2.475 -0.0617  0.4161 -0.0205
 7283SOL    HW133482   2.773   1.143   2.542 -0.0683 -1.7431  1.8788
 7283SOL    HW233483   2.749   1.007   2.531 -2.5683  0.7072  0.9899
 7284SOL     OW33484   4.194   1.842  17.643 -0.4487  0.3214 -0.2757
 7284SOL    HW133485   4.250   1.843  17.566 -0.2643  2.1122 -0.1196
 7284SOL    HW233486   4.120   1.896  17.615  0.5809  0.5043 -2.6564
 7285SOL     OW33487   2.665   3.682   5.407 -0.0461 -0.1246 -0.1708
 7285SOL    HW133488   2.647   3.775   5.398 -2.0743 -0.3151  2.0221
 7285SOL    HW233489   2.706   3.667   5.321 -1.4651 -1.7404 -0.5626
 7286SOL     OW33490   2.414   2.448   2.145 -0.8556  0.3154 -0.2997
 7286SOL    HW133491   2.361   2.394   2.085 -1.4386 -0.6168  1.0510
 7286SOL    HW233492   2.432   2.383   2.213  0.4405 -0.0384 -0.9775
 7287SOL     OW33493   0.004   1.653   0.677  0.7017  0.2060 -0.0983
 7287SOL    HW133494   4.655   1.612   0.688  0.9621 -0.6127 -1.1723
 7287SOL    HW233495   4.729   1.746   0.696  1.4531  0.3286 -0.2323
 7288SOL     OW33496   4.200   0.856   6.986  0.2690 -0.1294  0.4085
 7288SOL    HW133497   4.200   0.948   6.962 -1.5296  0.5014  2.7389
 7288SOL    HW233498   4.294   0.838   6.990  0.5926  1.5880  0.0702
 7289SOL     OW33499   2.024   4.238  12.738 -0.3378  0.2723 -0.8945
 7289SOL    HW133500   2.098   4.232  12.678 -1.2063 -1.1734 -1.8400
 7289SOL    HW233501   2.069   4.216  12.820  0.6697 -1.0508 -1.8023
 7290SOL     OW33502   3.833   3.976   3.643 -0.2090 -0.5097  0.3497
 7290SOL    HW133503   3.880   4.048   3.686 -0.2459 -0.0892 -0.3165
 7290SOL    HW233504   3.856   3.993   3.552  1.6904 -0.6466  0.7870
 7291SOL     OW33505   2.030   0.547   0.771 -0.0455 -0.1023 -0.6465
 7291SOL    HW133506   2.054   0.460   0.739 -1.4947 -0.3817 -0.9829
 7291SOL    HW233507   2.059   0.610   0.705  1.7011 -1.5253 -1.2285
 7292SOL     OW33508   2.610   1.872  17.131  0.8901 -0.1029 -0.0636
 7292SOL    HW133509   2.525   1.867  17.088  0.3387 -0.1815  1.0182
 7292SOL    HW233510   2.577   1.924  17.205 -1.0936  2.0494 -2.4513
 7293SOL     OW33511   2.157   1.356  13.248  0.1279  0.1610 -0.1120
 7293SOL    HW133512   2.093   1.376  13.179 -0.3498  1.3367  0.6632
 7293SOL    HW233513   2.224   1.417  13.219  1.0098 -1.3700 -1.2763
 7294SOL     OW33514   1.146   1.662   3.797  0.0367 -0.2418 -0.1892
 7294SOL    HW133515   1.214   1.651   3.730 -0.6211 -0.2001 -0.8674
 7294SOL    HW233516   1.069   1.688   3.746 -0.2483  0.8417  0.8014
 7295SOL     OW33517   4.188   2.642  16.691  0.3334 -0.2125 -0.4314
 7295SOL    HW133518   4.106   2.684  16.718  0.3912  0.0561 -0.6769
 7295SOL    HW233519   4.199   2.656  16.597  1.8008 -2.3057 -0.5720
 7296SOL     OW33520   3.957   0.706   2.610  0.1054  0.8767 -0.2291
 7296SOL    HW133521   3.968   0.648   2.535 -1.4729 -1.4668  1.3566
 7296SOL    HW233522   3.919   0.783   2.566 -1.1785  0.7715  0.6956
 7297SOL     OW33523   2.954   0.891   4.386  0.3271  0.4063  0.0821
 7297SOL    HW133524   2.965   0.815   4.329 -1.3416  1.6135 -1.8384
 7297SOL    HW233525   2.942   0.963   4.323 -0.0828  1.2758  1.1586
 7298SOL     OW33526   1.244   1.316   1.558  0.3354  0.2735 -0.3488
 7298SOL    HW133527   1.217   1.239   1.508 -2.5760  1.1368 -0.1164
 7298SOL    HW233528   1.175   1.325   1.623  0.1927 -2.2498 -0.1321
 7299SOL     OW33529   0.933   1.723  14.577  0.2904 -0.5128 -0.0395
 7299SOL    HW133530   0.858   1.666  14.593 -0.3543  0.9110  2.0720
 7299SOL    HW233531   1.004   1.667  14.607  0.8367 -0.5053 -1.3322
 7300SOL     OW33532   3.383   3.463   0.775 -0.2973 -0.5532 -0.3834
 7300SOL    HW133533   3.399   3.543   0.825  0.3665 -0.2041 -1.1489
 7300SOL    HW233534   3.365   3.501   0.689 -0.0127 -1.0301 -0.6540
 7301SOL     OW33535   4.422   1.815   6.226  0.5383 -0.0793 -0.1553
 7301SOL    HW133536   4.412   1.770   6.142 -0.3871  0.4788 -0.3391
 7301SOL    HW233537   4.474   1.755   6.280  0.1207 -1.2609 -1.0788
 7302SOL     OW33538   4.624   3.197   8.625 -0.1811  0.3395 -0.3076
 7302SOL    HW133539   4.559   3.147   8.576  0.4223 -0.0739 -0.6936
 7302SOL    HW233540   4.698   3.180   8.566 -0.1252 -0.3315 -0.0511
 7303SOL     OW33541   1.220   2.986   2.474  0.1361 -0.1501  0.3267
 7303SOL    HW133542   1.265   3.010   2.392 -0.3087  0.5206  0.2805
 7303SOL    HW233543   1.177   3.067   2.499 -3.7235 -1.4250 -2.1440
 7304SOL     OW33544   0.113   1.924   8.755  0.0367  0.2345 -0.4908
 7304SOL    HW133545   0.130   1.904   8.847  0.9264 -1.5328 -1.0486
 7304SOL    HW233546   0.017   1.926   8.750  0.0533  0.5266 -0.7287
 7305SOL     OW33547   1.691   1.524   4.927 -0.0383  0.0854 -0.0561
 7305SOL    HW133548   1.769   1.560   4.885 -1.0985  1.7334 -0.6141
 7305SOL    HW233549   1.697   1.429   4.916  0.3556  0.1973 -0.8209
 7306SOL     OW33550   0.738   4.627   4.448  0.1870 -0.2483 -0.8979
 7306SOL    HW133551   0.735   4.592   4.359  0.0767  0.6056 -1.2347
 7306SOL    HW233552   0.719   4.546   4.494 -0.2976  0.1298 -0.4321
 7307SOL     OW33553   4.099   0.866  14.249  0.2102 -0.0628 -0.1782
 7307SOL    HW133554   4.131   0.954  14.268 -0.0425 -0.0460  0.1632
 7307SOL    HW233555   4.155   0.838  14.176 -1.0332 -1.9396 -0.4236
 7308SOL     OW33556   2.989   0.892   5.992 -0.3085 -0.2953  0.6405
 7308SOL    HW133557   3.040   0.820   5.954 -0.3959 -0.1590  0.2617
 7308SOL    HW233558   2.904   0.849   5.986  0.2426 -1.5724  1.8333
 7309SOL     OW33559   3.179   1.440   6.376 -0.2169 -0.0980  0.1488
 7309SOL    HW133560   3.117   1.465   6.307  0.9579  0.4569 -0.7117
 7309SOL    HW233561   3.215   1.525   6.401 -0.8540 -0.8399  3.4862
 7310SOL     OW33562   3.467   0.927   8.567 -0.0076  0.2497 -0.6503
 7310SOL    HW133563   3.458   0.972   8.651  1.9448 -0.0761 -0.2612
 7310SOL    HW233564   3.374   0.910   8.548 -1.0736  4.1413  1.1074
 7311SOL     OW33565   3.811   3.496   9.018  0.2854 -0.1210 -0.1664
 7311SOL    HW133566   3.898   3.467   9.047 -0.3466 -0.3587  1.5243
 7311SOL    HW233567   3.757   3.443   9.076  1.7523 -0.8766  0.5208
 7312SOL     OW33568   4.495   1.576  17.309  0.3009  0.4496 -0.0582
 7312SOL    HW133569   4.443   1.506  17.349  1.3948 -1.1564 -1.4434
 7312SOL    HW233570   4.587   1.553  17.325  0.7346  1.3913 -1.1870
 7313SOL     OW33571   3.748   1.957  14.103 -0.1031 -0.2360 -0.1218
 7313SOL    HW133572   3.801   1.997  14.172  0.4008 -1.2183  0.0548
 7313SOL    HW233573   3.811   1.957  14.031  1.7206  0.4809  1.4598
 7314SOL     OW33574   2.125   3.307   6.114  0.1033  0.7111  0.2882
 7314SOL    HW133575   2.202   3.302   6.171  1.6116 -0.0479 -1.8479
 7314SOL    HW233576   2.087   3.221   6.136  4.5055 -1.1021  0.7838
 7315SOL     OW33577   1.504   0.592   1.104  0.4890 -0.8783  0.4683
 7315SOL    HW133578   1.569   0.621   1.040  0.3964 -0.0011  0.7797
 7315SOL    HW233579   1.434   0.572   1.042  0.0837  0.8149  0.3953
 7316SOL     OW33580   4.598   3.907   5.651  0.4982  0.1845 -0.9236
 7316SOL    HW133581   4.584   3.994   5.613 -0.6210  0.8759  1.0823
 7316SOL    HW233582   4.596   3.921   5.746  1.2413 -0.9682 -0.7334
 7317SOL     OW33583   1.310   1.321   8.263 -0.6037 -0.1888  0.3613
 7317SOL    HW133584   1.347   1.232   8.260  2.6510  1.1473  0.5033
 7317SOL    HW233585   1.267   1.331   8.178  0.0843  1.8739  0.2670
 7318SOL     OW33586   4.022   1.880   2.866 -0.4322  0.1884  0.1419
 7318SOL    HW133587   4.038   1.954   2.807 -1.8907  1.4422  1.3301
 7318SOL    HW233588   4.087   1.894   2.935 -0.8050 -2.3586  1.0211
 7319SOL     OW33589   3.314   0.143   4.441  0.5837 -0.1721 -0.1842
 7319SOL    HW133590   3.248   0.098   4.387  3.3133 -2.2584 -1.7917
 7319SOL    HW233591   3.388   0.137   4.381 -0.1815  0.5231 -1.1898
 7320SOL     OW33592   2.483   4.112  12.409 -0.0577  0.0632  0.2109
 7320SOL    HW133593   2.464   4.065  12.327 -1.6687  0.7283  0.1949
 7320SOL    HW233594   2.524   4.047  12.466  0.4319 -0.7009 -1.0109
 7321SOL     OW33595   0.582   1.981   8.745  0.0285 -0.1297  0.3208
 7321SOL    HW133596   0.555   2.058   8.695 -0.4273 -0.3758  0.1903
 7321SOL    HW233597   0.657   1.944   8.699  0.1683 -0.7980  1.0705
 7322SOL     OW33598   2.019   2.110  13.628 -0.2892  0.2441  0.3971
 7322SOL    HW133599   1.961   2.147  13.695  0.8788  2.8374 -0.0233
 7322SOL    HW233600   2.092   2.172  13.623 -0.4868  0.4776  0.3886
 7323SOL     OW33601   0.602   3.391   5.740 -0.4957  0.5669 -0.0551
 7323SOL    HW133602   0.643   3.437   5.668 -0.4530  0.7999  0.1178
 7323SOL    HW233603   0.680   3.340   5.761 -2.0824 -0.7582  2.6334
 7324SOL     OW33604   0.359   3.220   3.962 -0.3292  0.2848  0.1631
 7324SOL    HW133605   0.350   3.239   4.056  0.2959  0.2481  0.2309
 7324SOL    HW233606   0.418   3.291   3.936  0.7255 -0.4850  0.4576
 7325SOL     OW33607   3.604   2.015   6.712 -0.0560 -0.0466  0.6361
 7325SOL    HW133608   3.577   1.923   6.702  0.5779 -0.0477 -1.0093
 7325SOL    HW233609   3.677   2.002   6.773 -0.0673 -1.7350  0.2950
 7326SOL     OW33610   1.686   1.188  14.402  0.2522 -0.2726 -0.4833
 7326SOL    HW133611   1.765   1.156  14.359  1.6974  0.0102  1.9936
 7326SOL    HW233612   1.666   1.254  14.335 -0.8838  0.4969  0.5996
 7327SOL     OW33613   1.452   1.428   9.720  0.0226  0.6719  0.1296
 7327SOL    HW133614   1.429   1.442   9.628  3.2831  1.6852 -0.5093
 7327SOL    HW233615   1.545   1.449   9.717  0.3442 -0.7024  0.3866
 7328SOL     OW33616   1.105   2.024   0.482 -0.1663 -0.0564  0.2812
 7328SOL    HW133617   1.038   2.091   0.495  1.2625  0.9919  2.1907
 7328SOL    HW233618   1.181   2.077   0.460 -0.9509 -0.0966 -2.5275
 7329SOL     OW33619   4.251   1.183   8.486 -0.4703 -0.3099  0.5745
 7329SOL    HW133620   4.180   1.240   8.516 -1.2664 -1.8474  1.6569
 7329SOL    HW233621   4.330   1.231   8.510 -0.4717  1.1789 -2.3613
 7330SOL     OW33622   2.154   2.205   9.178 -0.1741  0.1159  0.2743
 7330SOL    HW133623   2.095   2.172   9.246  0.6013 -2.0520 -0.1041
 7330SOL    HW233624   2.150   2.300   9.191  0.2697  0.2615 -0.6774
 7331SOL     OW33625   2.881   3.391   0.940  0.0274 -0.1391 -0.3218
 7331SOL    HW133626   2.913   3.354   1.022  0.6386 -0.6638 -0.8029
 7331SOL    HW233627   2.963   3.405   0.892 -0.1922  2.1693 -0.0389
 7332SOL     OW33628   0.434   0.408   8.997 -0.4241 -0.4777  0.4164
 7332SOL    HW133629   0.507   0.415   8.936 -0.4796  0.4354  0.4569
 7332SOL    HW233630   0.368   0.364   8.945 -3.0230  2.5328  1.1238
 7333SOL     OW33631   4.315   3.142   8.254  0.8276 -0.0833 -0.4389
 7333SOL    HW133632   4.225   3.109   8.248  0.1816  1.2549  1.6242
 7333SOL    HW233633   4.304   3.236   8.240 -2.5047 -0.2062  1.2460
 7334SOL     OW33634   4.208   1.168   8.204 -0.2019  0.3790 -0.0739
 7334SOL    HW133635   4.255   1.085   8.196  0.9480  0.8560  1.6405
 7334SOL    HW233636   4.234   1.194   8.293 -1.5850  0.2397  0.3685
 7335SOL     OW33637   3.255   2.169   3.994  0.0014  0.3630  0.0143
 7335SOL    HW133638   3.165   2.155   3.965 -0.3332 -0.5354  1.5107
 7335SOL    HW233639   3.315   2.106   3.955 -0.6232 -0.0153 -0.3463
 7336SOL     OW33640   4.671   4.110  15.087  0.1057  0.3285  0.2967
 7336SOL    HW133641   0.010   4.124  15.030  0.6423 -1.2509  0.6107
 7336SOL    HW233642   4.678   4.015  15.092  1.0460  0.5256  2.7410
 7337SOL     OW33643   0.604   1.283   7.936 -0.0133  0.5178  0.5872
 7337SOL    HW133644   0.699   1.284   7.930  0.1018 -0.2617  2.2313
 7337SOL    HW233645   0.591   1.200   7.982 -1.6504  0.8344  0.7155
 7338SOL     OW33646   2.649   2.266   2.976  0.3089 -0.1518  0.1888
 7338SOL    HW133647   2.587   2.288   3.046  1.2122  1.6846  0.4002
 7338SOL    HW233648   2.641   2.173   2.954 -0.2251 -0.7687  3.0198
 7339SOL     OW33649   3.214   2.147   2.647  0.4415  0.0913 -0.2767
 7339SOL    HW133650   3.161   2.139   2.568 -0.3422  2.1630  0.0474
 7339SOL    HW233651   3.165   2.204   2.706  3.0354 -0.8214  2.7880
 7340SOL     OW33652   4.599   1.767   8.535  0.0098  0.0264 -0.0797
 7340SOL    HW133653   4.664   1.833   8.561  1.1042 -1.6318  1.4506
 7340SOL    HW233654   4.637   1.750   8.449 -1.2228  3.1137 -1.2422
 7341SOL     OW33655   2.415   3.694   1.287 -0.3876 -0.4491 -0.1425
 7341SOL    HW133656   2.410   3.640   1.208  0.8685 -0.2429 -0.3622
 7341SOL    HW233657   2.424   3.629   1.357 -0.4536 -0.6901 -0.3555
 7342SOL     OW33658   2.770   0.947   9.674 -0.8028 -0.0607 -0.0366
 7342SOL    HW133659   2.746   0.924   9.585  0.6298  0.8718 -0.6571
 7342SOL    HW233660   2.857   0.986   9.666 -0.1735 -1.3897  0.2839
 7343SOL     OW33661   0.516   0.942  11.818 -0.0770 -0.1091  0.0071
 7343SOL    HW133662   0.570   0.875  11.776 -0.4159 -0.0121 -0.5826
 7343SOL    HW233663   0.475   0.903  11.895 -1.4342 -2.6207 -1.9851
 7344SOL     OW33664   1.124   2.280  17.368  0.1041  0.4272  0.5142
 7344SOL    HW133665   1.143   2.295  17.460 -0.9787 -2.0780  1.1465
 7344SOL    HW233666   1.158   2.191  17.363  1.0820  0.8282 -0.3461
 7345SOL     OW33667   0.146   4.425  13.880 -0.2064 -0.3357  0.0620
 7345SOL    HW133668   0.196   4.376  13.945  1.7695  0.0183 -1.2018
 7345SOL    HW233669   0.139   4.508  13.928  0.7734 -1.3093  1.8936
 7346SOL     OW33670   3.374   2.855   3.205  0.0535  0.4597 -0.1466
 7346SOL    HW133671   3.456   2.809   3.217 -0.3765 -0.5977 -1.2812
 7346SOL    HW233672   3.329   2.828   3.285 -0.9683  1.1818 -0.4746
 7347SOL     OW33673   2.186   2.550   6.692 -0.0366 -0.3621 -0.2279
 7347SOL    HW133674   2.261   2.510   6.647  1.1465  0.9594  0.5786
 7347SOL    HW233675   2.114   2.496   6.659 -1.9325  2.1570 -0.2037
 7348SOL     OW33676   2.900   3.739   6.417  0.5651  0.3297  0.0116
 7348SOL    HW133677   2.864   3.686   6.487 -0.1306  1.0913  0.2342
 7348SOL    HW233678   2.943   3.678   6.356  0.2880 -1.2081  1.3590
 7349SOL     OW33679   4.617   4.522  16.495 -0.4112 -0.4401  0.3447
 7349SOL    HW133680   4.563   4.445  16.514 -1.6911 -0.3589 -2.9270
 7349SOL    HW233681   4.566   4.543  16.416 -0.3217  1.0983  0.6963
 7350SOL     OW33682   2.741   0.097  16.313  0.1721 -0.5541  0.1960
 7350SOL    HW133683   2.782   0.136  16.390 -1.8806 -0.0655  1.0410
 7350SOL    HW233684   2.652   0.081  16.345 -0.2304 -1.0876 -1.1971
 7351SOL     OW33685   3.997   0.480   5.828  0.2926 -0.6409  0.5195
 7351SOL    HW133686   4.075   0.427   5.812 -0.5557 -2.0471  1.0364
 7351SOL    HW233687   3.972   0.499   5.737  0.0420  1.1016  0.9558
 7352SOL     OW33688   3.749   4.376   2.539 -0.6759 -0.0018  0.2205
 7352SOL    HW133689   3.687   4.323   2.588  1.0049 -1.3450  0.9031
 7352SOL    HW233690   3.786   4.308   2.483  0.8465  0.7687  0.2828
 7353SOL     OW33691   0.841   3.299   2.332 -0.4227 -0.2266  0.5088
 7353SOL    HW133692   0.845   3.275   2.240  0.6365  0.0613  0.4791
 7353SOL    HW233693   0.796   3.384   2.329  2.2716  1.3664  4.3803
 7354SOL     OW33694   0.940   2.018   1.557  0.0318 -0.0254 -0.8120
 7354SOL    HW133695   0.845   2.019   1.541 -0.2078 -3.6637  0.2643
 7354SOL    HW233696   0.948   2.017   1.652 -1.6137  2.9965 -0.6488
 7355SOL     OW33697   2.895   0.919  17.172  0.1465 -0.4090  0.3349
 7355SOL    HW133698   2.957   0.982  17.208  0.4600 -0.9227  0.7001
 7355SOL    HW233699   2.839   0.910  17.248  0.7699  1.5528  1.0190
 7356SOL     OW33700   1.987   0.921  12.900  0.3440 -0.0836  0.4296
 7356SOL    HW133701   1.963   0.966  12.819  0.8085 -1.5420 -0.5082
 7356SOL    HW233702   2.035   0.846  12.867 -0.0724 -0.0424 -0.2540
 7357SOL     OW33703   3.916   3.282   4.007  0.1063  0.1084 -1.0576
 7357SOL    HW133704   3.952   3.341   3.940 -1.5880  1.5468 -0.7047
 7357SOL    HW233705   3.823   3.272   3.985 -0.0680  3.7626 -1.9832
 7358SOL     OW33706   2.491   2.168  12.119 -0.0581 -0.3172  0.0238
 7358SOL    HW133707   2.425   2.230  12.088  0.6153  0.5825  0.3908
 7358SOL    HW233708   2.568   2.224  12.104 -3.0768  3.7183 -0.4067
 7359SOL     OW33709   2.673   0.211   1.903  0.5250 -0.0002 -0.5709
 7359SOL    HW133710   2.655   0.143   1.838 -2.1596  0.0625  0.0979
 7359SOL    HW233711   2.609   0.191   1.970 -1.8846 -0.8518 -3.1151
 7360SOL     OW33712   1.089   2.768   6.970 -0.1442 -0.2927 -0.4964
 7360SOL    HW133713   1.029   2.827   7.015  1.2488  0.4173  0.4112
 7360SOL    HW233714   1.071   2.794   6.880  1.5445 -1.3302 -1.1162
 7361SOL     OW33715   1.920   4.464   7.026 -0.2392 -0.0246  0.6761
 7361SOL    HW133716   1.852   4.512   6.979 -0.1508 -0.5318  0.0367
 7361SOL    HW233717   1.866   4.436   7.099  1.6781 -0.4257  1.9554
 7362SOL     OW33718   1.570   3.019  16.947  0.8529 -0.0084  0.2767
 7362SOL    HW133719   1.562   3.003  17.041 -3.3568  1.2243  0.1299
 7362SOL    HW233720   1.526   2.938  16.923  1.3059 -0.5478  1.2908
 7363SOL     OW33721   0.953   3.777  17.338 -0.7091 -0.1708  0.0207
 7363SOL    HW133722   0.870   3.736  17.362  0.9480 -3.3183  0.2763
 7363SOL    HW233723   0.928   3.826  17.260 -1.9449  0.7408  0.9797
 7364SOL     OW33724   3.505   3.371   1.603  0.3465 -0.2175 -0.3261
 7364SOL    HW133725   3.476   3.280   1.603 -1.2881  0.3058 -2.6435
 7364SOL    HW233726   3.574   3.367   1.537 -0.8214  1.3749 -1.6549
 7365SOL     OW33727   2.876   2.609   9.603 -0.1611  0.4883 -0.0788
 7365SOL    HW133728   2.971   2.616   9.604 -0.1295 -0.0409  0.3531
 7365SOL    HW233729   2.860   2.624   9.509  1.5829  4.4816  0.2537
 7366SOL     OW33730   1.074   2.399   9.766 -0.5424 -0.5162 -0.1180
 7366SOL    HW133731   1.000   2.369   9.819 -1.0227 -0.2674 -0.6385
 7366SOL    HW233732   1.061   2.494   9.767  1.0037 -0.3316  1.5331
 7367SOL     OW33733   0.662   0.737   6.969 -0.1072  0.6233  0.2992
 7367SOL    HW133734   0.685   0.705   6.882 -0.9650  1.1098 -0.0969
 7367SOL    HW233735   0.610   0.664   7.003 -2.1794  2.6193  1.3583
 7368SOL     OW33736   2.640   2.903   4.485 -0.2632 -0.1263  0.0033
 7368SOL    HW133737   2.591   2.945   4.414  2.2105 -1.6851 -2.6372
 7368SOL    HW233738   2.576   2.838   4.515  0.0069 -0.1866  0.4488
 7369SOL     OW33739   4.029   3.456   2.195 -0.0093  0.6464 -0.6338
 7369SOL    HW133740   3.984   3.504   2.264  3.0035  0.4781  1.4527
 7369SOL    HW233741   3.972   3.379   2.191 -0.3556  0.7636  2.0827
 7370SOL     OW33742   0.039   1.947   3.309 -0.2439  0.7695  0.4779
 7370SOL    HW133743   0.091   2.001   3.249  0.7320 -2.4835 -1.5433
 7370SOL    HW233744   0.020   1.874   3.251 -0.5123 -0.4898  2.1353
 7371SOL     OW33745   1.436   3.086   6.899 -0.0305  0.1704  0.4581
 7371SOL    HW133746   1.359   3.086   6.957 -0.3630  0.6891  0.0119
 7371SOL    HW233747   1.498   3.139   6.949 -0.5438  0.6854  0.5612
 7372SOL     OW33748   1.886   1.120   4.890 -0.3048  0.4703 -0.4609
 7372SOL    HW133749   1.845   1.063   4.825  0.7602  2.5535 -2.9549
 7372SOL    HW233750   1.838   1.097   4.970  1.3064 -1.2686  0.0146
 7373SOL     OW33751   0.241   0.153   1.672  0.2789  0.0013 -0.5545
 7373SOL    HW133752   0.197   0.094   1.733  2.0456 -0.6046  0.1613
 7373SOL    HW233753   0.169   0.215   1.661  1.0696  0.7569 -1.4977
 7374SOL     OW33754   1.622   0.541   4.430  0.1745  0.5020  0.2803
 7374SOL    HW133755   1.685   0.613   4.432 -1.6870  2.1018  1.0382
 7374SOL    HW233756   1.600   0.535   4.523  0.8440  0.2035  0.4223
 7375SOL     OW33757   0.266   1.194  16.495 -0.1632  0.0620 -0.4313
 7375SOL    HW133758   0.231   1.274  16.456 -1.2264 -0.7090 -1.0783
 7375SOL    HW233759   0.299   1.142  16.422 -0.8693 -0.6379 -0.2589
 7376SOL     OW33760   3.404   1.898   5.052  0.0845 -0.5227 -0.1183
 7376SOL    HW133761   3.343   1.927   5.121  0.0069 -2.6479  0.7061
 7376SOL    HW233762   3.465   1.972   5.045 -0.9941  0.3134 -0.7314
 7377SOL     OW33763   0.863   1.746   1.470 -0.4107 -0.3438  0.1507
 7377SOL    HW133764   0.796   1.750   1.537  0.6780  1.2861  1.1397
 7377SOL    HW233765   0.906   1.832   1.466  2.0782 -1.5347  1.8494
 7378SOL     OW33766   2.796   3.328   5.084  0.5972  0.7199  0.4621
 7378SOL    HW133767   2.765   3.252   5.035  0.0337  0.6384  0.9453
 7378SOL    HW233768   2.866   3.369   5.033  1.6408 -1.1098  0.4015
 7379SOL     OW33769   4.536   0.767   5.625 -0.3931 -0.2224 -0.1438
 7379SOL    HW133770   4.607   0.825   5.597 -0.0771 -0.9533 -0.8614
 7379SOL    HW233771   4.483   0.820   5.684  0.3903  2.8020 -2.1411
 7380SOL     OW33772   2.576   4.190   1.390 -0.4562  0.2335 -0.1154
 7380SOL    HW133773   2.600   4.098   1.399 -2.5642 -0.2818  0.3857
 7380SOL    HW233774   2.481   4.180   1.394 -0.5450  0.1140 -2.6520
 7381SOL     OW33775   3.556   4.628   8.460 -0.0222 -0.2521  0.1937
 7381SOL    HW133776   3.608   4.625   8.380 -2.0825  2.3976 -1.2074
 7381SOL    HW233777   3.577   4.541   8.494 -1.5650 -0.5317  0.4394
 7382SOL     OW33778   0.127   2.312   3.675 -0.3136  1.1018 -0.1473
 7382SOL    HW133779   0.157   2.239   3.621  0.1617  0.5063  0.9247
 7382SOL    HW233780   0.205   2.316   3.731 -0.2840 -0.8174 -0.0562
 7383SOL     OW33781   1.197   0.440   0.844  0.0507  0.5070  0.2659
 7383SOL    HW133782   1.148   0.470   0.768 -1.9522 -2.1055  0.5574
 7383SOL    HW233783   1.286   0.466   0.819  0.2714 -1.0927 -0.5819
 7384SOL     OW33784   2.122   0.374   6.745  0.0453  0.3018 -0.4076
 7384SOL    HW133785   2.201   0.320   6.745  1.2108  1.9789  1.4605
 7384SOL    HW233786   2.078   0.339   6.668 -1.4593 -1.5917  1.3363
 7385SOL     OW33787   0.603   2.227   1.608 -0.2926 -0.9530 -0.5407
 7385SOL    HW133788   0.621   2.304   1.553 -0.4845  0.0161  0.7556
 7385SOL    HW233789   0.648   2.253   1.689  1.7289  0.8898 -2.2238
 7386SOL     OW33790   3.231   1.907   0.557  0.0363 -0.1058 -0.4002
 7386SOL    HW133791   3.191   1.989   0.527  0.3247  0.0030 -0.4899
 7386SOL    HW233792   3.160   1.870   0.609  1.0986 -0.8956  0.4985
 7387SOL     OW33793   3.838   4.518   4.224 -0.0639  0.0242  0.0638
 7387SOL    HW133794   3.879   4.445   4.271 -0.8425 -0.7899 -0.5301
 7387SOL    HW233795   3.867   4.591   4.279  4.0837 -1.8216  0.3516
 7388SOL     OW33796   2.239   0.550   8.096 -0.0240 -0.2602  0.3628
 7388SOL    HW133797   2.308   0.512   8.042  0.0302  0.6328 -0.2076
 7388SOL    HW233798   2.173   0.482   8.106 -0.2891  0.1434  1.3590
 7389SOL     OW33799   3.441   3.299   0.129  0.8064  0.0428 -0.2581
 7389SOL    HW133800   3.370   3.304   0.193  1.9761  1.2540  0.9460
 7389SOL    HW233801   3.523   3.301   0.179  0.5442  1.3560  0.0999
 7390SOL     OW33802   1.677   4.443   7.996 -0.4778 -0.2012 -0.7363
 7390SOL    HW133803   1.734   4.436   7.919  0.9558  0.4407  0.2626
 7390SOL    HW233804   1.648   4.354   8.017 -0.2800  0.1270  0.9522
 7391SOL     OW33805   0.886   4.326   7.388  0.2239 -0.3795 -0.1435
 7391SOL    HW133806   0.956   4.358   7.444 -2.4705  1.3634  2.2130
 7391SOL    HW233807   0.831   4.299   7.462  1.0889  0.8473  0.9400
 7392SOL     OW33808   4.143   4.184   0.615  0.0978 -0.0568  0.4322
 7392SOL    HW133809   4.190   4.118   0.565  0.4252 -0.4809  1.2994
 7392SOL    HW233810   4.127   4.142   0.699  1.5978  0.3015  0.9051
 7393SOL     OW33811   2.456   0.567   4.949  0.0497  0.3272  0.0778
 7393SOL    HW133812   2.537   0.606   4.983 -0.0135  0.0088  0.5838
 7393SOL    HW233813   2.488   0.481   4.926  1.8985  0.3592  2.5668
 7394SOL     OW33814   2.048   3.252   2.441 -0.2104  0.0977  0.0762
 7394SOL    HW133815   2.057   3.227   2.349  0.2833 -0.6160  0.3212
 7394SOL    HW233816   1.970   3.306   2.427 -0.0289  0.0222 -1.2172
 7395SOL     OW33817   1.598   1.257   5.396  0.1731  0.0215 -0.8341
 7395SOL    HW133818   1.587   1.166   5.424 -0.0736  0.3197  0.0409
 7395SOL    HW233819   1.520   1.279   5.345  0.1713 -0.5074 -1.0580
 7396SOL     OW33820   4.724   4.217   7.619  0.2804  0.2611  0.1465
 7396SOL    HW133821   4.715   4.293   7.676  0.7973  0.3387  0.1284
 7396SOL    HW233822   4.688   4.146   7.673  2.6222 -0.8197  0.3237
 7397SOL     OW33823   3.698   0.967  11.835  0.2733 -0.4810 -0.3427
 7397SOL    HW133824   3.670   1.001  11.920  0.4334 -1.8245  0.2440
 7397SOL    HW233825   3.674   0.875  11.845  1.0633 -0.6052  0.3463
 7398SOL     OW33826   3.340   0.465   3.052  0.7133 -0.2414  0.2303
 7398SOL    HW133827   3.350   0.426   2.965  1.3093 -3.9366  1.9547
 7398SOL    HW233828   3.397   0.421   3.114  0.7023  1.1802  1.2521
 7399SOL     OW33829   0.369   3.319   5.509  0.3644  0.3235 -1.0587
 7399SOL    HW133830   0.328   3.255   5.566  0.2185 -0.1606 -1.7049
 7399SOL    HW233831   0.292   3.361   5.470 -0.4832 -1.1854 -1.0040
 7400SOL     OW33832   1.217   4.435   6.668 -0.0552  0.4920 -0.8227
 7400SOL    HW133833   1.224   4.426   6.572  0.3258 -2.8095 -0.4901
 7400SOL    HW233834   1.289   4.375   6.686  0.4343  1.1821 -0.5191
 7401SOL     OW33835   4.005   3.962   2.633  0.3646  0.2755 -0.6225
 7401SOL    HW133836   4.072   4.011   2.681  1.2298 -0.0868 -1.4694
 7401SOL    HW233837   3.933   3.973   2.695 -0.4621 -2.2456 -1.1339
 7402SOL     OW33838   3.639   2.012   4.963 -0.0127 -0.1023 -0.1332
 7402SOL    HW133839   3.662   2.034   4.873 -1.4655  1.0616 -0.2140
 7402SOL    HW233840   3.723   1.986   5.003 -0.0446  0.5032  0.3199
 7403SOL     OW33841   2.309   1.603   6.260  0.0584 -0.3066 -0.6334
 7403SOL    HW133842   2.364   1.626   6.336 -0.8953  0.6363 -0.2166
 7403SOL    HW233843   2.314   1.687   6.214  1.4399  0.4667  0.9222
 7404SOL     OW33844   1.616   2.173   7.271  0.0192 -0.0935 -0.0728
 7404SOL    HW133845   1.652   2.194   7.358  0.9598  2.4858 -1.1068
 7404SOL    HW233846   1.687   2.119   7.235 -1.4408 -1.0116 -1.5414
 7405SOL     OW33847   0.738   4.730   3.313  0.8327  0.9583 -0.4849
 7405SOL    HW133848   0.724   0.086   3.332 -2.9012  0.4239 -0.5677
 7405SOL    HW233849   0.812   4.711   3.370  0.7177  1.6333 -0.1026
 7406SOL     OW33850   3.813   0.106   6.536  0.5244 -0.1939 -0.1988
 7406SOL    HW133851   3.824   0.042   6.465 -0.7375  0.8373 -1.3461
 7406SOL    HW233852   3.867   0.077   6.609 -0.5298 -1.9917 -0.1580
 7407SOL     OW33853   4.063   1.256  14.840 -0.1429  0.5945  0.5021
 7407SOL    HW133854   4.114   1.337  14.830 -0.3564  0.7865  0.9890
 7407SOL    HW233855   4.090   1.239  14.930  1.0719 -1.1894 -0.1960
 7408SOL     OW33856   0.598   0.154   4.436  0.1782 -0.2614  0.8449
 7408SOL    HW133857   0.532   0.161   4.367 -0.1944  1.5478  1.3910
 7408SOL    HW233858   0.655   0.081   4.409 -0.3246 -0.3537  0.0238
 7409SOL     OW33859   0.475   3.085   6.108 -0.2833  0.2710  0.6746
 7409SOL    HW133860   0.508   3.138   6.035  2.1348 -1.3223  0.6031
 7409SOL    HW233861   0.436   3.010   6.063  1.2638 -1.0440  1.5225
 7410SOL     OW33862   4.363   0.767   6.684 -0.4044 -0.2468  0.2073
 7410SOL    HW133863   4.309   0.833   6.640 -1.0096 -1.3261 -0.6633
 7410SOL    HW233864   4.391   0.812   6.764 -1.3157  1.7699 -0.5947
 7411SOL     OW33865   4.656   0.827  10.367 -0.1810 -0.5824  0.1076
 7411SOL    HW133866   4.600   0.785  10.433  0.1200 -1.7085 -0.3407
 7411SOL    HW233867   4.645   0.920  10.383 -0.3436 -0.8683  1.7075
 7412SOL     OW33868   0.133   2.394   4.976 -0.3660 -0.7911  0.0011
 7412SOL    HW133869   0.192   2.470   4.974 -1.3144 -0.0407  0.8546
 7412SOL    HW233870   0.069   2.421   4.910  1.6441  0.8183 -1.2950
 7413SOL     OW33871   3.377   2.516   5.339  0.0546 -0.0981  0.0682
 7413SOL    HW133872   3.307   2.476   5.288  0.9530 -1.7006  0.0932
 7413SOL    HW233873   3.341   2.604   5.330  0.4472  0.1596  1.0848
 7414SOL     OW33874   3.025   0.254   7.481 -0.1984  0.7288  0.1837
 7414SOL    HW133875   2.978   0.285   7.558 -2.5531 -1.1055 -0.5220
 7414SOL    HW233876   3.103   0.311   7.477  1.7131 -1.8992 -0.1223
 7415SOL     OW33877   2.937   1.285  11.465 -0.4465  0.0245  0.1039
 7415SOL    HW133878   2.872   1.215  11.466  0.2686 -0.6402  0.0638
 7415SOL    HW233879   2.896   1.353  11.517 -0.6106 -0.2308  0.3061
 7416SOL     OW33880   1.380   1.898   2.471  0.4136  0.8647  0.1538
 7416SOL    HW133881   1.446   1.837   2.505  0.0584  0.4456  0.0970
 7416SOL    HW233882   1.325   1.841   2.417  0.0544  0.4180  0.9789
 7417SOL     OW33883   0.237   1.325   2.199  0.1093 -0.1160  0.7096
 7417SOL    HW133884   0.287   1.282   2.269  0.3225  0.6766  1.0483
 7417SOL    HW233885   0.212   1.403   2.249 -0.2829 -0.0133  0.3491
 7418SOL     OW33886   2.696   2.701   8.533 -0.0785  0.0639  0.4354
 7418SOL    HW133887   2.642   2.647   8.476  3.0801 -2.6713  0.0193
 7418SOL    HW233888   2.685   2.788   8.496 -0.4748 -0.8252 -1.5306
 7419SOL     OW33889   0.619   2.423   2.330  0.2659 -0.2089  0.2777
 7419SOL    HW133890   0.706   2.388   2.352  0.9154 -0.2115 -2.2945
 7419SOL    HW233891   0.567   2.365   2.385 -0.3059 -0.9273 -1.0171
 7420SOL     OW33892   1.441   3.935   2.863  0.0706 -0.3367 -0.0484
 7420SOL    HW133893   1.429   3.848   2.900  0.8123 -0.3651  0.1304
 7420SOL    HW233894   1.536   3.935   2.845 -0.1175  0.6934 -1.0536
 7421SOL     OW33895   2.151   2.739  12.243  0.1323  0.5915 -0.0353
 7421SOL    HW133896   2.177   2.671  12.306 -0.9585 -0.8682 -1.1955
 7421SOL    HW233897   2.058   2.746  12.263  0.1312 -1.4853  0.7232
 7422SOL     OW33898   4.428   3.682   7.481 -0.4808  0.2886  1.0551
 7422SOL    HW133899   4.394   3.629   7.554  0.0862 -2.0054 -0.3274
 7422SOL    HW233900   4.425   3.761   7.534  0.4333  1.0374 -0.0217
 7423SOL     OW33901   4.548   2.621   2.195  0.0960  0.1325  0.0801
 7423SOL    HW133902   4.536   2.615   2.101 -0.1623  1.1370  0.0469
 7423SOL    HW233903   4.618   2.686   2.196  0.2026  0.0168  1.8010
 7424SOL     OW33904   3.474   2.295   6.877  0.5086  0.0966  0.4997
 7424SOL    HW133905   3.495   2.213   6.834  1.6576 -0.0326  1.3244
 7424SOL    HW233906   3.497   2.352   6.803 -2.2001  0.6085  0.0436
 7425SOL     OW33907   4.176   1.846  17.006 -0.3283 -1.0179  0.5645
 7425SOL    HW133908   4.158   1.870  17.097  2.8224  0.3551  0.8437
 7425SOL    HW233909   4.172   1.934  16.967  3.3430 -0.8732  0.4857
 7426SOL     OW33910   0.270   1.091   6.021  0.5959  0.4485  0.4168
 7426SOL    HW133911   0.321   1.011   6.009  0.2065  0.3589 -0.6651
 7426SOL    HW233912   0.281   1.117   6.112  0.9226 -1.1897  0.8391
 7427SOL     OW33913   0.840   0.471   9.870 -0.0312 -0.2445  0.0066
 7427SOL    HW133914   0.780   0.417   9.921  1.7852 -1.1434  1.1880
 7427SOL    HW233915   0.901   0.493   9.941 -0.0123 -1.5090  0.3727
 7428SOL     OW33916   0.583   3.598   7.823  0.4309 -0.3081  0.1105
 7428SOL    HW133917   0.559   3.557   7.740  1.1699  0.5807 -0.5450
 7428SOL    HW233918   0.590   3.519   7.876 -0.2909  0.5295  1.4460
 7429SOL     OW33919   2.856   3.442  10.756 -0.0444  0.0827  0.1564
 7429SOL    HW133920   2.910   3.458  10.833  0.0956 -1.2130  0.3187
 7429SOL    HW233921   2.920   3.418  10.690  1.6409  3.4052  0.5497
 7430SOL     OW33922   1.214   2.349  11.783 -0.5261  0.5543 -0.2022
 7430SOL    HW133923   1.214   2.435  11.741 -1.7578  0.6217 -0.0876
 7430SOL    HW233924   1.240   2.288  11.714  0.5053  1.6323 -0.7655
 7431SOL     OW33925   0.413   0.684   4.794 -0.0641  0.0603  0.1330
 7431SOL    HW133926   0.345   0.651   4.852  0.5962  0.3362  1.0641
 7431SOL    HW233927   0.358   0.736   4.735  0.8602 -0.7348 -1.4342
 7432SOL     OW33928   2.131   4.023   6.930  0.0102  0.6321 -0.0975
 7432SOL    HW133929   2.170   4.063   6.852 -2.2709 -0.7710 -1.9591
 7432SOL    HW233930   2.094   3.944   6.890  2.5772  0.2058 -1.6755
 7433SOL     OW33931   0.121   0.043   7.747 -0.6928 -0.1905  0.0577
 7433SOL    HW133932   0.135   4.690   7.718 -1.4391  0.1268 -1.2873
 7433SOL    HW233933   0.079   0.044   7.833  2.3775  1.8498  1.5176
 7434SOL     OW33934   1.549   1.615   5.278 -0.0856  0.4704 -0.2514
 7434SOL    HW133935   1.551   1.545   5.214 -1.5525  0.2509 -0.0720
 7434SOL    HW233936   1.456   1.638   5.284 -0.3110 -0.2230 -1.1738
 7435SOL     OW33937   4.702   1.106   2.589  0.9599  0.2053  0.3632
 7435SOL    HW133938   4.657   1.028   2.620 -0.5437  0.5515 -0.9454
 7435SOL    HW233939   4.720   1.163   2.663 -1.5946  0.5645  0.7170
 7436SOL     OW33940   4.405   0.196   7.897 -0.1194  0.0750 -0.9387
 7436SOL    HW133941   4.388   0.285   7.866  1.1514  0.8575  0.6097
 7436SOL    HW233942   4.368   0.196   7.986 -0.7811  0.4935 -1.2106
 7437SOL     OW33943   0.276   0.298   6.746 -0.0422 -0.4650 -0.2066
 7437SOL    HW133944   0.301   0.370   6.804 -0.8207 -1.0071  0.8088
 7437SOL    HW233945   0.251   0.346   6.667  1.3446 -1.7482 -1.4259
 7438SOL     OW33946   3.793   2.555  13.373 -0.1280 -0.7030 -0.2377
 7438SOL    HW133947   3.886   2.535  13.359  0.2129 -0.1050  1.0805
 7438SOL    HW233948   3.756   2.539  13.287  0.8109  2.3362 -1.2180
 7439SOL     OW33949   3.050   0.734  12.426 -0.3004 -0.2023 -0.4290
 7439SOL    HW133950   2.986   0.678  12.470 -0.2194  0.1994  0.1955
 7439SOL    HW233951   3.005   0.760  12.345  0.1852  1.9434 -0.0171
 7440SOL     OW33952   0.216   2.485  16.505 -0.2390 -0.4362  0.2194
 7440SOL    HW133953   0.159   2.461  16.578 -1.6362 -2.3913 -1.4879
 7440SOL    HW233954   0.180   2.565  16.467  2.5503  0.1253 -1.2287
 7441SOL     OW33955   0.065   1.777  13.202  0.1609 -0.3519 -0.1450
 7441SOL    HW133956   0.134   1.717  13.230 -0.4489 -0.2113  1.6415
 7441SOL    HW233957   0.085   1.791  13.110 -1.8578  0.5820 -0.4308
 7442SOL     OW33958   0.976   4.532   1.048 -0.1823 -0.0290 -0.1593
 7442SOL    HW133959   1.018   4.450   1.071 -2.3420 -1.2526 -0.5591
 7442SOL    HW233960   0.970   4.514   0.954  0.5817 -0.1436 -0.1855
 7443SOL     OW33961   0.915   0.821   1.497 -0.3747  0.8246 -0.0218
 7443SOL    HW133962   0.838   0.805   1.442 -0.8378  0.2050  0.8068
 7443SOL    HW233963   0.984   0.787   1.440 -0.4474 -2.2882  1.7467
 7444SOL     OW33964   0.062   3.079   7.474 -0.2725 -0.7377  0.0423
 7444SOL    HW133965   4.733   3.125   7.525  1.4776 -1.3700  2.9152
 7444SOL    HW233966   0.135   3.141   7.478 -0.4902 -0.3228 -2.3987
 7445SOL     OW33967   4.524   1.666   3.359  0.3959 -0.6762 -0.3445
 7445SOL    HW133968   4.578   1.653   3.281  0.2694  0.3319 -0.6079
 7445SOL    HW233969   4.512   1.761   3.353 -2.4686 -1.0204 -0.0603
 7446SOL     OW33970   4.060   3.681   8.746 -0.0379  0.0558 -0.0721
 7446SOL    HW133971   4.112   3.605   8.771 -0.7637  0.4740  2.7634
 7446SOL    HW233972   3.975   3.645   8.720 -0.3756  1.1875 -0.5678
 7447SOL     OW33973   1.494   2.706  16.108  0.3927  0.3458 -0.2741
 7447SOL    HW133974   1.515   2.798  16.121 -0.6717  0.6741 -0.9115
 7447SOL    HW233975   1.436   2.706  16.032 -0.2970  0.2791  0.2568
 7448SOL     OW33976   1.541   1.231  13.334  0.1802 -0.1984 -0.1391
 7448SOL    HW133977   1.543   1.162  13.268  0.7900  0.9421 -1.3111
 7448SOL    HW233978   1.517   1.187  13.416 -1.9972  0.7944 -0.2440
 7449SOL     OW33979   0.256   4.229   2.397  0.8049  0.0878 -0.3546
 7449SOL    HW133980   0.177   4.176   2.414 -0.4287  1.1317 -2.8727
 7449SOL    HW233981   0.212   4.308   2.366 -0.3437 -1.1490 -1.8895
 7450SOL     OW33982   1.666   3.470   5.343  0.3001 -0.5795  0.3152
 7450SOL    HW133983   1.609   3.519   5.403  0.7639 -1.7741  1.7329
 7450SOL    HW233984   1.620   3.390   5.318 -0.8874  0.0605  0.4347
 7451SOL     OW33985   3.118   0.742   5.484 -0.1217  0.7623  0.1202
 7451SOL    HW133986   3.210   0.716   5.485 -0.8076 -1.7100 -0.4123
 7451SOL    HW233987   3.083   0.729   5.396  1.6878  1.3227 -0.6819
 7452SOL     OW33988   2.334   3.549  13.874 -0.0799 -0.2191 -0.2142
 7452SOL    HW133989   2.350   3.597  13.793  0.1096  1.7938  0.9975
 7452SOL    HW233990   2.377   3.610  13.935 -0.8642  1.9498 -1.8369
 7453SOL     OW33991   1.293   2.691  15.871 -0.2118  0.1621 -0.2976
 7453SOL    HW133992   1.250   2.644  15.800 -0.3055  0.1240 -0.2158
 7453SOL    HW233993   1.338   2.762  15.826 -1.7091  0.7913 -0.8133
 7454SOL     OW33994   4.277   1.567   5.568 -0.0099 -0.1921  0.2060
 7454SOL    HW133995   4.256   1.569   5.475 -0.1003  1.1358  0.2445
 7454SOL    HW233996   4.362   1.523   5.567 -0.9474 -1.9466 -2.4683
 7455SOL     OW33997   0.211   3.627   7.190 -0.3016 -0.7596  0.0584
 7455SOL    HW133998   0.294   3.609   7.146  0.4099  1.2480  0.5831
 7455SOL    HW233999   0.160   3.674   7.123  0.5443  0.7119  0.4453
 7456SOL     OW34000   4.570   1.953   5.596 -0.8820  0.2924 -0.2402
 7456SOL    HW134001   4.604   1.887   5.535 -0.9963 -0.0612  0.0793
 7456SOL    HW234002   4.499   1.900   5.634 -1.6299  0.5589 -1.2621
 7457SOL     OW34003   2.069   4.733  14.836 -0.0059 -0.3663  0.0735
 7457SOL    HW134004   2.147   4.722  14.890  0.1494  1.0880  0.1536
 7457SOL    HW234005   2.048   0.081  14.874  1.5683  0.2857 -0.4929
 7458SOL     OW34006   3.338   4.459  10.102 -0.1401  0.6914  0.3198
 7458SOL    HW134007   3.353   4.387  10.164 -0.9775  0.3726  0.1567
 7458SOL    HW234008   3.336   4.532  10.165 -2.8757 -0.2146  1.2896
 7459SOL     OW34009   4.100   0.370   7.481 -0.0871  0.5899 -0.1988
 7459SOL    HW134010   4.191   0.383   7.509 -0.5459  0.1566  1.5038
 7459SOL    HW234011   4.045   0.377   7.559 -0.6526  2.2734 -0.7426
 7460SOL     OW34012   0.374   1.907  13.072  0.0292  0.0505 -0.2977
 7460SOL    HW134013   0.461   1.866  13.069 -1.3616 -3.0505  1.7150
 7460SOL    HW234014   0.390   1.969  13.144  1.2723  0.6917 -1.1278
 7461SOL     OW34015   1.650   0.306  12.786 -0.2977  0.0462 -0.4697
 7461SOL    HW134016   1.635   0.387  12.738  0.9372  1.2889  1.2405
 7461SOL    HW234017   1.564   0.286  12.824 -1.1601  3.2655 -0.6677
 7462SOL     OW34018   0.414   4.041   8.342 -0.5689  0.0162  0.2946
 7462SOL    HW134019   0.363   3.973   8.386 -0.0822 -0.5532 -0.0255
 7462SOL    HW234020   0.502   4.007   8.356 -0.8159  0.0450  1.9625
 7463SOL     OW34021   4.326   2.084   8.031 -0.3718 -0.5284 -0.5518
 7463SOL    HW134022   4.395   2.104   7.968  0.4079  0.4184  0.6010
 7463SOL    HW234023   4.285   2.168   8.051 -1.6935 -1.6601  1.4363
 7464SOL     OW34024   1.872   0.129   7.339 -0.2037 -0.0525  0.5972
 7464SOL    HW134025   1.836   0.051   7.298  2.6439 -1.9124  1.6387
 7464SOL    HW234026   1.897   0.083   7.420  1.0888  2.5327  1.6829
 7465SOL     OW34027   4.330   0.061   5.465  0.6247 -0.2950  0.7566
 7465SOL    HW134028   4.417   0.081   5.498 -0.5567  0.4718  3.4256
 7465SOL    HW234029   4.281   0.045   5.546  0.3787 -0.7905  0.5146
 7466SOL     OW34030   2.647   0.461   2.601  0.4929  0.2015 -0.9816
 7466SOL    HW134031   2.712   0.440   2.669 -1.8398  0.4361  1.3037
 7466SOL    HW234032   2.680   0.543   2.564 -0.0443  0.6312 -0.5187
 7467SOL     OW34033   0.943   0.017   5.104  0.0193 -0.3116  0.3135
 7467SOL    HW134034   0.986   0.102   5.103  0.0472 -0.3285 -2.0633
 7467SOL    HW234035   0.944   4.732   5.197  0.7217  0.2252  0.4288
 7468SOL     OW34036   4.116   2.335   5.752  0.0476  0.2163  0.0207
 7468SOL    HW134037   4.043   2.276   5.736  1.6941 -1.6681 -0.5714
 7468SOL    HW234038   4.128   2.398   5.681 -0.4939  0.4738  0.1597
 7469SOL     OW34039   0.036   1.714   3.652  0.3550  0.3814  0.6023
 7469SOL    HW134040   0.090   1.686   3.578 -2.4206  1.7321 -1.9542
 7469SOL    HW234041   0.010   1.804   3.632 -0.0201  0.6437  2.3187
 7470SOL     OW34042   0.846   3.725   4.656 -0.2030 -0.0550  0.2204
 7470SOL    HW134043   0.838   3.644   4.606 -1.5023 -1.4899  2.7478
 7470SOL    HW234044   0.848   3.790   4.586 -2.5854 -1.7596 -1.4094
 7471SOL     OW34045   0.123   2.457  10.853 -0.2131 -0.2973  0.6652
 7471SOL    HW134046   0.210   2.469  10.813 -0.6236 -1.1610 -0.4527
 7471SOL    HW234047   0.059   2.466  10.782  0.3400  0.5669  0.2607
 7472SOL     OW34048   2.324   1.284   4.531 -0.0517  0.3982  0.5910
 7472SOL    HW134049   2.408   1.327   4.515  0.9923 -1.9698 -0.2412
 7472SOL    HW234050   2.280   1.288   4.445 -1.9640  1.5915  1.6138
 7473SOL     OW34051   3.960   2.654   6.033 -0.0839 -0.1383  0.6914
 7473SOL    HW134052   4.033   2.616   6.080  0.6520  0.5748  0.1374
 7473SOL    HW234053   3.881   2.603   6.052 -0.9137  0.7526 -0.3574
 7474SOL     OW34054   1.966   3.272   9.184  0.1539  0.2866  0.0813
 7474SOL    HW134055   1.938   3.237   9.100 -0.7321  2.5313 -0.5677
 7474SOL    HW234056   1.925   3.359   9.177 -0.8473  0.0279  2.7016
 7475SOL     OW34057   4.180   1.088   4.931  0.2700 -0.0407 -0.0006
 7475SOL    HW134058   4.191   1.177   4.900  1.3491 -0.1801 -0.0426
 7475SOL    HW234059   4.113   1.105   4.997  0.7171 -1.6914  0.8868
 7476SOL     OW34060   1.568   0.172   9.803  0.3029 -0.2266  0.2159
 7476SOL    HW134061   1.506   0.100   9.798 -0.0524 -0.1657  3.6056
 7476SOL    HW234062   1.585   0.190   9.896 -0.0153  1.1357  0.0093
 7477SOL     OW34063   1.016   2.323   0.104 -0.0961 -0.3957  0.2472
 7477SOL    HW134064   1.064   2.241   0.091  2.7381  1.1972  0.7628
 7477SOL    HW234065   1.031   2.365   0.020  1.0890  0.2984  0.7979
 7478SOL     OW34066   1.345   0.763   3.677 -0.3604  0.2533 -0.4071
 7478SOL    HW134067   1.400   0.754   3.755 -1.7150 -1.6587  0.3448
 7478SOL    HW234068   1.267   0.791   3.725  0.2788  1.5901 -0.1426
 7479SOL     OW34069   0.849   2.635   8.463  0.1374  0.3502 -0.5831
 7479SOL    HW134070   0.837   2.679   8.379 -3.8374  0.1559 -0.1245
 7479SOL    HW234071   0.842   2.714   8.518 -0.3628  0.7046 -1.1566
 7480SOL     OW34072   0.876   0.559  10.163  0.2791  0.4380 -0.0629
 7480SOL    HW134073   0.835   0.474  10.145  0.8006  0.2764 -0.4984
 7480SOL    HW234074   0.943   0.525  10.222  1.2825  0.5914 -1.1036
 7481SOL     OW34075   1.580   1.173   8.045 -0.6102  0.0495  0.1006
 7481SOL    HW134076   1.614   1.237   8.107  1.9299 -1.3319  0.1271
 7481SOL    HW234077   1.520   1.126   8.102 -1.6655  0.9305 -0.2860
 7482SOL     OW34078   4.155   2.203  14.201  0.5906 -0.1299 -0.4247
 7482SOL    HW134079   4.222   2.135  14.193  0.2123 -0.6649  0.9352
 7482SOL    HW234080   4.202   2.262  14.261  0.1415  3.4815 -3.6287
 7483SOL     OW34081   0.529   2.123   5.508  0.0493  0.7126 -0.7924
 7483SOL    HW134082   0.615   2.145   5.544  0.3861  0.2154 -1.2923
 7483SOL    HW234083   0.481   2.200   5.538 -0.0627  0.6728 -0.8743
 7484SOL     OW34084   1.158   3.148   5.391 -0.2883  0.0219  0.0391
 7484SOL    HW134085   1.185   3.059   5.366 -1.3436 -0.6327  1.1982
 7484SOL    HW234086   1.243   3.180   5.419  0.4293 -1.0655 -0.8882
 7485SOL     OW34087   1.156   0.893  15.561  0.0616  0.2107  0.4550
 7485SOL    HW134088   1.165   0.833  15.635 -1.5255  0.2169  0.6594
 7485SOL    HW234089   1.136   0.841  15.483  1.3262  0.0860  0.2070
 7486SOL     OW34090   1.586   2.973   1.337 -0.0467 -0.4245 -0.3425
 7486SOL    HW134091   1.513   2.937   1.286  0.5319  0.4377 -1.7913
 7486SOL    HW234092   1.662   2.923   1.307  0.5501  0.4356 -0.2380
 7487SOL     OW34093   2.739   2.947  15.818  0.1503 -0.7010  0.3570
 7487SOL    HW134094   2.685   2.997  15.878  1.4242 -1.3706  2.0620
 7487SOL    HW234095   2.815   2.941  15.876 -1.8844 -0.5544  3.0107
 7488SOL     OW34096   2.904   0.605   3.069  0.4719  0.2391  0.1016
 7488SOL    HW134097   2.854   0.525   3.049  0.4132 -0.0815  1.5766
 7488SOL    HW234098   2.836   0.658   3.111 -1.5342 -0.7763 -1.8190
 7489SOL     OW34099   0.825   3.461   5.499 -0.1885 -0.2299 -0.3485
 7489SOL    HW134100   0.735   3.432   5.485 -0.5975  2.0520 -2.4536
 7489SOL    HW234101   0.867   3.377   5.517 -1.2586 -0.2008  2.1831
 7490SOL     OW34102   3.480   0.613  15.935 -0.1354  0.1641 -0.1044
 7490SOL    HW134103   3.516   0.626  15.847 -2.6846  1.4897 -0.9473
 7490SOL    HW234104   3.563   0.599  15.981  0.9755 -1.4100 -2.5134
 7491SOL     OW34105   2.473   2.674  14.959  0.1446  0.1159  0.2928
 7491SOL    HW134106   2.429   2.683  15.044  0.1302 -0.0964  0.3091
 7491SOL    HW234107   2.443   2.744  14.901  0.5736 -0.6712 -0.8858
 7492SOL     OW34108   4.684   3.865   8.275  0.4304 -0.0134 -0.2135
 7492SOL    HW134109   4.737   3.916   8.336 -0.5195 -2.0465  2.3244
 7492SOL    HW234110   0.012   3.819   8.221  0.4431 -0.2727  0.0198
 7493SOL     OW34111   4.445   4.046   5.121 -0.0549 -0.3401 -0.1670
 7493SOL    HW134112   4.484   4.087   5.198 -0.8589  0.5882 -0.2589
 7493SOL    HW234113   4.461   3.954   5.145 -2.8785 -0.7783 -0.0123
 7494SOL     OW34114   3.602   4.414   8.207 -0.0232  0.3353 -0.4900
 7494SOL    HW134115   3.513   4.386   8.230 -0.3956  0.1565 -2.1226
 7494SOL    HW234116   3.583   4.484   8.144  0.7149 -1.6132 -2.8916
 7495SOL     OW34117   4.016   0.670   1.955 -0.4519  0.3427  0.1412
 7495SOL    HW134118   4.039   0.641   2.043  2.4520 -1.2701 -1.1662
 7495SOL    HW234119   4.035   0.592   1.903  1.7656 -2.0596  4.5684
 7496SOL     OW34120   2.403   1.171   7.036  0.3886  0.5596 -0.0008
 7496SOL    HW134121   2.410   1.235   6.965  1.6583 -0.2162 -0.5777
 7496SOL    HW234122   2.317   1.131   7.025  0.9798 -0.8861  0.7131
 7497SOL     OW34123   3.100   3.483  10.873  0.2625 -0.2901  0.2437
 7497SOL    HW134124   3.170   3.497  10.936  1.2321 -0.3267 -0.8304
 7497SOL    HW234125   3.145   3.423  10.814 -0.0476  0.1735 -0.4690
 7498SOL     OW34126   0.766   2.413   5.038  0.0953  0.4047  0.4154
 7498SOL    HW134127   0.813   2.386   4.959 -1.1656  3.2386 -1.2725
 7498SOL    HW234128   0.755   2.325   5.075  0.5335  0.6635  1.1530
 7499SOL     OW34129   1.091   3.128  16.156  0.0832  0.1911  0.0749
 7499SOL    HW134130   1.152   3.190  16.116  0.3245 -0.5731 -0.7425
 7499SOL    HW234131   1.150   3.053  16.164  1.2968  0.9884 -1.2775
 7500SOL     OW34132   3.771   0.969   3.238 -0.6436  0.1277 -0.7852
 7500SOL    HW134133   3.769   0.879   3.270  0.7624  1.1333  2.2430
 7500SOL    HW234134   3.684   0.969   3.200  0.0065 -0.5153 -2.2628
 7501SOL     OW34135   4.348   2.406   8.678 -0.2990 -0.1603 -0.7075
 7501SOL    HW134136   4.276   2.451   8.722  0.8675  0.2806  0.7635
 7501SOL    HW234137   4.415   2.419   8.745 -1.2662 -2.9213  0.7878
 7502SOL     OW34138   2.256   1.708   3.749 -0.0735  0.1721 -0.0337
 7502SOL    HW134139   2.314   1.707   3.673 -0.6642 -0.1741 -0.4762
 7502SOL    HW234140   2.193   1.777   3.725 -1.6321 -0.9004  0.9929
 7503SOL     OW34141   3.155   0.508   7.776  0.5098 -0.0119 -0.0130
 7503SOL    HW134142   3.151   0.451   7.853  2.0701 -1.7174 -1.2021
 7503SOL    HW234143   3.069   0.515   7.735  1.9334  1.2393 -2.7833
 7504SOL     OW34144   3.890   4.662   2.953  0.1604  0.0749 -0.8612
 7504SOL    HW134145   3.832   4.596   2.915  0.6794 -0.5668 -0.5477
 7504SOL    HW234146   3.962   4.604   2.978  1.3369  1.0822 -1.8950
 7505SOL     OW34147   3.703   4.660   9.008 -0.1240  0.0589  0.1521
 7505SOL    HW134148   3.646   4.668   8.931 -0.5394 -1.1278  0.3439
 7505SOL    HW234149   3.786   4.647   8.962 -0.6044 -2.9475  0.1948
 7506SOL     OW34150   4.093   0.956   8.512  0.2170  0.0353  0.0402
 7506SOL    HW134151   4.152   1.028   8.487  1.2756 -0.6514  0.5774
 7506SOL    HW234152   4.010   1.002   8.523  1.3392  2.7714 -2.9686
 7507SOL     OW34153   0.391   2.951  17.043 -0.1516  0.6725 -0.2802
 7507SOL    HW134154   0.402   2.859  17.018 -1.6829  0.5520 -0.4670
 7507SOL    HW234155   0.369   2.995  16.961 -1.0101  0.2102 -0.2916
 7508SOL     OW34156   1.838   2.070   7.138  0.2872  0.4988  0.1703
 7508SOL    HW134157   1.849   2.081   7.044 -2.0403  2.0280  0.0892
 7508SOL    HW234158   1.888   2.135   7.188  1.0839  0.0439 -0.0314
 7509SOL     OW34159   1.825   3.688  14.906 -0.1029 -0.2149  0.1894
 7509SOL    HW134160   1.874   3.762  14.869 -0.6889  0.9689  1.7809
 7509SOL    HW234161   1.864   3.682  14.993  1.0868 -0.3064 -0.3395
 7510SOL     OW34162   4.403   2.964  12.592  0.0191 -0.2535 -0.1876
 7510SOL    HW134163   4.347   2.923  12.526  0.0927 -1.0131  0.2208
 7510SOL    HW234164   4.434   3.044  12.549 -3.0664  0.8670 -0.3034
 7511SOL     OW34165   0.598   2.288  17.684  0.4119 -0.7009 -0.1460
 7511SOL    HW134166   0.662   2.252  17.746  1.8190 -0.2087 -1.3203
 7511SOL    HW234167   0.625   2.380  17.674  1.4708 -1.0805 -0.7069
 7512SOL     OW34168   0.601   1.487   2.495 -0.1369  0.1334  0.1024
 7512SOL    HW134169   0.661   1.435   2.441 -0.9219  0.4949 -1.1055
 7512SOL    HW234170   0.672   1.544   2.525  1.1929 -0.5231 -1.7768
 7513SOL     OW34171   4.025   4.515   1.640  0.4298 -0.0078  0.5287
 7513SOL    HW134172   4.016   4.603   1.604  1.2472 -0.1806 -0.0842
 7513SOL    HW234173   4.069   4.518   1.725  2.7623 -0.3546 -0.6774
 7514SOL     OW34174   0.653   1.855   1.926 -0.5401 -0.6208  0.0001
 7514SOL    HW134175   0.645   1.786   1.992  0.9436 -2.1760 -1.4773
 7514SOL    HW234176   0.564   1.865   1.892  0.7451  2.3365 -2.4975
 7515SOL     OW34177   0.506   2.594   8.481 -0.4022  0.7090 -0.3544
 7515SOL    HW134178   0.422   2.588   8.434 -0.2619  0.8751 -0.6276
 7515SOL    HW234179   0.499   2.685   8.508 -0.7427  1.0810 -1.6765
 7516SOL     OW34180   1.876   2.734   7.200  0.4925  0.0356  0.0004
 7516SOL    HW134181   1.783   2.750   7.181 -0.0080 -0.5228  2.0756
 7516SOL    HW234182   1.875   2.641   7.221 -3.1628 -0.2903 -1.4507
 7517SOL     OW34183   3.216   0.558   0.674  0.2312  0.2994  0.3011
 7517SOL    HW134184   3.221   0.555   0.770 -1.9166  1.3638  0.4329
 7517SOL    HW234185   3.305   0.524   0.662 -0.2522 -0.8190 -0.0433
 7518SOL     OW34186   4.128   0.879  13.246  0.1347 -0.0197  0.1030
 7518SOL    HW134187   4.067   0.912  13.181 -2.3735  0.4890  2.6825
 7518SOL    HW234188   4.149   0.803  13.192 -0.5628 -0.4788  0.4793
 7519SOL     OW34189   0.865   1.549   9.044  0.0938 -0.0370  0.0136
 7519SOL    HW134190   0.864   1.519   8.953  0.8143 -0.6355  0.1996
 7519SOL    HW234191   0.897   1.637   9.023 -1.9057  0.5616 -0.4985
 7520SOL     OW34192   4.005   0.969   2.558 -0.1150 -0.2677 -0.0670
 7520SOL    HW134193   3.990   0.976   2.652  0.8056 -1.8577  0.1884
 7520SOL    HW234194   4.101   0.977   2.560 -0.0176 -1.7192  0.4635
 7521SOL     OW34195   3.475   2.227   2.718  0.2720 -0.0165 -0.2620
 7521SOL    HW134196   3.461   2.284   2.794 -3.5607 -0.5790 -0.5553
 7521SOL    HW234197   3.385   2.198   2.705 -0.1701  0.8983  0.6761
 7522SOL     OW34198   2.607   1.915   8.002  0.5781 -0.1771 -0.1812
 7522SOL    HW134199   2.566   1.967   7.934 -2.2860  0.6424  2.1546
 7522SOL    HW234200   2.573   1.828   7.980 -0.7219 -0.1289  1.5564
 7523SOL     OW34201   0.419   1.885   2.190 -0.3251 -0.2377  0.1935
 7523SOL    HW134202   0.350   1.840   2.140 -0.4257 -0.0473  0.1634
 7523SOL    HW234203   0.458   1.806   2.228 -0.3534 -0.0831  0.5339
 7524SOL     OW34204   2.240   4.500   3.596  0.1947  0.1339  0.0759
 7524SOL    HW134205   2.229   4.461   3.510 -1.3536 -1.8710  1.1795
 7524SOL    HW234206   2.149   4.514   3.620  0.2515 -0.3398  0.5635
 7525SOL     OW34207   4.722   1.501   5.572 -0.2132 -0.3266 -0.4576
 7525SOL    HW134208   0.047   1.523   5.642 -1.5591 -0.3677  0.7645
 7525SOL    HW234209   4.690   1.589   5.552 -0.9459 -0.3349  0.6442
 7526SOL     OW34210   0.927   0.555  10.708  0.3738  0.3672 -0.0648
 7526SOL    HW134211   0.879   0.600  10.777  1.2152 -0.9867  1.4143
 7526SOL    HW234212   0.886   0.601  10.635 -0.5753  0.1045  0.2949
 7527SOL     OW34213   3.674   0.083   5.172 -0.0083 -0.2317  0.0622
 7527SOL    HW134214   3.733   0.157   5.160 -2.0738  1.6170  1.3667
 7527SOL    HW234215   3.717   0.020   5.115 -2.2078 -2.7046  1.0782
 7528SOL     OW34216   0.411   4.412   1.418 -0.9476  0.2195  0.1889
 7528SOL    HW134217   0.383   4.499   1.391  2.7588  0.4722 -2.7791
 7528SOL    HW234218   0.505   4.431   1.416 -0.9447  0.2947  0.8865
 7529SOL     OW34219   3.048   0.597   1.361 -0.0249 -0.0158 -0.1869
 7529SOL    HW134220   3.023   0.541   1.436  1.2649  1.2611  1.1971
 7529SOL    HW234221   3.043   0.685   1.397 -1.3301 -0.6169  1.1252
 7530SOL     OW34222   3.786   1.174   9.341 -0.2555 -0.3671  0.3484
 7530SOL    HW134223   3.872   1.141   9.368  1.1908  0.3222 -3.4833
 7530SOL    HW234224   3.815   1.213   9.259 -2.0302 -2.3640 -1.2047
 7531SOL     OW34225   4.428   3.813   4.458  0.0437  0.2425  0.1914
 7531SOL    HW134226   4.458   3.806   4.549  2.1050  3.3724 -0.2529
 7531SOL    HW234227   4.383   3.728   4.453 -0.9441  0.6946  1.4064
 7532SOL     OW34228   3.039   3.028   3.509 -0.5627  0.3404  0.1192
 7532SOL    HW134229   3.049   3.033   3.604 -1.0784  0.9291  0.1366
 7532SOL    HW234230   3.005   3.117   3.496 -0.9554  0.5586  2.6058
 7533SOL     OW34231   1.071   3.164   3.935  0.3339 -0.1323  0.6336
 7533SOL    HW134232   1.113   3.078   3.925  3.0460  1.1029  1.5969
 7533SOL    HW234233   1.087   3.189   3.845  1.3076 -0.7339  0.6357
 7534SOL     OW34234   0.166   1.126   8.996  0.2882 -0.1711  0.1249
 7534SOL    HW134235   0.191   1.202   9.049 -0.8342  0.2958 -0.0060
 7534SOL    HW234236   0.228   1.062   9.029 -0.0945 -2.4906 -3.5916
 7535SOL     OW34237   2.492   1.716   6.772  0.2507 -0.1625  0.0569
 7535SOL    HW134238   2.568   1.729   6.714 -0.5521 -1.7736 -1.3533
 7535SOL    HW234239   2.529   1.701   6.859  1.6827 -0.9012 -0.6652
 7536SOL     OW34240   0.579   4.453  10.027 -0.0915  0.4714  0.3343
 7536SOL    HW134241   0.604   4.475   9.937  0.6133 -1.3563  0.0844
 7536SOL    HW234242   0.532   4.372  10.007 -1.3209  1.3110 -0.2039
 7537SOL     OW34243   4.441   4.486  14.049 -0.2101  0.1988  0.3554
 7537SOL    HW134244   4.434   4.409  13.992 -2.5741 -0.5670  1.6714
 7537SOL    HW234245   4.350   4.515  14.047 -0.7229 -1.3760  0.7398
 7538SOL     OW34246   0.822   0.880   3.137 -0.3099 -0.3353 -0.1527
 7538SOL    HW134247   0.751   0.828   3.099 -0.2708  0.4548 -1.3168
 7538SOL    HW234248   0.876   0.891   3.059 -0.5872 -2.8613 -0.7059
 7539SOL     OW34249   3.992   0.213   7.116 -0.5473  0.3864 -0.1764
 7539SOL    HW134250   4.057   0.196   7.048 -0.8643  0.5613 -0.5230
 7539SOL    HW234251   3.931   0.139   7.116 -0.9776  0.7443  1.1016
 7540SOL     OW34252   0.571   0.114   7.307  0.4773  0.1224  0.1584
 7540SOL    HW134253   0.607   0.132   7.394 -0.1165  2.6770 -0.1223
 7540SOL    HW234254   0.478   0.125   7.324  0.6975  1.2852  0.6252
 7541SOL     OW34255   0.398   1.388  14.346  0.2520 -0.1311  0.1528
 7541SOL    HW134256   0.306   1.365  14.329 -0.9053  1.1421  4.7029
 7541SOL    HW234257   0.434   1.324  14.285 -0.1176 -1.3091  1.1678
 7542SOL     OW34258   3.856   4.657   5.339 -0.0519  0.3391  0.5079
 7542SOL    HW134259   3.784   4.720   5.336 -0.0695  0.2529 -0.8512
 7542SOL    HW234260   3.899   4.652   5.254 -0.2296  0.5467  0.4055
 7543SOL     OW34261   3.476   4.593   4.729  0.7530  0.0521  0.2906
 7543SOL    HW134262   3.390   4.591   4.687  1.0571 -0.6892 -0.2980
 7543SOL    HW234263   3.529   4.588   4.650  1.1645 -0.3087  0.5893
 7544SOL     OW34264   1.899   0.702   2.728 -0.0321 -0.2602 -0.5295
 7544SOL    HW134265   1.959   0.681   2.799 -1.0242 -0.4838  0.2407
 7544SOL    HW234266   1.957   0.751   2.670 -0.4160 -0.6437 -1.2355
 7545SOL     OW34267   1.016   1.432   8.454 -0.0148  0.5413 -0.0018
 7545SOL    HW134268   1.048   1.383   8.530 -0.5546  0.9479  0.4830
 7545SOL    HW234269   1.047   1.375   8.383  0.5577 -0.3927  0.9883
 7546SOL     OW34270   2.901   3.102   3.228 -0.3820  0.0395 -0.5898
 7546SOL    HW134271   2.954   3.079   3.151  0.1746  1.2153 -0.5584
 7546SOL    HW234272   2.873   3.018   3.264 -0.8857  0.5069  0.1021
 7547SOL     OW34273   3.176   2.655   0.575  0.4339 -0.1811 -0.4494
 7547SOL    HW134274   3.271   2.651   0.573  0.3918 -2.2531  1.2201
 7547SOL    HW234275   3.165   2.652   0.671  0.9946 -0.4263 -0.3942
 7548SOL     OW34276   4.716   2.793   9.933 -0.0814 -0.3697 -0.4316
 7548SOL    HW134277   4.727   2.878   9.975 -0.6425 -0.6003  0.1943
 7548SOL    HW234278   0.058   2.739   9.936 -1.0186 -1.5880  2.4481
 7549SOL     OW34279   3.603   2.980  17.714 -0.2467 -0.9286  0.0381
 7549SOL    HW134280   3.510   2.991  17.730  0.4302  3.0811  1.1963
 7549SOL    HW234281   3.625   3.054  17.656 -1.3528  0.5018  1.4723
 7550SOL     OW34282   0.034   3.654   6.724 -0.2056 -0.1512  0.7374
 7550SOL    HW134283   0.102   3.586   6.726 -0.6704 -0.6224  0.7664
 7550SOL    HW234284   0.023   3.651   6.629  0.5972 -2.8995  0.7069
 7551SOL     OW34285   0.294   2.021   3.156  0.1294 -0.1950 -0.2753
 7551SOL    HW134286   0.339   2.093   3.200 -0.5528  0.1913 -0.2094
 7551SOL    HW234287   0.301   2.049   3.064  0.5795 -1.8793 -0.7615
 7552SOL     OW34288   0.082   2.679   5.391 -0.5389  0.0741 -0.0093
 7552SOL    HW134289   0.089   2.593   5.433  0.1478 -0.1780 -0.6274
 7552SOL    HW234290   0.023   2.732   5.444  0.2306  0.4674  0.4666
 7553SOL     OW34291   2.626   3.960  15.478 -0.7489  0.1407 -0.8417
 7553SOL    HW134292   2.669   3.952  15.562 -0.7058  0.8203 -0.8022
 7553SOL    HW234293   2.533   3.950  15.499 -0.5009  0.7925  0.5316
 7554SOL     OW34294   1.469   1.524   2.883  0.4576 -0.3323 -0.3342
 7554SOL    HW134295   1.412   1.565   2.818 -0.1012 -1.7420 -0.7291
 7554SOL    HW234296   1.443   1.433   2.869 -0.4949 -0.3536  1.5037
 7555SOL     OW34297   4.032   2.478   9.457  0.2642  0.3891 -0.3993
 7555SOL    HW134298   3.955   2.535   9.456  0.1672  0.2762  0.5787
 7555SOL    HW234299   4.046   2.452   9.548 -2.1210  1.7620  0.3544
 7556SOL     OW34300   2.933   4.701   5.167  0.3578 -0.8756  0.3764
 7556SOL    HW134301   3.018   4.680   5.129  1.1117  3.4645 -0.4214
 7556SOL    HW234302   2.959   0.035   5.226 -1.2559 -0.1821  0.2702
 7557SOL     OW34303   0.249   1.679   8.352 -0.2431  0.1768 -0.3601
 7557SOL    HW134304   0.301   1.711   8.427  0.8610 -2.7502  0.1133
 7557SOL    HW234305   0.268   1.735   8.276  0.3631 -0.7914 -0.9188
 7558SOL     OW34306   2.952   4.438   7.088 -0.0177  0.1005  0.2050
 7558SOL    HW134307   2.878   4.378   7.102  0.3067 -0.1615  0.8224
 7558SOL    HW234308   2.942   4.467   6.997  1.4771  0.3885  0.1300
 7559SOL     OW34309   1.948   2.467   4.062 -0.2502 -0.6170  0.2701
 7559SOL    HW134310   1.885   2.437   4.128 -1.4400 -0.0631 -0.6058
 7559SOL    HW234311   2.008   2.517   4.117 -1.1377 -2.1289  2.6432
 7560SOL     OW34312   1.414   0.022   9.100  0.2044  0.2854  0.2921
 7560SOL    HW134313   1.331   0.025   9.147 -1.1036 -0.1459 -1.9683
 7560SOL    HW234314   1.434   0.114   9.088  0.5687  0.3153  1.1246
 7561SOL     OW34315   2.198   3.920   6.274 -0.8142  0.0942  0.2067
 7561SOL    HW134316   2.173   3.885   6.359 -1.4073  1.4727  0.5874
 7561SOL    HW234317   2.274   3.869   6.245 -0.0715  1.3168 -0.0112
 7562SOL     OW34318   2.654   2.224  13.603  0.3012  0.0169 -0.3380
 7562SOL    HW134319   2.708   2.146  13.612  1.1412  0.2532 -3.3284
 7562SOL    HW234320   2.629   2.236  13.695  1.2460  1.2818 -0.2353
 7563SOL     OW34321   1.299   1.867  13.904 -0.6259  1.0736 -0.1051
 7563SOL    HW134322   1.347   1.785  13.896 -0.6194  0.9046  1.6952
 7563SOL    HW234323   1.282   1.866  13.998  1.7892 -0.2550  0.3163
 7564SOL     OW34324   0.422   2.824   5.723  0.0921 -0.2473 -0.5575
 7564SOL    HW134325   0.333   2.792   5.735 -0.3560  0.9909 -0.5609
 7564SOL    HW234326   0.464   2.753   5.771 -0.0587  0.0759  0.0502
 7565SOL     OW34327   0.769   1.878   6.307  0.3661 -0.0683 -0.8722
 7565SOL    HW134328   0.736   1.813   6.369  0.2078  1.4453  0.6307
 7565SOL    HW234329   0.811   1.946   6.359 -2.5232 -0.3950  1.8773
 7566SOL     OW34330   0.034   0.193   6.353 -0.1106 -0.0721  0.9827
 7566SOL    HW134331   0.112   0.171   6.302 -0.5757  1.8068 -0.5443
 7566SOL    HW234332   0.043   0.150   6.438  0.3432  1.1088  1.5303
 7567SOL     OW34333   3.416   2.874   6.377 -0.0727 -0.2244  0.7388
 7567SOL    HW134334   3.402   2.961   6.340  0.9368  0.1912  1.3291
 7567SOL    HW234335   3.417   2.892   6.471  6.0933  0.7774  0.4771
 7568SOL     OW34336   3.038   0.895   3.768 -0.0018  0.1942 -0.0874
 7568SOL    HW134337   3.070   0.978   3.732 -0.4204  0.2951 -0.2243
 7568SOL    HW234338   3.100   0.872   3.838 -1.7693  1.6493  1.9405
 7569SOL     OW34339   2.256   0.441  11.954  0.0921  0.3071 -0.3296
 7569SOL    HW134340   2.241   0.472  12.043  0.2050  2.1947 -0.9717
 7569SOL    HW234341   2.167   0.427  11.920 -0.1736  1.0001  0.0688
 7570SOL     OW34342   0.433   1.420   3.543 -0.0616  0.1972 -0.0928
 7570SOL    HW134343   0.378   1.380   3.476  2.4658 -2.1233 -0.7835
 7570SOL    HW234344   0.382   1.391   3.618 -0.8782  2.1839  0.1160
 7571SOL     OW34345   2.423   1.707   5.411 -0.0295  0.1640 -0.0425
 7571SOL    HW134346   2.425   1.754   5.494  0.8570  2.8938 -1.6089
 7571SOL    HW234347   2.511   1.673   5.402 -0.4218 -0.4735 -1.4450
 7572SOL     OW34348   3.288   0.604  11.367  0.7155  0.2130 -0.4212
 7572SOL    HW134349   3.356   0.670  11.351  2.6058 -2.1330 -2.0784
 7572SOL    HW234350   3.248   0.648  11.442  0.7960  1.9041 -1.3730
 7573SOL     OW34351   2.861   1.889   2.592 -0.8392  0.5352 -0.9128
 7573SOL    HW134352   2.773   1.869   2.625 -0.6542 -0.5603 -1.0856
 7573SOL    HW234353   2.837   1.957   2.529 -2.1362  1.0568  0.1364
 7574SOL     OW34354   1.760   0.338   8.299 -0.1017 -0.3533 -0.1172
 7574SOL    HW134355   1.754   0.283   8.377  1.3693  1.2842  1.1242
 7574SOL    HW234356   1.834   0.296   8.254  1.6886  0.4779  2.0801
 7575SOL     OW34357   2.183   2.458  17.685  0.0099  0.6789  0.2192
 7575SOL    HW134358   2.192   2.531  17.624 -1.5243 -0.2254 -1.0927
 7575SOL    HW234359   2.197   2.387  17.622 -0.6585  0.1942  0.6159
 7576SOL     OW34360   1.566   0.968   3.710  0.2008  0.4904  0.0032
 7576SOL    HW134361   1.478   1.003   3.726 -0.4459 -1.3066  0.4023
 7576SOL    HW234362   1.545   0.889   3.760  1.4868  0.1231 -0.0258
 7577SOL     OW34363   4.720   3.282   4.575  0.3319  0.1360  0.1733
 7577SOL    HW134364   4.632   3.312   4.552 -0.6318 -0.8225  2.5097
 7577SOL    HW234365   0.022   3.368   4.567 -0.2268  0.3438 -0.2854
 7578SOL     OW34366   1.299   0.996   4.865  0.0886 -0.3364 -0.2545
 7578SOL    HW134367   1.322   1.079   4.906  0.6007 -0.1861 -0.8572
 7578SOL    HW234368   1.238   1.022   4.796 -0.2803  3.1273  1.3893
 7579SOL     OW34369   1.943   0.478   4.706  0.4412  0.2802  0.2894
 7579SOL    HW134370   1.929   0.551   4.767  0.4606  2.6401 -2.5438
 7579SOL    HW234371   2.009   0.519   4.651  0.4069 -2.7389 -2.0044
 7580SOL     OW34372   3.083   2.271   2.832 -0.0729  0.0435  0.2972
 7580SOL    HW134373   3.013   2.323   2.869 -1.3332 -0.6439 -1.1127
 7580SOL    HW234374   3.133   2.230   2.903  0.5560 -2.5305 -1.6058
 7581SOL     OW34375   1.474   4.593   7.564  0.7990  0.8875 -0.0440
 7581SOL    HW134376   1.460   4.672   7.512  0.9286  0.8725 -0.1014
 7581SOL    HW234377   1.429   4.618   7.645  0.0311 -2.3820  0.5182
 7582SOL     OW34378   1.057   0.855  17.744  0.4697 -0.3127 -0.3169
 7582SOL    HW134379   0.965   0.855  17.720  0.1711  0.1869  0.8369
 7582SOL    HW234380   1.047   0.801   0.076 -1.3481  1.3753  0.6013
 7583SOL     OW34381   1.807   3.156   5.444 -0.1957 -0.1149 -0.8796
 7583SOL    HW134382   1.880   3.189   5.496  0.0816 -0.0427 -1.3088
 7583SOL    HW234383   1.743   3.146   5.514  0.8090  2.2832  0.3672
 7584SOL     OW34384   3.347   3.720   8.253 -0.1278  0.2336 -0.5874
 7584SOL    HW134385   3.367   3.798   8.303  0.1141 -1.3228  1.7343
 7584SOL    HW234386   3.281   3.673   8.303  1.3273 -1.5418 -0.3176
 7585SOL     OW34387   1.856   2.860   6.479  0.8197 -0.2436  0.3146
 7585SOL    HW134388   1.798   2.908   6.421 -1.1261  0.0025  2.4679
 7585SOL    HW234389   1.866   2.922   6.552  2.6645 -0.6575  0.4228
 7586SOL     OW34390   2.114   3.408  13.874 -0.0525  0.8224  0.0808
 7586SOL    HW134391   2.199   3.452  13.885  0.3308  0.4065 -1.2399
 7586SOL    HW234392   2.083   3.401  13.964  1.3384  1.5197  0.6169
 7587SOL     OW34393   1.427   0.620   7.771 -0.3432  0.2949  0.1860
 7587SOL    HW134394   1.458   0.628   7.681  1.9241  0.8822  1.0381
 7587SOL    HW234395   1.379   0.537   7.764 -1.0626  0.6965  0.3626
 7588SOL     OW34396   0.940   1.031  12.897  0.2478 -0.2202  0.6364
 7588SOL    HW134397   1.000   0.961  12.873  0.3120  0.1912 -0.4144
 7588SOL    HW234398   1.010   1.096  12.908 -0.7177  0.2237  3.9483
 7589SOL     OW34399   1.926   3.781   7.206 -0.0015  0.3010 -0.3368
 7589SOL    HW134400   1.883   3.844   7.149  0.4911  0.8620 -0.0818
 7589SOL    HW234401   1.934   3.707   7.146  0.7802  1.0101 -1.0973
 7590SOL     OW34402   3.813   2.195  11.407 -0.2159  0.7872 -0.3073
 7590SOL    HW134403   3.882   2.212  11.471  1.5986 -0.7177 -1.8673
 7590SOL    HW234404   3.802   2.284  11.373 -0.5999  0.6029 -0.6677
 7591SOL     OW34405   3.830   0.275   7.334  0.0914 -0.4332  0.0042
 7591SOL    HW134406   3.897   0.311   7.393  0.0632  0.7484 -0.6938
 7591SOL    HW234407   3.889   0.272   7.258 -0.0507 -2.9158 -0.0342
 7592SOL     OW34408   2.484   1.107   5.327  0.7254  0.6186  0.1526
 7592SOL    HW134409   2.410   1.162   5.353  0.9786  0.2914  1.5829
 7592SOL    HW234410   2.445   1.020   5.322 -0.7252  1.3524 -1.2638
 7593SOL     OW34411   3.082   1.526   6.110 -0.5166  0.0555 -0.4346
 7593SOL    HW134412   2.987   1.527   6.114 -0.4659  0.9866  0.5442
 7593SOL    HW234413   3.094   1.469   6.034 -0.9726 -1.2096  0.4472
 7594SOL     OW34414   4.331   0.310  16.423 -0.5439  0.7075  0.5477
 7594SOL    HW134415   4.292   0.229  16.456  0.6222 -0.8206 -1.8788
 7594SOL    HW234416   4.329   0.359  16.505  3.5633  3.7766 -1.1768
 7595SOL     OW34417   4.694   4.617   7.087 -0.1264  0.0932  0.1421
 7595SOL    HW134418   4.647   4.679   7.143  3.3446  1.8597  1.1206
 7595SOL    HW234419   4.719   4.541   7.140 -1.2756 -0.6329 -0.3463
 7596SOL     OW34420   2.494   1.299   9.904 -0.2424  0.4105 -0.0071
 7596SOL    HW134421   2.535   1.231   9.958  0.4692 -1.0624 -2.3774
 7596SOL    HW234422   2.489   1.250   9.822  2.2954 -3.4267  2.1297
 7597SOL     OW34423   3.156   1.584   3.385  0.6704 -0.1543  0.8116
 7597SOL    HW134424   3.111   1.627   3.313  0.7101 -0.6637  0.4808
 7597SOL    HW234425   3.197   1.514   3.335  1.9632  0.2511  1.2987
 7598SOL     OW34426   4.402   3.593  13.507 -0.0757  0.2698  0.1420
 7598SOL    HW134427   4.451   3.558  13.582 -0.3889  0.0729  0.2523
 7598SOL    HW234428   4.381   3.677  13.549 -3.3716  0.1830 -1.4096
 7599SOL     OW34429   3.395   1.583  15.706  0.1997 -0.3611 -0.2729
 7599SOL    HW134430   3.341   1.513  15.668 -0.0688  1.6290 -3.6379
 7599SOL    HW234431   3.433   1.543  15.784 -0.5294  1.5746  1.0737
 7600SOL     OW34432   2.475   3.799   3.536  0.1336  0.1771 -0.1453
 7600SOL    HW134433   2.421   3.800   3.457 -2.0031 -0.8161  1.3225
 7600SOL    HW234434   2.421   3.733   3.579  0.1743  0.7342  0.7519
 7601SOL     OW34435   2.979   3.871  12.493 -0.0828 -0.3392  0.0360
 7601SOL    HW134436   2.945   3.955  12.461  0.3600 -1.3027 -2.8722
 7601SOL    HW234437   3.073   3.890  12.487  0.2489 -1.7746  0.7619
 7602SOL     OW34438   3.895   0.711  11.719  0.0150 -0.0081  0.2170
 7602SOL    HW134439   3.923   0.620  11.709 -0.8144  0.1103 -3.4505
 7602SOL    HW234440   3.846   0.716  11.801 -2.4765 -1.5368 -1.1759
 7603SOL     OW34441   3.226   0.831   4.458 -0.2606  0.3293  0.0523
 7603SOL    HW134442   3.143   0.867   4.429  0.7244  0.8025 -2.1675
 7603SOL    HW234443   3.215   0.736   4.454  3.2818 -0.1511  1.2191
 7604SOL     OW34444   4.134   1.928  13.919 -0.1358 -0.6319  0.3596
 7604SOL    HW134445   4.088   1.901  13.839 -1.9369 -0.1420  1.2319
 7604SOL    HW234446   4.150   2.020  13.895 -3.4640 -0.3903 -0.9982
 7605SOL     OW34447   3.677   0.723  15.335 -0.3407 -0.6423 -0.2204
 7605SOL    HW134448   3.600   0.672  15.312 -0.3738 -0.8193  0.2740
 7605SOL    HW234449   3.630   0.789  15.385 -0.0164 -1.2305  0.8589
 7606SOL     OW34450   4.517   0.193   8.157 -0.6816  0.0640 -0.3424
 7606SOL    HW134451   4.517   0.270   8.214  0.5838  0.3420 -0.7444
 7606SOL    HW234452   4.606   0.164   8.174 -0.9851 -0.3089  0.6844
 7607SOL     OW34453   4.468   0.275   9.423  0.2554 -0.0290 -0.2794
 7607SOL    HW134454   4.484   0.288   9.517 -0.3770  2.3746 -0.5207
 7607SOL    HW234455   4.387   0.324   9.414 -0.4736 -1.2232 -0.1893
 7608SOL     OW34456   1.658   2.457   6.072  0.6183 -0.1213 -0.3176
 7608SOL    HW134457   1.605   2.379   6.087 -0.8840  0.7373 -1.1056
 7608SOL    HW234458   1.683   2.481   6.162  1.2632 -0.6554 -0.3586
 7609SOL     OW34459   1.716   3.517  13.843 -0.2339  0.2821  0.2822
 7609SOL    HW134460   1.779   3.587  13.862  0.3288  0.3745 -1.9561
 7609SOL    HW234461   1.695   3.477  13.927 -0.9206 -0.7407 -0.3860
 7610SOL     OW34462   2.221   2.608  13.798 -0.1012 -0.4469 -0.0514
 7610SOL    HW134463   2.266   2.690  13.778  0.5506 -0.9340 -0.5971
 7610SOL    HW234464   2.290   2.544  13.819  0.0708 -0.9793 -2.2386
 7611SOL     OW34465   3.040   3.801   3.904 -0.6346  0.4194  0.6082
 7611SOL    HW134466   2.951   3.784   3.936 -0.1534 -3.1485  0.0639
 7611SOL    HW234467   3.086   3.780   3.986 -0.2201 -2.4681 -0.3734
 7612SOL     OW34468   3.114   2.035  12.238 -0.7305 -0.1347  0.4872
 7612SOL    HW134469   3.148   2.001  12.155 -0.2385  2.8877 -0.5389
 7612SOL    HW234470   3.021   2.010  12.233 -0.3890 -1.1069 -1.0267
 7613SOL     OW34471   0.507   3.475   7.169 -0.7865  0.1311 -0.2028
 7613SOL    HW134472   0.534   3.397   7.216 -2.3864  0.0233  0.5256
 7613SOL    HW234473   0.579   3.538   7.180  0.5556 -1.4667  0.1289
 7614SOL     OW34474   2.143   2.982   9.203 -0.7565 -0.1412  0.2228
 7614SOL    HW134475   2.137   2.937   9.288 -0.2001  1.6681  1.2303
 7614SOL    HW234476   2.070   3.044   9.209  0.9630  1.8376  0.8337
 7615SOL     OW34477   0.354   3.325   6.172  0.5250 -0.4953 -0.4392
 7615SOL    HW134478   0.337   3.362   6.085 -3.5025 -1.8263 -0.1961
 7615SOL    HW234479   0.416   3.256   6.149  1.5050  0.5061 -0.8073
 7616SOL     OW34480   2.351   0.373   7.856 -0.1033 -0.2286 -0.6037
 7616SOL    HW134481   2.379   0.412   7.773 -1.8871  1.7967 -0.2577
 7616SOL    HW234482   2.258   0.380   7.835  0.1254  0.7430 -1.3081
 7617SOL     OW34483   4.451   3.462  17.262  0.2118  0.3227 -0.1668
 7617SOL    HW134484   4.518   3.476  17.195 -1.3845 -0.4950 -1.9263
 7617SOL    HW234485   4.364   3.467  17.223 -1.5106  2.9742  4.1447
 7618SOL     OW34486   1.684   1.446   2.625 -0.6267 -0.0640 -0.1810
 7618SOL    HW134487   1.695   1.355   2.598  0.5096  0.3143 -1.0010
 7618SOL    HW234488   1.731   1.458   2.707  1.5437 -0.8152 -1.3132
 7619SOL     OW34489   2.321   1.137   3.950  0.6470 -0.0977 -0.2034
 7619SOL    HW134490   2.327   1.132   3.854 -2.2374 -1.0521 -0.3355
 7619SOL    HW234491   2.225   1.139   3.946  0.6701 -1.4490 -1.6110
 7620SOL     OW34492   3.810   4.176   0.330 -0.2215 -0.1083  0.0432
 7620SOL    HW134493   3.844   4.087   0.341 -0.5581 -0.2059  0.2801
 7620SOL    HW234494   3.803   4.206   0.420 -0.9238 -1.6554  0.5105
 7621SOL     OW34495   3.985   2.988   4.549 -0.1230  0.3556 -0.0826
 7621SOL    HW134496   3.905   3.035   4.531 -0.6749  0.1889  1.9012
 7621SOL    HW234497   3.960   2.907   4.593  1.1664 -0.1282 -0.2141
 7622SOL     OW34498   3.520   1.378   4.952  0.2250 -0.3529  0.6702
 7622SOL    HW134499   3.431   1.342   4.951  0.5381 -1.1697  2.0515
 7622SOL    HW234500   3.498   1.455   5.005 -1.6759 -1.0702  0.9225
 7623SOL     OW34501   4.611   1.764   7.586 -0.3908 -0.8929 -0.0175
 7623SOL    HW134502   4.683   1.701   7.578 -0.7397 -1.2481 -0.3661
 7623SOL    HW234503   4.655   1.846   7.607 -0.7293 -0.1708 -2.1585
 7624SOL     OW34504   0.351   4.473   8.362 -0.1967 -0.1674 -0.5392
 7624SOL    HW134505   0.406   4.506   8.290 -1.3147 -0.9556 -1.7494
 7624SOL    HW234506   0.274   4.529   8.356 -1.0184 -1.0621  1.9033
 7625SOL     OW34507   1.027   0.994  10.062  0.2745  0.0720 -0.6942
 7625SOL    HW134508   1.084   0.975  10.137  1.2664 -1.6124 -1.8731
 7625SOL    HW234509   0.944   0.949  10.078  1.3694 -1.9746 -0.8302
 7626SOL     OW34510   4.513   2.256   9.362 -0.4575 -0.1427  0.7523
 7626SOL    HW134511   4.527   2.233   9.453  1.9193  0.9517  0.6595
 7626SOL    HW234512   4.502   2.351   9.367 -1.1134 -0.3128  2.4177
 7627SOL     OW34513   4.003   4.481   0.769 -0.1245 -0.2348  0.8291
 7627SOL    HW134514   4.030   4.441   0.851  0.6624  1.4172  1.3759
 7627SOL    HW234515   3.919   4.521   0.792  0.2144  0.0743  1.5059
 7628SOL     OW34516   3.975   2.289   7.044  0.0328  0.0188  0.2353
 7628SOL    HW134517   4.060   2.258   7.012  0.2621  0.8800  0.0002
 7628SOL    HW234518   3.976   2.230   7.119 -1.7223 -0.1087  0.1605
 7629SOL     OW34519   3.964   0.588   2.363 -0.2749 -0.1640  0.3025
 7629SOL    HW134520   3.884   0.558   2.319  0.7229  0.8147 -2.1610
 7629SOL    HW234521   4.026   0.586   2.291  0.5797 -1.6495  1.0718
 7630SOL     OW34522   0.677   1.856  12.813  0.2978 -0.0290 -0.1532
 7630SOL    HW134523   0.631   1.927  12.857  2.7812  1.5103 -0.0483
 7630SOL    HW234524   0.648   1.792  12.878  1.0564 -0.0236  0.1802
 7631SOL     OW34525   1.134   3.894   1.778  0.1788 -0.2863 -0.4465
 7631SOL    HW134526   1.128   3.869   1.686 -0.1175 -1.5493 -0.0797
 7631SOL    HW234527   1.105   3.983   1.758 -2.4525 -0.9078  0.6595
 7632SOL     OW34528   4.002   1.835   6.541 -0.0024 -0.2866  0.1447
 7632SOL    HW134529   3.964   1.825   6.629 -1.1931 -0.3318 -0.3771
 7632SOL    HW234530   3.982   1.754   6.493 -0.6971  1.7097 -2.9097
 7633SOL     OW34531   0.784   3.825   8.864 -0.1919  1.0359  0.0552
 7633SOL    HW134532   0.689   3.815   8.853  0.2592 -0.7673 -2.0839
 7633SOL    HW234533   0.804   3.758   8.930  1.6696 -0.6747 -2.2653
 7634SOL     OW34534   2.511   4.122   7.517 -0.2363 -0.6018 -0.5288
 7634SOL    HW134535   2.515   4.146   7.425 -2.2999  1.0738 -0.1945
 7634SOL    HW234536   2.495   4.028   7.513 -1.9370 -0.2420 -2.3248
 7635SOL     OW34537   1.210   1.668   1.407 -0.1357  0.0050  0.2027
 7635SOL    HW134538   1.294   1.655   1.451 -1.3570 -1.0707  2.2581
 7635SOL    HW234539   1.192   1.761   1.420  1.8860  0.4225 -0.0256
 7636SOL     OW34540   2.993   3.327   2.370  0.4448 -0.3545 -0.3735
 7636SOL    HW134541   2.949   3.265   2.427  0.6987  1.3250  1.6505
 7636SOL    HW234542   2.913   3.366   2.336  0.1156 -0.2057  0.5832
 7637SOL     OW34543   4.722   2.563   7.879  0.0027  0.4101 -0.2929
 7637SOL    HW134544   4.699   2.612   7.801  1.1813 -0.9440 -1.4876
 7637SOL    HW234545   0.074   2.593   7.896  0.1343 -0.3687  0.3944
 7638SOL     OW34546   3.595   2.227  13.758 -0.0210  0.7004 -0.3476
 7638SOL    HW134547   3.611   2.308  13.807  1.6944  0.8058 -1.0611
 7638SOL    HW234548   3.523   2.199  13.814  1.2174  0.1827  0.9993
 7639SOL     OW34549   0.153   0.671   4.025  0.1522  0.2369 -0.3003
 7639SOL    HW134550   0.143   0.582   3.991  2.4310  0.7534 -2.2615
 7639SOL    HW234551   0.067   0.706   4.002  0.4935  1.1028 -0.2742
 7640SOL     OW34552   0.302   0.500   0.614  0.0883 -0.3749 -0.3642
 7640SOL    HW134553   0.294   0.595   0.609  1.8987 -0.0599  2.2928
 7640SOL    HW234554   0.391   0.493   0.579 -0.5391 -1.9445 -1.6024
 7641SOL     OW34555   1.256   4.701  11.237  0.7978  0.6080 -0.0759
 7641SOL    HW134556   1.214   4.680  11.154  1.3430  2.8715 -0.9261
 7641SOL    HW234557   1.331   0.016  11.209  0.2385  3.0790  3.0202
 7642SOL     OW34558   2.671   2.526   0.189  0.2984 -0.3125  0.5265
 7642SOL    HW134559   2.714   2.559   0.268 -1.5012  0.6641  1.0901
 7642SOL    HW234560   2.626   2.601   0.151 -0.4474 -1.3709 -0.6664
 7643SOL     OW34561   1.858   1.085  17.101  0.2030 -0.3632  0.2545
 7643SOL    HW134562   1.781   1.072  17.156 -0.0632  1.6210  0.3590
 7643SOL    HW234563   1.894   1.166  17.138 -2.7856  0.5149  1.2358
 7644SOL     OW34564   0.740   2.021   4.464 -0.1083  0.0248  0.3416
 7644SOL    HW134565   0.751   1.927   4.477  1.1506 -0.0962 -1.6195
 7644SOL    HW234566   0.807   2.048   4.527  0.2879  1.0136 -0.5199
 7645SOL     OW34567   4.625   3.003   6.963  0.5720  0.0127 -0.6094
 7645SOL    HW134568   4.658   3.060   7.033  2.6048  0.2971 -1.7876
 7645SOL    HW234569   4.640   3.063   6.889 -1.9145  1.2407 -0.1266
 7646SOL     OW34570   1.981   0.046   3.794  0.2712 -0.5851 -0.3170
 7646SOL    HW134571   1.981   0.130   3.747 -0.4590  0.1909  1.0468
 7646SOL    HW234572   2.021   4.724   3.731 -1.5405 -1.7095 -0.4068
 7647SOL     OW34573   3.452   1.118   9.308  0.2052  0.3073  0.0829
 7647SOL    HW134574   3.446   1.049   9.373  2.0008  0.1570  0.0839
 7647SOL    HW234575   3.365   1.115   9.268  1.7592  0.2688 -3.2884
 7648SOL     OW34576   3.774   4.726   6.016  0.0441  0.4132  0.3731
 7648SOL    HW134577   3.763   4.734   6.111 -2.2622 -1.7658  0.2967
 7648SOL    HW234578   3.689   0.015   5.982 -0.1508  1.3013  1.5529
 7649SOL     OW34579   3.189   3.116   8.960  0.2081  0.4207 -0.2418
 7649SOL    HW134580   3.151   3.197   8.928 -0.8252 -0.4064 -1.0781
 7649SOL    HW234581   3.201   3.145   9.051 -1.5464  0.3319  0.0038
 7650SOL     OW34582   2.467   1.109  16.099  0.0866 -0.2480  0.2377
 7650SOL    HW134583   2.517   1.063  16.033  0.3680  1.7738 -0.9500
 7650SOL    HW234584   2.412   1.164  16.043  0.5999  2.3147  2.2369
 7651SOL     OW34585   0.498   3.254   3.126  0.0596  0.1153  0.1788
 7651SOL    HW134586   0.438   3.202   3.073  1.5190 -1.5156  0.1304
 7651SOL    HW234587   0.520   3.317   3.058  2.5712  1.4597  2.2366
 7652SOL     OW34588   4.350   3.550   7.924 -0.1526 -0.1721  0.0067
 7652SOL    HW134589   4.317   3.568   7.836 -1.2153 -3.1361 -0.1848
 7652SOL    HW234590   4.442   3.578   7.923 -0.8424  2.2184  2.4342
 7653SOL     OW34591   1.456   2.624   1.193  0.0769  0.3906 -0.5259
 7653SOL    HW134592   1.443   2.530   1.181  1.3536 -0.0158  1.2258
 7653SOL    HW234593   1.442   2.653   1.103 -0.2466 -1.6041 -1.1076
 7654SOL     OW34594   4.161   2.537  15.742 -0.3955 -0.5985  0.2085
 7654SOL    HW134595   4.084   2.532  15.798 -2.1124  1.0050 -2.0220
 7654SOL    HW234596   4.227   2.497  15.799 -0.5924  0.6125  1.3011
 7655SOL     OW34597   4.153   3.520   5.396  0.0861 -0.3154 -0.6240
 7655SOL    HW134598   4.170   3.529   5.489  1.8570  0.6516 -1.0278
 7655SOL    HW234599   4.097   3.443   5.392 -0.1145 -0.3332  3.2579
 7656SOL     OW34600   4.352   2.598   3.850 -0.6684 -0.2071 -0.4259
 7656SOL    HW134601   4.333   2.691   3.864 -1.1718 -0.0762 -2.0055
 7656SOL    HW234602   4.448   2.593   3.851 -0.7111 -1.1256 -1.1690
 7657SOL     OW34603   4.437   3.023  11.634  0.0489  0.1563  0.3487
 7657SOL    HW134604   4.390   3.089  11.685 -1.5336 -0.4028 -0.3821
 7657SOL    HW234605   4.487   3.086  11.583  1.6785  0.0971  1.8706
 7658SOL     OW34606   3.880   2.797   5.447  0.1179 -0.1347  0.1154
 7658SOL    HW134607   3.854   2.760   5.362 -1.4065  1.1634  0.0219
 7658SOL    HW234608   3.798   2.779   5.493 -1.2145 -1.5347 -2.8196
 7659SOL     OW34609   1.001   3.567   4.955 -0.3246 -0.1106 -0.0992
 7659SOL    HW134610   1.014   3.581   5.048 -0.6631 -3.0837  0.3948
 7659SOL    HW234611   0.918   3.520   4.962  0.4849 -1.6575 -0.7248
 7660SOL     OW34612   1.314   1.300   4.893  0.0363 -0.7149  0.1557
 7660SOL    HW134613   1.355   1.348   4.822 -1.8875  1.2004  0.3597
 7660SOL    HW234614   1.252   1.363   4.930  0.2033 -0.3009 -0.2746
 7661SOL     OW34615   0.759   2.570  10.559  0.0263 -0.5699 -0.2547
 7661SOL    HW134616   0.673   2.611  10.552 -0.5852 -1.2573  3.1819
 7661SOL    HW234617   0.812   2.628  10.506 -1.7480  1.9998  0.7925
 7662SOL     OW34618   4.621   2.371  13.567  0.5596 -0.0764 -0.1840
 7662SOL    HW134619   4.611   2.292  13.513  0.0281  0.9130 -1.5334
 7662SOL    HW234620   4.627   2.332  13.654 -0.2126  1.8838  0.7485
 7663SOL     OW34621   4.374   1.248   4.717  0.4340  0.0028  0.1300
 7663SOL    HW134622   4.394   1.250   4.811  1.9910 -2.5883 -0.1440
 7663SOL    HW234623   4.374   1.341   4.693  1.2586 -0.7023 -2.5827
 7664SOL     OW34624   1.808   3.161   4.141  0.4898  0.1166  0.2843
 7664SOL    HW134625   1.753   3.085   4.158 -0.7216  0.7758 -0.6455
 7664SOL    HW234626   1.815   3.172   4.046  1.7383 -0.6954  0.2816
 7665SOL     OW34627   2.011   3.382   2.861 -0.2290 -0.3999  0.2730
 7665SOL    HW134628   2.011   3.371   2.956 -1.5548 -0.1328  0.3036
 7665SOL    HW234629   2.059   3.310   2.820 -2.6795 -1.7065 -0.3004
 7666SOL     OW34630   1.751   0.875  13.743  0.0266 -0.4745 -0.5056
 7666SOL    HW134631   1.661   0.899  13.768  0.0720 -0.3154 -0.4961
 7666SOL    HW234632   1.799   0.951  13.776  0.4821 -0.7661 -0.5032
 7667SOL     OW34633   1.288   2.824  10.927 -0.3575 -0.1505  0.0640
 7667SOL    HW134634   1.281   2.742  10.877  1.3358  2.0863 -3.8378
 7667SOL    HW234635   1.358   2.812  10.991 -0.0625  0.8547 -0.0802
 7668SOL     OW34636   0.510   4.041   2.857 -0.6217  0.3183  0.4523
 7668SOL    HW134637   0.441   4.100   2.889 -0.9406  0.0367  0.2876
 7668SOL    HW234638   0.518   4.052   2.762  0.5210 -0.3763  0.4686
 7669SOL     OW34639   2.586   4.723   1.760  0.6276 -0.0455  0.0501
 7669SOL    HW134640   2.599   4.653   1.823 -0.9345  0.8538  1.3473
 7669SOL    HW234641   2.637   4.684   1.689  0.9723  0.3366  0.0870
 7670SOL     OW34642   0.094   3.067  10.433 -0.0295  0.0360 -0.0293
 7670SOL    HW134643   0.113   3.074  10.526  0.6970 -0.6321 -0.1261
 7670SOL    HW234644   0.115   3.155  10.403 -0.7295  0.4476  0.6996
 7671SOL     OW34645   0.044   0.351   1.580  0.0191 -0.0866 -0.6382
 7671SOL    HW134646   4.726   0.385   1.509 -0.1424 -0.3401 -0.6349
 7671SOL    HW234647   4.718   0.322   1.646 -1.5950 -0.3594 -2.2760
 7672SOL     OW34648   2.986   1.164  12.327 -0.6279  0.3910 -0.3105
 7672SOL    HW134649   3.063   1.107  12.326 -0.5139  0.5434 -0.0451
 7672SOL    HW234650   2.951   1.168  12.416  1.0350 -2.1401  0.4530
 7673SOL     OW34651   3.581   1.815  17.358  0.3088 -0.0859 -0.2687
 7673SOL    HW134652   3.486   1.819  17.368  0.1022  0.4178 -2.4229
 7673SOL    HW234653   3.592   1.760  17.281 -0.0119  0.9211 -1.0384
 7674SOL     OW34654   0.841   0.214   6.025  0.7627 -0.1871 -0.6663
 7674SOL    HW134655   0.908   0.271   6.062  0.9835 -1.7546  1.3295
 7674SOL    HW234656   0.840   0.253   5.937 -0.7092 -1.0295 -1.0126
 7675SOL     OW34657   2.204   1.808   7.648 -0.2012 -0.1943 -0.0276
 7675SOL    HW134658   2.165   1.877   7.594 -0.0941 -0.7378 -0.8045
 7675SOL    HW234659   2.130   1.747   7.639  1.2880 -2.1117  0.6305
 7676SOL     OW34660   0.175   1.206   8.039  0.0951 -0.5505 -0.2252
 7676SOL    HW134661   0.252   1.163   8.075  0.4065  0.0042 -0.2196
 7676SOL    HW234662   0.114   1.135   8.021 -0.1053 -0.5088  0.2867
 7677SOL     OW34663   1.128   2.566   7.780  0.3496 -0.9238 -0.1553
 7677SOL    HW134664   1.130   2.653   7.741  2.3972 -0.7692  0.2985
 7677SOL    HW234665   1.076   2.577   7.859  1.1475  0.4897  0.1550
 7678SOL     OW34666   3.782   4.199   8.394  0.3934  0.1285  0.2493
 7678SOL    HW134667   3.745   4.149   8.467 -1.1684  0.8455 -0.0602
 7678SOL    HW234668   3.859   4.224   8.445 -0.0040  2.5481 -0.3676
 7679SOL     OW34669   3.675   2.495   5.157  0.0130 -0.6587  0.0969
 7679SOL    HW134670   3.739   2.425   5.168  1.2966  0.5434  0.1685
 7679SOL    HW234671   3.593   2.448   5.140 -0.5495  0.5135 -0.4241
 7680SOL     OW34672   0.640   3.449   4.338 -0.8220 -0.2999  0.1493
 7680SOL    HW134673   0.633   3.537   4.303  0.2965 -0.9048 -1.5817
 7680SOL    HW234674   0.676   3.470   4.424 -0.1929  0.0644 -0.2052
 7681SOL     OW34675   0.725   0.303   4.622 -0.0348  0.4126 -0.2632
 7681SOL    HW134676   0.648   0.359   4.635 -0.8111 -0.1680 -2.3795
 7681SOL    HW234677   0.695   0.250   4.549 -2.1660 -1.2241  1.7908
 7682SOL     OW34678   4.048   2.774   7.583 -0.6549 -0.4949 -0.2710
 7682SOL    HW134679   3.967   2.747   7.624 -0.6943 -2.8917 -1.9545
 7682SOL    HW234680   4.071   2.841   7.648 -2.5401 -0.2773  0.1547
 7683SOL     OW34681   2.204   0.577   5.082  0.7704 -0.1175  0.6749
 7683SOL    HW134682   2.285   0.582   5.030  1.5413  0.4327  1.9441
 7683SOL    HW234683   2.160   0.658   5.056 -0.0757 -1.3843 -1.8705
 7684SOL     OW34684   4.696   1.415   6.006 -0.6017 -0.0801 -0.1543
 7684SOL    HW134685   4.734   1.437   6.091 -1.4375 -3.1524  1.0286
 7684SOL    HW234686   0.033   1.443   5.952 -1.0409  2.4575  0.5911
 7685SOL     OW34687   0.491   2.615   5.927  0.2302 -0.1813 -0.4156
 7685SOL    HW134688   0.433   2.683   5.962  1.1262  0.5644 -0.3416
 7685SOL    HW234689   0.571   2.644   5.972 -1.4623  0.1633  2.4132
 7686SOL     OW34690   1.176   3.241   7.620  0.0036  0.3991 -0.0987
 7686SOL    HW134691   1.245   3.275   7.562 -0.3261  0.7643 -0.2751
 7686SOL    HW234692   1.221   3.174   7.671  0.7205  2.2284  1.6634
 7687SOL     OW34693   1.464   3.590   3.396  0.3920  0.5374  0.0486
 7687SOL    HW134694   1.479   3.510   3.445  0.3115  0.3851 -0.1734
 7687SOL    HW234695   1.368   3.588   3.397  0.4296 -2.5278 -3.0862
 7688SOL     OW34696   4.450   3.251   2.589 -0.5683  0.0652  0.3593
 7688SOL    HW134697   4.424   3.343   2.601  2.7079  0.9797  0.5069
 7688SOL    HW234698   4.414   3.219   2.672  1.9795 -0.3238  1.3315
 7689SOL     OW34699   1.377   1.971   7.707 -0.1679 -0.1255 -0.2410
 7689SOL    HW134700   1.328   2.053   7.703 -0.0000 -0.0163 -0.0551
 7689SOL    HW234701   1.422   1.958   7.623  0.9111  1.6441  0.0599
 7690SOL     OW34702   2.771   0.518   3.765 -0.4938  0.2133  0.1598
 7690SOL    HW134703   2.689   0.486   3.803 -0.0761  0.4420  1.2346
 7690SOL    HW234704   2.812   0.436   3.791 -1.4209 -0.4820 -0.5545
 7691SOL     OW34705   3.508   4.589   4.989  0.3760  0.1339 -0.3180
 7691SOL    HW134706   3.492   4.591   4.894 -0.9046  2.2597 -0.0520
 7691SOL    HW234707   3.602   4.570   4.984 -0.0076 -1.8974 -0.1226
 7692SOL     OW34708   3.467   1.257   9.622  0.3880 -0.0549  0.4191
 7692SOL    HW134709   3.508   1.188   9.570 -1.4801  0.6607 -2.0132
 7692SOL    HW234710   3.549   1.300   9.646 -0.6816  1.0300  2.1975
 7693SOL     OW34711   1.016   3.842   6.793 -0.3655  0.0098  0.2177
 7693SOL    HW134712   1.087   3.781   6.777  0.5757  1.5047 -1.3079
 7693SOL    HW234713   0.944   3.779   6.797 -0.5464  0.1978 -0.0716
 7694SOL     OW34714   1.797   1.702   1.682  0.1487 -0.4209  0.0862
 7694SOL    HW134715   1.763   1.757   1.611 -0.8200 -1.2882 -0.1121
 7694SOL    HW234716   1.729   1.707   1.749  0.5956  1.1720  0.4455
 7695SOL     OW34717   0.531   0.008   5.746 -0.0828 -0.8170 -0.8203
 7695SOL    HW134718   0.473   0.054   5.806  0.9233 -0.9126  0.2267
 7695SOL    HW234719   0.486   4.661   5.755  1.5573 -1.9352 -2.9971
 7696SOL     OW34720   3.790   3.763   7.381 -0.6723 -0.4597  0.0796
 7696SOL    HW134721   3.835   3.835   7.424 -1.0889 -0.7813  1.0609
 7696SOL    HW234722   3.700   3.790   7.398 -0.1273  1.3950 -0.0128
 7697SOL     OW34723   4.420   4.697   7.350 -0.1442 -0.1402 -0.5209
 7697SOL    HW134724   4.487   0.000   7.295 -0.0206  1.1373  0.5516
 7697SOL    HW234725   4.366   0.038   7.358 -1.8009 -1.2849 -0.7081
 7698SOL     OW34726   2.027   1.124   2.716  0.3409 -0.4941  0.0677
 7698SOL    HW134727   1.932   1.134   2.728  0.2279  0.0669 -1.2354
 7698SOL    HW234728   2.046   1.156   2.627  0.1997 -1.9213 -0.4837
 7699SOL     OW34729   4.510   4.376  12.880  0.5518 -0.1833 -0.4795
 7699SOL    HW134730   4.417   4.388  12.898 -0.0719  0.6434 -4.1002
 7699SOL    HW234731   4.506   4.328  12.797  2.6721 -1.6753  0.2794
 7700SOL     OW34732   0.646   1.021   8.023  0.1021 -0.0998 -0.6430
 7700SOL    HW134733   0.644   1.059   8.111 -0.2215  0.6505 -0.9673
 7700SOL    HW234734   0.719   0.961   8.013 -0.3026 -0.4845 -1.3278
 7701SOL     OW34735   1.378   3.589   8.187  0.4183  0.1275  0.2269
 7701SOL    HW134736   1.405   3.669   8.232  0.7451  1.3810 -2.2263
 7701SOL    HW234737   1.453   3.567   8.132 -0.0093  0.3351 -0.4356
 7702SOL     OW34738   1.011   4.542   9.447  0.2179 -0.2979 -0.6023
 7702SOL    HW134739   1.103   4.542   9.476 -0.4663 -0.1078  1.5506
 7702SOL    HW234740   0.971   4.499   9.523 -2.2124  1.0744 -1.1384
 7703SOL     OW34741   3.750   0.378   7.081 -0.5517 -0.7041 -0.1471
 7703SOL    HW134742   3.725   0.305   7.137  0.0596 -1.4634 -0.8606
 7703SOL    HW234743   3.841   0.364   7.054 -0.2433 -0.4321  0.7770
 7704SOL     OW34744   3.617   1.370   3.196 -0.2286 -0.2178 -0.0478
 7704SOL    HW134745   3.532   1.337   3.168 -0.3142  1.1004 -1.3002
 7704SOL    HW234746   3.611   1.361   3.292  1.2949  1.2551  0.1830
 7705SOL     OW34747   3.432   0.355   5.886  0.4886  0.0618 -0.1623
 7705SOL    HW134748   3.391   0.424   5.938  1.5342  2.0886 -2.0064
 7705SOL    HW234749   3.506   0.402   5.848 -0.1002  3.2177  2.5962
 7706SOL     OW34750   0.486   0.478   1.324 -0.2241 -0.8131  0.0937
 7706SOL    HW134751   0.423   0.500   1.393 -0.7897 -0.1493 -0.6301
 7706SOL    HW234752   0.480   0.384   1.306  0.3711 -0.9241  0.4668
 7707SOL     OW34753   2.567   2.577  13.584 -0.3184  0.2616  0.9144
 7707SOL    HW134754   2.650   2.540  13.553 -0.9687  0.8868 -1.5956
 7707SOL    HW234755   2.591   2.669  13.577 -1.0585  0.5027  1.5664
 7708SOL     OW34756   1.053   2.452   4.201  0.7281 -1.0508 -0.0295
 7708SOL    HW134757   1.012   2.440   4.115 -1.0869  0.3637  0.6333
 7708SOL    HW234758   1.093   2.365   4.207  3.6847  0.3601  0.8258
 7709SOL     OW34759   1.434   3.732  15.467 -0.5793 -0.2481 -0.2949
 7709SOL    HW134760   1.370   3.715  15.398  0.0336  0.0812 -0.9417
 7709SOL    HW234761   1.507   3.762  15.413  0.1683  0.9849  1.4100
 7710SOL     OW34762   4.698   3.999   2.854 -0.1571 -0.3325  0.0188
 7710SOL    HW134763   4.682   3.963   2.942 -2.6635 -1.8441 -1.0634
 7710SOL    HW234764   4.625   3.956   2.809  0.6581 -1.4682 -0.1946
 7711SOL     OW34765   4.500   0.397  16.227  0.3144 -0.5342  0.4309
 7711SOL    HW134766   4.433   0.347  16.275  0.7140 -2.8814 -1.4837
 7711SOL    HW234767   4.456   0.482  16.226  1.4038  0.0483  2.0214
 7712SOL     OW34768   4.008   4.721   5.911  0.1674 -0.2050 -0.1875
 7712SOL    HW134769   3.922   0.003   5.947 -0.3614  0.3839 -1.7710
 7712SOL    HW234770   4.037   4.652   5.971  1.4774  1.3763  0.9850
 7713SOL     OW34771   1.181   1.388   3.207  0.2527  0.3897 -0.2792
 7713SOL    HW134772   1.126   1.310   3.200  1.5739 -0.6351  0.6353
 7713SOL    HW234773   1.133   1.450   3.262 -0.2131 -0.7887  0.6537
 7714SOL     OW34774   0.995   4.523   8.875 -0.3129 -1.0213  0.1172
 7714SOL    HW134775   0.912   4.498   8.836 -0.2441 -1.2275  0.1038
 7714SOL    HW234776   1.059   4.500   8.807 -0.5546  0.1775 -0.5061
 7715SOL     OW34777   3.900   1.102   2.333  0.0523  0.1887 -0.1946
 7715SOL    HW134778   3.966   1.156   2.376  1.9460 -0.2337 -2.5671
 7715SOL    HW234779   3.912   1.021   2.382 -1.3376  1.5546  2.3510
 7716SOL     OW34780   1.800   4.514   1.925  0.2228  0.5091  0.3190
 7716SOL    HW134781   1.764   4.432   1.889 -0.9119  0.9484  0.4471
 7716SOL    HW234782   1.845   4.484   2.004 -0.8837 -0.6225  0.5200
 7717SOL     OW34783   0.104   0.013   1.869 -0.3870  0.5125 -0.0273
 7717SOL    HW134784   0.092   0.068   1.946 -2.0622 -1.7672  1.3193
 7717SOL    HW234785   0.022   4.700   1.873  0.1727 -0.2967  1.4453
 7718SOL     OW34786   1.736   0.795   7.110  0.1495  0.0427 -0.1316
 7718SOL    HW134787   1.796   0.855   7.155  1.7089 -2.4558  1.1153
 7718SOL    HW234788   1.751   0.817   7.018  1.1509  0.5035  0.1404
 7719SOL     OW34789   3.704   0.920   0.253  0.4619 -0.3285 -0.3208
 7719SOL    HW134790   3.696   0.833   0.294  1.0765 -0.6100 -0.7859
 7719SOL    HW234791   3.631   0.922   0.192  0.6019 -2.0072 -0.5657
 7720SOL     OW34792   4.066   3.125   7.399 -0.1830 -0.3998 -0.5975
 7720SOL    HW134793   3.996   3.154   7.458  0.4527  0.7032 -0.4031
 7720SOL    HW234794   4.087   3.206   7.352 -1.6366 -0.0027 -0.5704
 7721SOL     OW34795   2.417   0.825   1.957  0.0456  0.3104 -0.4841
 7721SOL    HW134796   2.372   0.907   1.978 -0.0745 -1.0645  4.4582
 7721SOL    HW234797   2.401   0.826   1.862  1.4861  1.1395 -0.7130
 7722SOL     OW34798   4.703   3.186   7.174  0.0292 -0.3831 -0.7496
 7722SOL    HW134799   4.696   3.274   7.210  1.2529 -0.3479 -0.5996
 7722SOL    HW234800   0.047   3.201   7.124  1.1319  0.3043  1.2400
 7723SOL     OW34801   2.735   4.687  11.721 -0.3684 -0.1818 -0.3959
 7723SOL    HW134802   2.785   4.615  11.683 -2.4372 -1.5097 -0.5489
 7723SOL    HW234803   2.662   4.680  11.661 -1.6719 -1.2062  1.3181
 7724SOL     OW34804   0.205   2.812   6.861  0.5082  0.1910  0.0338
 7724SOL    HW134805   0.154   2.834   6.782 -2.2138 -0.1548  1.6948
 7724SOL    HW234806   0.221   2.898   6.901  0.6334 -0.1965  0.8112
 7725SOL     OW34807   0.272   3.625   3.809  0.1834  0.2103 -0.0144
 7725SOL    HW134808   0.231   3.645   3.893 -2.9302 -0.2629 -1.4091
 7725SOL    HW234809   0.208   3.571   3.762  1.0900 -0.6263 -0.2898
 7726SOL     OW34810   1.782   0.572   5.183 -0.2259 -0.9018  0.1268
 7726SOL    HW134811   1.830   0.646   5.147  0.9871 -1.7629 -0.0321
 7726SOL    HW234812   1.853   0.508   5.189 -0.1224 -0.6916  1.1298
 7727SOL     OW34813   3.304   2.834   2.740  0.4012  0.1763 -0.1680
 7727SOL    HW134814   3.246   2.910   2.733 -1.6403 -1.6365 -2.7903
 7727SOL    HW234815   3.277   2.778   2.668 -0.5868  0.0849  0.2710
 7728SOL     OW34816   1.429   2.119  13.007  0.2493  0.3260  0.0706
 7728SOL    HW134817   1.371   2.055  12.967 -0.2069  1.1015 -0.5222
 7728SOL    HW234818   1.377   2.151  13.080  1.3803  0.8153  0.6652
 7729SOL     OW34819   0.138   3.720   8.112  0.1709  0.0216 -0.8224
 7729SOL    HW134820   0.205   3.723   8.180 -1.5831 -2.3935  1.0303
 7729SOL    HW234821   0.186   3.695   8.033  0.0890 -0.7851 -0.6270
 7730SOL     OW34822   1.061   2.688   2.399  0.0247 -0.2468  0.0406
 7730SOL    HW134823   1.116   2.726   2.467 -1.6080 -2.9867  2.9436
 7730SOL    HW234824   1.118   2.621   2.363 -0.9370 -1.3785  0.6102
 7731SOL     OW34825   3.414   3.911   6.688  0.2096 -0.0150  0.0723
 7731SOL    HW134826   3.470   3.866   6.625 -1.3833 -2.2479  0.2495
 7731SOL    HW234827   3.474   3.940   6.757 -0.2732 -1.5951  1.1688
 7732SOL     OW34828   0.478   1.134   1.206  0.2195 -0.5493  0.0245
 7732SOL    HW134829   0.537   1.080   1.259  1.8106  1.3027  0.1345
 7732SOL    HW234830   0.527   1.200   1.157  1.6068  0.0363  2.2129
 7733SOL     OW34831   3.225   2.055   7.565 -0.1932 -0.0859  0.8091
 7733SOL    HW134832   3.178   2.011   7.636 -2.6434 -0.9506 -1.3552
 7733SOL    HW234833   3.159   2.120   7.540 -0.4672 -1.1050 -1.1800
 7734SOL     OW34834   3.785   0.852  13.030 -0.1764  0.1656 -0.3338
 7734SOL    HW134835   3.849   0.915  13.064  0.8403 -0.6972 -0.6345
 7734SOL    HW234836   3.771   0.881  12.940  1.7848  0.4910 -0.5270
 7735SOL     OW34837   0.308   0.399   7.605 -0.3888  0.7869  0.1657
 7735SOL    HW134838   0.294   0.488   7.574  1.5034  0.7773 -0.7153
 7735SOL    HW234839   0.246   0.390   7.677 -2.1665  0.1184 -1.4554
 7736SOL     OW34840   2.999   1.080   5.802  0.0419  0.2506 -0.3794
 7736SOL    HW134841   3.003   1.027   5.881 -2.6089 -1.0706 -1.1178
 7736SOL    HW234842   2.964   1.011   5.745 -0.3831 -0.9102  1.3036
 7737SOL     OW34843   2.123   0.513   8.427 -0.0647  0.0634  0.0779
 7737SOL    HW134844   2.194   0.455   8.455 -0.3831 -1.1965 -1.7840
 7737SOL    HW234845   2.061   0.454   8.385 -0.6526  2.1559 -1.9949
 7738SOL     OW34846   1.030   1.841   7.441 -0.4967  0.3761  0.5428
 7738SOL    HW134847   0.943   1.880   7.437 -0.2141  0.9102 -0.3368
 7738SOL    HW234848   1.076   1.883   7.368 -0.8158  0.8433  0.6142
 7739SOL     OW34849   0.933   1.652   1.983 -0.2067  0.5659  0.1283
 7739SOL    HW134850   0.890   1.572   1.952 -1.1952  1.8160 -1.6937
 7739SOL    HW234851   0.882   1.668   2.062  0.9910  0.6415  0.8859
 7740SOL     OW34852   4.331   4.710  16.505 -0.0554  0.0389 -0.2668
 7740SOL    HW134853   4.294   4.622  16.509 -2.7615  1.2634  1.6714
 7740SOL    HW234854   4.387   4.708  16.428  0.2051 -0.0963 -0.0757
 7741SOL     OW34855   1.066   2.348   6.006  0.5509 -0.3176  0.0663
 7741SOL    HW134856   1.037   2.362   5.915  0.9829  0.4502  0.0402
 7741SOL    HW234857   1.044   2.257   6.023  0.6761 -0.0211  1.8531
 7742SOL     OW34858   1.031   1.141   1.867  0.5225 -0.2802 -0.1749
 7742SOL    HW134859   1.054   1.061   1.915 -0.0298 -0.4120 -0.1388
 7742SOL    HW234860   0.936   1.139   1.859  0.4400 -0.1050  0.8833
 7743SOL     OW34861   3.231   1.891  17.492  0.2378 -0.4224  0.9047
 7743SOL    HW134862   3.215   1.909  17.399  5.5198  0.8820  0.2808
 7743SOL    HW234863   3.299   1.957  17.505  0.7660 -1.0903  1.5264
 7744SOL     OW34864   0.873   1.796   4.081 -0.1708  1.3237  0.2130
 7744SOL    HW134865   0.857   1.814   3.989  0.1896 -1.6666 -0.4295
 7744SOL    HW234866   0.968   1.789   4.071 -0.5443  0.5131 -2.7859
 7745SOL     OW34867   2.216   1.466  15.761 -0.3462  0.2685 -0.8201
 7745SOL    HW134868   2.134   1.430  15.728 -0.5992  1.7185 -1.7658
 7745SOL    HW234869   2.212   1.557  15.735 -0.0716  0.6824  0.5604
 7746SOL     OW34870   0.851   0.262   9.616 -0.2641  0.2335  0.3000
 7746SOL    HW134871   0.839   0.175   9.578  2.1795  0.4110 -0.8226
 7746SOL    HW234872   0.938   0.244   9.652 -0.4034 -0.6108  0.1978
 7747SOL     OW34873   0.982   3.803  13.184  0.3623  0.0085  0.4360
 7747SOL    HW134874   0.914   3.780  13.248  1.1989  1.7639  1.9482
 7747SOL    HW234875   1.050   3.843  13.238  0.4805  2.2459 -1.3830
 7748SOL     OW34876   2.864   1.967   5.334 -0.0100 -0.2833 -0.1927
 7748SOL    HW134877   2.920   1.899   5.373  0.1143 -1.1733 -1.9181
 7748SOL    HW234878   2.883   2.046   5.385 -0.3010 -0.8389  0.7692
 7749SOL     OW34879   1.033   0.154   2.464  0.4485  0.3178  0.3017
 7749SOL    HW134880   1.051   0.162   2.558 -0.9745 -0.5595  0.6497
 7749SOL    HW234881   1.049   0.063   2.438  3.9105  1.7729 -2.6003
 7750SOL     OW34882   4.390   0.048   2.874 -0.4650  0.1411 -0.6137
 7750SOL    HW134883   4.453   0.058   2.803  0.3717 -0.9057 -0.0075
 7750SOL    HW234884   4.322   4.733   2.830 -0.9385 -2.3204  3.0244
 7751SOL     OW34885   0.235   1.890   2.469  0.6177 -0.5238  0.0772
 7751SOL    HW134886   0.235   1.962   2.407 -0.1175 -0.2066  0.4494
 7751SOL    HW234887   0.169   1.919   2.532  0.4308  0.5197 -0.6067
 7752SOL     OW34888   0.702   2.772   9.736  0.1622  0.4524 -0.6201
 7752SOL    HW134889   0.642   2.845   9.726 -1.0096 -0.1362  2.1196
 7752SOL    HW234890   0.769   2.812   9.679  0.0504  2.6983  0.8407
 7753SOL     OW34891   3.750   3.107   3.046  0.1216  0.0172 -0.0041
 7753SOL    HW134892   3.733   3.074   3.134  0.3930  0.6582  0.2929
 7753SOL    HW234893   3.829   3.154   3.075 -0.3389  1.1967 -0.6709
 7754SOL     OW34894   0.484   2.103   0.352 -1.0578  0.4006  0.2091
 7754SOL    HW134895   0.405   2.052   0.335  0.1164 -2.0980  2.1255
 7754SOL    HW234896   0.444   2.189   0.360  0.4634  1.0222  1.1468
 7755SOL     OW34897   4.062   3.489   3.583 -0.7966  0.8395 -0.2820
 7755SOL    HW134898   4.064   3.585   3.589 -1.2602  0.7936  0.4890
 7755SOL    HW234899   4.026   3.481   3.495 -2.4616 -1.2754  0.6202
 7756SOL     OW34900   3.946   1.633   9.251 -0.2159  0.2405  0.5581
 7756SOL    HW134901   3.904   1.598   9.172  0.4464  2.1125 -0.6431
 7756SOL    HW234902   4.014   1.566   9.258  0.7314  1.4463  2.7772
 7757SOL     OW34903   4.357   2.969   6.872  0.3028 -0.3833 -0.3861
 7757SOL    HW134904   4.449   2.968   6.901 -0.0751 -2.1575  0.7406
 7757SOL    HW234905   4.370   3.013   6.788 -2.7714 -2.2369 -1.8105
 7758SOL     OW34906   2.108   3.325   3.517 -0.1784 -0.0684 -0.5449
 7758SOL    HW134907   2.039   3.279   3.470 -0.6750  1.1188 -0.9724
 7758SOL    HW234908   2.104   3.293   3.607 -0.0928  1.3193 -0.0548
 7759SOL     OW34909   0.121   1.586   3.405 -0.0926  0.3037 -0.3887
 7759SOL    HW134910   0.132   1.508   3.350  1.2930  1.8038 -2.2386
 7759SOL    HW234911   0.068   1.648   3.355  0.2019  0.3163 -0.6872
 7760SOL     OW34912   3.716   4.276   5.569 -0.4816 -0.4986 -0.6204
 7760SOL    HW134913   3.720   4.290   5.474  1.0092 -2.0443 -0.7909
 7760SOL    HW234914   3.695   4.363   5.601 -0.5911 -0.6725 -0.2254
 7761SOL     OW34915   3.001   0.841  15.601  0.1432 -0.6762 -0.4032
 7761SOL    HW134916   2.983   0.935  15.608  0.2039 -0.7268  0.3763
 7761SOL    HW234917   2.949   0.817  15.524 -3.1644  0.9914  1.3489
 7762SOL     OW34918   1.144   2.010   4.457 -0.1894 -0.4753  0.1737
 7762SOL    HW134919   1.124   1.976   4.544 -0.5992  1.5710  0.8845
 7762SOL    HW234920   1.173   1.932   4.409 -0.3379 -0.6680  0.3974
 7763SOL     OW34921   4.017   2.759   8.526  0.2708  0.2744  0.2875
 7763SOL    HW134922   4.016   2.712   8.443 -0.9742 -0.3834  0.6751
 7763SOL    HW234923   4.095   2.723   8.568  0.5196  0.1029 -0.3266
 7764SOL     OW34924   3.950   3.627  13.813  0.4888 -0.1343 -0.0269
 7764SOL    HW134925   3.950   3.532  13.808 -2.6571 -0.0584 -1.3553
 7764SOL    HW234926   3.959   3.646  13.720 -1.4328  0.2356 -0.1267
 7765SOL     OW34927   3.249   4.699   8.221 -0.3542 -0.0389 -0.5484
 7765SOL    HW134928   3.260   4.607   8.245  1.4612  0.7204  1.5494
 7765SOL    HW234929   3.185   4.734   8.283  1.0828  2.3102 -0.3815
 7766SOL     OW34930   3.049   4.159   5.931 -0.0317  0.0418 -0.5386
 7766SOL    HW134931   2.955   4.155   5.946 -0.2380 -0.8220 -2.0385
 7766SOL    HW234932   3.066   4.241   5.978 -2.8599  0.3181  0.0046
 7767SOL     OW34933   4.654   3.068   2.686  0.5927  0.0028 -0.6317
 7767SOL    HW134934   4.669   3.118   2.606 -1.3895  0.2625 -0.8213
 7767SOL    HW234935   4.587   3.007   2.656 -0.4613 -0.2486  2.2708
 7768SOL     OW34936   1.758   0.287   0.724  0.0884  0.5556  0.2424
 7768SOL    HW134937   1.843   0.330   0.722 -0.4655  1.6095 -0.3978
 7768SOL    HW234938   1.711   0.320   0.801  1.0950  2.0154  0.2215
 7769SOL     OW34939   3.339   3.970  15.307 -0.1890  0.4581  0.4586
 7769SOL    HW134940   3.321   4.064  15.305 -2.6892 -0.0373 -0.6953
 7769SOL    HW234941   3.422   3.958  15.260  0.1506 -1.7305  1.6387
 7770SOL     OW34942   4.411   4.239   3.728  0.4354 -0.2714 -0.1154
 7770SOL    HW134943   4.411   4.281   3.814 -1.9054  0.3845 -0.4313
 7770SOL    HW234944   4.369   4.311   3.682 -1.3069 -0.8653  0.5457
 7771SOL     OW34945   4.711   0.129   7.956 -0.1452  0.3708  0.3014
 7771SOL    HW134946   4.630   0.080   7.965 -0.2819  0.7293  1.0854
 7771SOL    HW234947   4.666   0.210   7.933 -0.1374  0.3929  0.3634
 7772SOL     OW34948   1.220   2.475   3.848 -0.5754 -0.1222 -0.2869
 7772SOL    HW134949   1.145   2.415   3.847 -1.7537  1.3513  0.6000
 7772SOL    HW234950   1.209   2.520   3.764  1.9903 -1.0043 -1.1202
 7773SOL     OW34951   3.213   2.724  15.622  0.2488 -0.1545  0.2082
 7773SOL    HW134952   3.146   2.691  15.683  0.5696 -2.5267 -0.7697
 7773SOL    HW234953   3.220   2.817  15.645  1.2690 -0.2916  0.4435
 7774SOL     OW34954   4.033   2.419  14.141  0.2772  0.0554 -0.2618
 7774SOL    HW134955   4.057   2.329  14.119 -1.0613 -0.6476  1.1964
 7774SOL    HW234956   4.100   2.447  14.204 -1.7609  1.2713  1.3667
 7775SOL     OW34957   3.603   2.710  14.380  0.4376 -0.3944  0.1048
 7775SOL    HW134958   3.625   2.731  14.471  0.5688  0.7689 -0.1862
 7775SOL    HW234959   3.631   2.620  14.364  1.2663 -0.3685  1.3629
 7776SOL     OW34960   1.864   4.143   9.594  0.0466 -0.1592  0.6587
 7776SOL    HW134961   1.806   4.066   9.598  1.5736 -1.4169 -1.6592
 7776SOL    HW234962   1.793   4.207   9.584  0.6788  0.5534  0.7920
 7777SOL     OW34963   2.027   1.857   3.700  0.1663  0.8038 -0.3014
 7777SOL    HW134964   1.981   1.773   3.694  1.4600  0.0597  0.2162
 7777SOL    HW234965   1.960   1.924   3.712 -1.0422 -0.7980  1.8021
 7778SOL     OW34966   1.646   0.933   7.917 -0.4156  0.3248 -0.6290
 7778SOL    HW134967   1.607   1.007   7.964  2.5559  3.1180 -2.5155
 7778SOL    HW234968   1.686   0.886   7.991 -0.7191  0.0072 -0.6718
 7779SOL     OW34969   4.233   0.081  13.792  0.1436 -0.3913  0.3062
 7779SOL    HW134970   4.237   0.125  13.707 -0.5344  0.3381  0.6598
 7779SOL    HW234971   4.173   0.138  13.840 -1.2260 -1.7920  0.2609
 7780SOL     OW34972   0.333   3.823   3.406 -0.1838 -0.0125  0.2054
 7780SOL    HW134973   0.286   3.745   3.434  0.6042 -0.3386  0.6145
 7780SOL    HW234974   0.407   3.775   3.370  0.8353 -1.0730  3.7439
 7781SOL     OW34975   3.348   0.789   1.353  0.4275 -0.0257 -0.2009
 7781SOL    HW134976   3.389   0.702   1.355 -0.0574 -0.2640 -0.5353
 7781SOL    HW234977   3.414   0.842   1.398 -0.2879  0.5863  0.1212
 7782SOL     OW34978   3.749   3.857   6.069  0.0807 -0.2525  0.3315
 7782SOL    HW134979   3.657   3.874   6.046  0.6684  1.0472 -1.1237
 7782SOL    HW234980   3.794   3.940   6.050  1.1822 -0.9294 -0.0330
 7783SOL     OW34981   2.971   2.728   6.682  0.1330  0.2725 -0.3295
 7783SOL    HW134982   3.036   2.690   6.742  0.2540  1.7563  0.4856
 7783SOL    HW234983   2.976   2.655   6.620  2.1555 -1.0907  1.4216
 7784SOL     OW34984   0.025   0.734   7.622  0.6566  0.2056 -0.4401
 7784SOL    HW134985   0.088   0.740   7.694 -0.7391 -2.8267  1.0094
 7784SOL    HW234986   0.041   0.809   7.564 -0.6375 -1.9043 -3.5619
 7785SOL     OW34987   4.428   0.525  15.023 -0.3581  0.4993 -0.5802
 7785SOL    HW134988   4.425   0.507  15.117  2.3548 -0.9569 -0.7641
 7785SOL    HW234989   4.442   0.620  15.029 -0.3646  0.3485  1.7954
 7786SOL     OW34990   1.041   3.049  12.204 -0.1442 -0.2294  0.0809
 7786SOL    HW134991   1.003   2.984  12.263  1.0587 -0.1215  0.9616
 7786SOL    HW234992   0.962   3.077  12.158  0.8856 -1.1206 -2.2402
 7787SOL     OW34993   3.380   1.027   7.765 -0.2922 -0.0473  0.5497
 7787SOL    HW134994   3.353   1.004   7.676  0.4649  0.1202  0.2767
 7787SOL    HW234995   3.346   1.116   7.773 -1.4166 -0.5769  1.5467
 7788SOL     OW34996   3.448   2.523   7.085  0.6110  0.3519 -0.5723
 7788SOL    HW134997   3.437   2.452   7.021  0.2666 -0.9147  0.9061
 7788SOL    HW234998   3.529   2.498   7.128 -0.3374 -1.2429  0.2740
 7789SOL     OW34999   0.428   2.916  14.584  0.3173  0.5100  0.2344
 7789SOL    HW135000   0.506   2.969  14.569  0.5947 -0.4044 -1.4943
 7789SOL    HW235001   0.423   2.860  14.507  0.0463  0.8205  0.0278
 7790SOL     OW35002   4.031   2.461  11.163  0.2134  0.0181 -0.4771
 7790SOL    HW135003   3.983   2.499  11.089 -1.0431 -1.5574 -0.4740
 7790SOL    HW235004   3.964   2.459  11.231  2.0388 -2.0701  1.2547
 7791SOL     OW35005   2.163   2.783   3.494 -0.5722 -0.4136 -0.7230
 7791SOL    HW135006   2.186   2.876   3.494 -1.8366 -0.0920 -0.7856
 7791SOL    HW235007   2.081   2.779   3.444 -0.8834  1.4843 -0.3915
 7792SOL     OW35008   0.379   4.584  14.468 -0.1244  0.1591 -0.2915
 7792SOL    HW135009   0.344   4.534  14.395  1.4819 -0.5795 -0.5446
 7792SOL    HW235010   0.337   4.670  14.461  0.1208  0.2392 -0.8155
 7793SOL     OW35011   3.851   0.765   7.636  0.2671  0.4691 -0.2005
 7793SOL    HW135012   3.765   0.791   7.602 -0.3207 -0.6875  0.3766
 7793SOL    HW235013   3.902   0.747   7.558  0.3640 -3.0878  0.6734
 7794SOL     OW35014   2.161   4.588  17.499 -0.0541  0.0600  0.3669
 7794SOL    HW135015   2.204   4.572  17.415  1.2724  0.4130  0.9823
 7794SOL    HW235016   2.137   4.503  17.538 -0.3012  1.0171  2.3226
 7795SOL     OW35017   3.968   4.244   5.124  0.3275 -0.3472  0.3490
 7795SOL    HW135018   4.046   4.244   5.069  0.4178  0.8712  0.4649
 7795SOL    HW235019   3.984   4.163   5.171 -1.5264 -0.7713  0.2602
 7796SOL     OW35020   0.117   1.586   2.649 -0.2816 -0.2034 -0.2712
 7796SOL    HW135021   0.064   1.665   2.647  1.8930  1.3086  2.2143
 7796SOL    HW235022   0.206   1.621   2.657  0.0171 -0.2669 -3.3495
 7797SOL     OW35023   2.576   4.400   6.922 -0.0694  0.2128 -0.6040
 7797SOL    HW135024   2.521   4.326   6.898  2.4917 -1.9470  0.1575
 7797SOL    HW235025   2.603   4.426   6.834  1.1603  0.4351 -0.1594
 7798SOL     OW35026   0.682   2.372   3.035 -0.4332  0.4727 -0.0809
 7798SOL    HW135027   0.687   2.459   2.997  0.9077  1.7851  3.1302
 7798SOL    HW235028   0.769   2.365   3.074  0.3107  0.5639 -1.7591
 7799SOL     OW35029   1.342   4.542   2.241 -0.9746  0.1339  0.2024
 7799SOL    HW135030   1.394   4.504   2.169  0.1142  3.5380 -0.8034
 7799SOL    HW235031   1.337   4.457   2.286  0.4968 -0.9226 -1.5912
 7800SOL     OW35032   2.673   1.691  16.088 -0.4935  1.2600 -0.0510
 7800SOL    HW135033   2.632   1.703  16.003 -0.6785 -0.7623 -0.2480
 7800SOL    HW235034   2.665   1.596  16.089  0.0042  1.2061 -1.4916
 7801SOL     OW35035   3.737   4.245   5.259 -0.1845 -0.1768 -0.3746
 7801SOL    HW135036   3.825   4.263   5.225 -0.1463  2.0558  0.8604
 7801SOL    HW235037   3.719   4.181   5.190  1.4278 -1.4391  0.3805
 7802SOL     OW35038   1.421   1.360   1.766 -0.1071 -0.4077  0.6337
 7802SOL    HW135039   1.517   1.354   1.758 -0.1986 -0.4042 -0.4463
 7802SOL    HW235040   1.386   1.354   1.678 -1.9978  1.2599  1.2780
 7803SOL     OW35041   3.512   0.709   0.552  0.3317 -0.2814 -0.4175
 7803SOL    HW135042   3.500   0.802   0.533 -1.3902 -0.6079 -0.9236
 7803SOL    HW235043   3.594   0.677   0.513  0.8274  0.0640  0.3402
 7804SOL     OW35044   2.424   1.718   3.536  0.3756  0.4715 -0.3924
 7804SOL    HW135045   2.503   1.670   3.560  0.4395  0.9297  0.2966
 7804SOL    HW235046   2.417   1.691   3.444 -2.3581  1.3482 -0.4486
 7805SOL     OW35047   1.638   0.241   8.526 -0.1028 -0.6955  0.5661
 7805SOL    HW135048   1.594   0.183   8.464 -0.7266 -0.4485  0.7705
 7805SOL    HW235049   1.602   0.211   8.610 -0.5623 -2.1105 -0.1358
 7806SOL     OW35050   1.746   0.207   1.486  0.3382 -0.1066 -0.2905
 7806SOL    HW135051   1.765   0.298   1.464  1.6865 -0.7657 -1.8742
 7806SOL    HW235052   1.675   0.210   1.550  1.7894  0.1760  1.3070
 7807SOL     OW35053   0.001   1.711   3.185 -0.3634  0.1878 -0.3994
 7807SOL    HW135054   4.689   1.698   3.104  0.1803  1.0855 -0.8803
 7807SOL    HW235055   0.086   1.685   3.149  0.0440  2.4075 -1.0498
 7808SOL     OW35056   0.353   0.080   1.113  0.3745  0.3073  0.1930
 7808SOL    HW135057   0.316   0.070   1.025 -1.6462 -0.0896  1.0948
 7808SOL    HW235058   0.323   4.736   1.155  0.9498 -0.4613 -0.8994
 7809SOL     OW35059   0.989   1.906  10.043 -0.2390 -0.2377 -0.5073
 7809SOL    HW135060   0.987   1.815  10.014  1.3534 -0.1220 -0.9458
 7809SOL    HW235061   1.054   1.949   9.987 -3.0614  1.1527 -2.7694
 7810SOL     OW35062   2.850   4.078   3.600  0.1763 -0.0263 -0.1582
 7810SOL    HW135063   2.763   4.061   3.563 -0.3715  0.9229  0.6944
 7810SOL    HW235064   2.897   3.996   3.584  0.4796 -0.2202  1.6939
 7811SOL     OW35065   2.143   3.235   6.436  0.5136 -0.2934 -0.0502
 7811SOL    HW135066   2.138   3.139   6.438  1.6975 -0.3904 -1.5885
 7811SOL    HW235067   2.183   3.253   6.521  0.7207  0.3433 -0.2782
 7812SOL     OW35068   2.184   1.039   5.727  0.1683 -0.0458 -0.1229
 7812SOL    HW135069   2.176   1.046   5.822  0.8784  1.8149 -0.1953
 7812SOL    HW235070   2.273   1.073   5.713  0.1880  0.5620  1.4785
 7813SOL     OW35071   3.427   3.103  12.559  0.5804  0.5145  0.4718
 7813SOL    HW135072   3.334   3.084  12.545  0.4908  1.0119  0.3730
 7813SOL    HW235073   3.439   3.115  12.653 -0.6706 -1.7392  0.9074
 7814SOL     OW35074   1.050   2.930  10.206 -0.3628 -0.0082 -0.0027
 7814SOL    HW135075   1.146   2.925  10.205 -0.3458  0.6008 -1.8012
 7814SOL    HW235076   1.027   3.007  10.258 -0.1822 -0.2810  0.4887
 7815SOL     OW35077   1.034   0.749  12.336  0.0718 -0.7795 -0.0651
 7815SOL    HW135078   0.969   0.706  12.392 -2.5084 -0.9638 -3.2030
 7815SOL    HW235079   1.080   0.674  12.299  1.6689 -0.2051  0.7397
 7816SOL     OW35080   1.389   3.402   2.951 -0.4167  0.0115 -0.4712
 7816SOL    HW135081   1.406   3.477   2.893  0.0003  0.4625  0.2395
 7816SOL    HW235082   1.392   3.342   2.877 -2.6210 -0.4665 -0.1683
 7817SOL     OW35083   2.416   2.002  13.172  0.4187  0.2010  0.0500
 7817SOL    HW135084   2.394   2.090  13.140  0.9146  0.3015 -0.0160
 7817SOL    HW235085   2.511   2.001  13.163  0.3988 -0.1151 -0.1177
 7818SOL     OW35086   3.234   2.040   6.859 -0.6685  0.7982 -0.3196
 7818SOL    HW135087   3.270   1.952   6.871  0.0040  1.0735 -0.3064
 7818SOL    HW235088   3.203   2.061   6.947 -1.7092 -0.8401 -0.2893
 7819SOL     OW35089   1.441   4.324   8.529  0.0997 -0.1695 -0.3351
 7819SOL    HW135090   1.506   4.267   8.489 -1.6547 -1.7046 -1.0281
 7819SOL    HW235091   1.440   4.399   8.469  2.0776  0.3986  0.3435
 7820SOL     OW35092   2.322   1.420   7.637  0.1535  0.1001 -0.4682
 7820SOL    HW135093   2.245   1.394   7.688 -0.2062 -0.0165 -1.0616
 7820SOL    HW235094   2.374   1.342   7.656 -0.5206 -0.2620 -0.0948
 7821SOL     OW35095   1.397   2.957   9.195 -0.4039  0.3680  0.3250
 7821SOL    HW135096   1.483   2.991   9.168 -0.6687  2.1953  1.7773
 7821SOL    HW235097   1.372   3.028   9.254 -2.5825  0.2697 -0.4867
 7822SOL     OW35098   1.346   3.382   9.218 -0.2079  0.2637  0.5068
 7822SOL    HW135099   1.359   3.313   9.283  0.5249  1.0615  1.2002
 7822SOL    HW235100   1.425   3.435   9.223  0.9486 -1.3935 -0.2167
 7823SOL     OW35101   3.301   0.579   5.972 -0.6309  0.2837  0.6841
 7823SOL    HW135102   3.316   0.569   6.066 -1.4657 -0.7961  0.6961
 7823SOL    HW235103   3.312   0.673   5.959  2.3339  0.1415  2.1906
 7824SOL     OW35104   1.648   4.462   2.376  0.2361 -0.2173 -0.4936
 7824SOL    HW135105   1.643   4.441   2.283 -1.8407  2.0638 -0.9103
 7824SOL    HW235106   1.564   4.502   2.399  0.8052 -0.3006  1.7495
 7825SOL     OW35107   0.430   3.826   4.868 -0.1834  0.4895  0.3456
 7825SOL    HW135108   0.463   3.895   4.810  1.0628 -0.4957 -0.1104
 7825SOL    HW235109   0.505   3.767   4.879 -0.0895  0.6786  0.7523
 7826SOL     OW35110   2.585   0.604   2.894 -0.4078  0.2726  0.3890
 7826SOL    HW135111   2.545   0.687   2.921 -0.0230  0.9177 -1.0042
 7826SOL    HW235112   2.522   0.574   2.829  1.6011 -2.8713 -0.1201
 7827SOL     OW35113   3.768   3.186   4.501  0.1581  0.6128  0.0301
 7827SOL    HW135114   3.798   3.210   4.414  0.7818  0.6364  0.2543
 7827SOL    HW235115   3.707   3.258   4.518  1.3417  0.9395  2.7267
 7828SOL     OW35116   1.228   0.663   7.198  0.2340  0.5640  0.0576
 7828SOL    HW135117   1.227   0.608   7.277  1.9396 -1.6180 -1.4176
 7828SOL    HW235118   1.232   0.595   7.131  2.5931  0.2218  0.5292
 7829SOL     OW35119   2.064   1.239  14.039  0.5204 -0.0903 -0.0061
 7829SOL    HW135120   1.988   1.272  13.990  1.3169 -1.8360 -2.4147
 7829SOL    HW235121   2.136   1.262  13.980  0.6153 -1.2123 -0.3252
 7830SOL     OW35122   1.323   0.071   7.881 -0.1589 -0.5007  0.3451
 7830SOL    HW135123   1.284   0.037   7.800  0.0615 -2.5520  1.0889
 7830SOL    HW235124   1.245   0.111   7.919 -0.3468 -0.9394  0.4295
 7831SOL     OW35125   1.468   0.406  14.410 -0.5087 -0.6873 -0.2368
 7831SOL    HW135126   1.456   0.493  14.372  2.9872 -0.3890 -0.6934
 7831SOL    HW235127   1.535   0.370  14.351 -0.2818  0.5421 -0.7282
 7832SOL     OW35128   0.427   0.606   9.437 -0.0059  0.9518  0.7079
 7832SOL    HW135129   0.372   0.659   9.379  4.0442  0.6782 -3.4060
 7832SOL    HW235130   0.395   0.521   9.406 -0.6698  1.9156 -1.2457
 7833SOL     OW35131   3.374   2.906   3.966  0.0747  0.1280  0.0202
 7833SOL    HW135132   3.309   2.852   3.922 -1.4574 -0.0009  2.3978
 7833SOL    HW235133   3.326   2.979   4.005 -0.0049 -0.0121  0.1866
 7834SOL     OW35134   0.295   3.414   1.178  0.5586 -0.1604  0.2779
 7834SOL    HW135135   0.218   3.408   1.121  0.3827  0.7097  0.4270
 7834SOL    HW235136   0.300   3.506   1.203  1.5264 -0.5222  1.4085
 7835SOL     OW35137   3.194   3.058  13.036 -0.4806 -0.3800 -0.5205
 7835SOL    HW135138   3.109   3.086  13.069  0.2606  0.3671  0.7727
 7835SOL    HW235139   3.248   3.127  13.075 -0.4580 -1.5074  1.4151
 7836SOL     OW35140   1.921   0.107   9.003 -0.4617 -0.1796  0.6006
 7836SOL    HW135141   1.909   0.169   8.931 -1.8494  1.1939  2.0136
 7836SOL    HW235142   1.861   0.149   9.064  1.0424  1.2309  1.1077
 7837SOL     OW35143   2.834   1.052   2.210 -0.1319 -0.1768  0.2642
 7837SOL    HW135144   2.807   1.040   2.301  1.4854 -1.0326  0.6311
 7837SOL    HW235145   2.889   0.974   2.197 -0.8212 -0.1001 -3.2140
 7838SOL     OW35146   3.330   2.603   8.189  0.4598  0.0108 -0.3186
 7838SOL    HW135147   3.272   2.675   8.214  1.1335 -0.2991  2.1448
 7838SOL    HW235148   3.260   2.551   8.148  0.2996 -0.3645  0.4183
 7839SOL     OW35149   1.669   3.576   3.215 -0.3542 -0.5535  0.0864
 7839SOL    HW135150   1.735   3.553   3.281  1.0112  0.1810 -1.0358
 7839SOL    HW235151   1.592   3.564   3.272 -0.4687  0.1408  0.0715
 7840SOL     OW35152   2.234   2.660   0.262  0.1274 -0.3946 -0.0805
 7840SOL    HW135153   2.320   2.670   0.220 -0.2214 -1.5368 -1.0933
 7840SOL    HW235154   2.202   2.748   0.280 -1.8603 -0.9101 -1.0840
 7841SOL     OW35155   2.172   1.305   4.300  0.3910  0.1071  0.6640
 7841SOL    HW135156   2.078   1.286   4.302  0.9544 -2.7179 -0.0110
 7841SOL    HW235157   2.176   1.389   4.254  0.0050  0.1849  0.7691
 7842SOL     OW35158   2.462   4.664   0.475  0.5428 -0.1023 -0.3807
 7842SOL    HW135159   2.433   4.601   0.541  0.9894  1.1101  0.9521
 7842SOL    HW235160   2.537   4.613   0.444  1.7947  2.3036 -1.3164
 7843SOL     OW35161   0.058   0.021   9.198  0.4798  0.3931 -0.2210
 7843SOL    HW135162   4.733   0.087   9.165 -2.0702 -2.2217 -0.6251
 7843SOL    HW235163   0.079   0.063   9.282  2.4693  0.2614 -0.6639
 7844SOL     OW35164   1.882   0.684   4.413 -0.1155  0.0996 -0.1528
 7844SOL    HW135165   1.923   0.666   4.328  1.2984  0.8869  0.3679
 7844SOL    HW235166   1.951   0.685   4.480 -0.9571  2.4041  0.6884
 7845SOL     OW35167   3.365   3.217   2.114 -0.4199 -0.4145  0.1422
 7845SOL    HW135168   3.270   3.219   2.128 -0.3839 -0.1256  0.3479
 7845SOL    HW235169   3.380   3.131   2.074  1.3684  0.2943 -0.6884
 7846SOL     OW35170   0.731   0.796   3.527 -0.0882 -0.2423 -0.5045
 7846SOL    HW135171   0.716   0.825   3.617 -1.1906 -3.3538  0.3309
 7846SOL    HW235172   0.640   0.809   3.499 -0.3337  0.9799  0.8742
 7847SOL     OW35173   0.586   4.396   4.020  0.5488 -0.0403 -0.1890
 7847SOL    HW135174   0.600   4.301   4.025 -2.5265 -0.6490 -2.8330
 7847SOL    HW235175   0.512   4.404   4.080 -0.1031 -0.2089 -0.9731
 7848SOL     OW35176   2.750   4.090  11.829 -0.1504 -0.1090  0.1353
 7848SOL    HW135177   2.687   4.158  11.851 -1.5246 -1.7281  1.1923
 7848SOL    HW235178   2.827   4.107  11.884 -0.3852  1.2684  0.0340
 7849SOL     OW35179   2.381   2.603   3.174  0.7416 -0.2735  0.1682
 7849SOL    HW135180   2.288   2.582   3.181  1.2978 -2.3923  1.1255
 7849SOL    HW235181   2.383   2.686   3.222 -0.8332  0.1389 -0.4724
 7850SOL     OW35182   0.772   3.223  10.448  0.2048  0.8574 -0.2368
 7850SOL    HW135183   0.800   3.262  10.531 -1.1015 -0.7557  0.9605
 7850SOL    HW235184   0.827   3.145  10.452 -2.2183 -0.7589  1.4689
 7851SOL     OW35185   1.940   1.801  17.297 -0.0869 -0.7650 -0.0628
 7851SOL    HW135186   2.006   1.738  17.324 -1.0146 -1.5982  0.2921
 7851SOL    HW235187   1.882   1.791  17.373  1.7442  3.5668  1.9054
 7852SOL     OW35188   1.119   0.821   6.244  0.9499  0.1736  0.1716
 7852SOL    HW135189   1.043   0.781   6.286 -0.5702  1.6136 -1.1943
 7852SOL    HW235190   1.090   0.912   6.236 -0.3627 -0.2831 -0.3347
 7853SOL     OW35191   0.708   1.313   9.354  0.2439  0.0958 -0.1048
 7853SOL    HW135192   0.781   1.288   9.411  0.5861 -2.0193 -1.4912
 7853SOL    HW235193   0.728   1.407   9.355 -1.4442  0.4393  0.3792
 7854SOL     OW35194   0.160   0.373   7.857 -0.2672  0.2416  0.3468
 7854SOL    HW135195   0.218   0.421   7.916  0.4910 -0.3608  0.0885
 7854SOL    HW235196   0.072   0.395   7.887  0.8612  0.3552  3.5956
 7855SOL     OW35197   3.195   0.057   9.870  0.0742  0.2201 -0.7572
 7855SOL    HW135198   3.137   4.728   9.909 -0.4194 -0.1401 -2.1176
 7855SOL    HW235199   3.242   0.069   9.953 -1.1306 -0.0251 -0.0362
 7856SOL     OW35200   1.601   4.718   5.136 -0.3632  0.4052  0.1136
 7856SOL    HW135201   1.588   4.689   5.226 -1.2590  1.3404  0.2836
 7856SOL    HW235202   1.515   0.016   5.113  0.4850  1.2619 -1.7726
 7857SOL     OW35203   1.217   2.881   9.593 -0.0693  0.5723  0.3577
 7857SOL    HW135204   1.176   2.919   9.515 -1.2065  0.1531  0.7492
 7857SOL    HW235205   1.247   2.962   9.633 -0.5620  0.2602  1.3409
 7858SOL     OW35206   3.770   0.391  13.456  0.5120 -0.2954 -0.2382
 7858SOL    HW135207   3.681   0.425  13.447  0.1840 -0.4073  2.3782
 7858SOL    HW235208   3.812   0.467  13.498 -0.2223  0.5062 -0.9564
 7859SOL     OW35209   3.026   4.691   4.345  0.1653  0.4146 -0.3185
 7859SOL    HW135210   2.984   4.728   4.422 -2.5237 -1.5825 -0.8286
 7859SOL    HW235211   3.059   4.609   4.381 -0.7031  0.3953  0.4119
 7860SOL     OW35212   0.098   3.750   8.661  0.2728 -0.1015 -0.7738
 7860SOL    HW135213   0.021   3.739   8.606 -0.3963  0.0583  0.1209
 7860SOL    HW235214   0.060   3.803   8.731 -0.7493 -1.3196 -0.4102
 7861SOL     OW35215   2.357   4.678  10.481 -0.2727 -0.0386  0.5521
 7861SOL    HW135216   2.284   4.618  10.468 -0.1424 -0.4824  1.8595
 7861SOL    HW235217   2.326   4.724  10.559  2.1559 -1.0403  2.1071
 7862SOL     OW35218   1.143   3.711   3.390 -0.2438 -0.5054 -0.1883
 7862SOL    HW135219   1.062   3.746   3.428 -0.1953  1.6884 -2.0713
 7862SOL    HW235220   1.197   3.790   3.387 -3.0272  1.4013 -0.2043
 7863SOL     OW35221   1.185   1.906   1.512 -0.4472 -0.1189 -0.5701
 7863SOL    HW135222   1.157   1.868   1.595  0.4045 -1.2839 -0.8216
 7863SOL    HW235223   1.109   1.957   1.483 -0.1415  0.8431  0.3009
 7864SOL     OW35224   1.546   1.809  16.711  0.2524  0.3531 -0.1063
 7864SOL    HW135225   1.627   1.785  16.756 -0.7818  0.1220  1.6137
 7864SOL    HW235226   1.568   1.895  16.674  0.4839  0.1113 -0.5425
 7865SOL     OW35227   3.061   3.615   7.384 -0.8951 -0.7612 -0.2337
 7865SOL    HW135228   3.032   3.526   7.405 -2.3730  0.0653  1.2388
 7865SOL    HW235229   3.127   3.634   7.451  0.5431 -1.1701 -1.5506
 7866SOL     OW35230   4.353   3.883   3.433 -0.1819  0.0483  0.0040
 7866SOL    HW135231   4.401   3.921   3.360  0.8856  0.2642  0.8199
 7866SOL    HW235232   4.292   3.821   3.391 -1.0850  0.9494 -0.0183
 7867SOL     OW35233   3.705   1.320   8.932 -0.2693 -0.0454 -0.1386
 7867SOL    HW135234   3.728   1.249   8.871  0.9814  0.6202 -0.4598
 7867SOL    HW235235   3.616   1.333   8.900 -0.2348 -0.0425 -0.2354
 7868SOL     OW35236   0.013   0.363  14.337  0.0689 -0.5287 -0.8001
 7868SOL    HW135237   4.701   0.283  14.318 -0.3297 -0.4275 -0.2050
 7868SOL    HW235238   0.106   0.341  14.329 -0.0722 -1.5706  0.5239
 7869SOL     OW35239   1.445   2.949   8.059 -0.0447 -0.5871  0.1187
 7869SOL    HW135240   1.401   3.013   8.003  2.3110  0.9021 -0.0062
 7869SOL    HW235241   1.403   2.969   8.143 -1.5655 -1.2187 -0.4972
 7870SOL     OW35242   2.335   1.939  14.132  0.4694  0.5385  0.2411
 7870SOL    HW135243   2.363   1.930  14.223 -2.6046 -0.0392  1.1127
 7870SOL    HW235244   2.241   1.952  14.139 -0.1390 -3.0035 -1.3822
 7871SOL     OW35245   3.754   1.619   3.217  0.1271 -0.4553  0.5841
 7871SOL    HW135246   3.729   1.541   3.168  0.3526 -0.3817  0.3561
 7871SOL    HW235247   3.762   1.683   3.147 -0.2409 -0.1852  0.7885
 7872SOL     OW35248   1.625   4.256   9.287  0.5328  0.3691  0.2100
 7872SOL    HW135249   1.578   4.337   9.307 -0.3759  0.3322 -1.7154
 7872SOL    HW235250   1.589   4.201   9.356  2.2785  1.1869  1.7547
 7873SOL     OW35251   0.167   3.423   9.184  0.1005 -0.4707  0.7719
 7873SOL    HW135252   0.162   3.328   9.175  1.5130 -0.7783  3.1866
 7873SOL    HW235253   0.257   3.442   9.212 -0.2193 -1.0976  2.2543
 7874SOL     OW35254   4.076   0.242  14.787 -0.1636  0.0678 -0.4003
 7874SOL    HW135255   3.999   0.282  14.747 -1.7144 -3.5073 -0.9107
 7874SOL    HW235256   4.144   0.309  14.795  0.7681 -1.1947  2.2681
 7875SOL     OW35257   1.119   1.292  12.549 -0.2580 -0.2510 -0.0974
 7875SOL    HW135258   1.138   1.358  12.483 -1.6887 -0.5873 -0.8413
 7875SOL    HW235259   1.171   1.228  12.500 -0.6385  0.8365 -1.8825
 7876SOL     OW35260   1.488   0.387   3.187 -0.1023  0.0699  0.1505
 7876SOL    HW135261   1.554   0.327   3.152  1.0404  0.5646  1.4656
 7876SOL    HW235262   1.508   0.467   3.139  0.8686 -0.0620  0.3404
 7877SOL     OW35263   3.510   0.482   7.635  0.2276 -0.2354  0.2107
 7877SOL    HW135264   3.557   0.468   7.553 -0.3487 -0.3926 -0.0888
 7877SOL    HW235265   3.429   0.438   7.608 -1.5812  2.1388  1.7716
 7878SOL     OW35266   4.181   0.715  15.902 -0.6615 -0.6340 -0.5519
 7878SOL    HW135267   4.171   0.751  15.814 -0.0765  1.1549  0.0979
 7878SOL    HW235268   4.272   0.690  15.918 -0.6770 -0.5191 -0.2752
 7879SOL     OW35269   0.682   0.062   6.762 -0.0595  0.1115  0.3523
 7879SOL    HW135270   0.648   0.144   6.726 -0.0007  0.2624  0.6422
 7879SOL    HW235271   0.775   0.086   6.766 -0.1074  0.3929 -0.1493
 7880SOL     OW35272   4.147   1.503   5.819 -0.2582  0.0157 -0.0586
 7880SOL    HW135273   4.235   1.522   5.852 -0.8802  0.5209  1.3376
 7880SOL    HW235274   4.164   1.482   5.727  0.2333 -1.9933  0.4883
 7881SOL     OW35275   4.565   4.173  17.244 -0.3202 -0.1233 -0.1356
 7881SOL    HW135276   4.480   4.158  17.284  0.1541 -0.9278  0.5739
 7881SOL    HW235277   4.625   4.166  17.319  0.2192  1.3629 -0.4288
 7882SOL     OW35278   0.857   2.204  12.582  0.2735 -0.0735 -0.6008
 7882SOL    HW135279   0.808   2.281  12.553  0.5603  0.1402 -0.5189
 7882SOL    HW235280   0.900   2.172  12.503 -0.4040  0.4994 -1.2103
 7883SOL     OW35281   1.490   4.030   3.965 -0.1029  0.8047  0.1198
 7883SOL    HW135282   1.480   3.981   3.883  0.0484  0.2658  0.4215
 7883SOL    HW235283   1.437   4.109   3.963 -0.6098  0.4672  0.3061
 7884SOL     OW35284   4.145   0.916   4.086 -0.3666 -0.8800 -0.0422
 7884SOL    HW135285   4.109   1.001   4.110 -0.1459 -1.1210  1.1494
 7884SOL    HW235286   4.095   0.903   4.006 -0.3236  1.2625 -0.4003
 7885SOL     OW35287   1.198   4.206   1.847  0.4360 -0.0252 -0.0754
 7885SOL    HW135288   1.276   4.151   1.855  1.2327  0.8380 -1.7598
 7885SOL    HW235289   1.225   4.271   1.781  0.3533  2.1573  2.0336
 7886SOL     OW35290   4.485   4.566  17.461 -0.7795 -0.0625 -0.5264
 7886SOL    HW135291   4.459   4.635  17.401  0.2283  0.6908 -0.0840
 7886SOL    HW235292   4.396   4.542  17.487 -0.4702 -1.0880 -0.3873
 7887SOL     OW35293   3.817   3.777   9.847  0.0554 -0.5443 -0.0638
 7887SOL    HW135294   3.755   3.803   9.916  1.8362  1.3417  0.8354
 7887SOL    HW235295   3.761   3.773   9.770 -1.0821  2.2984  0.5787
 7888SOL     OW35296   2.387   0.344   0.001  0.0619 -0.1004 -0.2012
 7888SOL    HW135297   2.460   0.320  17.690 -0.2178  0.8442 -0.9636
 7888SOL    HW235298   2.324   0.278  17.720 -1.4898  1.5073 -0.5016
 7889SOL     OW35299   1.792   2.014   4.518  0.5992 -0.1205  0.1598
 7889SOL    HW135300   1.753   1.946   4.464 -0.7681  1.1753 -0.4936
 7889SOL    HW235301   1.708   2.028   4.562 -0.3655 -0.3242 -1.6260
 7890SOL     OW35302   0.209   3.120   8.212 -0.6780  0.4024  0.0661
 7890SOL    HW135303   0.154   3.177   8.159 -0.9250  1.3906  1.3722
 7890SOL    HW235304   0.292   3.140   8.168  0.0598 -2.3311  0.2038
 7891SOL     OW35305   2.211   2.452   7.800  0.2233  0.1078  0.0408
 7891SOL    HW135306   2.180   2.465   7.890  2.7585  1.0986  0.7681
 7891SOL    HW235307   2.279   2.386   7.809  1.4166  1.3139 -0.0577
 7892SOL     OW35308   3.634   3.669   8.262 -0.2077 -0.1031 -0.9724
 7892SOL    HW135309   3.688   3.737   8.222  0.7313 -0.1940  0.1507
 7892SOL    HW235310   3.566   3.657   8.195  0.7660 -1.0009 -1.7997
 7893SOL     OW35311   3.417   2.407   3.934 -0.6372  0.2902 -0.5769
 7893SOL    HW135312   3.407   2.437   4.024  0.1732 -2.6453  0.4861
 7893SOL    HW235313   3.395   2.315   3.946  0.5899  0.1446  0.6025
 7894SOL     OW35314   2.125   3.296   5.853 -0.3736  0.4419  0.3147
 7894SOL    HW135315   2.144   3.285   5.947 -0.2630 -2.8530 -0.0888
 7894SOL    HW235316   2.197   3.253   5.808 -1.1984 -0.4387 -0.1841
 7895SOL     OW35317   0.786   2.771   2.400  0.0034 -0.0434 -0.5396
 7895SOL    HW135318   0.878   2.747   2.410 -0.0088  0.3755  0.5890
 7895SOL    HW235319   0.767   2.820   2.480 -0.3904 -2.0482  0.5694
 7896SOL     OW35320   3.474   2.942   2.111 -0.0695 -0.3380 -0.4348
 7896SOL    HW135321   3.561   2.909   2.133 -1.3076 -1.9746  2.0245
 7896SOL    HW235322   3.448   2.967   2.200 -2.5522  1.4100 -1.6538
 7897SOL     OW35323   1.360   0.598  10.613 -0.0483  0.7169  0.1028
 7897SOL    HW135324   1.388   0.688  10.634 -0.7253  0.7477  0.8713
 7897SOL    HW235325   1.402   0.578  10.530 -0.9967  1.6432 -0.6103
 7898SOL     OW35326   1.748   3.480   3.599  0.0672 -0.7010  0.0693
 7898SOL    HW135327   1.694   3.533   3.657  0.5320  1.4978 -1.5161
 7898SOL    HW235328   1.689   3.407   3.580 -2.2777  1.8135 -2.2221
 7899SOL     OW35329   0.866   1.106  11.234  0.1243 -0.0809  0.4462
 7899SOL    HW135330   0.922   1.076  11.305  1.8564  0.5374 -0.6635
 7899SOL    HW235331   0.868   1.200  11.253 -1.3372 -0.1023  0.7589
 7900SOL     OW35332   1.144   4.706  13.762 -0.1929  0.2596 -0.1029
 7900SOL    HW135333   1.112   4.656  13.837 -1.0989  0.1852 -0.5338
 7900SOL    HW235334   1.151   0.056  13.800 -1.1060 -0.1184  0.9503
 7901SOL     OW35335   1.331   3.118   9.668  0.8732  0.1645  0.4669
 7901SOL    HW135336   1.422   3.093   9.684 -0.2534 -2.9334  2.0971
 7901SOL    HW235337   1.328   3.205   9.707  0.1950  0.9666 -1.3974
 7902SOL     OW35338   3.235   3.473   1.484  0.2659 -0.4914 -0.6200
 7902SOL    HW135339   3.309   3.414   1.466  1.5344  0.4552  1.5977
 7902SOL    HW235340   3.189   3.495   1.403  2.0390 -0.2623 -1.5867
 7903SOL     OW35341   2.643   3.114   6.776 -0.0192 -0.8243  0.4681
 7903SOL    HW135342   2.705   3.084   6.710  0.2987 -0.1939  0.4783
 7903SOL    HW235343   2.592   3.034   6.790 -1.6208  0.2020  0.3804
 7904SOL     OW35344   1.118   3.507   0.825 -0.5329  0.0394 -0.1357
 7904SOL    HW135345   1.106   3.542   0.737 -0.0837 -0.9288 -0.5811
 7904SOL    HW235346   1.177   3.574   0.858 -0.2699 -0.4125  0.3034
 7905SOL     OW35347   1.560   0.219   1.691 -0.1863  0.3814  0.1706
 7905SOL    HW135348   1.536   0.280   1.761 -0.5123 -0.8613  1.1393
 7905SOL    HW235349   1.503   0.148   1.717  0.9977 -0.5451  0.2216
 7906SOL     OW35350   1.040   1.778   3.075 -0.7029 -0.0537 -0.2518
 7906SOL    HW135351   1.136   1.781   3.076 -0.7661  1.5746  0.6755
 7906SOL    HW235352   1.019   1.768   3.168 -0.4424  1.1372 -0.0607
 7907SOL     OW35353   1.039   1.009   5.286  0.3928 -0.2586 -0.0054
 7907SOL    HW135354   1.054   0.932   5.340 -2.1269 -0.5710  0.2805
 7907SOL    HW235355   1.054   0.979   5.196 -1.9886  0.4465 -0.6389
 7908SOL     OW35356   0.730   1.365   2.299 -0.1849 -0.0167  0.1751
 7908SOL    HW135357   0.720   1.353   2.205 -3.3466 -0.6893  0.5981
 7908SOL    HW235358   0.803   1.311   2.329 -0.1750 -0.2504 -0.2748
 7909SOL     OW35359   2.092   1.983   2.102 -0.1447  0.2581 -0.0577
 7909SOL    HW135360   1.999   1.997   2.117 -0.0929 -0.3366  0.7750
 7909SOL    HW235361   2.099   1.945   2.014  2.5329  0.9600 -0.1477
 7910SOL     OW35362   4.616   2.477   6.670  0.6613 -0.0108 -0.3600
 7910SOL    HW135363   4.550   2.467   6.602  0.4072 -1.2017  0.0753
 7910SOL    HW235364   4.665   2.556   6.644  2.3410  0.0945  3.0712
 7911SOL     OW35365   1.552   1.544   8.112  0.1684 -0.4413  0.1047
 7911SOL    HW135366   1.472   1.566   8.065  0.2186  1.5720  0.9390
 7911SOL    HW235367   1.523   1.574   8.198  0.3983 -0.4439  0.1833
 7912SOL     OW35368   3.915   1.739   9.488  0.7264  0.3962  0.2482
 7912SOL    HW135369   3.915   1.693   9.404 -0.6364 -1.9515  1.5311
 7912SOL    HW235370   3.841   1.799   9.476 -0.0091 -0.7762 -1.1213
 7913SOL     OW35371   0.285   4.550   6.199  0.0776  0.1851 -0.2613
 7913SOL    HW135372   0.237   4.514   6.274 -0.1681  1.4342  0.1818
 7913SOL    HW235373   0.368   4.505   6.208 -0.1877 -0.1825  0.3171
 7914SOL     OW35374   3.486   3.119   2.724 -0.4727  0.1871  0.5769
 7914SOL    HW135375   3.412   3.082   2.772 -0.6645  0.4272  0.4655
 7914SOL    HW235376   3.478   3.071   2.641  0.4322  1.4565 -0.2441
 7915SOL     OW35377   0.440   1.305   0.598 -0.4755  0.0792  0.8530
 7915SOL    HW135378   0.402   1.332   0.681  0.9735  0.9107  1.2573
 7915SOL    HW235379   0.484   1.382   0.561 -1.4564  0.4216  0.3971
 7916SOL     OW35380   2.712   1.397   8.918 -0.4330  0.4457  0.6122
 7916SOL    HW135381   2.730   1.477   8.968  2.4871  0.6644 -0.7833
 7916SOL    HW235382   2.770   1.420   8.846  0.0490  0.0096  0.8589
 7917SOL     OW35383   1.151   4.119   4.100 -0.0542 -0.3991 -0.6548
 7917SOL    HW135384   1.135   4.202   4.145  1.8068 -2.6516  4.1230
 7917SOL    HW235385   1.204   4.149   4.026  3.2737 -3.7860  0.3300
 7918SOL     OW35386   1.154   1.172  12.812  0.0467  0.0942  0.0800
 7918SOL    HW135387   1.178   1.257  12.777  2.9686 -0.7010  0.1047
 7918SOL    HW235388   1.120   1.127  12.734 -1.4279 -1.1495  1.4481
 7919SOL     OW35389   3.479   3.677   5.800 -0.5464  0.3954  0.0681
 7919SOL    HW135390   3.550   3.614   5.787 -1.1376 -0.4761  1.0583
 7919SOL    HW235391   3.419   3.633   5.741  3.3399 -1.3665 -2.5859
 7920SOL     OW35392   1.650   3.854   4.347 -0.4685  0.8556  0.0522
 7920SOL    HW135393   1.580   3.855   4.281 -1.5484 -0.5053  1.1706
 7920SOL    HW235394   1.719   3.807   4.301 -0.2638  1.5173 -0.3083
 7921SOL     OW35395   2.473   1.234   0.831  0.0829  0.4284 -0.3541
 7921SOL    HW135396   2.430   1.310   0.870  0.8141 -0.7148  2.6680
 7921SOL    HW235397   2.406   1.169   0.851  0.8594 -0.4839 -0.6636
 7922SOL     OW35398   3.034   2.656  16.018  0.4828 -0.2683 -0.0449
 7922SOL    HW135399   3.015   2.602  15.942  1.9544  0.6656 -1.0879
 7922SOL    HW235400   3.051   2.586  16.081  0.1528 -0.0722  0.2620
 7923SOL     OW35401   2.233   4.153   5.093  0.1744  0.5280 -0.3631
 7923SOL    HW135402   2.309   4.210   5.109 -1.5181  2.3481  1.2405
 7923SOL    HW235403   2.266   4.081   5.146 -0.3424  0.8642  0.4184
 7924SOL     OW35404   0.650   1.389   9.758 -0.1054 -0.2482  0.5417
 7924SOL    HW135405   0.679   1.459   9.699  0.1021 -2.1757 -1.6139
 7924SOL    HW235406   0.573   1.354   9.714 -0.1656  1.9965 -1.1637
 7925SOL     OW35407   2.612   3.259  11.857 -0.1247  0.4567 -0.5367
 7925SOL    HW135408   2.630   3.317  11.783  1.3238 -0.4625 -0.9107
 7925SOL    HW235409   2.604   3.171  11.820 -0.3002  0.3690 -0.2934
 7926SOL     OW35410   1.806   1.910   4.823  0.0272 -0.3186  0.5138
 7926SOL    HW135411   1.737   1.907   4.889 -2.3447 -0.3582 -1.9909
 7926SOL    HW235412   1.806   1.823   4.783 -0.1562  0.9487 -2.2300
 7927SOL     OW35413   4.550   3.571   8.500  0.1828  0.0503  0.0741
 7927SOL    HW135414   4.515   3.653   8.535  0.3411 -0.5244  1.5484
 7927SOL    HW235415   4.558   3.591   8.406  0.1297 -1.2455 -0.2101
 7928SOL     OW35416   3.255   0.066   9.178  0.1855  0.2013 -0.2135
 7928SOL    HW135417   3.298   0.056   9.094  0.0279 -0.7806 -0.1690
 7928SOL    HW235418   3.214   4.717   9.187 -0.6104  0.8400  2.5813
 7929SOL     OW35419   0.152   2.347   1.795 -0.2982 -0.2320  0.1065
 7929SOL    HW135420   0.113   2.371   1.880 -0.2381  2.5059 -0.6432
 7929SOL    HW235421   0.225   2.291   1.823  2.7459  2.8375 -1.6949
 7930SOL     OW35422   2.622   0.783  14.408  0.4784 -0.3234  0.0610
 7930SOL    HW135423   2.687   0.771  14.478  1.9516  2.2958 -0.8870
 7930SOL    HW235424   2.650   0.872  14.387 -0.0060  0.0749  1.1391
 7931SOL     OW35425   0.873   1.039  10.345  0.1398 -0.6030  0.3186
 7931SOL    HW135426   0.825   0.956  10.340  1.2095 -1.2776  1.3340
 7931SOL    HW235427   0.805   1.101  10.321  0.2044 -0.2585  1.0394
 7932SOL     OW35428   2.572   3.816   7.753 -0.0365 -0.3577 -0.4566
 7932SOL    HW135429   2.582   3.744   7.816 -0.0876 -0.7373 -0.8890
 7932SOL    HW235430   2.480   3.836   7.764 -0.3952 -1.5419 -1.3310
 7933SOL     OW35431   1.730   1.207   3.398  0.0484 -0.1264  0.4753
 7933SOL    HW135432   1.784   1.138   3.359  0.0838 -0.2817  0.7945
 7933SOL    HW235433   1.771   1.278   3.348 -0.3382  0.5931  1.1922
 7934SOL     OW35434   2.232   2.997   8.702  0.4140 -0.1912  0.4559
 7934SOL    HW135435   2.321   3.000   8.667  0.4047 -0.3737  0.4174
 7934SOL    HW235436   2.220   2.902   8.705  1.9796 -0.3347  1.6819
 7935SOL     OW35437   3.330   1.605  13.869  0.4671 -0.1765  0.8770
 7935SOL    HW135438   3.264   1.601  13.938 -1.3360  1.2733 -0.7590
 7935SOL    HW235439   3.327   1.695  13.836  0.7812 -0.0425  1.2231
 7936SOL     OW35440   4.466   0.443   8.266  0.1666  0.0352  0.7219
 7936SOL    HW135441   4.453   0.528   8.223  0.1460 -0.2700  0.1215
 7936SOL    HW235442   4.482   0.475   8.355  0.1234  1.2021  0.3124
 7937SOL     OW35443   0.559   2.097   4.650 -0.1978  0.2107  0.3072
 7937SOL    HW135444   0.632   2.098   4.712 -1.0051  1.8954  1.1934
 7937SOL    HW235445   0.608   2.101   4.567 -1.6328  0.3177 -0.5403
 7938SOL     OW35446   0.264   0.556   8.027 -0.1385  0.4506  0.2428
 7938SOL    HW135447   0.343   0.568   8.079  0.4047  2.6401 -1.1008
 7938SOL    HW235448   0.200   0.575   8.096 -1.0716 -2.1498  0.0960
 7939SOL     OW35449   1.363   1.850   2.867  0.0620  0.5976 -0.2059
 7939SOL    HW135450   1.319   1.775   2.826  1.1810  0.8213 -1.8328
 7939SOL    HW235451   1.371   1.819   2.956 -1.3326 -1.5714 -0.8418
 7940SOL     OW35452   4.207   2.557  14.809 -0.1347  0.7830  0.1558
 7940SOL    HW135453   4.262   2.539  14.885 -0.6142  0.7939  0.5069
 7940SOL    HW235454   4.222   2.651  14.793 -0.1907  0.7910  0.1500
 7941SOL     OW35455   3.856   2.474   2.739 -0.2102  0.0227 -0.0179
 7941SOL    HW135456   3.834   2.400   2.682 -2.5281 -0.4031  1.4230
 7941SOL    HW235457   3.802   2.542   2.698  1.1014 -1.1251 -3.6758
 7942SOL     OW35458   2.572   3.312   4.626  0.3610 -0.0030 -0.0923
 7942SOL    HW135459   2.505   3.302   4.558 -0.5559 -0.1567  0.8449
 7942SOL    HW235460   2.592   3.405   4.620 -2.5563  0.5315 -1.7084
 7943SOL     OW35461   1.889   0.290   6.593  0.3331 -0.7800 -0.0126
 7943SOL    HW135462   1.879   0.275   6.499  1.7964  0.8829 -0.4168
 7943SOL    HW235463   1.808   0.243   6.615 -0.2968  0.4461  0.2905
 7944SOL     OW35464   4.214   2.317   7.697 -0.1553 -0.4523  0.4662
 7944SOL    HW135465   4.307   2.303   7.714 -0.6002  0.4449  3.6176
 7944SOL    HW235466   4.213   2.397   7.644 -0.1712 -0.6509  0.1667
 7945SOL     OW35467   2.312   2.701  12.004  0.4199  0.4059  0.0904
 7945SOL    HW135468   2.382   2.766  12.015 -0.5753  1.5318 -0.1318
 7945SOL    HW235469   2.258   2.719  12.081 -1.2535 -2.7397 -0.3620
 7946SOL     OW35470   0.465   3.377  16.505  0.0010 -0.1776 -0.8415
 7946SOL    HW135471   0.540   3.329  16.470 -0.4530 -0.5896 -1.2460
 7946SOL    HW235472   0.498   3.467  16.507  0.6694 -0.5040  2.3630
 7947SOL     OW35473   2.706   4.227   3.809 -0.5227  0.3373  0.0877
 7947SOL    HW135474   2.718   4.162   3.740 -0.4766  1.1284 -0.6373
 7947SOL    HW235475   2.644   4.287   3.766 -0.9031 -1.7227 -2.2394
 7948SOL     OW35476   4.499   3.448   1.917  0.0378  0.0390  0.0865
 7948SOL    HW135477   4.499   3.354   1.933  3.0653 -0.4061 -2.5861
 7948SOL    HW235478   4.495   3.481   2.007  1.1472 -0.6709  0.3845
 7949SOL     OW35479   0.185   2.488   8.646 -0.0340  0.3751 -0.0577
 7949SOL    HW135480   0.230   2.552   8.701 -0.2149  0.5311 -0.0896
 7949SOL    HW235481   0.111   2.458   8.699  1.7087 -0.8796  1.6438
 7950SOL     OW35482   1.427   2.081   0.067 -0.0658 -0.5309 -0.3062
 7950SOL    HW135483   1.471   2.027   0.002  0.0765  2.0948 -2.3885
 7950SOL    HW235484   1.437   2.029   0.147  2.2909  0.3943  0.0048
 7951SOL     OW35485   2.435   0.906   0.334  0.1887  0.5075  0.7047
 7951SOL    HW135486   2.529   0.902   0.351  0.6776  1.1060 -1.7910
 7951SOL    HW235487   2.423   0.978   0.272 -0.0972  0.7439  1.0325
 7952SOL     OW35488   2.848   2.671  11.767 -0.2602 -0.1541  0.8137
 7952SOL    HW135489   2.885   2.648  11.852  0.0724 -0.7065  0.5257
 7952SOL    HW235490   2.756   2.664  11.792 -0.0362  1.3319  2.0018
 7953SOL     OW35491   1.503   2.846   3.084 -0.3573  0.7124 -0.6072
 7953SOL    HW135492   1.531   2.788   3.014  0.8469 -1.2731  1.4944
 7953SOL    HW235493   1.442   2.784   3.124  0.7082 -0.7354 -1.2271
 7954SOL     OW35494   3.051   4.259   6.615 -0.5446 -0.0373  0.1227
 7954SOL    HW135495   3.124   4.224   6.666 -1.6859  0.2753  1.9930
 7954SOL    HW235496   3.089   4.264   6.528  1.6326  0.1014  1.0903
 7955SOL     OW35497   1.832   2.861  13.167  0.3344 -0.0824 -0.1998
 7955SOL    HW135498   1.820   2.951  13.196  0.2046  0.3219 -1.5183
 7955SOL    HW235499   1.743   2.829  13.156 -0.3722  1.2561  1.6988
 7956SOL     OW35500   2.276   3.342   9.026 -0.1768  0.7993 -0.5555
 7956SOL    HW135501   2.351   3.330   9.084 -0.3589  0.2852 -0.4328
 7956SOL    HW235502   2.223   3.275   9.068  3.0468 -3.5040 -3.3607
 7957SOL     OW35503   1.632   1.056  17.239  0.0609  0.2901 -0.5640
 7957SOL    HW135504   1.545   1.091  17.220  0.4928  1.5777 -0.1627
 7957SOL    HW235505   1.609   0.967  17.266 -0.5095  1.0125  1.3338
 7958SOL     OW35506   0.004   0.610   8.141  0.6876  0.1941 -0.2315
 7958SOL    HW135507   4.725   0.669   8.215 -0.2273  0.2477 -0.4614
 7958SOL    HW235508   4.683   0.652   8.076  1.9035  1.7110 -0.3436
 7959SOL     OW35509   2.903   0.401   5.121  0.2521  0.1226  0.0716
 7959SOL    HW135510   2.985   0.358   5.099 -0.6034 -1.4986  0.0505
 7959SOL    HW235511   2.839   0.330   5.124 -1.0452  1.3166  0.6910
 7960SOL     OW35512   0.281   2.654   2.676 -0.3183  0.1141 -0.2468
 7960SOL    HW135513   0.209   2.716   2.674 -1.7480 -1.5765 -1.4202
 7960SOL    HW235514   0.258   2.618   2.761 -0.2617 -0.0190 -0.2867
 7961SOL     OW35515   0.748   3.669   2.574  0.4023  0.8839  0.3387
 7961SOL    HW135516   0.680   3.671   2.641 -0.0016 -1.8072  0.0121
 7961SOL    HW235517   0.815   3.606   2.599 -0.0773  1.0756  2.0799
 7962SOL     OW35518   3.323   4.449   8.416 -0.4084 -0.6866  0.2634
 7962SOL    HW135519   3.387   4.473   8.483 -0.2483 -0.6391  0.0932
 7962SOL    HW235520   3.247   4.420   8.467 -0.1918 -2.2971 -0.3281
 7963SOL     OW35521   4.470   0.890   7.337  0.1974  0.0192 -0.2623
 7963SOL    HW135522   4.513   0.969   7.306  0.4684 -0.3053 -0.6995
 7963SOL    HW235523   4.378   0.908   7.321 -0.4279 -0.4205  2.6973
 7964SOL     OW35524   3.004   0.964  15.336  0.0272  0.0551 -0.0042
 7964SOL    HW135525   2.966   1.017  15.266 -1.1590 -0.7024  0.0560
 7964SOL    HW235526   2.973   0.878  15.307  2.9957 -2.0504  3.0460
 7965SOL     OW35527   2.739   0.948  11.661  0.2664  0.2264 -0.2442
 7965SOL    HW135528   2.655   0.911  11.634  0.1745  2.1837 -2.6169
 7965SOL    HW235529   2.740   1.027  11.608 -0.9019 -1.5965 -2.9604
 7966SOL     OW35530   2.452   1.875   4.131 -0.1425 -0.3525  0.4299
 7966SOL    HW135531   2.358   1.881   4.116 -0.2857  2.1851  2.2390
 7966SOL    HW235532   2.460   1.948   4.192 -0.0962 -0.3172  0.3818
 7967SOL     OW35533   1.026   1.880   3.597  0.0201 -0.0317 -0.2744
 7967SOL    HW135534   0.975   1.887   3.678  0.3059  2.1876 -0.2947
 7967SOL    HW235535   1.101   1.936   3.615  0.5580 -0.7559 -0.2400
 7968SOL     OW35536   1.717   2.661   6.914 -0.5482  0.0232 -0.2505
 7968SOL    HW135537   1.651   2.721   6.881 -0.8943 -0.5940 -0.6860
 7968SOL    HW235538   1.682   2.652   7.003 -0.6190  2.5613 -0.0174
 7969SOL     OW35539   2.877   4.228   1.100 -0.1134  0.2222  0.0291
 7969SOL    HW135540   2.792   4.186   1.088 -0.8227  2.2723 -1.9794
 7969SOL    HW235541   2.924   4.154   1.138  1.4617 -0.2066 -2.7580
 7970SOL     OW35542   4.210   4.646   7.675  0.3270  0.1174  0.6363
 7970SOL    HW135543   4.199   4.657   7.769 -0.2570 -1.8222  0.7776
 7970SOL    HW235544   4.294   4.691   7.664 -1.2611  2.8488 -0.5936
 7971SOL     OW35545   2.953   3.193   7.922 -0.2183 -0.1718 -0.4017
 7971SOL    HW135546   3.004   3.272   7.939  0.7850 -0.7787 -0.6026
 7971SOL    HW235547   2.982   3.194   7.831  1.0335 -0.0389 -0.0006
 7972SOL     OW35548   1.424   3.508  12.202  0.2177 -0.2257  0.2228
 7972SOL    HW135549   1.458   3.419  12.211 -2.2969 -1.1809  0.2310
 7972SOL    HW235550   1.432   3.540  12.292 -1.6745  1.1071 -0.0704
 7973SOL     OW35551   2.116   3.831   8.921  0.5146 -0.2524  0.5066
 7973SOL    HW135552   2.122   3.803   9.013 -0.0775 -1.4455  0.1848
 7973SOL    HW235553   2.204   3.852   8.892  0.3437  1.8701  1.5463
 7974SOL     OW35554   1.851   1.989   8.833  0.7911 -0.4519 -0.0390
 7974SOL    HW135555   1.811   1.906   8.857  0.9423 -0.1164  1.3817
 7974SOL    HW235556   1.929   1.957   8.787  0.3654 -2.4911  0.6808
 7975SOL     OW35557   2.536   3.606   9.059 -0.1300  0.0708  0.3059
 7975SOL    HW135558   2.551   3.610   8.964  0.1628  0.1090  0.3549
 7975SOL    HW235559   2.529   3.695   9.093 -2.2215  0.3828 -0.8825
 7976SOL     OW35560   1.339   1.076   4.404  0.5323 -0.3860  0.6706
 7976SOL    HW135561   1.351   0.982   4.421  0.3414 -0.7672 -1.3818
 7976SOL    HW235562   1.246   1.077   4.384  0.8199  0.3108 -0.5901
 7977SOL     OW35563   2.798   1.163   4.508 -0.3306  0.3881 -0.2272
 7977SOL    HW135564   2.835   1.182   4.594  0.9456 -1.5467 -0.3320
 7977SOL    HW235565   2.877   1.121   4.474 -0.1911  0.1039  0.4316
 7978SOL     OW35566   1.524   2.460   8.578 -0.2477  0.5862  0.3507
 7978SOL    HW135567   1.498   2.387   8.634  2.9422 -1.0525 -0.3098
 7978SOL    HW235568   1.517   2.427   8.489 -0.0236 -0.5774  0.7676
 7979SOL     OW35569   2.156   3.172   2.781  0.3251  0.2413 -0.0553
 7979SOL    HW135570   2.239   3.180   2.828  0.5605 -1.9053 -0.0823
 7979SOL    HW235571   2.159   3.084   2.743 -1.0168  0.7820 -1.3946
 7980SOL     OW35572   2.981   3.707   5.070  0.4363 -0.1213  0.1449
 7980SOL    HW135573   3.037   3.712   4.992 -0.7562 -2.1656 -0.8691
 7980SOL    HW235574   2.925   3.780   5.046  1.2067  0.9957  1.7565
 7981SOL     OW35575   1.921   0.599   8.077  0.1547  0.4124  0.0937
 7981SOL    HW135576   1.921   0.639   8.164  0.1362  0.9124 -0.1391
 7981SOL    HW235577   1.827   0.599   8.062 -0.0290  0.9284  1.2416
 7982SOL     OW35578   1.191   1.404   0.172 -0.0962  0.3722 -0.2525
 7982SOL    HW135579   1.103   1.417   0.137  0.0230  0.7821 -0.4077
 7982SOL    HW235580   1.175   1.323   0.219 -0.3106  0.5572 -0.0070
 7983SOL     OW35581   2.289   1.262  13.873 -0.3968  0.1865 -0.1350
 7983SOL    HW135582   2.320   1.350  13.852 -2.5045  0.9624 -0.0651
 7983SOL    HW235583   2.346   1.222  13.808 -0.2730  2.5087 -1.4491
 7984SOL     OW35584   2.306   0.503   4.377 -0.2547 -0.4048 -0.5972
 7984SOL    HW135585   2.308   0.502   4.472  1.3552  1.0863 -0.6085
 7984SOL    HW235586   2.385   0.450   4.361  1.1803  1.5882 -0.0644
 7985SOL     OW35587   0.304   0.550  14.427  0.4025 -0.4567  0.3665
 7985SOL    HW135588   0.382   0.562  14.481 -1.1479  1.4240  2.2108
 7985SOL    HW235589   0.261   0.485  14.482 -1.2510  0.5181  0.2484
 7986SOL     OW35590   3.845   3.901   7.639 -0.2299  0.0053  0.1234
 7986SOL    HW135591   3.830   3.953   7.719  0.5455  0.1015  0.2022
 7986SOL    HW235592   3.752   3.881   7.628 -0.2887 -0.7955  2.0362
 7987SOL     OW35593   0.329   1.321   9.101  0.0014  0.0623  0.1393
 7987SOL    HW135594   0.370   1.367   9.174 -0.4916  0.5346  0.1146
 7987SOL    HW235595   0.396   1.263   9.064 -1.2825 -1.9217  0.9170
 7988SOL     OW35596   2.628   2.314  10.200  0.6006  0.1481 -0.1628
 7988SOL    HW135597   2.640   2.366  10.280 -0.5842  0.5475 -0.2517
 7988SOL    HW235598   2.713   2.335  10.161  1.1507 -0.0993  0.9136
 7989SOL     OW35599   0.221   0.669  17.191 -0.0564  0.3901  0.1279
 7989SOL    HW135600   0.177   0.726  17.128 -1.5126 -1.6781 -0.7715
 7989SOL    HW235601   0.145   0.642  17.243  0.0197  0.2293  0.1545
 7990SOL     OW35602   4.525   3.794   5.261 -0.7409  0.6710 -0.0555
 7990SOL    HW135603   4.555   3.735   5.192 -1.0899  0.8007 -0.3139
 7990SOL    HW235604   4.560   3.745   5.336 -1.4265 -0.9497 -0.7901
 7991SOL     OW35605   4.502   1.821   9.350  0.5602  0.0377 -0.0096
 7991SOL    HW135606   4.550   1.902   9.334  1.5121 -0.0415  2.5129
 7991SOL    HW235607   4.420   1.869   9.340  2.2057  2.7982 -0.1809
 7992SOL     OW35608   0.257   1.406   8.203  0.6585  0.4658  0.2773
 7992SOL    HW135609   0.231   1.339   8.140  0.4857 -1.9739  2.9738
 7992SOL    HW235610   0.171   1.445   8.218  0.8561  0.9780  0.0725
 7993SOL     OW35611   1.946   4.399   1.261  0.2332 -0.3968  0.4160
 7993SOL    HW135612   1.891   4.397   1.340  0.0169 -0.8524  0.2554
 7993SOL    HW235613   1.979   4.488   1.256 -1.4018  0.1004 -1.0352
 7994SOL     OW35614   3.501   3.962   6.019  0.2313 -0.4177  0.3026
 7994SOL    HW135615   3.466   4.020   5.952  2.8994  5.0368  3.5836
 7994SOL    HW235616   3.420   3.910   6.023  0.3139 -0.5495  0.2787
 7995SOL     OW35617   1.873   0.363   7.234 -0.0886 -0.4541  0.1465
 7995SOL    HW135618   1.888   0.269   7.250  1.3550  0.0315  1.7090
 7995SOL    HW235619   1.906   0.366   7.144 -1.4701 -0.2887 -0.3478
 7996SOL     OW35620   0.795   1.695   1.209  0.0468 -0.6002 -0.1962
 7996SOL    HW135621   0.793   1.716   1.302 -1.1426  0.0709 -0.3744
 7996SOL    HW235622   0.850   1.765   1.173 -0.5956  0.0784  0.1329
 7997SOL     OW35623   1.586   2.969   2.581 -0.2999  0.0284 -0.7380
 7997SOL    HW135624   1.639   2.891   2.562 -1.0062 -0.7919  0.6192
 7997SOL    HW235625   1.610   2.984   2.672 -0.2936  1.2271 -0.9425
 7998SOL     OW35626   1.303   3.607   7.297 -0.5878 -0.0465 -0.1037
 7998SOL    HW135627   1.260   3.686   7.330 -0.6666  0.1362 -0.6363
 7998SOL    HW235628   1.239   3.581   7.230 -0.7822  0.0029  0.0631
 7999SOL     OW35629   2.242   4.199   5.613  0.1084  0.2229  0.0714
 7999SOL    HW135630   2.309   4.138   5.584 -0.2671  0.6989 -1.7863
 7999SOL    HW235631   2.291   4.247   5.680  1.5822 -0.9802 -0.1367
 8000SOL     OW35632   0.504   0.384   6.499  0.1748 -0.7695  0.4769
 8000SOL    HW135633   0.460   0.436   6.432  0.8597 -1.6984 -0.6947
 8000SOL    HW235634   0.486   0.296   6.463 -0.3777 -0.4298 -0.0824
 8001SOL     OW35635   0.392   2.286   3.393  0.4837 -0.3229 -0.2603
 8001SOL    HW135636   0.344   2.369   3.390 -0.7924 -0.9658  1.8294
 8001SOL    HW235637   0.432   2.283   3.306  0.5826 -0.3476 -0.2140
 8002SOL     OW35638   3.166   1.725   5.001 -0.0489 -0.3832 -0.0243
 8002SOL    HW135639   3.128   1.813   5.009  1.2347 -0.0107  2.3022
 8002SOL    HW235640   3.217   1.730   4.921 -0.5455  0.8733 -0.2568
 8003SOL     OW35641   0.401   4.111   3.791  0.2732 -0.0318  0.2011
 8003SOL    HW135642   0.320   4.157   3.768  1.1936  0.8417 -1.3172
 8003SOL    HW235643   0.374   4.025   3.761 -3.4942  1.4768 -0.7742
 8004SOL     OW35644   1.552   0.312  16.147 -0.2080 -0.3501 -0.3197
 8004SOL    HW135645   1.602   0.305  16.065 -0.8309  3.3618 -1.0143
 8004SOL    HW235646   1.582   0.246  16.210  0.5009 -0.2358 -0.5341
 8005SOL     OW35647   2.060   4.363  15.007 -0.6499 -0.3078 -0.3756
 8005SOL    HW135648   1.986   4.313  14.972  1.3012 -4.2101  1.0585
 8005SOL    HW235649   2.089   4.404  14.926 -1.7351  2.0672  0.4538
 8006SOL     OW35650   1.142   1.906   5.386  0.3485 -0.0264  0.2175
 8006SOL    HW135651   1.111   1.895   5.476 -0.2796 -0.8132 -0.0960
 8006SOL    HW235652   1.164   1.999   5.393 -0.8345  0.3342 -0.8791
 8007SOL     OW35653   3.554   4.116   2.217 -0.3935 -0.1819  0.1156
 8007SOL    HW135654   3.563   4.210   2.232  0.2814  0.0076 -1.4097
 8007SOL    HW235655   3.645   4.086   2.221 -0.0574  1.0612  2.1420
 8008SOL     OW35656   2.936   2.195   4.056 -0.2310  0.4708  0.2073
 8008SOL    HW135657   2.912   2.288   4.059  0.6553  0.7805 -2.1249
 8008SOL    HW235658   2.959   2.185   4.148  1.7816  1.5541 -0.1616
 8009SOL     OW35659   3.046   0.834   7.666 -0.4903 -0.4412 -0.4395
 8009SOL    HW135660   2.978   0.865   7.726 -2.6653 -2.7908 -1.7036
 8009SOL    HW235661   3.001   0.855   7.584  0.0706  0.7277 -0.4565
 8010SOL     OW35662   0.560   3.373   7.944 -0.0749 -0.1743  0.1413
 8010SOL    HW135663   0.556   3.288   7.901 -0.8434 -0.6754  1.1964
 8010SOL    HW235664   0.472   3.382   7.981 -0.4298 -2.5805 -0.1355
 8011SOL     OW35665   1.540   4.715  16.781 -0.2972  0.0737  0.2906
 8011SOL    HW135666   1.531   0.031  16.860 -1.7382 -0.1089  0.2465
 8011SOL    HW235667   1.543   4.628  16.823 -3.0836  0.6419  1.6466
 8012SOL     OW35668   1.066   3.830   1.040  0.5153  0.6025 -0.1463
 8012SOL    HW135669   1.017   3.762   0.995 -0.8174  0.9811  0.7343
 8012SOL    HW235670   1.114   3.782   1.107  1.1163  0.5415 -0.6155
 8013SOL     OW35671   3.729   4.392   3.981  0.2134  0.3376 -0.7582
 8013SOL    HW135672   3.726   4.455   4.054 -0.5358  0.0506 -0.5382
 8013SOL    HW235673   3.816   4.353   3.988 -0.3202 -0.5687  0.8689
 8014SOL     OW35674   4.578   0.555   1.032 -0.1704  0.2840 -0.0988
 8014SOL    HW135675   4.555   0.468   1.001 -0.6621  1.0980 -1.9894
 8014SOL    HW235676   4.492   0.578   1.066 -0.7774 -1.1813 -0.6579
 8015SOL     OW35677   3.692   0.350   9.878 -0.2094  0.3562  0.6706
 8015SOL    HW135678   3.616   0.395   9.841 -2.0906 -2.1892  1.4538
 8015SOL    HW235679   3.649   0.265   9.891  0.6833 -0.6723 -3.1802
 8016SOL     OW35680   4.253   2.441  14.330  0.0151  0.0229 -0.2672
 8016SOL    HW135681   4.346   2.445  14.307 -0.5797  0.8097 -2.5255
 8016SOL    HW235682   4.259   2.443  14.425 -1.3507  0.2962 -0.1874
 8017SOL     OW35683   4.413   4.514   1.740  0.5887  0.2508 -0.4445
 8017SOL    HW135684   4.331   4.562   1.752 -1.0998 -3.1340  1.5813
 8017SOL    HW235685   4.411   4.488   1.648  2.6634  0.9106 -0.6661
 8018SOL     OW35686   3.742   2.966   3.291 -0.2196 -0.1339  0.1173
 8018SOL    HW135687   3.779   3.020   3.361  1.4150 -1.0674 -0.0160
 8018SOL    HW235688   3.700   2.886   3.319  1.4742 -1.4201 -0.9976
 8019SOL     OW35689   2.774   0.468  11.183  0.1946 -0.2360  0.0980
 8019SOL    HW135690   2.847   0.421  11.224  0.9134 -0.1667 -1.1151
 8019SOL    HW235691   2.793   0.556  11.216  1.2049 -0.7154  0.8071
 8020SOL     OW35692   3.114   2.680   4.128  0.4381  0.2598 -0.6635
 8020SOL    HW135693   3.153   2.744   4.188 -3.9227  0.2420  2.1211
 8020SOL    HW235694   3.031   2.728   4.134 -0.9442 -2.2819  0.3196
 8021SOL     OW35695   2.182   2.147   8.920 -0.6065 -0.3270 -0.1005
 8021SOL    HW135696   2.088   2.142   8.905 -0.7919 -0.4820  1.1304
 8021SOL    HW235697   2.186   2.164   9.014  1.5062  2.4871 -0.7007
 8022SOL     OW35698   1.657   3.753   9.277 -0.1855 -0.0378  0.4186
 8022SOL    HW135699   1.610   3.750   9.360 -0.8245  1.0652  0.0926
 8022SOL    HW235700   1.617   3.836   9.251  0.0546  0.2980  1.1289
 8023SOL     OW35701   1.348   3.225   4.371 -0.3195 -0.5680  0.4335
 8023SOL    HW135702   1.412   3.285   4.333  0.1033 -1.3669 -0.1269
 8023SOL    HW235703   1.265   3.272   4.366  1.3774  2.5599  1.7303
 8024SOL     OW35704   0.824   2.203   2.593  0.3783 -0.0981  0.2929
 8024SOL    HW135705   0.863   2.149   2.524 -0.5164 -0.3173 -0.0334
 8024SOL    HW235706   0.900   2.260   2.607  0.7549 -0.3378 -0.7770
 8025SOL     OW35707   3.663   0.289   6.142 -0.2374 -0.4814 -0.4989
 8025SOL    HW135708   3.738   0.278   6.201 -0.7578  2.6620  0.7709
 8025SOL    HW235709   3.651   0.384   6.135  3.5629  0.1104  1.0571
 8026SOL     OW35710   3.934   4.669   1.143 -0.4192  0.1720  0.5490
 8026SOL    HW135711   3.859   4.656   1.201 -0.7656 -0.5562 -0.0563
 8026SOL    HW235712   3.879   4.713   1.078 -0.8540 -0.4524  0.4873
 8027SOL     OW35713   4.154   4.528   6.049  0.3191 -0.1577  0.0493
 8027SOL    HW135714   4.238   4.500   6.085  0.4820  0.8126  0.4227
 8027SOL    HW235715   4.167   4.464   5.979  0.4977  0.1803 -0.2259
 8028SOL     OW35716   0.287   3.842   5.730  0.3663  0.1493  0.3707
 8028SOL    HW135717   0.231   3.771   5.699 -1.5016  1.6362  0.3057
 8028SOL    HW235718   0.224   3.869   5.797 -1.4782  0.6671 -1.5825
 8029SOL     OW35719   1.141   0.769   1.315 -0.1286  0.3849  0.3948
 8029SOL    HW135720   1.196   0.692   1.331 -0.9022 -0.4477 -0.9950
 8029SOL    HW235721   1.209   0.820   1.272 -0.0169 -1.2171 -1.3491
 8030SOL     OW35722   3.074   0.094  10.270 -0.8757 -0.3110 -0.7872
 8030SOL    HW135723   3.089   0.020  10.211  1.1572  0.5992 -1.4060
 8030SOL    HW235724   2.987   0.062  10.293 -0.2798 -0.5187  1.1737
 8031SOL     OW35725   0.172   0.972   9.613 -0.4821 -0.0419 -0.0367
 8031SOL    HW135726   0.180   1.051   9.558 -0.8528 -0.3323 -0.5064
 8031SOL    HW235727   0.144   0.906   9.550  0.2186 -2.3594  2.1194
 8032SOL     OW35728   4.227   3.146   3.213  0.1247 -0.5462 -0.2414
 8032SOL    HW135729   4.308   3.197   3.204 -1.6285  2.1455 -1.0193
 8032SOL    HW235730   4.256   3.061   3.245 -2.2130 -1.1839  0.1668
 8033SOL     OW35731   0.055   0.768   2.456  0.6449 -0.0010  0.5227
 8033SOL    HW135732   0.023   0.701   2.516 -0.2172 -0.2598 -0.2382
 8033SOL    HW235733   4.724   0.770   2.390  0.5999 -0.6654  0.5563
 8034SOL     OW35734   4.009   0.169   4.872  0.9022  0.2935 -0.0545
 8034SOL    HW135735   4.047   0.257   4.878 -1.0503  1.0746  0.8085
 8034SOL    HW235736   4.007   0.150   4.779  2.1803  2.6065 -0.5369
 8035SOL     OW35737   4.097   1.530  16.506 -0.6703 -0.8780 -0.1030
 8035SOL    HW135738   4.065   1.588  16.575  1.3834 -2.2538  2.0027
 8035SOL    HW235739   4.046   1.567  16.433 -1.3055  0.7461  1.1591
 8036SOL     OW35740   0.984   4.268   4.683 -0.0448  0.3111  0.0968
 8036SOL    HW135741   0.977   4.307   4.769 -1.7671 -1.6849  0.8723
 8036SOL    HW235742   1.022   4.182   4.704 -0.3847 -0.1593 -1.1652
 8037SOL     OW35743   3.213   1.329  13.742  0.3944 -0.2240  0.5405
 8037SOL    HW135744   3.219   1.325  13.837 -2.3546  0.1723  0.7287
 8037SOL    HW235745   3.274   1.398  13.716 -0.5350  0.5489  0.4232
 8038SOL     OW35746   3.243   0.737   9.303  0.2929  0.2645  0.3909
 8038SOL    HW135747   3.270   0.665   9.246 -0.9739  1.3699 -1.6042
 8038SOL    HW235748   3.290   0.704   9.380  1.7363 -1.0486 -1.0517
 8039SOL     OW35749   2.635   2.751   3.458 -0.3972  0.1723 -0.4107
 8039SOL    HW135750   2.674   2.775   3.374 -0.4793  1.9155  0.0526
 8039SOL    HW235751   2.682   2.671   3.482 -0.8809  0.0670  0.2006
 8040SOL     OW35752   3.097   1.556   8.401  0.1052  0.5124 -0.0908
 8040SOL    HW135753   3.050   1.496   8.458  0.0608 -0.5806 -1.2877
 8040SOL    HW235754   3.057   1.635   8.439  1.8475  1.8356 -1.0010
 8041SOL     OW35755   4.229   2.204   8.566 -0.7699 -0.2517  0.1206
 8041SOL    HW135756   4.276   2.274   8.613  0.7618 -1.1960  0.0114
 8041SOL    HW235757   4.139   2.234   8.553 -0.0176  1.8447 -0.2035
 8042SOL     OW35758   1.250   2.063   3.671  0.0442 -0.4705  0.1984
 8042SOL    HW135759   1.304   2.023   3.739 -1.2246 -1.0720  0.8505
 8042SOL    HW235760   1.314   2.102   3.611 -0.1066  0.2269  0.4905
 8043SOL     OW35761   2.403   2.898   3.305  0.3657 -0.1503 -0.3824
 8043SOL    HW135762   2.342   2.945   3.361  0.3195  1.5736 -1.8782
 8043SOL    HW235763   2.488   2.913   3.346  1.2441 -2.1817 -1.4150
 8044SOL     OW35764   1.420   0.321   5.948  0.0377 -0.0387 -0.1815
 8044SOL    HW135765   1.414   0.398   5.892  1.8262 -0.0810 -0.4337
 8044SOL    HW235766   1.351   0.324   6.014 -0.8261 -0.5178 -1.0572
 8045SOL     OW35767   1.549   2.089   4.638 -0.4553 -0.0826 -0.3446
 8045SOL    HW135768   1.576   2.175   4.670 -4.0298  0.3173  1.6103
 8045SOL    HW235769   1.497   2.059   4.712 -0.8463 -0.0887 -0.6187
 8046SOL     OW35770   3.121   1.648   2.916 -0.0653  0.1827 -0.1307
 8046SOL    HW135771   3.166   1.727   2.889 -1.0026  0.6638 -0.3035
 8046SOL    HW235772   3.042   1.673   2.867 -0.3075 -0.3878 -0.0364
 8047SOL     OW35773   0.374   2.333   3.772  0.2346 -0.3208 -0.1256
 8047SOL    HW135774   0.440   2.302   3.710  0.8154 -1.6285  1.1457
 8047SOL    HW235775   0.419   2.386   3.837  0.2631 -0.1687 -0.2709
 8048SOL     OW35776   2.594   3.077   5.314 -0.1509  0.0204  0.4715
 8048SOL    HW135777   2.680   3.116   5.329 -0.5974  0.4361  1.9764
 8048SOL    HW235778   2.608   3.073   5.219 -0.7709  2.8873  0.2474
 8049SOL     OW35779   1.219   0.411   0.035  0.7160  0.0609  0.4016
 8049SOL    HW135780   1.231   0.438   0.126 -2.1299 -1.2975  1.1726
 8049SOL    HW235781   1.131   0.375   0.047 -0.2778  1.6706 -1.9810
 8050SOL     OW35782   0.002   3.875   3.694 -0.2977 -0.1904  0.0543
 8050SOL    HW135783   4.678   3.930   3.645 -1.5824 -0.9095  0.8292
 8050SOL    HW235784   4.697   3.878   3.780  0.4688  0.1332  0.4109
 8051SOL     OW35785   0.452   3.891   6.123  0.0591  0.1118 -0.0696
 8051SOL    HW135786   0.482   3.960   6.182  0.2997  0.4003 -0.5233
 8051SOL    HW235787   0.368   3.870   6.163 -0.6282  0.3643 -1.3650
 8052SOL     OW35788   4.615   2.119  17.743  0.3018 -0.1527  0.0934
 8052SOL    HW135789   4.595   2.029   0.023  0.1669  0.2830  1.4964
 8052SOL    HW235790   4.581   2.124  17.653 -1.0141  0.6224  0.6338
 8053SOL     OW35791   1.212   1.166  15.835  0.2929  0.4614 -0.1031
 8053SOL    HW135792   1.218   1.250  15.790 -0.0373 -0.5164 -1.9799
 8053SOL    HW235793   1.268   1.122  15.771 -0.6659  1.9402 -1.9526
 8054SOL     OW35794   4.696   2.452  10.640  0.5000  0.3657 -0.4649
 8054SOL    HW135795   4.696   2.376  10.581  1.8574  0.1986 -0.2451
 8054SOL    HW235796   4.624   2.494  10.593  0.2551 -2.8822 -3.0184
 8055SOL     OW35797   2.103   4.526   3.002 -0.6247 -0.8522  0.2693
 8055SOL    HW135798   2.040   4.590   2.968 -1.0349 -0.2196  2.2568
 8055SOL    HW235799   2.154   4.513   2.922 -0.7566  0.4706 -0.0201
 8056SOL     OW35800   1.345   2.685  17.074  0.9293 -0.0379 -0.4368
 8056SOL    HW135801   1.400   2.690  16.995  2.5265  1.1928  0.7488
 8056SOL    HW235802   1.256   2.695  17.041  1.4020  1.3318 -1.3109
 8057SOL     OW35803   3.603   1.172  13.413 -0.0659  0.1084 -0.6071
 8057SOL    HW135804   3.509   1.177  13.393 -0.5323 -0.1143  1.5556
 8057SOL    HW235805   3.631   1.086  13.382 -3.3325 -2.4870  3.6362
 8058SOL     OW35806   2.470   2.599   2.909  0.5987  0.0063 -0.7430
 8058SOL    HW135807   2.386   2.644   2.895  0.2939 -0.1988  0.3728
 8058SOL    HW235808   2.469   2.607   3.004 -0.0624  0.6246 -0.8034
 8059SOL     OW35809   3.356   3.886   3.134  0.1245 -0.2970  0.0909
 8059SOL    HW135810   3.331   3.914   3.221 -0.3580 -0.3794 -0.0175
 8059SOL    HW235811   3.273   3.845   3.108 -0.9017  1.6192  0.3559
 8060SOL     OW35812   1.820   1.193  15.464  0.4614 -0.4685  0.6708
 8060SOL    HW135813   1.739   1.165  15.506  0.4040 -0.8142  0.3240
 8060SOL    HW235814   1.859   1.108  15.442  2.7485  0.5509  0.6951
 8061SOL     OW35815   0.872   4.567   9.137 -0.0689 -0.5264  0.3207
 8061SOL    HW135816   0.786   4.527   9.143 -1.6167  2.8690  0.9411
 8061SOL    HW235817   0.888   4.559   9.043 -0.7699  0.3868  0.1185
 8062SOL     OW35818   2.242   4.238  16.944  0.0200 -0.5578 -0.2832
 8062SOL    HW135819   2.206   4.216  17.030  1.1469 -1.5515 -0.0681
 8062SOL    HW235820   2.238   4.333  16.947  3.0125 -0.3785 -1.8809
 8063SOL     OW35821   0.942   1.937   1.113 -0.8537  0.1948 -0.3337
 8063SOL    HW135822   1.032   1.941   1.143 -1.1900 -0.6071  0.8074
 8063SOL    HW235823   0.954   1.959   1.020 -0.6172  1.0090 -0.1167
 8064SOL     OW35824   1.400   4.179   9.078  0.7135  0.4544  0.3779
 8064SOL    HW135825   1.313   4.216   9.091  0.6429  0.9441 -1.4246
 8064SOL    HW235826   1.429   4.220   8.997 -0.4893  0.9156  0.1851
 8065SOL     OW35827   1.224   1.049  16.946  0.2155  0.0996 -0.4564
 8065SOL    HW135828   1.163   1.094  16.887  0.3756  1.3922  0.3544
 8065SOL    HW235829   1.243   0.977  16.887  1.6353 -0.2605  0.4323
 8066SOL     OW35830   3.239   3.319   8.027 -0.4200 -0.1853 -0.4043
 8066SOL    HW135831   3.325   3.361   8.036 -0.2701 -1.0194  2.0239
 8066SOL    HW235832   3.256   3.232   8.063  1.3812 -0.8957 -2.9527
 8067SOL     OW35833   4.468   2.136   4.620 -0.2778 -0.2732  0.5190
 8067SOL    HW135834   4.408   2.187   4.565 -1.3382 -1.5441  0.4948
 8067SOL    HW235835   4.403   2.083   4.666 -0.6956 -0.6971 -0.5460
 8068SOL     OW35836   2.889   2.532   8.955  0.0967  0.1019 -0.0095
 8068SOL    HW135837   2.908   2.525   9.049  3.2957 -0.2997 -0.6893
 8068SOL    HW235838   2.862   2.446   8.923  0.9322  0.7187 -2.3602
 8069SOL     OW35839   3.394   3.340   5.704  0.5499 -0.2817 -0.3658
 8069SOL    HW135840   3.468   3.285   5.730  0.2102  0.4962  2.1809
 8069SOL    HW235841   3.322   3.278   5.712 -0.0929  0.9789  3.3215
 8070SOL     OW35842   2.829   4.195  15.746 -0.2333 -0.5495 -0.1240
 8070SOL    HW135843   2.896   4.199  15.814  0.5035 -2.3612 -0.7528
 8070SOL    HW235844   2.793   4.107  15.758  0.3746 -0.6302  1.0801
 8071SOL     OW35845   2.098   1.876   8.728 -0.1187  0.2665 -0.5488
 8071SOL    HW135846   2.077   1.890   8.636  3.0675  0.2503 -1.2829
 8071SOL    HW235847   2.190   1.901   8.723 -0.1959  0.8866  1.0865
 8072SOL     OW35848   2.341   0.097   0.329 -0.2410  0.9503  0.2414
 8072SOL    HW135849   2.401   0.039   0.377 -1.1037 -1.8757 -2.0893
 8072SOL    HW235850   2.285   0.033   0.286  0.6912  0.2889  0.0197
 8073SOL     OW35851   1.423   3.053   6.336 -0.8712 -0.0931  0.2282
 8073SOL    HW135852   1.406   3.121   6.271  0.4726  0.1742  0.1693
 8073SOL    HW235853   1.340   3.060   6.385 -0.2567  1.6370  1.0197
 8074SOL     OW35854   2.764   3.143   4.502 -0.6536  0.3710 -0.1560
 8074SOL    HW135855   2.714   3.076   4.456  0.1904  0.2064 -0.8390
 8074SOL    HW235856   2.691   3.200   4.523 -3.0914 -2.4315 -1.0116
 8075SOL     OW35857   4.292   0.793   9.107  0.4289  0.0097  0.2960
 8075SOL    HW135858   4.207   0.826   9.080 -0.7479 -3.4672 -0.1028
 8075SOL    HW235859   4.345   0.857   9.059  0.8698 -0.4953  0.1058
 8076SOL     OW35860   1.904   3.708  17.220 -0.5782  0.2886  0.2744
 8076SOL    HW135861   1.911   3.710  17.125 -1.6637  2.3452  0.2393
 8076SOL    HW235862   1.837   3.641  17.231  0.5966 -1.3246 -2.3516
 8077SOL     OW35863   1.521   3.983   6.242 -0.2699  0.3312 -0.3691
 8077SOL    HW135864   1.614   3.960   6.233 -0.7845 -2.1693  0.6967
 8077SOL    HW235865   1.516   4.069   6.201 -0.9605  0.6539  0.4120
 8078SOL     OW35866   2.421   2.801   6.594 -0.0026 -0.0639 -0.2795
 8078SOL    HW135867   2.466   2.730   6.640  1.3828  2.0142  1.5960
 8078SOL    HW235868   2.398   2.859   6.667 -1.0539  0.5496 -1.0995
 8079SOL     OW35869   4.164   0.899   4.570 -0.2146 -0.0162  0.7358
 8079SOL    HW135870   4.246   0.905   4.618 -0.5555  0.5991  1.2514
 8079SOL    HW235871   4.133   0.990   4.569 -1.1199 -0.3293 -0.4404
 8080SOL     OW35872   4.192   3.029   8.620 -0.0545 -0.3235 -0.4568
 8080SOL    HW135873   4.277   3.050   8.583  0.0661 -0.0902 -0.0487
 8080SOL    HW235874   4.209   2.950   8.671 -0.5259 -0.6811 -0.8487
 8081SOL     OW35875   0.833   4.030   6.958 -0.5272 -0.8936 -0.3233
 8081SOL    HW135876   0.904   4.056   6.899 -0.4218 -1.0228 -0.2529
 8081SOL    HW235877   0.815   4.113   7.002 -0.4096 -0.3879 -1.2418
 8082SOL     OW35878   3.827   2.648   9.416 -0.5423 -0.4088 -0.3763
 8082SOL    HW135879   3.755   2.632   9.356  0.6911  1.0322 -2.2233
 8082SOL    HW235880   3.817   2.743   9.421  2.3015 -0.1162 -0.1744
 8083SOL     OW35881   3.857   2.256  16.874  0.1606 -0.4104  0.1425
 8083SOL    HW135882   3.940   2.210  16.867 -0.0217 -0.7694  0.3643
 8083SOL    HW235883   3.855   2.329  16.811  1.6571  1.1649  1.9485
 8084SOL     OW35884   4.645   2.707   0.880  0.0181  0.3785  0.5940
 8084SOL    HW135885   4.714   2.641   0.884  0.5841  0.7861 -2.3935
 8084SOL    HW235886   4.607   2.717   0.968 -1.8173  0.1233 -0.1572
 8085SOL     OW35887   4.304   3.674  11.606  0.5962  0.2665 -0.4438
 8085SOL    HW135888   4.335   3.695  11.694  0.0784 -1.6471  0.1905
 8085SOL    HW235889   4.306   3.580  11.591  0.2594  0.2129 -0.1523
 8086SOL     OW35890   2.026   1.688  12.683  0.1310 -0.4318 -0.0941
 8086SOL    HW135891   2.076   1.728  12.612  0.8913  0.4109  0.9133
 8086SOL    HW235892   1.937   1.689  12.648  0.2924  0.9808 -0.4503
 8087SOL     OW35893   1.036   2.739  16.139  0.4544 -0.1279 -0.1013
 8087SOL    HW135894   1.105   2.805  16.149  1.4891 -0.8997 -2.2428
 8087SOL    HW235895   0.984   2.761  16.216 -3.1229  0.0578 -2.5658
 8088SOL     OW35896   4.254   2.138  17.620 -0.3067 -0.1309  0.2270
 8088SOL    HW135897   4.176   2.091  17.589 -0.7144 -1.3523  3.0901
 8088SOL    HW235898   4.320   2.111  17.556 -0.0321 -0.4352  0.6341
 8089SOL     OW35899   2.336   0.803   3.593  0.6022 -0.1510  0.0261
 8089SOL    HW135900   2.352   0.730   3.653 -1.1689  1.8560  2.9631
 8089SOL    HW235901   2.286   0.861   3.650 -0.1686 -0.6085 -0.1824
 8090SOL     OW35902   4.238   0.760   2.941 -0.4002  0.1129  0.4880
 8090SOL    HW135903   4.144   0.770   2.951 -0.1853  0.2712  2.3724
 8090SOL    HW235904   4.262   0.706   3.016 -1.4988 -2.0790 -0.7329
 8091SOL     OW35905   2.126   2.199   7.919  0.0909  0.0730 -0.3770
 8091SOL    HW135906   2.113   2.193   8.014 -1.2457 -0.3337 -0.5929
 8091SOL    HW235907   2.080   2.118   7.895  1.9715 -1.3089  0.6376
 8092SOL     OW35908   3.706   0.640  12.316 -0.1992 -0.3001  0.3850
 8092SOL    HW135909   3.653   0.570  12.279  1.3392  0.0449 -2.5224
 8092SOL    HW235910   3.631   0.689  12.350  0.7820  1.3362  0.2157
 8093SOL     OW35911   0.772   0.222   1.091 -0.3008  0.3566  0.0519
 8093SOL    HW135912   0.817   0.168   1.026 -1.7069 -1.9190  0.9664
 8093SOL    HW235913   0.820   0.305   1.085  1.0795 -0.3374  1.4421
 8094SOL     OW35914   2.994   3.147  16.907  0.1348  0.3525  0.2997
 8094SOL    HW135915   3.024   3.136  16.817 -1.1130 -0.9575  0.0374
 8094SOL    HW235916   2.901   3.166  16.900  0.1825  0.4215 -0.1127
 8095SOL     OW35917   0.363   1.067   0.824 -0.1726 -0.0201 -0.1062
 8095SOL    HW135918   0.417   1.072   0.745 -1.5297  0.7939 -0.9946
 8095SOL    HW235919   0.391   0.988   0.868 -0.0756 -0.5840 -1.1754
 8096SOL     OW35920   2.999   2.020   9.206 -0.4620 -0.0659 -0.5898
 8096SOL    HW135921   2.922   2.078   9.208 -1.0802 -0.8276 -1.7030
 8096SOL    HW235922   3.047   2.047   9.127 -2.7541  1.7136 -1.3983
 8097SOL     OW35923   0.030   1.126   8.471 -0.4048  0.4874  0.2012
 8097SOL    HW135924   4.724   1.153   8.390  1.4871  1.0765 -0.5983
 8097SOL    HW235925   0.037   1.208   8.519  0.6366  0.9058 -0.6710
 8098SOL     OW35926   3.410   1.045  11.459 -0.3745  0.2621 -0.3799
 8098SOL    HW135927   3.435   1.132  11.427 -1.3052  0.8388  0.4824
 8098SOL    HW235928   3.492   1.021  11.503 -0.2995  0.6943 -0.2869
 8099SOL     OW35929   1.332   1.099   1.831 -0.7173  0.2498  0.6892
 8099SOL    HW135930   1.239   1.121   1.826 -1.0221 -1.2637 -0.2119
 8099SOL    HW235931   1.378   1.181   1.812  1.1613 -1.5678 -2.6139
 8100SOL     OW35932   0.946   0.073   4.542  0.0968 -0.2928  0.0736
 8100SOL    HW135933   0.896   0.134   4.488 -0.1461 -1.6590 -1.2366
 8100SOL    HW235934   0.909   4.724   4.521 -0.0135 -0.0162 -0.8479
 8101SOL     OW35935   2.148   3.134  14.986 -0.0804 -0.4515 -0.1966
 8101SOL    HW135936   2.156   3.040  14.971  0.6469 -0.1442 -1.7214
 8101SOL    HW235937   2.208   3.178  14.925  0.8624  0.0827  1.1109
 8102SOL     OW35938   0.415   3.973   5.272  0.1066 -0.2337  0.0123
 8102SOL    HW135939   0.489   4.017   5.314  0.7057 -0.2754 -1.0130
 8102SOL    HW235940   0.462   3.904   5.226  0.4761  0.4199 -0.5885
 8103SOL     OW35941   3.220   2.725   2.996  0.0214 -0.1759  0.2565
 8103SOL    HW135942   3.280   2.746   3.068  1.9202 -0.1461 -1.3452
 8103SOL    HW235943   3.267   2.762   2.922  1.0241  0.4345  1.1846
 8104SOL     OW35944   2.698   4.679   8.214 -0.1402  0.1070  0.2980
 8104SOL    HW135945   2.698   4.727   8.297  3.8256  1.6541 -0.5886
 8104SOL    HW235946   2.651   4.729   8.147  2.4929  0.1254 -1.5640
 8105SOL     OW35947   1.091   0.864   0.536  0.1209  0.6884 -0.1094
 8105SOL    HW135948   1.114   0.933   0.598 -1.9655  0.4999  0.8751
 8105SOL    HW235949   1.131   0.898   0.456  0.1734  1.7586  0.3841
 8106SOL     OW35950   2.134   0.314   4.799  0.0318  0.3068  0.0100
 8106SOL    HW135951   2.057   0.360   4.764 -0.4810  0.3516  1.1828
 8106SOL    HW235952   2.097   0.274   4.878  0.3430 -0.2978 -0.1561
 8107SOL     OW35953   0.516   0.834   8.423  0.3842 -0.0391  0.5268
 8107SOL    HW135954   0.475   0.858   8.506  0.3106 -1.1985  0.8222
 8107SOL    HW235955   0.554   0.752   8.456  0.2636 -0.7553 -1.0977
 8108SOL     OW35956   1.002   3.629  11.886 -0.2067 -0.2971 -0.0195
 8108SOL    HW135957   1.063   3.627  11.813 -0.1480 -0.8075  0.0433
 8108SOL    HW235958   1.010   3.718  11.919 -0.0564 -0.5547  0.6552
 8109SOL     OW35959   3.843   2.339  16.129  0.1417 -0.4507  0.1062
 8109SOL    HW135960   3.827   2.292  16.211  4.6548 -0.7466  0.8060
 8109SOL    HW235961   3.762   2.387  16.111  0.5207 -1.3060 -3.8559
 8110SOL     OW35962   0.405   0.835   9.607 -0.3777  0.2730  0.0071
 8110SOL    HW135963   0.324   0.883   9.591  0.2850  1.1092 -0.8587
 8110SOL    HW235964   0.388   0.761   9.549  0.4784  1.2985 -1.5630
 8111SOL     OW35965   0.520   0.858  14.504  0.5247 -0.5259 -0.0097
 8111SOL    HW135966   0.445   0.811  14.540  0.1936 -1.1755 -1.5208
 8111SOL    HW235967   0.472   0.937  14.478  2.6760  0.7438 -0.1126
 8112SOL     OW35968   3.655   2.094  17.691 -0.4061 -0.1892  0.5727
 8112SOL    HW135969   3.688   2.174  17.733 -0.2531  0.3999 -0.6675
 8112SOL    HW235970   3.702   2.024  17.736 -0.9673 -1.5601 -0.9534
 8113SOL     OW35971   3.967   2.211   7.681  0.6245 -0.8222  0.6005
 8113SOL    HW135972   4.042   2.270   7.691 -1.7717  2.2463  0.5666
 8113SOL    HW235973   3.902   2.251   7.738  1.4332  0.0622  0.9045
 8114SOL     OW35974   2.501   3.462   2.386  0.5095 -1.0006  0.2036
 8114SOL    HW135975   2.457   3.534   2.340 -0.5767 -2.7592 -1.5253
 8114SOL    HW235976   2.428   3.438   2.442 -1.1522  0.8101 -1.1596
 8115SOL     OW35977   1.964   1.640   0.430 -0.2583  0.2555 -0.0388
 8115SOL    HW135978   2.048   1.594   0.433 -0.3969  0.0457  0.6697
 8115SOL    HW235979   1.959   1.665   0.338  2.4119  0.9336  0.0091
 8116SOL     OW35980   2.357   2.509   4.307  0.4125 -0.1897  0.2225
 8116SOL    HW135981   2.296   2.521   4.380 -0.7579 -2.9614 -0.2703
 8116SOL    HW235982   2.406   2.435   4.343  3.6548  2.3270  0.8874
 8117SOL     OW35983   1.367   1.750   3.154 -0.2039 -0.4052 -0.2917
 8117SOL    HW135984   1.384   1.656   3.162 -0.8896 -0.4920  0.1625
 8117SOL    HW235985   1.405   1.789   3.233 -0.0851 -2.6005  0.7231
 8118SOL     OW35986   0.223   0.080  14.486 -0.5404  0.0618 -0.0757
 8118SOL    HW135987   0.190   0.071  14.396 -1.5025  1.6036  0.1288
 8118SOL    HW235988   0.149   0.046  14.536  0.6911 -1.1684  0.9092
 8119SOL     OW35989   2.525   3.568   4.724  0.4343 -0.1732 -0.3945
 8119SOL    HW135990   2.461   3.617   4.673  2.1364  1.8629 -0.5573
 8119SOL    HW235991   2.588   3.632   4.756 -0.1846 -0.3640  1.2268
 8120SOL     OW35992   3.191   0.308  16.827  0.1854  0.2534  0.5049
 8120SOL    HW135993   3.240   0.386  16.854  0.6333 -0.5051  1.8843
 8120SOL    HW235994   3.107   0.350  16.844 -0.9509 -1.6488 -0.4806
 8121SOL     OW35995   3.504   0.142   4.262  0.1055  0.5177  0.4581
 8121SOL    HW135996   3.597   0.143   4.242 -0.5502 -0.9329 -2.6263
 8121SOL    HW235997   3.472   0.196   4.190  0.9757  2.0475  1.2357
 8122SOL     OW35998   3.175   2.767   0.874 -0.2296  0.1585 -0.2774
 8122SOL    HW135999   3.192   2.691   0.930 -0.1335 -0.9444 -1.7690
 8122SOL    HW236000   3.080   2.766   0.883 -0.2894 -1.4168 -1.0257
 8123SOL     OW36001   3.885   3.893  13.866  0.0036 -0.3422  0.1501
 8123SOL    HW136002   3.795   3.877  13.891 -0.6299  1.1152 -1.1747
 8123SOL    HW236003   3.918   3.803  13.875  2.9139  0.6263 -0.7300
 8124SOL     OW36004   3.224   4.611   7.371 -0.5731  0.0395 -0.1787
 8124SOL    HW136005   3.193   4.590   7.459 -0.1311 -0.4276 -0.1375
 8124SOL    HW236006   3.190   4.536   7.322  1.3328  0.5328 -2.2823
 8125SOL     OW36007   4.334   4.489   3.666 -0.6754 -0.4749 -0.7442
 8125SOL    HW136008   4.253   4.538   3.651  0.6570  2.2598  0.9123
 8125SOL    HW236009   4.399   4.554   3.639 -2.0470  0.9996 -0.5138
 8126SOL     OW36010   2.185   4.000   3.713  0.5483 -0.0197 -0.0370
 8126SOL    HW136011   2.149   4.086   3.734  0.1024 -0.3002  0.3587
 8126SOL    HW236012   2.253   3.983   3.777  0.2577  1.1235  0.5683
 8127SOL     OW36013   3.141   0.330   8.005 -0.0259 -0.1155  0.8560
 8127SOL    HW136014   3.212   0.280   7.965 -0.3057  0.1722 -0.0051
 8127SOL    HW236015   3.064   0.274   7.993  0.2895 -0.4375  0.3277
 8128SOL     OW36016   1.225   1.167  11.537  0.3233 -0.5557  0.3728
 8128SOL    HW136017   1.317   1.187  11.550 -0.0575  0.7908  1.0364
 8128SOL    HW236018   1.197   1.209  11.619 -2.7124 -1.9726  0.0520
 8129SOL     OW36019   1.430   3.693   4.446  0.2663  0.7991 -0.0234
 8129SOL    HW136020   1.469   3.612   4.412 -1.9219 -0.1560 -0.2130
 8129SOL    HW236021   1.472   3.761   4.393 -0.3187  0.8037 -0.4797
 8130SOL     OW36022   0.813   3.872   2.856  0.0630  0.1650 -0.6410
 8130SOL    HW136023   0.740   3.842   2.802 -1.4030 -0.0066  1.4614
 8130SOL    HW236024   0.890   3.827   2.822 -0.3751 -0.2375 -1.0942
 8131SOL     OW36025   4.237   1.077   2.696  0.8326 -0.0729 -0.0891
 8131SOL    HW136026   4.194   1.100   2.779 -0.0818 -1.0745 -0.2951
 8131SOL    HW236027   4.326   1.112   2.700  1.4001 -1.7127  1.4777
 8132SOL     OW36028   2.033   0.725   1.902 -0.3662 -0.3359 -0.1716
 8132SOL    HW136029   2.068   0.689   1.820 -0.4031  0.0609 -0.3583
 8132SOL    HW236030   1.940   0.728   1.881 -1.0106  1.6050  3.0228
 8133SOL     OW36031   3.695   1.270  11.462 -0.4764  0.4711 -0.0294
 8133SOL    HW136032   3.732   1.356  11.481 -0.4067 -0.2153  2.9413
 8133SOL    HW236033   3.676   1.246  11.553 -2.0990 -1.3062 -0.8271
 8134SOL     OW36034   2.322   4.706   4.357  0.5423  0.1842  0.4009
 8134SOL    HW136035   2.403   4.657   4.368  0.1851 -0.0375  1.9386
 8134SOL    HW236036   2.273   4.649   4.415 -0.8380 -0.9081 -1.8228
 8135SOL     OW36037   0.201   0.636   5.354  0.2648 -0.0012  0.3734
 8135SOL    HW136038   0.141   0.644   5.428 -1.2687  2.5924 -1.1756
 8135SOL    HW236039   0.282   0.628   5.404 -0.0535 -3.0600  0.3903
 8136SOL     OW36040   2.107   0.456  15.574  0.6441 -0.2898  0.2285
 8136SOL    HW136041   2.045   0.422  15.638  0.5917 -0.2397  0.2039
 8136SOL    HW236042   2.178   0.394  15.594  1.8866  0.5869 -1.4663
 8137SOL     OW36043   0.225   2.292   6.859 -0.3112  0.3112  0.1747
 8137SOL    HW136044   0.319   2.284   6.877 -0.5334 -0.7359  0.8401
 8137SOL    HW236045   0.224   2.354   6.786 -0.1816 -0.1319 -0.2065
 8138SOL     OW36046   2.021   1.917  12.543  0.0300 -0.2601  0.0875
 8138SOL    HW136047   2.115   1.927  12.556  0.0495  2.4775 -2.1854
 8138SOL    HW236048   1.982   1.968  12.615  0.3762  1.7585 -1.1559
 8139SOL     OW36049   1.157   3.429   3.433 -0.3604  0.5015 -0.2666
 8139SOL    HW136050   1.111   3.508   3.460  0.1030 -0.2656  2.8068
 8139SOL    HW236051   1.172   3.461   3.345 -1.8404 -0.8781 -1.0382
 8140SOL     OW36052   1.461   0.467  16.440  0.3190 -0.1194  0.1707
 8140SOL    HW136053   1.439   0.415  16.516 -1.5685 -1.4610 -1.2960
 8140SOL    HW236054   1.556   0.481  16.448 -0.3987  4.0950  1.5867
 8141SOL     OW36055   0.238   1.289   3.729  0.0354 -0.1396 -0.4015
 8141SOL    HW136056   0.291   1.326   3.799 -1.3390 -1.3703  1.2704
 8141SOL    HW236057   0.227   1.196   3.749  0.9157 -0.4001 -1.1124
 8142SOL     OW36058   1.470   3.114  11.058 -0.5054  0.4350 -0.1532
 8142SOL    HW136059   1.547   3.058  11.049  0.0671  1.3724 -1.0494
 8142SOL    HW236060   1.498   3.203  11.037  3.2755 -0.5644  0.6568
 8143SOL     OW36061   2.880   0.407  17.623 -0.4959 -0.1312  0.2010
 8143SOL    HW136062   2.897   0.403  17.528 -1.3135  0.5177  0.0263
 8143SOL    HW236063   2.926   0.489  17.643 -0.2482 -0.8996  2.6642
 8144SOL     OW36064   1.077   3.492   8.846 -0.1501 -0.1981  0.0535
 8144SOL    HW136065   1.118   3.579   8.843 -4.3023  1.7769  1.1825
 8144SOL    HW236066   1.146   3.432   8.874 -0.3255  0.1001  1.1186
 8145SOL     OW36067   0.593   0.037   2.026  0.0225 -0.2565  0.2521
 8145SOL    HW136068   0.508   0.045   2.070  0.0024 -2.6850  0.6479
 8145SOL    HW236069   0.564   0.065   1.939  0.8389  2.2053  0.7698
 8146SOL     OW36070   0.070   2.640   9.349  0.1317 -0.1542 -0.1121
 8146SOL    HW136071   4.711   2.646   9.347  0.2321  1.9893  0.6236
 8146SOL    HW236072   0.093   2.733   9.339  0.0839 -0.2209 -0.8061
 8147SOL     OW36073   0.165   0.373   5.986  0.4639  0.1826 -0.1366
 8147SOL    HW136074   0.256   0.401   5.993 -0.4546  2.9790  0.8000
 8147SOL    HW236075   0.161   0.317   5.909  1.4054  1.4703 -1.1214
 8148SOL     OW36076   1.442   4.076   1.796 -0.4908 -0.0777 -0.3152
 8148SOL    HW136077   1.401   4.051   1.714  1.1968  0.0215 -1.1852
 8148SOL    HW236078   1.537   4.069   1.783 -0.6855 -2.5599 -0.3586
 8149SOL     OW36079   1.487   1.525  13.529 -0.1569  0.1637 -0.3312
 8149SOL    HW136080   1.553   1.482  13.475  0.0283 -0.4173  0.3434
 8149SOL    HW236081   1.412   1.542  13.473 -1.0799  0.3284  0.9378
 8150SOL     OW36082   4.020   1.161   3.680  0.1495 -0.2699  0.4032
 8150SOL    HW136083   4.055   1.223   3.616 -1.3760  0.0639 -0.0872
 8150SOL    HW236084   4.075   1.083   3.671 -1.7305 -1.4226 -0.8667
 8151SOL     OW36085   1.149   0.425  10.565 -0.0583  0.8239 -0.3048
 8151SOL    HW136086   1.224   0.475  10.596 -0.7902  0.4606  2.0196
 8151SOL    HW236087   1.074   0.452  10.618 -0.6244  0.7580 -1.0756
 8152SOL     OW36088   3.428   0.067  11.304 -0.9499  0.2774  0.5438
 8152SOL    HW136089   3.417   0.153  11.264 -4.7493  0.4601  1.9726
 8152SOL    HW236090   3.488   0.073  11.379  0.0908  2.4970 -0.4722
 8153SOL     OW36091   4.397   2.684   7.906  0.2611 -0.2354 -0.1677
 8153SOL    HW136092   4.400   2.617   7.974 -0.3110  0.5087  0.5892
 8153SOL    HW236093   4.402   2.762   7.962 -2.1576 -0.2797  0.1131
 8154SOL     OW36094   3.819   1.986   9.765 -0.1873 -0.9496  0.4200
 8154SOL    HW136095   3.855   1.910   9.810 -0.0047 -2.0687 -1.6181
 8154SOL    HW236096   3.830   2.056   9.830  0.4598  1.3574 -2.1913
 8155SOL     OW36097   2.262   0.825  14.479  0.3588  0.3681 -0.3993
 8155SOL    HW136098   2.264   0.775  14.398  1.6238 -0.4932  0.1591
 8155SOL    HW236099   2.300   0.766  14.544 -0.2370  0.4859  0.0575
 8156SOL     OW36100   2.367   2.770  16.967 -0.1230 -0.0994 -0.1986
 8156SOL    HW136101   2.407   2.715  17.034  1.4329  1.1130 -0.1393
 8156SOL    HW236102   2.277   2.781  16.998 -0.4322  3.1779 -2.2863
 8157SOL     OW36103   0.024   3.842   7.372 -0.0314 -0.7552  0.0670
 8157SOL    HW136104   0.073   3.775   7.323  0.6125  1.3891 -2.2452
 8157SOL    HW236105   4.679   3.853   7.324 -0.5621  0.0213  1.1702
 8158SOL     OW36106   4.689   0.369   0.742 -0.0116  0.9062 -0.3540
 8158SOL    HW136107   0.022   0.351   0.680  2.1824 -0.3501  2.4883
 8158SOL    HW236108   4.609   0.349   0.693  0.2412 -2.4716  0.5985
 8159SOL     OW36109   0.193   3.551   5.355  0.3077 -0.0451 -0.9585
 8159SOL    HW136110   0.245   3.592   5.424 -0.8452 -1.9803  1.0368
 8159SOL    HW236111   0.245   3.575   5.278 -0.8238 -0.9296 -2.0004
 8160SOL     OW36112   0.571   2.160   8.192  0.3881  0.0347  0.2121
 8160SOL    HW136113   0.551   2.167   8.098  1.1192  0.7505  0.1067
 8160SOL    HW236114   0.506   2.218   8.233 -0.6976 -0.8074 -0.2950
 8161SOL     OW36115   2.995   4.112   9.068  0.8496 -0.0651  0.3075
 8161SOL    HW136116   3.015   4.023   9.097  2.0972 -0.5472 -2.0322
 8161SOL    HW236117   2.965   4.094   8.979  1.0058  1.4644 -0.0642
 8162SOL     OW36118   4.524   3.741   9.521  0.7475  0.4200  0.3978
 8162SOL    HW136119   4.502   3.657   9.481  0.8929 -0.7729  2.7991
 8162SOL    HW236120   4.457   3.749   9.588 -0.0562  2.0502 -0.6158
 8163SOL     OW36121   0.112   0.419   0.991  0.1434  0.6230  0.2113
 8163SOL    HW136122   0.063   0.396   0.911 -0.4703  0.4795  0.6266
 8163SOL    HW236123   0.066   0.494   1.029 -2.3115 -1.8532  2.1766
 8164SOL     OW36124   3.539   3.920   9.604 -0.1850 -0.5426 -0.5582
 8164SOL    HW136125   3.461   3.952   9.650  0.9144  0.9673  0.2666
 8164SOL    HW236126   3.520   3.826   9.611  0.1652 -0.8649 -3.9242
 8165SOL     OW36127   3.793   4.119   5.986 -0.0331  0.4458  0.2529
 8165SOL    HW136128   3.761   4.107   5.897  0.9615  1.3713 -0.2254
 8165SOL    HW236129   3.883   4.148   5.973  1.1423 -2.3534  1.9277
 8166SOL     OW36130   1.041   4.339   6.230 -0.0622  0.4865  1.1433
 8166SOL    HW136131   0.973   4.350   6.164 -0.6693  0.7602  1.8114
 8166SOL    HW236132   1.005   4.276   6.292 -1.8241  1.5936  1.2396
 8167SOL     OW36133   1.464   1.369   4.306  0.0889 -0.2321 -0.4450
 8167SOL    HW136134   1.413   1.413   4.374  0.5514  0.0767 -0.3003
 8167SOL    HW236135   1.525   1.325   4.364 -0.2786  1.4801  1.2198
 8168SOL     OW36136   3.968   0.709   9.167  0.6785  0.0333 -0.4006
 8168SOL    HW136137   4.015   0.627   9.178 -1.2267 -1.0746 -0.5983
 8168SOL    HW236138   3.927   0.685   9.083  0.0774  2.3683 -0.7860
 8169SOL     OW36139   0.654   1.309   1.067  0.0929 -0.0731  0.2332
 8169SOL    HW136140   0.673   1.373   0.999  0.7357  0.7078  1.1531
 8169SOL    HW236141   0.738   1.324   1.111  0.1555  3.1495 -0.9752
 8170SOL     OW36142   1.035   0.004  15.112 -0.3120  0.8422 -0.5474
 8170SOL    HW136143   1.097   0.013  15.184  0.7579  1.3676 -1.5287
 8170SOL    HW236144   1.024   4.646  15.106  1.2626  0.5890  0.6167
 8171SOL     OW36145   4.717   1.832  12.941 -0.1698  0.7869  0.3858
 8171SOL    HW136146   4.690   1.923  12.939  0.7819  1.1659  4.6212
 8171SOL    HW236147   4.634   1.787  12.959  0.2021 -0.8756 -1.9990
 8172SOL     OW36148   2.234   2.225  15.720 -0.1602  0.2612  0.5995
 8172SOL    HW136149   2.215   2.291  15.787 -0.3747  1.8340 -1.0001
 8172SOL    HW236150   2.246   2.276  15.640 -2.2950 -0.3449 -0.0978
 8173SOL     OW36151   1.895   1.553   5.607  0.0024 -0.4700  0.0127
 8173SOL    HW136152   1.834   1.539   5.535  0.3772  0.8976 -0.5796
 8173SOL    HW236153   1.927   1.642   5.590 -0.2149 -0.5876 -1.0062
 8174SOL     OW36154   3.258   1.580  17.256  0.2734 -0.7497 -0.1098
 8174SOL    HW136155   3.163   1.569  17.252  0.0374  1.0814  0.4940
 8174SOL    HW236156   3.276   1.580  17.350 -2.4672  1.4558  0.4165
 8175SOL     OW36157   3.011   4.325   4.590 -0.0127 -0.4880 -0.7851
 8175SOL    HW136158   3.031   4.255   4.652  0.5404  0.3866  0.0301
 8175SOL    HW236159   3.042   4.405   4.633  0.8255 -1.4386  0.3936
 8176SOL     OW36160   3.735   0.317   8.319 -0.0636  0.5075  0.2971
 8176SOL    HW136161   3.654   0.356   8.352  0.0110  0.1416  0.9021
 8176SOL    HW236162   3.732   0.367   8.237 -1.2797  1.7570  1.0917
 8177SOL     OW36163   3.200   2.255  12.415  0.0445  0.1612 -0.2348
 8177SOL    HW136164   3.231   2.322  12.354  0.6786 -0.9942 -1.1779
 8177SOL    HW236165   3.163   2.189  12.357  0.2106 -2.5114  2.6997
 8178SOL     OW36166   2.050   2.498   9.009 -0.5994 -0.6908 -0.4034
 8178SOL    HW136167   2.008   2.474   9.092 -0.0846 -1.4904 -0.3709
 8178SOL    HW236168   1.980   2.552   8.972 -0.1860 -0.6035 -1.0655
 8179SOL     OW36169   4.630   4.322  16.181 -0.0215 -0.1541  0.0222
 8179SOL    HW136170   4.715   4.351  16.214 -0.2789 -0.5012  0.9876
 8179SOL    HW236171   4.651   4.327  16.088  1.2442 -1.0962  0.2716
 8180SOL     OW36172   2.546   3.067   3.844  0.2905  0.1030 -0.7179
 8180SOL    HW136173   2.545   3.015   3.764  1.7382  2.0533 -2.0196
 8180SOL    HW236174   2.613   3.130   3.817 -0.3645  0.2382 -2.0012
 8181SOL     OW36175   3.471   4.267   5.368 -0.8515  0.1478  0.3956
 8181SOL    HW136176   3.449   4.352   5.329 -0.9897 -1.1755 -2.3437
 8181SOL    HW236177   3.564   4.253   5.348 -1.3301 -0.4385 -1.4399
 8182SOL     OW36178   2.346   1.847   6.148 -0.1053  0.2019 -0.0857
 8182SOL    HW136179   2.424   1.900   6.161  0.6977 -0.9013 -0.3279
 8182SOL    HW236180   2.282   1.910   6.116  0.5107  0.2823 -1.1875
 8183SOL     OW36181   2.815   2.405   8.570 -0.7945 -0.0186 -0.0168
 8183SOL    HW136182   2.809   2.360   8.654 -0.4059 -0.9315 -0.4801
 8183SOL    HW236183   2.847   2.488   8.607  0.8902 -1.4199  1.6826
 8184SOL     OW36184   0.545   1.164   7.676  0.1385  0.7551  0.1916
 8184SOL    HW136185   0.631   1.140   7.643 -0.2707  0.1129 -0.3910
 8184SOL    HW236186   0.571   1.228   7.743 -2.0285  1.9529 -0.0906
 8185SOL     OW36187   0.752   4.250   7.075  0.3811  0.8109 -0.0360
 8185SOL    HW136188   0.783   4.339   7.089 -1.1053  1.0442  1.8949
 8185SOL    HW236189   0.659   4.269   7.090  0.2179 -0.3843  0.4898
 8186SOL     OW36190   0.855   1.362   5.075  0.1073 -0.2346  0.5688
 8186SOL    HW136191   0.838   1.437   5.018 -2.3385 -0.4546  1.0166
 8186SOL    HW236192   0.810   1.292   5.028 -0.9402  0.4062  0.6113
 8187SOL     OW36193   0.216   0.701   0.393  0.5794 -0.2441 -0.4517
 8187SOL    HW136194   0.181   0.785   0.423  0.8911 -0.0698 -0.5804
 8187SOL    HW236195   0.280   0.745   0.338  1.0456  0.3679  0.5800
 8188SOL     OW36196   1.751   3.385   8.259 -0.5628 -0.2508 -0.2570
 8188SOL    HW136197   1.783   3.310   8.210  2.4223  0.5192  0.5060
 8188SOL    HW236198   1.732   3.341   8.342 -1.2783  0.8703  0.1822
 8189SOL     OW36199   2.154   0.648   3.395  0.8154  0.0939 -0.3123
 8189SOL    HW136200   2.179   0.706   3.467 -0.5701  0.0529  0.2074
 8189SOL    HW236201   2.218   0.581   3.417  0.0704 -0.8414 -1.0006
 8190SOL     OW36202   2.212   0.151   7.649 -0.1828 -0.3263  0.4929
 8190SOL    HW136203   2.217   0.124   7.557 -0.4665  2.3017 -0.2903
 8190SOL    HW236204   2.175   0.238   7.637 -1.3544 -0.9846 -0.6670
 8191SOL     OW36205   0.154   0.424   2.569 -0.0049  0.5299  0.8525
 8191SOL    HW136206   0.083   0.488   2.565 -0.4554  0.0626  1.4511
 8191SOL    HW236207   0.176   0.413   2.476  0.8838 -3.4087  1.5386
 8192SOL     OW36208   1.725   3.073   4.588 -0.1063  0.2545  0.3598
 8192SOL    HW136209   1.746   3.091   4.680 -2.2327 -0.2552  0.9321
 8192SOL    HW236210   1.633   3.099   4.592 -0.1152  0.0719  1.4390
 8193SOL     OW36211   3.723   1.293   2.221 -0.3298  0.6013 -0.7123
 8193SOL    HW136212   3.777   1.219   2.249  0.0269  1.5712  1.1044
 8193SOL    HW236213   3.784   1.365   2.233  0.7766 -0.6413  1.1649
 8194SOL     OW36214   4.600   1.619   6.326  0.6165  0.0188  0.4077
 8194SOL    HW136215   4.675   1.583   6.278 -1.4201 -0.4441 -2.4330
 8194SOL    HW236216   4.525   1.568   6.294  0.3567 -0.4320  1.7640
 8195SOL     OW36217   4.522   1.282   7.458 -0.0857 -0.3388 -0.4118
 8195SOL    HW136218   4.448   1.323   7.503 -0.6363 -1.8257  0.0312
 8195SOL    HW236219   4.545   1.217   7.524  0.6525 -0.2443 -0.5741
 8196SOL     OW36220   3.882   3.088  14.068 -0.5967  0.1103  0.4847
 8196SOL    HW136221   3.938   3.012  14.083  1.3066  1.5006  0.4962
 8196SOL    HW236222   3.803   3.052  14.108 -1.4310  1.8866  0.4413
 8197SOL     OW36223   3.322   1.183  13.355  0.1009 -0.2912  0.2823
 8197SOL    HW136224   3.234   1.215  13.372 -0.3298 -0.7030 -1.2001
 8197SOL    HW236225   3.320   1.133  13.274  1.2265  0.3764 -0.1613
 8198SOL     OW36226   1.912   3.283   4.480 -0.4916 -0.2676 -0.2989
 8198SOL    HW136227   1.853   3.350   4.514 -1.1457 -0.0922 -1.8060
 8198SOL    HW236228   1.873   3.202   4.513  1.0697 -1.1744 -0.7108
 8199SOL     OW36229   4.090   3.403   9.100  0.2759  0.4099 -0.1438
 8199SOL    HW136230   4.112   3.409   9.193  3.4579 -0.7932 -0.8164
 8199SOL    HW236231   4.164   3.449   9.060  1.4439 -1.4680 -0.1341
 8200SOL     OW36232   2.025   2.447  10.947 -0.1655 -0.3830  0.0298
 8200SOL    HW136233   1.938   2.409  10.961 -0.4143  0.2543  0.2159
 8200SOL    HW236234   2.060   2.463  11.034  0.7642  1.4197 -0.6682
 8201SOL     OW36235   0.862   4.276   8.477 -0.5418 -0.3123  0.4169
 8201SOL    HW136236   0.836   4.352   8.529  0.8167  0.2834  0.2315
 8201SOL    HW236237   0.807   4.210   8.520 -1.4436  1.0042  1.2607
 8202SOL     OW36238   3.108   4.446   4.893 -0.2188  0.9984  0.2280
 8202SOL    HW136239   3.150   4.497   4.962 -0.5042 -0.9209  1.8228
 8202SOL    HW236240   3.100   4.354   4.919  2.0514  0.0169 -2.6552
 8203SOL     OW36241   3.395   2.708   3.599 -0.1604  0.2361 -0.1822
 8203SOL    HW136242   3.343   2.671   3.527 -2.2875  0.7069  1.1321
 8203SOL    HW236243   3.474   2.654   3.591  1.7025  2.6821  1.5563
 8204SOL     OW36244   0.463   4.498   5.781 -0.5059  1.0536  0.6105
 8204SOL    HW136245   0.483   4.439   5.854  0.1876 -2.4356 -2.3708
 8204SOL    HW236246   0.444   4.439   5.708 -1.1012  0.3217  1.3523
 8205SOL     OW36247   0.369   1.644   2.922  0.3396 -0.2743 -0.9101
 8205SOL    HW136248   0.397   1.672   2.835  0.2834  1.7704 -0.2589
 8205SOL    HW236249   0.348   1.556   2.891 -0.7643 -0.3661  0.1090
 8206SOL     OW36250   0.653   2.281   4.271  0.1619  0.1584  0.1293
 8206SOL    HW136251   0.566   2.256   4.240  0.5219 -1.4817  0.4747
 8206SOL    HW236252   0.709   2.207   4.246  0.9324  0.3120  1.4141
 8207SOL     OW36253   1.046   2.331   6.313 -0.4024  0.4469 -0.4873
 8207SOL    HW136254   1.038   2.346   6.219 -1.1907 -0.5167 -0.5751
 8207SOL    HW236255   1.139   2.349   6.324 -0.6858  1.3669  0.3560
 8208SOL     OW36256   2.441   1.223  11.418 -0.3294  0.4393 -0.1529
 8208SOL    HW136257   2.450   1.291  11.352  1.9016 -0.3781 -0.6986
 8208SOL    HW236258   2.367   1.261  11.466 -0.8738 -1.1517  0.2534
 8209SOL     OW36259   4.131   2.607   6.301  0.2763  0.0377 -0.0222
 8209SOL    HW136260   4.184   2.527   6.290  1.2204  0.5488  0.7600
 8209SOL    HW236261   4.046   2.578   6.332  0.3531  0.3201  0.4442
 8210SOL     OW36262   1.784   1.304   2.367  0.2771 -0.3087 -0.1524
 8210SOL    HW136263   1.776   1.263   2.281 -0.4100  0.5930 -0.5227
 8210SOL    HW236264   1.736   1.239   2.417  2.0835 -0.2340  1.7097
 8211SOL     OW36265   3.199   1.245  12.589 -0.1136 -0.6341 -0.7919
 8211SOL    HW136266   3.169   1.155  12.600  0.0714 -0.6000  0.0611
 8211SOL    HW236267   3.278   1.236  12.535  1.1076  1.4884  0.6306
 8212SOL     OW36268   0.698   1.757   1.678 -0.4089 -0.1913  0.4100
 8212SOL    HW136269   0.616   1.784   1.638 -1.5604  2.5254  4.5670
 8212SOL    HW236270   0.672   1.783   1.767  2.3931  0.4363  1.0518
 8213SOL     OW36271   4.612   1.662   8.959  0.1795 -0.1414  0.1679
 8213SOL    HW136272   4.660   1.634   9.037 -1.1895 -0.2392  0.9828
 8213SOL    HW236273   4.547   1.727   8.985 -0.3025 -0.8987  0.8914
 8214SOL     OW36274   4.248   4.066  17.689 -0.7185  0.3473 -0.1981
 8214SOL    HW136275   4.176   4.046   0.003 -0.4516  1.5064  0.5092
 8214SOL    HW236276   4.220   4.145  17.644  2.8680  0.7223 -1.7717
 8215SOL     OW36277   1.831   4.225  15.185  0.1567 -0.5235 -0.4173
 8215SOL    HW136278   1.904   4.228  15.123  0.5947 -1.9938  0.0442
 8215SOL    HW236279   1.760   4.213  15.121  0.9765 -0.3645 -1.3614
 8216SOL     OW36280   4.653   1.730   5.440  0.0950  0.0916  0.1662
 8216SOL    HW136281   0.010   1.751   5.439  0.1678 -0.2886 -1.1909
 8216SOL    HW236282   4.639   1.681   5.359  0.9301 -2.2820  1.4675
 8217SOL     OW36283   2.602   2.220  13.323 -0.0635  0.1731 -0.7668
 8217SOL    HW136284   2.660   2.156  13.281 -1.0768 -1.1276 -0.1869
 8217SOL    HW236285   2.633   2.225  13.413  3.6804 -0.4415 -2.0167
 8218SOL     OW36286   0.038   0.951   7.444  0.1114 -0.0391 -0.2099
 8218SOL    HW136287   4.688   0.971   7.409 -0.0321  0.5766  0.5175
 8218SOL    HW236288   0.087   1.028   7.415  0.3523 -0.3661 -0.6837
 8219SOL     OW36289   0.745   3.971   4.361  0.6400  0.0360  0.1114
 8219SOL    HW136290   0.764   4.063   4.342 -0.9408  0.4519  0.5395
 8219SOL    HW236291   0.838   3.950   4.376 -0.0436 -1.5908  2.1240
 8220SOL     OW36292   3.000   4.151  11.930 -0.6683  0.6830 -0.6515
 8220SOL    HW136293   3.042   4.138  12.015  0.6396  2.8568 -0.9596
 8220SOL    HW236294   3.012   4.063  11.895  1.2163  0.9373 -0.6556
 8221SOL     OW36295   0.193   3.819   2.984 -0.2953  0.7871 -0.1889
 8221SOL    HW136296   0.168   3.895   2.931  1.1843  2.3417  1.3496
 8221SOL    HW236297   0.204   3.862   3.068 -0.3438  1.5081 -0.5521
 8222SOL     OW36298   2.320   3.805   7.493 -0.3749  0.8794  0.2514
 8222SOL    HW136299   2.393   3.749   7.465 -0.3947  0.9883 -0.0125
 8222SOL    HW236300   2.344   3.812   7.586  1.3269 -0.3231 -0.1015
 8223SOL     OW36301   3.606   1.495  12.690 -0.4408  0.1919 -0.3671
 8223SOL    HW136302   3.560   1.544  12.622 -0.0020  0.2189 -0.6409
 8223SOL    HW236303   3.685   1.458  12.651 -1.7890  0.8878 -3.8114
 8224SOL     OW36304   1.767   1.545  14.071  0.1623  0.2017 -0.1387
 8224SOL    HW136305   1.861   1.564  14.065  0.2420 -1.0086 -2.6035
 8224SOL    HW236306   1.749   1.539  13.977 -0.4766 -0.9839  0.0529
 8225SOL     OW36307   0.827   0.665   5.812 -0.4352  0.2678 -0.5722
 8225SOL    HW136308   0.829   0.570   5.811  1.0220  0.2709  2.4820
 8225SOL    HW236309   0.879   0.688   5.889  0.9401  0.0567 -1.4350
 8226SOL     OW36310   2.743   4.468   6.045  0.1299  0.1243  0.0718
 8226SOL    HW136311   2.769   4.556   6.018 -1.4448  1.0372  1.5803
 8226SOL    HW236312   2.754   4.475   6.139 -0.2881 -2.8322  0.3574
 8227SOL     OW36313   1.901   3.608   6.630  0.4072  0.2882 -0.9345
 8227SOL    HW136314   1.894   3.518   6.597  0.2318  0.3642 -1.1078
 8227SOL    HW236315   1.847   3.640   6.557  1.9929  2.0203 -1.3329
 8228SOL     OW36316   1.093   3.819   5.319 -0.0058  0.0080 -0.4176
 8228SOL    HW136317   1.058   3.752   5.260  0.0592 -1.5017  1.2490
 8228SOL    HW236318   1.138   3.869   5.251 -0.4550 -0.1945 -0.8618
 8229SOL     OW36319   3.045   3.951   6.473  0.3047  0.0031  0.3877
 8229SOL    HW136320   3.040   3.923   6.565  0.1069 -4.2155 -0.8848
 8229SOL    HW236321   2.992   3.885   6.428  1.1143 -0.5650  0.2486
 8230SOL     OW36322   2.750   3.334   5.369 -0.0981  0.4656  0.1314
 8230SOL    HW136323   2.747   3.325   5.274  0.7505  2.3595 -0.0828
 8230SOL    HW236324   2.819   3.399   5.386  0.6025 -0.8026  2.1758
 8231SOL     OW36325   1.306   0.930  12.020 -0.0764  0.2147  0.2628
 8231SOL    HW136326   1.234   0.944  12.082  0.4048  2.3625  0.3483
 8231SOL    HW236327   1.379   0.910  12.080  1.6962 -0.9377 -2.2949
 8232SOL     OW36328   0.614   1.014  11.331 -0.1177  0.0670  0.0086
 8232SOL    HW136329   0.664   0.961  11.393 -0.2085 -0.2958 -0.2293
 8232SOL    HW236330   0.688   1.068  11.305 -0.1407 -1.1132 -2.5035
 8233SOL     OW36331   3.679   3.691   6.576  0.5533 -0.3088 -0.4365
 8233SOL    HW136332   3.690   3.636   6.498 -0.9832 -0.9817 -0.1742
 8233SOL    HW236333   3.654   3.771   6.529  0.6206 -0.2786 -0.4202
 8234SOL     OW36334   0.792   2.702  10.158  0.5251 -0.5392  0.4376
 8234SOL    HW136335   0.741   2.782  10.145  2.1078  0.6040  1.2790
 8234SOL    HW236336   0.744   2.632  10.113 -2.6991  2.0703 -0.2088
 8235SOL     OW36337   2.845   2.892  11.575  0.3157 -0.9789  0.2400
 8235SOL    HW136338   2.891   2.863  11.496  2.1407  0.0272  0.9230
 8235SOL    HW236339   2.825   2.810  11.619 -0.5755 -0.2126  1.2893
 8236SOL     OW36340   2.843   3.867   0.431 -0.2290  0.9601  0.2334
 8236SOL    HW136341   2.890   3.934   0.383  0.3505  0.2741 -0.1543
 8236SOL    HW236342   2.758   3.910   0.444 -0.8118 -0.5461  1.5028
 8237SOL     OW36343   0.223   3.546   4.519  0.0035  0.1202 -0.6592
 8237SOL    HW136344   0.236   3.572   4.610 -0.3844 -0.4643 -0.4390
 8237SOL    HW236345   0.297   3.484   4.522 -0.3504 -0.3529 -1.8728
 8238SOL     OW36346   3.472   0.461   0.728  0.0610  0.6906  0.9098
 8238SOL    HW136347   3.523   0.513   0.666 -2.0512 -1.9187 -2.9822
 8238SOL    HW236348   3.522   0.480   0.808  1.8699 -0.3408  0.0332
 8239SOL     OW36349   3.404   0.659   8.243  0.0902  0.6161  0.0783
 8239SOL    HW136350   3.336   0.698   8.298 -1.6684 -2.2130 -0.1121
 8239SOL    HW236351   3.361   0.583   8.204  1.0804  0.5618 -0.9170
 8240SOL     OW36352   2.793   3.938   3.950 -0.1292 -0.0868 -0.1979
 8240SOL    HW136353   2.719   3.912   3.895  0.6230 -4.6555  0.9063
 8240SOL    HW236354   2.784   4.032   3.941  0.9403  0.1240  0.9408
 8241SOL     OW36355   3.431   2.597   5.718  0.3150 -0.2719 -0.0444
 8241SOL    HW136356   3.375   2.548   5.658  0.0151 -0.3520  0.3005
 8241SOL    HW236357   3.378   2.676   5.726  0.2824 -0.4493  1.4454
 8242SOL     OW36358   1.825   3.799   2.647  0.0961 -0.2908 -0.1713
 8242SOL    HW136359   1.849   3.709   2.665 -1.3758 -0.8888 -1.2339
 8242SOL    HW236360   1.865   3.814   2.561  0.4197 -1.2526 -0.1834
 8243SOL     OW36361   3.552   3.122   5.002 -0.0953 -0.5249  0.7890
 8243SOL    HW136362   3.579   3.205   5.042  0.9084 -0.7836  0.6611
 8243SOL    HW236363   3.554   3.150   4.911 -1.3809 -4.2465 -0.3840
 8244SOL     OW36364   3.394   1.297  16.537 -0.1299 -0.1285  0.2778
 8244SOL    HW136365   3.471   1.306  16.480  0.1857  0.0135  0.7247
 8244SOL    HW236366   3.375   1.203  16.534  1.7391 -0.3639 -4.0511
 8245SOL     OW36367   2.660   0.690  17.586  0.0562  0.2169  0.6407
 8245SOL    HW136368   2.589   0.672  17.648  0.7366 -0.2942  1.2806
 8245SOL    HW236369   2.632   0.625  17.522 -1.4521  1.1582  0.3550
 8246SOL     OW36370   2.588   1.969   6.157 -0.6529 -0.3629 -0.6709
 8246SOL    HW136371   2.634   2.033   6.103  2.1902 -0.1177  2.0356
 8246SOL    HW236372   2.605   2.013   6.240  1.8970  1.0711 -1.9613
 8247SOL     OW36373   0.897   2.958   5.547 -0.1094 -0.4744 -0.6414
 8247SOL    HW136374   0.804   2.943   5.563  0.2565 -1.2850  0.7219
 8247SOL    HW236375   0.896   2.958   5.451 -4.4936  0.5202 -0.5740
 8248SOL     OW36376   2.563   3.003   2.563 -0.1179 -0.3644  0.0484
 8248SOL    HW136377   2.601   2.937   2.504 -1.0489  0.7488 -1.7840
 8248SOL    HW236378   2.498   3.040   2.503 -1.8487 -0.8652  1.6235
 8249SOL     OW36379   2.028   3.145   9.431  1.2558 -0.2370 -0.1427
 8249SOL    HW136380   2.118   3.174   9.441  1.1397 -0.2908  1.0038
 8249SOL    HW236381   2.012   3.202   9.356  3.6674 -1.5764 -1.6815
 8250SOL     OW36382   3.715   1.000   9.564  0.4722  0.2661  0.1099
 8250SOL    HW136383   3.745   0.917   9.527 -1.5991 -1.0294  1.2993
 8250SOL    HW236384   3.711   1.051   9.483 -2.2176 -1.6419 -0.9828
 8251SOL     OW36385   4.383   2.674   4.424 -0.6305  0.2824 -0.0789
 8251SOL    HW136386   4.329   2.606   4.464  2.5483 -2.5393 -0.5165
 8251SOL    HW236387   4.379   2.658   4.330  2.2793  0.3413 -0.2260
 8252SOL     OW36388   2.073   1.027  17.402 -0.1036 -0.1599  0.0660
 8252SOL    HW136389   2.072   0.954  17.340 -0.0212  1.0002 -1.3120
 8252SOL    HW236390   2.054   0.985  17.486  0.1246 -1.4392 -0.5256
 8253SOL     OW36391   2.648   1.103   7.877 -0.4264  0.1472 -0.2745
 8253SOL    HW136392   2.708   1.176   7.861  1.9461 -1.4777  1.2238
 8253SOL    HW236393   2.698   1.040   7.929  0.8224 -0.8664 -2.7610
 8254SOL     OW36394   1.370   0.664   0.040 -0.0821 -0.1347 -0.3597
 8254SOL    HW136395   1.295   0.681   0.097 -1.5186  0.5799 -2.4983
 8254SOL    HW236396   1.438   0.679   0.106  0.4351  3.7922 -1.7468
 8255SOL     OW36397   3.140   3.531   1.243  0.0848  0.6048 -0.2505
 8255SOL    HW136398   3.064   3.588   1.232 -1.1272 -0.9996 -0.0379
 8255SOL    HW236399   3.166   3.507   1.154  1.0721 -2.6985  0.9282
 8256SOL     OW36400   3.772   3.364   8.521 -0.2626  0.1324  0.5840
 8256SOL    HW136401   3.686   3.388   8.486  0.8467  1.3881 -1.2720
 8256SOL    HW236402   3.790   3.436   8.582  0.2774  1.2488 -0.9119
 8257SOL     OW36403   2.788   3.995  15.262  0.1955  0.3597  0.1663
 8257SOL    HW136404   2.745   4.013  15.345  0.0956  0.7717  0.0282
 8257SOL    HW236405   2.880   4.010  15.282  0.5838 -2.6013  0.5655
 8258SOL     OW36406   1.134   4.168   7.924  0.0474  0.0329 -0.6982
 8258SOL    HW136407   1.163   4.121   7.846 -0.9937 -1.9894  0.1337
 8258SOL    HW236408   1.040   4.168   7.909 -0.0644  0.6650 -0.0111
 8259SOL     OW36409   3.106   0.495   5.673 -0.0206 -0.3682 -0.3030
 8259SOL    HW136410   3.081   0.427   5.610  0.7564  0.4850 -1.5215
 8259SOL    HW236411   3.200   0.490   5.653 -0.2216  1.6536 -1.7865
 8260SOL     OW36412   0.712   4.381   1.581 -0.4602  0.3032 -0.8758
 8260SOL    HW136413   0.691   4.389   1.488 -0.7614  0.5653 -0.7880
 8260SOL    HW236414   0.807   4.374   1.578 -0.4758  0.0241 -0.7524
 8261SOL     OW36415   2.282   2.387   2.902 -0.0894 -0.3896  0.0272
 8261SOL    HW136416   2.236   2.372   2.819  2.3749  1.3436 -1.6910
 8261SOL    HW236417   2.362   2.438   2.891  0.5203 -1.2268  0.5554
 8262SOL     OW36418   4.457   2.767  11.595  0.5231  0.0818  0.3871
 8262SOL    HW136419   4.461   2.862  11.589  0.9271  0.1246  1.3251
 8262SOL    HW236420   4.438   2.747  11.503  2.3363  0.8539 -0.1688
 8263SOL     OW36421   1.519   4.596  14.811  0.3386  0.6616 -0.2100
 8263SOL    HW136422   1.611   4.594  14.786  0.6339  0.1638  0.8955
 8263SOL    HW236423   1.485   4.645  14.737  3.0344  1.6168 -0.8004
 8264SOL     OW36424   3.773   0.385   8.027 -0.0407 -0.6430  0.0738
 8264SOL    HW136425   3.708   0.445   7.991 -0.1490 -0.9197 -0.1891
 8264SOL    HW236426   3.736   0.304   7.993  0.8311 -1.6119  1.4596
 8265SOL     OW36427   3.840   1.669   2.539 -0.1379 -0.2618  0.0408
 8265SOL    HW136428   3.927   1.646   2.572  0.8110  0.3982 -2.0306
 8265SOL    HW236429   3.853   1.713   2.455 -2.3232 -1.1321 -0.7622
 8266SOL     OW36430   3.467   1.674  16.530  0.3227 -0.4152 -0.3951
 8266SOL    HW136431   3.460   1.635  16.617  0.9346 -2.4177 -1.2451
 8266SOL    HW236432   3.540   1.735  16.542  0.2061 -0.6501  1.4935
 8267SOL     OW36433   1.003   4.694  16.126  0.0501 -0.0571  0.7785
 8267SOL    HW136434   0.943   4.620  16.120  2.0392 -1.7178  1.5090
 8267SOL    HW236435   1.010   4.716  16.219  0.4473 -1.4547  1.0675
 8268SOL     OW36436   1.122   4.038   6.262 -0.4800 -0.5913  0.3225
 8268SOL    HW136437   1.063   3.987   6.207  2.0249 -1.1100 -1.8198
 8268SOL    HW236438   1.164   4.093   6.196 -2.8909  1.4347  0.4407
 8269SOL     OW36439   3.274   4.408   2.742 -0.2487 -0.1630  0.2200
 8269SOL    HW136440   3.332   4.418   2.668 -2.6798  0.2926 -1.6273
 8269SOL    HW236441   3.321   4.436   2.821  1.4724  0.8293 -1.1684
 8270SOL     OW36442   4.275   1.632   3.766 -0.0012 -0.1046 -0.5636
 8270SOL    HW136443   4.287   1.538   3.780  3.4684  0.3466 -0.5050
 8270SOL    HW236444   4.272   1.637   3.670 -1.7010  2.7682 -0.3415
 8271SOL     OW36445   4.096   4.525   7.247  0.2072  0.0946 -0.1994
 8271SOL    HW136446   4.064   4.608   7.282  0.0153  0.7954 -2.0383
 8271SOL    HW236447   4.016   4.479   7.221 -0.3068  1.4945 -1.0738
 8272SOL     OW36448   1.624   0.188   6.611  0.4083 -0.1760 -0.1686
 8272SOL    HW136449   1.558   0.120   6.598  1.3676 -0.8312 -1.7247
 8272SOL    HW236450   1.614   0.198   6.705 -0.2871 -2.7530  0.0468
 8273SOL     OW36451   2.673   3.254   8.721  0.3875  0.2069 -0.3821
 8273SOL    HW136452   2.735   3.184   8.739  1.7873  1.4739 -0.2893
 8273SOL    HW236453   2.711   3.293   8.642 -1.4163  0.8527 -0.9501
 8274SOL     OW36454   0.357   1.074  17.644 -0.1513 -0.1089 -0.5367
 8274SOL    HW136455   0.421   1.122  17.591  2.2473 -1.4736  1.1365
 8274SOL    HW236456   0.302   1.149  17.668 -1.4721 -0.7679 -1.4924
 8275SOL     OW36457   0.055   1.874  11.480  0.4357 -0.0486 -0.1495
 8275SOL    HW136458   0.103   1.956  11.475 -0.4333  0.5176  0.6483
 8275SOL    HW236459   0.022   1.850  11.394  0.7790 -1.1854  0.0289
 8276SOL     OW36460   1.115   4.704   2.777  0.3813  0.5356  0.2382
 8276SOL    HW136461   1.038   0.022   2.765  0.4651  0.4583 -0.6882
 8276SOL    HW236462   1.069   4.626   2.808 -1.5546  1.6811  0.2572
 8277SOL     OW36463   2.773   3.656   1.686  0.2968 -0.2159  0.1070
 8277SOL    HW136464   2.767   3.581   1.745  0.1332 -0.9085 -0.7979
 8277SOL    HW236465   2.740   3.604   1.613 -1.0559  1.1073 -0.2312
 8278SOL     OW36466   0.911   2.982   7.889  0.1145  0.2325 -0.2201
 8278SOL    HW136467   0.831   3.014   7.847 -1.9536 -0.9706  2.7393
 8278SOL    HW236468   0.877   2.955   7.975 -1.4423  0.7718 -0.6630
 8279SOL     OW36469   0.489   4.354   0.330  0.3449 -0.2202  0.2567
 8279SOL    HW136470   0.480   4.387   0.419  0.6829  1.2504 -0.2522
 8279SOL    HW236471   0.504   4.435   0.281  1.8066  0.3272  1.6303
 8280SOL     OW36472   2.617   0.678   5.591  0.4363  0.4083 -0.1092
 8280SOL    HW136473   2.685   0.668   5.524  1.7806 -0.3340  1.3639
 8280SOL    HW236474   2.562   0.600   5.592  2.1025 -0.7903 -1.0778
 8281SOL     OW36475   2.735   4.273   7.131 -0.1426 -0.6303  0.5079
 8281SOL    HW136476   2.679   4.306   7.061  0.9014 -1.1152 -0.5567
 8281SOL    HW236477   2.678   4.232   7.195  0.8755 -0.8800  1.2474
 8282SOL     OW36478   3.006   4.657   2.213  0.1702 -0.2417 -0.0050
 8282SOL    HW136479   2.967   4.732   2.167  0.6450 -0.8503 -1.3906
 8282SOL    HW236480   2.990   4.687   2.303 -0.4739 -0.9358  0.1110
 8283SOL     OW36481   0.276   2.688   7.366  0.1148  0.5913  0.2444
 8283SOL    HW136482   0.184   2.661   7.366  0.6473 -1.1604  1.2271
 8283SOL    HW236483   0.291   2.704   7.273  0.8656 -2.5068 -0.1591
 8284SOL     OW36484   3.034   3.997  15.377  0.6448  0.3984 -0.1868
 8284SOL    HW136485   3.037   3.945  15.457 -1.1130  0.8154  0.1578
 8284SOL    HW236486   3.106   3.969  15.322  1.6650 -0.1735  1.4264
 8285SOL     OW36487   4.488   2.064   8.297 -0.2508  0.4193 -0.4154
 8285SOL    HW136488   4.499   1.996   8.363 -0.9006  0.1357 -0.6040
 8285SOL    HW236489   4.460   2.137   8.353  0.4324  2.3039 -2.5291
 8286SOL     OW36490   3.483   1.874  10.726 -0.3227 -0.0940 -0.0937
 8286SOL    HW136491   3.515   1.889  10.816 -0.2146 -1.2544  0.0608
 8286SOL    HW236492   3.430   1.798  10.750 -1.0234  0.0561 -1.1792
 8287SOL     OW36493   2.122   3.945   5.939  0.0549 -0.5072  0.5176
 8287SOL    HW136494   2.115   3.947   5.844 -1.2361 -1.3881  0.6001
 8287SOL    HW236495   2.217   3.958   5.950 -0.4215  4.3805 -1.3276
 8288SOL     OW36496   3.781   1.520  13.360  0.4428  0.5146  0.1841
 8288SOL    HW136497   3.809   1.477  13.441  0.4672 -0.8699 -0.5471
 8288SOL    HW236498   3.705   1.465  13.339  1.1755 -1.2478  2.1071
 8289SOL     OW36499   2.426   3.407  13.547  0.3895  0.4041  0.0992
 8289SOL    HW136500   2.463   3.367  13.626  1.2027 -0.0524 -0.5155
 8289SOL    HW236501   2.408   3.494  13.581  1.7057  0.4617  0.6435
 8290SOL     OW36502   1.601   0.491   9.100  0.1417 -0.3961 -0.2625
 8290SOL    HW136503   1.586   0.432   9.026  1.5664  0.3402 -1.1190
 8290SOL    HW236504   1.613   0.427   9.170  1.1012 -0.6237 -0.6361
 8291SOL     OW36505   0.990   3.658   4.246 -0.1203 -0.1036  0.2607
 8291SOL    HW136506   1.063   3.720   4.257 -1.0405  1.4253 -2.0689
 8291SOL    HW236507   0.927   3.725   4.219  0.2186 -0.2416 -0.8758
 8292SOL     OW36508   2.885   0.218  11.669  0.4253  0.6514  0.2748
 8292SOL    HW136509   2.803   0.168  11.659  0.7092 -0.6165  4.1021
 8292SOL    HW236510   2.942   0.141  11.665 -0.3466 -0.0412  2.1235
 8293SOL     OW36511   3.222   0.588   7.438 -0.4622  0.1867  0.4986
 8293SOL    HW136512   3.238   0.520   7.503 -0.8331 -1.7179 -1.3932
 8293SOL    HW236513   3.249   0.667   7.486 -0.7158 -1.2188  2.9554
 8294SOL     OW36514   4.079   1.339   5.572  0.5366 -0.6249 -0.2247
 8294SOL    HW136515   4.150   1.277   5.584  0.6265 -0.0561  2.2808
 8294SOL    HW236516   4.096   1.370   5.483  1.9673  0.2845  0.3620
 8295SOL     OW36517   2.009   0.721   3.918 -0.4190  0.2966  0.1139
 8295SOL    HW136518   2.042   0.775   3.847 -0.5113  0.6965  0.3749
 8295SOL    HW236519   2.057   0.762   3.989  4.1337 -1.9378 -1.6660
 8296SOL     OW36520   1.789   1.762   7.505  0.6589  0.0298  0.1960
 8296SOL    HW136521   1.773   1.784   7.596  0.8098 -0.6082  0.3762
 8296SOL    HW236522   1.767   1.669   7.494 -0.7623  0.1911  1.7774
 8297SOL     OW36523   4.635   3.205   0.044  0.2052 -0.9578 -0.6023
 8297SOL    HW136524   4.659   3.239  17.704  1.1882  0.5927  0.2794
 8297SOL    HW236525   4.545   3.237   0.053  0.5242 -0.0811 -0.5151
 8298SOL     OW36526   1.639   1.731   2.087 -0.0260  0.0641 -0.3438
 8298SOL    HW136527   1.592   1.812   2.106  0.4003  0.1775  0.2123
 8298SOL    HW236528   1.644   1.692   2.174 -1.8295  0.5650 -0.0177
 8299SOL     OW36529   0.470   2.710   7.131  0.0169 -0.5105  0.3191
 8299SOL    HW136530   0.528   2.674   7.199 -0.2097 -1.3092  0.0985
 8299SOL    HW236531   0.491   2.642   7.066  1.9617  0.9344 -0.5539
 8300SOL     OW36532   1.257   2.182   2.401 -0.1975  0.1421  0.1427
 8300SOL    HW136533   1.287   2.091   2.402  0.9365  0.5072 -0.3274
 8300SOL    HW236534   1.341   2.228   2.399  0.2561 -0.6412  1.2416
 8301SOL     OW36535   1.676   0.130  17.485 -0.5033  0.4897 -0.2285
 8301SOL    HW136536   1.692   0.223  17.503 -0.4737  0.1953  1.3174
 8301SOL    HW236537   1.758   0.097  17.522  0.0503 -0.3697 -2.2589
 8302SOL     OW36538   2.454   1.225   8.071 -0.1655  0.4877  0.2718
 8302SOL    HW136539   2.492   1.166   8.007 -0.3227  0.3739  0.2808
 8302SOL    HW236540   2.502   1.192   8.147  1.3351 -0.4535 -1.0825
 8303SOL     OW36541   3.871   0.906   5.962  0.5886 -0.2726  0.5727
 8303SOL    HW136542   3.910   0.948   5.885 -1.4949  0.5618 -0.0486
 8303SOL    HW236543   3.792   0.960   5.974 -0.0508 -1.5804  2.1389
 8304SOL     OW36544   0.479   2.706   9.941  0.4977 -0.3590  0.2814
 8304SOL    HW136545   0.558   2.656   9.925  0.3669 -0.8887  1.2742
 8304SOL    HW236546   0.510   2.791   9.973 -1.1015  0.8814 -1.4777
 8305SOL     OW36547   3.329   4.228  10.267  0.1277 -0.2406 -0.6390
 8305SOL    HW136548   3.405   4.181  10.233  0.3763 -0.0552 -0.3426
 8305SOL    HW236549   3.335   4.196  10.357 -0.4224 -0.2311 -0.5988
 8306SOL     OW36550   3.586   2.054  13.565  0.2998 -0.5209  0.5895
 8306SOL    HW136551   3.581   2.114  13.640  2.2670 -0.6742  0.8430
 8306SOL    HW236552   3.574   2.121  13.499  0.1589 -1.3776 -0.2529
 8307SOL     OW36553   4.524   3.184   4.363  0.3121  0.1692 -0.9871
 8307SOL    HW136554   4.485   3.214   4.445  0.0132 -2.2677 -0.2402
 8307SOL    HW236555   4.452   3.149   4.311 -0.6390  0.6541 -0.0157
 8308SOL     OW36556   2.979   2.201   5.466 -0.2965 -0.6888 -0.1753
 8308SOL    HW136557   2.947   2.285   5.433 -1.1406 -1.4241 -1.2393
 8308SOL    HW236558   3.025   2.226   5.546 -1.1856  0.6061 -0.0823
 8309SOL     OW36559   1.378   1.633  16.571 -0.1807 -0.0483  0.2582
 8309SOL    HW136560   1.422   1.663  16.651  0.5615  0.7382 -0.4465
 8309SOL    HW236561   1.433   1.672  16.504  0.0721 -2.0891 -0.7183
 8310SOL     OW36562   1.378   2.006   1.299  0.4679 -0.0353 -0.1778
 8310SOL    HW136563   1.327   2.018   1.219 -1.3338  0.3715  1.0266
 8310SOL    HW236564   1.302   1.998   1.357 -1.3179 -0.3637 -2.5956
 8311SOL     OW36565   2.704   1.589  11.997 -0.7807 -0.1848  0.3286
 8311SOL    HW136566   2.731   1.515  11.942 -2.4340 -2.2261  2.2804
 8311SOL    HW236567   2.619   1.555  12.024 -0.4083 -1.0763  0.3903
 8312SOL     OW36568   0.552   3.425   0.505 -0.0828 -0.2923 -0.5749
 8312SOL    HW136569   0.619   3.356   0.518  0.9747  0.5378 -1.6335
 8312SOL    HW236570   0.555   3.474   0.587 -1.5725  0.3486 -0.9113
 8313SOL     OW36571   1.437   0.114  15.266 -0.2768  0.1969  0.2621
 8313SOL    HW136572   1.389   0.033  15.254  0.9462 -0.5610  0.4918
 8313SOL    HW236573   1.509   0.093  15.326  0.1914 -2.2419 -1.1625
 8314SOL     OW36574   4.591   1.190   5.722  0.3283  0.0913  0.7754
 8314SOL    HW136575   4.563   1.194   5.814 -1.0806 -0.0318  0.3541
 8314SOL    HW236576   4.679   1.223   5.740  0.5127 -0.3514  0.6942
 8315SOL     OW36577   2.265   1.057   4.702 -0.6487  0.7467  0.3736
 8315SOL    HW136578   2.174   1.049   4.674 -0.6295 -1.9767  1.1470
 8315SOL    HW236579   2.298   1.115   4.633  2.6845 -0.8258  0.6714
 8316SOL     OW36580   2.771   3.280   8.474  0.4022 -0.6391  0.1292
 8316SOL    HW136581   2.805   3.348   8.416 -0.8892  2.1532  2.6772
 8316SOL    HW236582   2.721   3.229   8.411  2.0862 -0.5338 -1.2987
 8317SOL     OW36583   4.673   3.351  13.913 -0.5050 -0.4167 -0.1144
 8317SOL    HW136584   4.589   3.307  13.902 -1.0970  1.2001 -1.9554
 8317SOL    HW236585   4.732   3.276  13.919  0.9792  0.5975 -1.8605
 8318SOL     OW36586   3.024   4.295   2.040 -0.0015  0.0689 -0.0158
 8318SOL    HW136587   3.117   4.281   2.060 -0.2332 -2.2158 -0.6299
 8318SOL    HW236588   3.026   4.317   1.947 -0.1776  0.2620  0.0264
 8319SOL     OW36589   0.702   0.649   2.118  0.6239  0.2287  0.2166
 8319SOL    HW136590   0.763   0.619   2.050 -1.1301 -1.8703 -0.4401
 8319SOL    HW236591   0.727   0.605   2.199  1.1994 -0.4039 -0.3023
 8320SOL     OW36592   0.737   1.198   2.799  0.2270 -0.3490  0.0796
 8320SOL    HW136593   0.832   1.187   2.790  0.3106 -0.1792  0.7910
 8320SOL    HW236594   0.712   1.168   2.711  3.0606 -1.1619 -0.4470
 8321SOL     OW36595   3.255   0.390  12.148 -0.3299 -0.2310  0.2837
 8321SOL    HW136596   3.190   0.352  12.089 -1.1192 -0.0843  1.0562
 8321SOL    HW236597   3.265   0.322  12.215 -1.9243 -0.7935 -0.0513
 8322SOL     OW36598   4.206   1.894  12.724 -0.1780  0.3358 -0.6594
 8322SOL    HW136599   4.272   1.924  12.661 -0.4559 -1.1602 -1.6530
 8322SOL    HW236600   4.226   1.800  12.729  1.0344  0.4672 -3.1621
 8323SOL     OW36601   0.522   3.622  13.225  0.2293  0.3748 -1.1316
 8323SOL    HW136602   0.512   3.704  13.179  0.9427  0.6871 -0.7296
 8323SOL    HW236603   0.555   3.643  13.312 -0.8681 -0.6734 -0.4502
 8324SOL     OW36604   2.247   1.998  16.455 -0.2740 -0.1315  0.2280
 8324SOL    HW136605   2.269   1.936  16.386 -1.8376 -1.9171  1.3231
 8324SOL    HW236606   2.294   2.073  16.418  0.7412 -1.4531 -1.1698
 8325SOL     OW36607   1.277   1.923   6.213 -0.0257 -0.3990 -0.8609
 8325SOL    HW136608   1.331   1.907   6.290  1.3306 -0.4539 -1.8283
 8325SOL    HW236609   1.346   1.924   6.147  0.6461 -4.3307 -0.2197
 8326SOL     OW36610   3.244   3.399   2.460 -0.6672 -0.0416  0.0997
 8326SOL    HW136611   3.149   3.404   2.471 -0.3910 -2.3513  3.4970
 8326SOL    HW236612   3.255   3.308   2.430 -1.5958 -0.0186 -0.2979
 8327SOL     OW36613   3.445   2.636   0.623  0.6122  0.3778 -0.4502
 8327SOL    HW136614   3.447   2.677   0.710 -0.8656 -1.1359  0.3093
 8327SOL    HW236615   3.537   2.615   0.611  0.6708  1.1290 -1.2903
 8328SOL     OW36616   3.455   1.312  14.458  0.0392 -0.1115  0.0230
 8328SOL    HW136617   3.481   1.326  14.366  0.3880 -1.3340 -0.0747
 8328SOL    HW236618   3.535   1.305  14.511  0.0167 -1.1211 -0.0670
 8329SOL     OW36619   3.525   1.786   2.521 -0.2442  0.1410  0.1949
 8329SOL    HW136620   3.476   1.743   2.451  1.7261  1.8640 -2.2463
 8329SOL    HW236621   3.611   1.744   2.514 -1.4688 -1.9797 -2.0654
 8330SOL     OW36622   2.548   2.861   8.368  0.2967  0.2344  0.0113
 8330SOL    HW136623   2.582   2.860   8.278 -1.4801 -0.1344 -0.6461
 8330SOL    HW236624   2.578   2.945   8.403  0.6755 -0.0702  0.4086
 8331SOL     OW36625   3.941   1.684  12.716  0.2208  0.3061 -0.0820
 8331SOL    HW136626   3.958   1.594  12.742  2.5468  1.0310  0.8942
 8331SOL    HW236627   4.011   1.700  12.653  1.3449 -1.7975  0.6759
 8332SOL     OW36628   1.237   4.101   7.178  0.2503 -0.1235 -0.2820
 8332SOL    HW136629   1.223   4.151   7.097 -0.7502  2.4071  1.4742
 8332SOL    HW236630   1.188   4.020   7.161 -0.1515  0.2342 -0.8485
 8333SOL     OW36631   1.992   0.272   1.832  0.6815 -0.1255 -0.5972
 8333SOL    HW136632   2.079   0.300   1.804  1.2773  0.0504  1.4779
 8333SOL    HW236633   2.011   0.180   1.853 -0.0252  0.2757  1.7885
 8334SOL     OW36634   0.820   1.576   4.869 -0.1567  0.1239  0.1306
 8334SOL    HW136635   0.752   1.642   4.882 -1.6306 -1.2718 -0.5118
 8334SOL    HW236636   0.861   1.601   4.787  1.2419 -1.0740  0.4530
 8335SOL     OW36637   3.904   1.627   7.302 -0.1470 -0.6484 -0.3817
 8335SOL    HW136638   3.946   1.686   7.365 -0.2686  0.7475 -1.6151
 8335SOL    HW236639   3.822   1.614   7.351 -0.8850 -0.4102 -1.5762
 8336SOL     OW36640   4.346   2.395   6.237  0.5955 -1.1300 -0.1476
 8336SOL    HW136641   4.286   2.364   6.169 -0.7373  1.2987 -0.0905
 8336SOL    HW236642   4.415   2.335   6.211  0.9318 -0.7257 -0.1879
 8337SOL     OW36643   0.370   0.629   6.979  0.1089  0.0986  0.8030
 8337SOL    HW136644   0.276   0.630   6.960  0.2187 -3.1467  0.1854
 8337SOL    HW236645   0.395   0.621   6.887  0.6572 -1.3737  1.0869
 8338SOL     OW36646   3.800   1.699   4.826 -0.0812 -0.1612  0.0976
 8338SOL    HW136647   3.788   1.758   4.752  2.6341  0.8574  0.4718
 8338SOL    HW236648   3.706   1.694   4.846  0.1047 -2.0034  0.5164
 8339SOL     OW36649   1.547   0.005  11.555 -0.1768  0.0907  0.2246
 8339SOL    HW136650   1.571   4.701  11.471  1.1018 -1.0007  1.1121
 8339SOL    HW236651   1.603   4.698  11.619 -1.1748 -1.3453  0.1286
 8340SOL     OW36652   1.225   2.945   7.394  0.0807 -0.1644  0.6392
 8340SOL    HW136653   1.286   2.872   7.403  0.3782  0.0949  0.6991
 8340SOL    HW236654   1.251   3.009   7.460  0.9665  1.7225 -1.5516
 8341SOL     OW36655   2.309   2.035   1.765  0.0401  0.3000 -0.1646
 8341SOL    HW136656   2.320   2.046   1.671 -0.6828  0.6397 -0.2110
 8341SOL    HW236657   2.233   2.091   1.780 -1.3917 -1.6007 -0.4186
 8342SOL     OW36658   0.161   2.097   0.002 -0.1685 -0.1892 -0.2194
 8342SOL    HW136659   0.182   2.129  17.660  3.5865  1.4132  1.2777
 8342SOL    HW236660   0.073   2.136   0.005 -0.7926 -1.8403  2.0033
 8343SOL     OW36661   3.577   3.779   2.072  0.4592 -0.3336  0.3912
 8343SOL    HW136662   3.577   3.843   2.001  0.1707 -1.9274 -1.0375
 8343SOL    HW236663   3.567   3.696   2.026 -0.7220  1.1941 -2.1618
 8344SOL     OW36664   4.721   3.302   6.520  0.4737  0.3017  0.0677
 8344SOL    HW136665   0.050   3.250   6.473  0.1151  0.5209 -0.6687
 8344SOL    HW236666   4.712   3.375   6.460 -0.2194 -0.7104 -1.0478
 8345SOL     OW36667   2.434   3.482   1.446  0.3067  0.2318 -0.1309
 8345SOL    HW136668   2.445   3.390   1.424  0.6247  0.5399 -1.2494
 8345SOL    HW236669   2.384   3.477   1.528 -0.9955  2.6385 -0.7594
 8346SOL     OW36670   4.687   3.547   8.169 -0.2738 -0.7765  0.6071
 8346SOL    HW136671   4.621   3.550   8.100  0.1074 -1.2989  0.2124
 8346SOL    HW236672   0.015   3.613   8.143 -2.7233  0.7365 -1.6836
 8347SOL     OW36673   0.800   3.906   6.305 -0.4622 -0.0049 -0.5610
 8347SOL    HW136674   0.780   3.971   6.372 -1.1826 -1.0801  0.2445
 8347SOL    HW236675   0.868   3.857   6.351  0.1886  1.0161 -0.4293
 8348SOL     OW36676   1.423   0.653   8.954  0.9749 -0.2069  0.4549
 8348SOL    HW136677   1.338   0.617   8.979  1.7252 -1.3931  1.2577
 8348SOL    HW236678   1.472   0.601   9.017  1.4815 -0.8792 -0.4944
 8349SOL     OW36679   2.318   2.361   4.085  0.2254 -0.0443  0.0163
 8349SOL    HW136680   2.285   2.284   4.132  0.3434  0.2090  0.5120
 8349SOL    HW236681   2.316   2.432   4.149  0.3655 -1.5170  1.6598
 8350SOL     OW36682   0.504   2.569   4.557 -0.6337 -0.2349 -0.2485
 8350SOL    HW136683   0.453   2.490   4.576  2.5242 -1.9060  1.3202
 8350SOL    HW236684   0.592   2.531   4.559 -0.2045  0.7299 -1.2573
 8351SOL     OW36685   2.612   0.831  14.732 -0.0343 -0.1803 -0.1713
 8351SOL    HW136686   2.559   0.861  14.658  1.0171 -1.5282 -1.4583
 8351SOL    HW236687   2.632   0.742  14.702  3.3970  0.4321  0.2680
 8352SOL     OW36688   0.140   3.134   9.205 -0.6974  0.1050 -0.0272
 8352SOL    HW136689   0.141   3.071   9.133 -1.7134 -0.7079  0.6618
 8352SOL    HW236690   0.203   3.098   9.268  0.8276  3.1108  0.1572
 8353SOL     OW36691   1.950   1.319   2.076  0.0563 -0.2553 -0.6010
 8353SOL    HW136692   1.920   1.245   2.128 -3.7346  1.6012 -0.1202
 8353SOL    HW236693   1.867   1.362   2.055  1.9651  2.8968 -1.8853
 8354SOL     OW36694   3.940   0.666  12.152 -0.1208 -0.1763 -0.1380
 8354SOL    HW136695   3.854   0.676  12.193  0.3226 -0.2121  0.7999
 8354SOL    HW236696   3.999   0.684  12.225  2.2477 -1.6821 -1.6748
 8355SOL     OW36697   3.415   0.900   6.868  0.1137  0.2945  0.0882
 8355SOL    HW136698   3.460   0.819   6.892 -0.0197 -1.0036 -4.1244
 8355SOL    HW236699   3.429   0.919   6.775  2.3793  0.8511  0.5420
 8356SOL     OW36700   0.013   2.038   7.727 -0.5289 -0.1294  0.9311
 8356SOL    HW136701   0.079   1.993   7.779 -0.5442 -1.5869 -0.3012
 8356SOL    HW236702   0.067   2.114   7.705  1.4823 -1.7182  0.2898
 8357SOL     OW36703   2.379   0.196   5.297  0.5985 -0.5430 -0.1263
 8357SOL    HW136704   2.338   0.222   5.214  0.4066  0.9914  0.4617
 8357SOL    HW236705   2.348   0.105   5.295 -0.0498 -0.2808 -1.8345
 8358SOL     OW36706   4.401   0.894   4.077  0.1867  0.1607  0.5437
 8358SOL    HW136707   4.395   0.969   4.018  2.4606 -0.2145 -0.1749
 8358SOL    HW236708   4.313   0.883   4.112 -1.1652  1.3409 -2.4474
 8359SOL     OW36709   0.780   1.338   3.729 -0.7423 -0.0748  0.2394
 8359SOL    HW136710   0.873   1.330   3.751 -1.0571 -2.0337  0.8794
 8359SOL    HW236711   0.785   1.346   3.634  3.2409 -1.0866  0.3717
 8360SOL     OW36712   3.291   4.517   1.893 -0.3338  0.0509 -0.8903
 8360SOL    HW136713   3.213   4.462   1.892  0.8080 -1.5542 -0.8515
 8360SOL    HW236714   3.345   4.470   1.830 -1.3239 -1.1963 -0.8017
 8361SOL     OW36715   0.192   0.074   7.485 -0.2503 -0.0297 -0.3110
 8361SOL    HW136716   0.152   0.081   7.571  2.3354 -0.6414  0.9526
 8361SOL    HW236717   0.219   0.165   7.477  0.3375 -0.2300 -0.6990
 8362SOL     OW36718   2.647   0.620   4.308  0.1064  0.4001  0.0057
 8362SOL    HW136719   2.615   0.530   4.305  1.9176 -0.2091 -1.0955
 8362SOL    HW236720   2.652   0.631   4.403  1.6718  0.3392 -0.0713
 8363SOL     OW36721   2.774   1.001  16.474 -0.1810 -0.3329  0.4277
 8363SOL    HW136722   2.760   1.095  16.465 -1.5351 -0.4005  1.7813
 8363SOL    HW236723   2.815   1.004  16.561 -1.4621 -1.8265  1.0795
 8364SOL     OW36724   1.003   2.174   6.958 -0.1698  0.1750  0.5232
 8364SOL    HW136725   0.981   2.266   6.945  0.5149  0.5002  1.6880
 8364SOL    HW236726   1.093   2.175   6.991  0.4842  0.3196 -1.2348
 8365SOL     OW36727   1.488   2.098   9.077 -0.3257  0.2382 -0.0409
 8365SOL    HW136728   1.583   2.096   9.065 -0.2019 -3.2207  1.2712
 8365SOL    HW236729   1.470   2.191   9.069  1.1770  0.6171  0.8864
 8366SOL     OW36730   0.383   1.478   7.642  0.1733  0.2640 -0.6729
 8366SOL    HW136731   0.356   1.447   7.728  0.8621  2.9454  0.5097
 8366SOL    HW236732   0.447   1.547   7.659  0.2469  0.4255 -1.6056
 8367SOL     OW36733   0.101   3.663   5.641  0.1085  0.3269 -0.1956
 8367SOL    HW136734   0.099   3.569   5.620  2.3387 -0.1139  1.5439
 8367SOL    HW236735   0.027   3.700   5.593  0.9505  2.2849  0.0224
 8368SOL     OW36736   1.917   2.865   5.075  0.5667 -0.1202 -0.2558
 8368SOL    HW136737   2.004   2.832   5.100  0.0016 -2.1267 -0.9474
 8368SOL    HW236738   1.878   2.894   5.158  2.1005 -0.5087  0.5989
 8369SOL     OW36739   3.236   0.029   3.357 -0.0971  0.2582  0.6089
 8369SOL    HW136740   3.175   0.074   3.299 -0.7371 -1.8933 -0.3795
 8369SOL    HW236741   3.174   4.736   3.424 -1.5884  1.9782  0.0065
 8370SOL     OW36742   3.585   3.432   5.385 -0.2824 -0.4027 -0.2268
 8370SOL    HW136743   3.615   3.363   5.445  1.4507  0.8201  0.2820
 8370SOL    HW236744   3.655   3.495   5.396  1.1644 -1.9957 -0.3066
 8371SOL     OW36745   4.729   0.122   5.309 -0.1948  0.1143 -0.3240
 8371SOL    HW136746   4.667   0.133   5.381 -1.2905 -0.4249 -1.1839
 8371SOL    HW236747   0.001   0.027   5.318 -0.9135  0.0557 -0.2020
 8372SOL     OW36748   2.133   4.683   8.992 -0.2760  0.3055  0.3095
 8372SOL    HW136749   2.113   4.617   8.926 -1.7926  1.2822 -0.2183
 8372SOL    HW236750   2.067   0.016   8.986  0.3568  0.7535 -1.4114
 8373SOL     OW36751   0.957   0.459   9.166  0.9230 -0.0704  0.2134
 8373SOL    HW136752   0.994   0.428   9.249 -0.6045  0.4891  1.0863
 8373SOL    HW236753   0.865   0.470   9.190  0.7711 -1.2690  0.1463
 8374SOL     OW36754   2.944   1.345   5.942  0.2800  0.1949 -0.0818
 8374SOL    HW136755   2.956   1.270   5.884 -4.6176  0.7001 -1.7559
 8374SOL    HW236756   2.884   1.384   5.878 -0.1586  0.0140  0.2271
 8375SOL     OW36757   1.972   1.696   6.663 -0.3638  0.5514 -0.1755
 8375SOL    HW136758   1.928   1.775   6.633  2.3686  1.9551 -0.4842
 8375SOL    HW236759   2.060   1.716   6.633 -0.3563 -1.1526 -1.3301
 8376SOL     OW36760   3.092   4.599  10.078  0.3399  0.1285 -0.0669
 8376SOL    HW136761   3.175   4.551  10.074 -0.5008 -1.1780 -1.4085
 8376SOL    HW236762   3.035   4.540  10.127 -0.9086  0.4160 -1.1858
 8377SOL     OW36763   1.571   2.574   1.429 -0.3457  0.3391  0.3043
 8377SOL    HW136764   1.620   2.654   1.445  0.0664  0.0971  0.2375
 8377SOL    HW236765   1.533   2.603   1.346 -0.8409 -1.7738 -0.1905
 8378SOL     OW36766   4.003   1.783   6.109  0.1974 -0.6070 -0.1954
 8378SOL    HW136767   3.922   1.733   6.123 -0.1331 -0.3454 -1.1191
 8378SOL    HW236768   4.051   1.751   6.185  0.5833 -0.3586 -0.3325
 8379SOL     OW36769   1.035   3.355  14.289  0.7310  0.2675 -0.4417
 8379SOL    HW136770   0.981   3.397  14.223  0.4169 -0.8015 -0.8629
 8379SOL    HW236771   1.011   3.398  14.371  0.5920 -0.9335  0.1520
 8380SOL     OW36772   4.700   2.394   3.229 -0.6757 -0.1322  0.5946
 8380SOL    HW136773   4.664   2.372   3.315 -1.3845 -0.2384  0.2726
 8380SOL    HW236774   4.687   2.312   3.182 -0.3182  0.8980 -1.3051
 8381SOL     OW36775   0.955   2.266   0.455  0.4153  0.7327  0.3075
 8381SOL    HW136776   0.927   2.336   0.396  0.6728  0.1524 -0.4953
 8381SOL    HW236777   0.877   2.211   0.461  1.2873 -0.4463  0.8678
 8382SOL     OW36778   0.795   2.552  11.134  0.6492  0.4337 -0.0795
 8382SOL    HW136779   0.720   2.607  11.114  1.0942  0.4373 -1.7472
 8382SOL    HW236780   0.747   2.469  11.138 -2.2881  2.0698 -1.0614
 8383SOL     OW36781   1.647   4.029   2.454 -0.6809  0.0984 -0.5400
 8383SOL    HW136782   1.684   4.032   2.365  0.5042  2.0144 -0.0048
 8383SOL    HW236783   1.559   3.995   2.444 -1.4062  1.4690  1.1970
 8384SOL     OW36784   2.786   1.563  14.535  0.1287  0.3145 -0.1266
 8384SOL    HW136785   2.757   1.603  14.617 -0.7661  1.1527 -0.8602
 8384SOL    HW236786   2.704   1.559  14.486 -0.9085  0.7384  1.5401
 8385SOL     OW36787   0.587   1.936   2.631 -0.0388  0.2588  0.2200
 8385SOL    HW136788   0.612   1.917   2.721 -0.1927 -1.0127 -0.0135
 8385SOL    HW236789   0.648   2.007   2.611  0.2024 -0.1187 -0.3618
 8386SOL     OW36790   0.642   3.760   6.625  0.2096  0.6458 -0.0019
 8386SOL    HW136791   0.645   3.848   6.662 -0.8371  0.4106  0.6557
 8386SOL    HW236792   0.683   3.774   6.540  2.7230 -0.6944  0.9734
 8387SOL     OW36793   3.780   2.128   2.105 -0.6447  0.0481  0.6610
 8387SOL    HW136794   3.706   2.189   2.100  1.4759  2.9106  3.7431
 8387SOL    HW236795   3.853   2.188   2.122  0.9056 -1.7216  0.2761
 8388SOL     OW36796   1.345   4.626   3.368 -0.1357  0.4794  0.4130
 8388SOL    HW136797   1.352   4.712   3.410 -1.5458  0.8249 -0.0807
 8388SOL    HW236798   1.280   4.585   3.424 -0.1305  1.1420  0.9033
 8389SOL     OW36799   1.165   1.536  15.423 -0.3679 -0.3598 -0.6746
 8389SOL    HW136800   1.258   1.555  15.436 -0.6625  0.6588 -0.0702
 8389SOL    HW236801   1.126   1.610  15.469 -1.0346 -0.9292 -0.3198
 8390SOL     OW36802   0.975   4.390   5.785 -0.5156 -0.2954 -0.2501
 8390SOL    HW136803   1.029   4.412   5.710  0.1635 -3.2099 -0.6106
 8390SOL    HW236804   0.906   4.456   5.773  0.7721  0.9807 -0.6608
 8391SOL     OW36805   1.601   4.644   2.092 -0.4296 -0.3570  0.0224
 8391SOL    HW136806   1.583   4.573   2.031 -1.1824  0.7280 -1.0022
 8391SOL    HW236807   1.692   4.665   2.069 -0.0543 -0.3220  1.5079
 8392SOL     OW36808   3.045   3.325   8.921  0.5383 -0.3954 -0.0027
 8392SOL    HW136809   3.097   3.406   8.924 -0.4917  0.3243 -1.8893
 8392SOL    HW236810   2.961   3.350   8.959  1.1177  0.6245  0.6112
 8393SOL     OW36811   4.135   1.457   9.235  0.0215  0.5264 -0.0939
 8393SOL    HW136812   4.213   1.510   9.224  0.7654 -0.1763  1.8557
 8393SOL    HW236813   4.169   1.376   9.197  1.4134  0.8886  0.3986
 8394SOL     OW36814   4.598   3.607   9.877 -0.4935  0.3116 -0.3227
 8394SOL    HW136815   4.634   3.604   9.966  0.3214  1.9837 -0.5954
 8394SOL    HW236816   4.670   3.594   9.815  1.0447  0.9222  1.3254
 8395SOL     OW36817   3.054   3.327   1.602 -0.1754  0.5204  0.6990
 8395SOL    HW136818   3.103   3.394   1.554 -0.1626  1.2884  1.7803
 8395SOL    HW236819   3.028   3.372   1.682 -2.0032  0.9908 -0.1670
 8396SOL     OW36820   1.084   2.053   0.028 -0.0890 -0.3083 -0.0422
 8396SOL    HW136821   1.163   2.101   0.001 -0.4038  0.1685 -0.1179
 8396SOL    HW236822   1.090   1.971  17.725  2.8906 -0.5487  0.7185
 8397SOL     OW36823   2.209   2.071   9.634  0.3479 -0.3808 -0.9644
 8397SOL    HW136824   2.116   2.089   9.621  0.1758 -0.6298 -0.0551
 8397SOL    HW236825   2.201   1.979   9.656  0.0453 -0.0111  0.4267
 8398SOL     OW36826   2.054   2.120   8.570 -0.3425  0.7299  0.4542
 8398SOL    HW136827   2.102   2.153   8.494 -0.9668 -0.6369 -0.5319
 8398SOL    HW236828   2.017   2.045   8.523 -0.1288 -0.0268  1.5013
 8399SOL     OW36829   0.606   2.670   4.991  0.3812 -0.5472  0.0644
 8399SOL    HW136830   0.676   2.604   4.986  0.1027 -0.8067 -0.3828
 8399SOL    HW236831   0.597   2.687   5.085  1.8486  1.5927 -0.1779
 8400SOL     OW36832   3.059   2.951  12.199 -0.7914 -0.3739 -0.5924
 8400SOL    HW136833   3.078   2.968  12.106 -1.1822 -2.1252 -1.0063
 8400SOL    HW236834   2.964   2.959  12.202 -0.9012 -2.2853  0.6645
 8401SOL     OW36835   1.607   1.118   2.469 -0.7078  0.2817  0.5611
 8401SOL    HW136836   1.587   1.028   2.494 -0.8806  0.8011  2.2989
 8401SOL    HW236837   1.539   1.129   2.402 -2.2474  1.7165  2.3625
 8402SOL     OW36838   1.819   2.485   3.808  0.5287 -0.0575  0.5192
 8402SOL    HW136839   1.836   2.513   3.898  0.0895  0.0612  0.5683
 8402SOL    HW236840   1.898   2.511   3.762 -0.4446 -0.1866 -1.2400
 8403SOL     OW36841   1.442   0.511   5.753  0.5004 -0.2665  0.5040
 8403SOL    HW136842   1.385   0.472   5.687  0.5542 -0.3684  0.5178
 8403SOL    HW236843   1.527   0.495   5.712 -0.2595 -1.0561 -0.7593
 8404SOL     OW36844   2.721   2.364   7.253  0.1367  0.1724  0.3038
 8404SOL    HW136845   2.702   2.376   7.160 -1.4499  1.3657  0.7642
 8404SOL    HW236846   2.674   2.444   7.275 -0.0368  0.4636 -1.0835
 8405SOL     OW36847   4.094   3.996  12.950 -0.2199  1.1949  0.0177
 8405SOL    HW136848   4.116   4.001  13.044 -0.0783  1.2500 -0.0185
 8405SOL    HW236849   4.009   3.951  12.950  1.4446 -1.9058 -1.3422
 8406SOL     OW36850   3.112   3.779   3.073 -0.7912  0.3140  0.1283
 8406SOL    HW136851   3.020   3.806   3.071 -0.5777  1.0170 -0.1330
 8406SOL    HW236852   3.135   3.815   2.987  2.5978 -1.2457  0.3699
 8407SOL     OW36853   1.236   0.493   5.206 -0.2870 -0.7009  0.8352
 8407SOL    HW136854   1.211   0.557   5.139  1.3631 -0.2768  0.6219
 8407SOL    HW236855   1.327   0.515   5.226  0.0657 -0.2597 -1.2232
 8408SOL     OW36856   3.644   1.529   2.704  0.1532  0.2985  0.4635
 8408SOL    HW136857   3.728   1.572   2.688 -0.6818  1.7996  0.0824
 8408SOL    HW236858   3.600   1.561   2.626 -0.5937 -0.9347  0.3768
 8409SOL     OW36859   1.873   3.971  10.568  0.4291  0.6149 -0.0206
 8409SOL    HW136860   1.902   3.891  10.524  2.3580  1.4648 -0.2987
 8409SOL    HW236861   1.924   3.967  10.649 -1.9407  0.9023  1.4630
 8410SOL     OW36862   1.151   4.392   2.077  0.3531 -0.2372  0.2510
 8410SOL    HW136863   1.205   4.417   2.152  1.1812 -1.3144  0.0222
 8410SOL    HW236864   1.148   4.301   2.109 -1.4089  0.2255  1.4377
 8411SOL     OW36865   0.971   3.757   9.499  0.1549  0.6076  0.2261
 8411SOL    HW136866   0.940   3.766   9.409  1.8139 -0.2829 -0.4283
 8411SOL    HW236867   0.894   3.766   9.556  0.3180 -0.9221  0.7004
 8412SOL     OW36868   2.707   1.857   5.037 -0.5335  0.1787 -0.9660
 8412SOL    HW136869   2.666   1.775   5.010  1.2165 -0.9269 -0.2113
 8412SOL    HW236870   2.632   1.917   5.036  0.1470  1.0275 -0.9028
 8413SOL     OW36871   4.207   4.180   3.313 -0.1216 -0.1184 -0.0945
 8413SOL    HW136872   4.167   4.159   3.229 -0.9306  0.5710  0.1140
 8413SOL    HW236873   4.197   4.096   3.359 -0.5373 -0.1805 -0.2970
 8414SOL     OW36874   0.207   3.755   6.516 -0.6662  0.3978 -0.2715
 8414SOL    HW136875   0.280   3.696   6.497 -0.6754  0.9064 -1.9444
 8414SOL    HW236876   0.139   3.697   6.482 -0.7932 -0.0061  0.6792
 8415SOL     OW36877   3.213   1.834  12.500 -0.1533 -0.2471 -0.1074
 8415SOL    HW136878   3.168   1.759  12.461 -1.3250  0.1268  0.5116
 8415SOL    HW236879   3.245   1.874  12.419  0.4932  1.4066  0.9710
 8416SOL     OW36880   0.903   2.192   9.290 -0.0529  0.3108  0.2996
 8416SOL    HW136881   0.872   2.282   9.292 -0.1846  0.2512  0.9933
 8416SOL    HW236882   0.842   2.156   9.226  0.4313  1.0954 -0.5996
 8417SOL     OW36883   4.594   2.269   2.757 -0.2807  0.4218  0.1919
 8417SOL    HW136884   4.629   2.329   2.691 -0.5464 -1.2715 -1.4988
 8417SOL    HW236885   4.505   2.305   2.754 -0.6118 -0.5909 -2.2222
 8418SOL     OW36886   1.080   3.883   2.511  0.2636 -0.1339  0.1023
 8418SOL    HW136887   1.172   3.904   2.522 -0.6335  1.6788  4.1943
 8418SOL    HW236888   1.063   3.820   2.581 -2.6765  1.7238  1.0466
 8419SOL     OW36889   3.941   2.040   3.925 -0.0841  0.0299 -0.0641
 8419SOL    HW136890   4.008   1.980   3.891 -0.0744  0.8780 -1.5442
 8419SOL    HW236891   3.922   2.096   3.850  0.4079  0.8581  0.4292
 8420SOL     OW36892   2.073   3.273   8.050 -0.5064 -0.0962  0.4034
 8420SOL    HW136893   2.090   3.189   8.093  2.2503 -0.3432 -1.1810
 8420SOL    HW236894   2.088   3.331   8.124  1.3523  1.8836 -1.5168
 8421SOL     OW36895   2.237   3.763   7.115 -0.1084  0.7895 -0.1128
 8421SOL    HW136896   2.170   3.707   7.154  0.6364 -0.1594 -0.2053
 8421SOL    HW236897   2.223   3.767   7.020  3.8299  2.1362 -0.6295
 8422SOL     OW36898   2.297   0.281   3.298  0.2956 -0.9398  0.5883
 8422SOL    HW136899   2.314   0.353   3.360 -1.4368 -0.7565  0.8326
 8422SOL    HW236900   2.258   0.218   3.358  0.0385 -1.0754  0.2729
 8423SOL     OW36901   2.301   4.298   6.137 -0.7889 -0.6410  0.4186
 8423SOL    HW136902   2.312   4.299   6.042 -2.2827 -1.3705  0.2348
 8423SOL    HW236903   2.235   4.229   6.147 -1.2754 -0.5585 -2.1748
 8424SOL     OW36904   2.332   4.164   4.783 -0.4561 -0.2800 -0.7172
 8424SOL    HW136905   2.332   4.072   4.756 -0.4303 -0.2031 -0.9800
 8424SOL    HW236906   2.275   4.149   4.859 -1.1009  1.2236 -0.9106
 8425SOL     OW36907   1.197   3.664   6.740  0.2683 -0.4540  0.1057
 8425SOL    HW136908   1.200   3.573   6.770 -0.2618 -0.5643 -0.1864
 8425SOL    HW236909   1.223   3.645   6.650  1.9338  2.3123 -0.0043
 8426SOL     OW36910   3.592   0.974   2.304  0.0208 -0.4879  0.2758
 8426SOL    HW136911   3.529   1.015   2.362  1.5741 -1.3662  2.5861
 8426SOL    HW236912   3.665   1.036   2.311 -1.2464  0.9755  0.5890
 8427SOL     OW36913   1.279   3.416  15.797  0.2060  0.2270 -0.4847
 8427SOL    HW136914   1.225   3.468  15.857  2.1223  2.3442 -0.5802
 8427SOL    HW236915   1.263   3.446  15.707  0.4488 -0.5115 -0.7760
 8428SOL     OW36916   0.298   2.158   8.931  0.3326 -0.1673  0.6057
 8428SOL    HW136917   0.352   2.177   8.854 -1.1077  1.7547  0.0418
 8428SOL    HW236918   0.260   2.073   8.906 -0.0803  0.0606  0.4399
 8429SOL     OW36919   0.405   1.840   0.554 -0.7242 -0.1587  0.4195
 8429SOL    HW136920   0.481   1.856   0.498 -1.4200  1.0543 -0.1905
 8429SOL    HW236921   0.332   1.875   0.502 -0.4633 -1.8149 -1.0509
 8430SOL     OW36922   0.494   2.069  15.565 -0.2862  0.0885 -0.4344
 8430SOL    HW136923   0.446   2.081  15.483  1.1436  1.6262 -1.0412
 8430SOL    HW236924   0.582   2.093  15.536 -0.5266  0.4481 -0.8690
 8431SOL     OW36925   0.044   2.550   2.356 -0.1563 -0.4174 -0.2109
 8431SOL    HW136926   4.720   2.538   2.283 -0.6623 -1.9291  0.4573
 8431SOL    HW236927   0.128   2.531   2.314  0.8623 -0.7168  1.9624
 8432SOL     OW36928   1.484   1.195   6.023 -0.4246 -0.5746  0.3643
 8432SOL    HW136929   1.418   1.154   5.966 -1.1066  2.5511 -1.1163
 8432SOL    HW236930   1.447   1.195   6.111 -0.7721  2.9472  0.2342
 8433SOL     OW36931   4.382   1.391   6.938  0.2687 -0.2167 -0.2191
 8433SOL    HW136932   4.449   1.403   7.005 -1.0157  1.7343  0.7141
 8433SOL    HW236933   4.316   1.455   6.964 -0.2951 -1.2600  0.9164
 8434SOL     OW36934   4.031   1.051   3.355  0.1884 -0.9320  0.1645
 8434SOL    HW136935   3.942   1.018   3.342 -0.0836  0.2577 -1.0408
 8434SOL    HW236936   4.015   1.143   3.335 -0.6270 -0.6268  2.2346
 8435SOL     OW36937   3.389   4.332   3.270  0.1673  0.5956 -0.4332
 8435SOL    HW136938   3.457   4.276   3.308  0.1750 -0.6215 -2.2376
 8435SOL    HW236939   3.391   4.312   3.176 -1.0989 -0.2745 -0.2681
 8436SOL     OW36940   0.630   1.657   2.114  0.4981  0.4440 -0.1319
 8436SOL    HW136941   0.559   1.632   2.174 -0.1942 -0.3912 -1.2998
 8436SOL    HW236942   0.697   1.690   2.173 -1.2086  0.2693  1.9126
 8437SOL     OW36943   2.467   0.835  17.001 -0.2064 -0.5164 -0.0721
 8437SOL    HW136944   2.510   0.801  17.079  0.3067  2.2962  0.8433
 8437SOL    HW236945   2.392   0.886  17.032  0.5342  1.2550 -1.2503
 8438SOL     OW36946   4.362   0.411   7.561 -0.1875 -0.7273  0.1168
 8438SOL    HW136947   4.444   0.363   7.569  0.4776  0.4249  0.2128
 8438SOL    HW236948   4.391   0.484   7.507 -0.9524 -1.4243 -1.2183
 8439SOL     OW36949   3.033   4.132  10.134 -0.4145  0.2175 -0.0096
 8439SOL    HW136950   2.955   4.104  10.087 -0.7819  1.3448 -0.0655
 8439SOL    HW236951   3.093   4.153  10.062 -1.8304  1.0066 -0.9557
 8440SOL     OW36952   3.567   0.426   1.625  0.3373  0.2970  0.3457
 8440SOL    HW136953   3.627   0.450   1.696  0.4806  0.1066  0.2895
 8440SOL    HW236954   3.490   0.384   1.663  0.5298 -1.9816 -1.7619
 8441SOL     OW36955   0.419   4.312   8.962  0.5602 -0.2166  0.2800
 8441SOL    HW136956   0.482   4.308   9.034  0.6509 -0.6792  0.1770
 8441SOL    HW236957   0.453   4.386   8.913 -0.7064 -0.0984 -0.4200
 8442SOL     OW36958   1.424   2.339   4.368 -0.2121  0.7250 -0.0978
 8442SOL    HW136959   1.467   2.405   4.423 -0.5213  1.3542 -0.5999
 8442SOL    HW236960   1.466   2.361   4.285 -1.8916  2.6070 -0.4653
 8443SOL     OW36961   3.279   0.692  12.554 -0.4171 -1.0588 -0.2392
 8443SOL    HW136962   3.221   0.704  12.630  0.1924  0.9674 -0.1115
 8443SOL    HW236963   3.210   0.701  12.488 -1.7034 -3.2747  0.7995
 8444SOL     OW36964   1.223   1.509  11.560 -0.3061 -0.1857  0.1169
 8444SOL    HW136965   1.253   1.457  11.635 -2.7097 -0.7342  0.6947
 8444SOL    HW236966   1.244   1.454  11.484  0.6971  1.7916 -1.0431
 8445SOL     OW36967   0.774   0.395   8.002  0.2951  0.4699  0.3341
 8445SOL    HW136968   0.868   0.404   8.020  0.4591 -0.3006 -0.1474
 8445SOL    HW236969   0.778   0.320   7.943 -1.3779 -1.5393  2.7646
 8446SOL     OW36970   1.618   0.870  15.702 -0.0264  0.0762  0.0621
 8446SOL    HW136971   1.663   0.930  15.760  1.6172  1.1469 -2.3402
 8446SOL    HW236972   1.671   0.791  15.715 -0.6043 -0.3514 -0.1322
 8447SOL     OW36973   2.786   3.959   1.536  0.5139  0.0215  0.4980
 8447SOL    HW136974   2.757   3.964   1.627 -1.4541  0.2012 -0.1398
 8447SOL    HW236975   2.874   3.923   1.547  0.5111  0.4445  1.8375
 8448SOL     OW36976   4.080   0.337   6.612  0.0507  0.0377  0.6705
 8448SOL    HW136977   4.106   0.425   6.639  0.4794 -0.4373  1.7756
 8448SOL    HW236978   4.155   0.307   6.560  1.1182  0.6156  1.8667
 8449SOL     OW36979   4.576   0.227   2.702 -0.4054  0.1902 -0.4919
 8449SOL    HW136980   4.593   0.188   2.616 -2.8669 -1.1056 -0.4064
 8449SOL    HW236981   4.545   0.314   2.680  2.0772  0.6028 -2.3559
 8450SOL     OW36982   2.192   1.355   7.401 -0.1016 -0.4510 -0.1113
 8450SOL    HW136983   2.258   1.296   7.363  1.9062  0.1022  2.5287
 8450SOL    HW236984   2.244   1.390   7.473 -1.1068  0.6146  0.0842
 8451SOL     OW36985   3.340   4.203   6.163  0.1378  0.0508 -0.3315
 8451SOL    HW136986   3.352   4.175   6.072 -2.0196 -0.2151 -0.5289
 8451SOL    HW236987   3.433   4.215   6.183  0.1291 -0.0768 -0.2214
 8452SOL     OW36988   3.442   0.164   8.226  0.1613 -0.2270 -0.4226
 8452SOL    HW136989   3.441   0.200   8.137 -2.1890  0.5312 -0.0956
 8452SOL    HW236990   3.364   0.111   8.214  0.9505 -0.9380 -2.3287
 8453SOL     OW36991   3.415   2.063   8.220 -0.5434 -0.1624 -0.4301
 8453SOL    HW136992   3.482   2.103   8.164 -0.3764 -2.0329 -1.5663
 8453SOL    HW236993   3.392   2.144   8.264 -0.2353  0.5493 -1.5594
 8454SOL     OW36994   4.336   3.631   6.678 -0.1743 -0.3346  0.3976
 8454SOL    HW136995   4.273   3.688   6.722 -0.6948  0.6956 -1.6762
 8454SOL    HW236996   4.424   3.655   6.708  0.3661 -0.2252 -1.2934
 8455SOL     OW36997   3.393   1.810   2.140 -0.2432 -0.0426 -0.2454
 8455SOL    HW136998   3.385   1.905   2.144 -0.9724 -0.1300  0.4052
 8455SOL    HW236999   3.456   1.798   2.069  2.1485  1.2448  1.6739
 8456SOL     OW37000   3.996   2.933   6.746  0.4815 -0.0684 -0.6168
 8456SOL    HW137001   4.019   2.841   6.732  1.3125 -0.0054  0.3690
 8456SOL    HW237002   4.078   2.976   6.721 -1.4192  3.9767  0.1898
 8457SOL     OW37003   2.193   1.246   3.376  0.5094 -0.1272  0.2304
 8457SOL    HW137004   2.165   1.326   3.420  1.8800  0.1908  0.5210
 8457SOL    HW237005   2.284   1.259   3.350  0.5090  0.6985  0.6508
 8458SOL     OW37006   3.956   3.146  16.067 -0.1754  0.3380  0.1831
 8458SOL    HW137007   3.998   3.201  16.001 -0.8207 -0.1291 -0.6237
 8458SOL    HW237008   3.948   3.203  16.144 -1.8133 -0.5987  0.7092
 8459SOL     OW37009   0.753   4.008   4.982  0.5651 -0.5197  0.3843
 8459SOL    HW137010   0.764   4.052   4.898 -0.9064 -0.6780  0.1004
 8459SOL    HW237011   0.821   4.042   5.040 -0.4307 -0.7675  1.7076
 8460SOL     OW37012   1.677   3.119  10.808 -0.5501 -0.1548  0.0095
 8460SOL    HW137013   1.664   3.057  10.880  2.6054 -0.0838  0.6332
 8460SOL    HW237014   1.586   3.148  10.798 -0.2234  1.0526  0.5678
 8461SOL     OW37015   4.700   1.071  11.807 -0.3420  0.2330  0.3163
 8461SOL    HW137016   4.668   1.025  11.730 -1.8898 -1.1264  1.7564
 8461SOL    HW237017   4.672   1.012  11.877 -0.5791  0.3851  0.3516
 8462SOL     OW37018   3.738   3.550   5.873 -0.3326 -0.3634 -0.3126
 8462SOL    HW137019   3.822   3.509   5.854 -0.2385 -0.5976  0.6074
 8462SOL    HW237020   3.764   3.640   5.855  0.4119 -0.0647  2.3415
 8463SOL     OW37021   1.461   0.062   4.045 -0.6597 -0.1486 -0.2685
 8463SOL    HW137022   1.531   0.083   4.108  0.6119 -0.4579 -1.5900
 8463SOL    HW237023   1.503   0.069   3.960 -0.6215  0.8223 -0.1720
 8464SOL     OW37024   3.311   4.025  13.201  0.4201  0.0705  0.0427
 8464SOL    HW137025   3.345   3.943  13.235  1.1896 -0.1609 -1.2743
 8464SOL    HW237026   3.321   4.006  13.108  0.4094  1.7868 -0.3081
 8465SOL     OW37027   0.826   2.848   4.165  0.0634  0.3483 -0.1000
 8465SOL    HW137028   0.793   2.758   4.157  0.0409  0.3319  0.1906
 8465SOL    HW237029   0.872   2.851   4.081 -1.0890  0.8321 -0.7145
 8466SOL     OW37030   4.328   1.659   9.197 -0.0502 -0.6321  1.1539
 8466SOL    HW137031   4.351   1.723   9.130 -0.2818 -0.2958  1.3972
 8466SOL    HW237032   4.379   1.681   9.275 -1.4976 -1.9690  2.4773
 8467SOL     OW37033   3.545   3.653   3.307  0.4207 -0.8161 -0.8213
 8467SOL    HW137034   3.489   3.686   3.378  2.3069 -0.3705  0.4391
 8467SOL    HW237035   3.539   3.560   3.328  0.5301 -1.1685 -2.3900
 8468SOL     OW37036   2.927   3.027   9.304 -0.2979 -0.1324  0.3393
 8468SOL    HW137037   2.843   2.997   9.339 -0.6065 -1.3055 -1.3989
 8468SOL    HW237038   2.893   3.104   9.256 -1.7949 -0.2896  1.1380
 8469SOL     OW37039   4.548   3.977   5.932 -0.6794 -0.3661  0.4122
 8469SOL    HW137040   4.499   3.922   5.994 -1.6669  1.3660  1.1524
 8469SOL    HW237041   4.540   4.055   5.986 -0.9492 -0.0439 -0.0981
 8470SOL     OW37042   0.963   2.647  13.980 -0.2777  0.0721 -0.2892
 8470SOL    HW137043   0.912   2.577  13.938  0.1041 -1.1720  1.2831
 8470SOL    HW237044   1.038   2.643  13.920 -1.6446 -0.9533 -1.9073
 8471SOL     OW37045   4.621   2.795   8.435  0.1758 -0.3179  0.5669
 8471SOL    HW137046   4.653   2.712   8.472  0.6536 -0.8632 -1.0730
 8471SOL    HW237047   4.676   2.805   8.357  0.9884 -2.1828  0.9055
 8472SOL     OW37048   2.934   2.500   0.600  0.6874 -0.1380  0.4757
 8472SOL    HW137049   2.952   2.434   0.533 -0.8525  0.4699 -0.5533
 8472SOL    HW237050   3.012   2.553   0.584  1.9384 -1.3072  2.7106
 8473SOL     OW37051   1.106   1.008  14.909  0.0376 -0.5995 -0.2288
 8473SOL    HW137052   1.133   0.956  14.834  3.7470  1.6822 -0.4897
 8473SOL    HW237053   1.184   1.013  14.965 -0.0780 -0.2155 -0.1011
 8474SOL     OW37054   2.439   2.321   5.144 -0.0324 -0.0849  0.4971
 8474SOL    HW137055   2.522   2.314   5.095  0.9802 -1.3851  2.3953
 8474SOL    HW237056   2.380   2.353   5.076 -0.0707 -0.9759  0.1012
 8475SOL     OW37057   0.496   4.456   7.048  0.2219  0.1516 -0.1043
 8475SOL    HW137058   0.403   4.437   7.040  0.6766 -0.4416 -3.7404
 8475SOL    HW237059   0.525   4.463   6.957  1.0378  0.6554  0.1988
 8476SOL     OW37060   3.624   2.863   3.815  0.2602 -0.2031 -0.3116
 8476SOL    HW137061   3.536   2.878   3.850  0.5729 -0.3317  0.5310
 8476SOL    HW237062   3.606   2.907   3.732  0.5163  1.7715  0.7006
 8477SOL     OW37063   0.344   1.371   7.890 -0.4711  0.1035  0.1939
 8477SOL    HW137064   0.273   1.318   7.927 -2.9083  0.5247 -3.8795
 8477SOL    HW237065   0.423   1.340   7.934 -0.6103 -1.1067 -0.4307
 8478SOL     OW37066   1.320   0.053   5.147 -0.0744 -0.2391  0.7196
 8478SOL    HW137067   1.326   0.030   5.240  2.1827 -1.1652  0.3672
 8478SOL    HW237068   1.252   0.120   5.150 -0.1817 -0.3201  0.0168
 8479SOL     OW37069   3.184   3.088   4.072 -0.0037  0.0113 -0.3444
 8479SOL    HW137070   3.198   3.149   4.000  2.7416  0.7586  0.8394
 8479SOL    HW237071   3.153   3.155   4.133 -1.1992  0.1137 -1.0597
 8480SOL     OW37072   2.306   4.485  12.643 -0.4108 -0.0581  0.8529
 8480SOL    HW137073   2.376   4.494  12.579 -0.9687 -2.0459 -0.0289
 8480SOL    HW237074   2.301   4.390  12.637  1.5644 -0.1095  0.2391
 8481SOL     OW37075   4.674   3.319   6.085 -0.0797  0.6663  0.4470
 8481SOL    HW137076   4.617   3.393   6.064 -0.6936 -0.0599 -0.4320
 8481SOL    HW237077   4.694   3.285   5.998  2.3752  0.9418  0.9080
 8482SOL     OW37078   3.005   4.423  11.897 -0.0272 -0.3628 -0.2531
 8482SOL    HW137079   2.996   4.328  11.895 -0.5153 -0.3529  1.0806
 8482SOL    HW237080   3.099   4.440  11.890 -0.1728  0.1142 -1.0757
 8483SOL     OW37081   0.167   1.645   7.582 -0.7190 -0.8511  0.8338
 8483SOL    HW137082   0.259   1.655   7.607 -1.6087  1.8841  3.0212
 8483SOL    HW237083   0.155   1.554   7.609 -0.0507 -0.9787  0.7072
 8484SOL     OW37084   2.443   2.187   3.548 -0.3983 -0.2272 -0.1995
 8484SOL    HW137085   2.386   2.165   3.622 -1.1998 -1.1908 -1.0933
 8484SOL    HW237086   2.376   2.245   3.511 -0.3845 -0.4089 -0.5144
 8485SOL     OW37087   0.597   2.519   6.982 -0.1677  0.0529 -0.5111
 8485SOL    HW137088   0.630   2.431   6.963  1.0748 -0.1680  2.7559
 8485SOL    HW237089   0.533   2.528   6.910  0.6613  2.3664 -0.9452
 8486SOL     OW37090   0.608   1.996   7.776  0.1747 -0.3600  0.0053
 8486SOL    HW137091   0.582   1.979   7.867 -0.3476  1.1545  0.1288
 8486SOL    HW237092   0.697   2.028   7.789  0.5774 -1.7320  0.6974
 8487SOL     OW37093   2.951   4.097   5.334  0.0757 -0.2668 -0.3872
 8487SOL    HW137094   3.017   4.078   5.401  0.3675 -0.9611 -0.8698
 8487SOL    HW237095   3.001   4.129   5.259  0.6376 -2.0849 -0.7781
 8488SOL     OW37096   3.976   0.701  14.443  0.0249 -0.2532 -0.2870
 8488SOL    HW137097   4.021   0.750  14.374  2.2438 -0.4985  0.9902
 8488SOL    HW237098   4.044   0.686  14.509 -0.6719  2.0947  0.9734
 8489SOL     OW37099   3.172   1.394   9.098 -0.5318 -0.5435 -0.2488
 8489SOL    HW137100   3.124   1.471   9.067 -0.7160  0.4767  2.5613
 8489SOL    HW237101   3.261   1.415   9.069  0.0489 -0.1188  1.8115
 8490SOL     OW37102   3.812   3.710   9.374 -0.2268  0.1271 -0.5874
 8490SOL    HW137103   3.857   3.741   9.296 -1.4031 -1.8700 -2.0449
 8490SOL    HW237104   3.828   3.785   9.431 -0.8543  1.1695 -1.8124
 8491SOL     OW37105   3.705   0.053   3.802 -0.0709 -0.2864  0.5250
 8491SOL    HW137106   3.634   0.082   3.745  1.3110  2.4186  0.1887
 8491SOL    HW237107   3.687   4.696   3.813 -1.0627 -0.2505 -0.7897
 8492SOL     OW37108   2.659   1.679   7.015  0.2146 -0.2248 -0.0520
 8492SOL    HW137109   2.649   1.591   6.978 -0.9352 -0.0778 -0.0867
 8492SOL    HW237110   2.654   1.667   7.110 -0.1915 -1.6295 -0.2448
 8493SOL     OW37111   1.756   2.638   8.738 -0.3768 -0.2236  0.0787
 8493SOL    HW137112   1.850   2.633   8.720 -0.4684 -1.3907 -0.0862
 8493SOL    HW237113   1.742   2.555   8.783  0.6081  0.4665  1.6400
 8494SOL     OW37114   3.601   3.152  13.349  0.6675 -0.0668  0.2011
 8494SOL    HW137115   3.546   3.123  13.422  0.7718  0.6515  0.5629
 8494SOL    HW237116   3.566   3.240  13.331  0.6437  0.1361  1.2230
 8495SOL     OW37117   0.765   0.276   3.899  0.1767  0.0295 -0.1474
 8495SOL    HW137118   0.803   0.215   3.962 -0.4627  2.0737  2.2394
 8495SOL    HW237119   0.812   0.357   3.920  2.0349 -0.1845 -3.4430
 8496SOL     OW37120   0.516   2.783  16.658 -0.2071  0.3953 -0.4261
 8496SOL    HW137121   0.541   2.838  16.584  0.5184 -0.4797 -0.8353
 8496SOL    HW237122   0.515   2.695  16.620  3.3481 -0.4167  1.4762
 8497SOL     OW37123   4.565   4.568   7.535 -0.1805 -0.1057 -0.3738
 8497SOL    HW137124   4.523   4.580   7.450  0.2081  1.2766 -0.3736
 8497SOL    HW237125   4.524   4.641   7.583  0.0406  0.4448 -1.0294
 8498SOL     OW37126   1.126   3.643   0.295  0.0835 -0.3013  0.0929
 8498SOL    HW137127   1.113   3.737   0.307  0.1351 -0.4071  1.0175
 8498SOL    HW237128   1.033   3.621   0.298 -0.1150  0.8095  2.3712
 8499SOL     OW37129   2.321   4.601   2.844 -0.0724  0.1137  0.8037
 8499SOL    HW137130   2.385   4.534   2.869 -0.0305  0.0710  0.5792
 8499SOL    HW237131   2.351   4.682   2.884  2.6294 -0.3401 -0.2742
 8500SOL     OW37132   3.075   1.572  10.849 -0.2223  0.0591  0.3254
 8500SOL    HW137133   3.149   1.513  10.833 -0.6733  0.0550 -1.7272
 8500SOL    HW237134   3.085   1.629  10.773 -0.8126 -0.7935 -0.3694
 8501SOL     OW37135   0.990   2.767   9.971 -0.4243 -0.0449 -0.2237
 8501SOL    HW137136   1.006   2.836  10.035  4.0098 -1.5605  0.3492
 8501SOL    HW237137   0.913   2.723  10.007 -0.3204 -1.5344 -1.7955
 8502SOL     OW37138   3.405   2.199   7.749  0.0066  0.5948  0.7755
 8502SOL    HW137139   3.353   2.279   7.748 -0.5561  0.2011 -0.7177
 8502SOL    HW237140   3.342   2.127   7.748 -0.8134  1.3082  1.0155
 8503SOL     OW37141   0.956   4.465   6.935  0.0359 -0.0868  0.1024
 8503SOL    HW137142   1.001   4.546   6.911 -1.1726  0.4895 -0.1913
 8503SOL    HW237143   0.897   4.481   7.008 -0.7379 -0.4903 -0.4379
 8504SOL     OW37144   2.960   4.008   8.135  0.0667 -0.1886 -0.5567
 8504SOL    HW137145   2.877   3.959   8.142 -1.2891  1.9947 -1.2647
 8504SOL    HW237146   2.953   4.079   8.200  1.0726 -1.3569  0.8306
 8505SOL     OW37147   3.025   0.822   1.552 -0.4890  0.3657 -0.3212
 8505SOL    HW137148   2.950   0.815   1.611  0.4821  0.5438  0.9516
 8505SOL    HW237149   3.025   0.911   1.517 -1.3487  0.1928 -0.7548
 8506SOL     OW37150   4.221   3.382   8.107  0.2820 -0.1772 -0.5914
 8506SOL    HW137151   4.275   3.453   8.071 -1.8790  0.0555 -3.4277
 8506SOL    HW237152   4.152   3.434   8.148 -1.6698 -2.3322 -1.1799
 8507SOL     OW37153   1.669   4.278   2.161  0.0521 -0.2845 -0.0826
 8507SOL    HW137154   1.676   4.260   2.067 -1.0077  0.1389 -0.2423
 8507SOL    HW237155   1.732   4.209   2.182  0.0440  0.0061  0.9101
 8508SOL     OW37156   0.027   1.566  16.807 -0.3239 -0.3829  0.8981
 8508SOL    HW137157   4.710   1.637  16.844  0.0910  0.6010 -0.3887
 8508SOL    HW237158   0.112   1.610  16.807 -1.4343  1.8138 -1.8398
 8509SOL     OW37159   4.088   2.979  10.306  0.0797 -0.1559  0.0877
 8509SOL    HW137160   4.176   2.962  10.272  0.7072  0.5863  1.3490
 8509SOL    HW237161   4.038   2.995  10.226  1.9786  2.4205 -0.5962
 8510SOL     OW37162   0.482   1.478   8.307 -0.3501 -0.2300 -0.1582
 8510SOL    HW137163   0.392   1.452   8.288  0.2621 -1.4703 -1.3914
 8510SOL    HW237164   0.477   1.573   8.320  3.5118 -0.1893  1.0723
 8511SOL     OW37165   2.968   2.278  12.107 -0.6320 -0.4121  0.0996
 8511SOL    HW137166   2.917   2.199  12.123  0.1301 -0.9826 -0.2943
 8511SOL    HW237167   3.037   2.242  12.050  0.4410 -0.0879  1.1923
 8512SOL     OW37168   2.807   3.627   2.123  0.1575 -0.3250 -0.1006
 8512SOL    HW137169   2.774   3.551   2.170 -0.4810  1.1495  1.8534
 8512SOL    HW237170   2.902   3.627   2.138  0.1341  2.0320  0.1046
 8513SOL     OW37171   0.679   3.456  10.174 -0.5547 -0.2729  0.2172
 8513SOL    HW137172   0.724   3.457  10.090 -1.1937 -1.4613 -0.1361
 8513SOL    HW237173   0.746   3.424  10.234  1.5893  1.8184 -1.0944
 8514SOL     OW37174   3.321   3.484   4.052 -0.2829  0.1443  0.5778
 8514SOL    HW137175   3.414   3.492   4.030  0.0037 -1.1654  1.3064
 8514SOL    HW237176   3.296   3.416   3.989 -1.0110  2.1319 -1.2769
 8515SOL     OW37177   0.991   3.013  15.897  0.3535  0.1883  0.1723
 8515SOL    HW137178   1.058   2.985  15.960 -1.1693 -2.4460  0.6209
 8515SOL    HW237179   1.032   3.075  15.837 -2.3891  1.7357 -0.1324
 8516SOL     OW37180   1.954   0.570  16.540  0.0981  0.3817 -0.2721
 8516SOL    HW137181   1.905   0.581  16.458  1.7547 -1.3536 -1.5074
 8516SOL    HW237182   2.041   0.547  16.506  0.7088 -1.0054  2.2235
 8517SOL     OW37183   0.540   4.115   4.020  0.2603 -0.0327  0.1413
 8517SOL    HW137184   0.476   4.133   3.951 -0.5227 -0.2857  0.8150
 8517SOL    HW237185   0.530   4.023   4.044 -0.6764 -0.1616 -0.7506
 8518SOL     OW37186   0.978   1.191   2.995  0.4214 -0.5527  0.2963
 8518SOL    HW137187   0.998   1.203   3.088  0.0603  2.9860 -0.0691
 8518SOL    HW237188   0.892   1.233   3.009 -0.6934 -3.1456  1.1366
 8519SOL     OW37189   2.678   0.039   7.088 -0.0383 -0.1219 -0.1768
 8519SOL    HW137190   2.695   0.083   7.171  1.1310  0.0804 -0.5229
 8519SOL    HW237191   2.726   0.097   7.029 -0.4512  1.1196  0.7193
 8520SOL     OW37192   4.134   4.028  16.270  0.3828 -0.7471 -0.6509
 8520SOL    HW137193   4.152   4.070  16.354  0.2404 -0.1537 -0.9184
 8520SOL    HW237194   4.040   4.042  16.273 -0.0245 -4.0125  2.0764
 8521SOL     OW37195   3.936   3.259   0.475  0.0351  0.2978  0.4500
 8521SOL    HW137196   4.003   3.327   0.481 -0.7448  0.9910  1.3511
 8521SOL    HW237197   3.985   3.178   0.459  2.1914  1.3524  1.8026
 8522SOL     OW37198   1.967   4.362   5.210 -0.1804 -0.2947  0.1059
 8522SOL    HW137199   2.019   4.406   5.278 -2.6739  2.0422  0.4984
 8522SOL    HW237200   2.008   4.380   5.126 -2.1842 -0.9317 -1.0033
 8523SOL     OW37201   1.978   3.110  14.608  0.2818 -0.1288  0.3790
 8523SOL    HW137202   2.033   3.032  14.610  0.6310  0.1099  0.1370
 8523SOL    HW237203   1.924   3.087  14.532  1.6440 -1.9958 -0.0595
 8524SOL     OW37204   1.674   4.251   6.705  0.9789  0.0420 -0.0000
 8524SOL    HW137205   1.613   4.177   6.701  1.2200 -0.1499 -0.1114
 8524SOL    HW237206   1.730   4.225   6.778  1.6347  2.7240  0.4317
 8525SOL     OW37207   3.591   1.231  10.290 -0.1493 -0.0302  0.4990
 8525SOL    HW137208   3.661   1.266  10.234 -3.2812 -0.4418 -3.6879
 8525SOL    HW237209   3.511   1.257  10.244 -0.2056 -1.4556 -0.2181
 8526SOL     OW37210   3.815   1.370  16.085  0.0691  0.4508 -0.4293
 8526SOL    HW137211   3.738   1.380  16.142 -0.3364 -0.1590 -0.8670
 8526SOL    HW237212   3.823   1.274  16.080  0.4804  0.3899  1.5564
 8527SOL     OW37213   2.523   0.048  17.506  0.0225  0.2816 -0.4695
 8527SOL    HW137214   2.467   0.052  17.428  0.9748  0.7300 -1.1271
 8527SOL    HW237215   2.462   0.056  17.579  1.1635 -1.0901  0.6190
 8528SOL     OW37216   1.071   0.911   2.063  0.5394  0.0290 -0.0513
 8528SOL    HW137217   1.041   0.869   2.144 -1.5320  1.0870 -0.2776
 8528SOL    HW237218   1.026   0.854   2.000  0.9216  2.7807 -2.7738
 8529SOL     OW37219   4.681   1.438   8.179  0.5288  0.2865  0.1571
 8529SOL    HW137220   4.687   1.351   8.217 -0.2717  0.1762  0.0229
 8529SOL    HW237221   4.637   1.408   8.099  1.5005 -1.1274  0.1475
 8530SOL     OW37222   3.869   2.482  11.387  0.0415 -0.2258 -0.2623
 8530SOL    HW137223   3.777   2.494  11.364 -0.0818  0.2281  0.4502
 8530SOL    HW237224   3.856   2.468  11.481 -1.6626  0.8155 -0.3401
 8531SOL     OW37225   3.158   4.322   4.003 -0.1437  0.0142 -0.1165
 8531SOL    HW137226   3.139   4.399   3.949 -0.3072 -0.8876 -1.3451
 8531SOL    HW237227   3.153   4.251   3.940 -0.0724  0.9874 -1.2228
 8532SOL     OW37228   4.529   2.137   7.865 -0.3288 -0.4163 -0.5830
 8532SOL    HW137229   4.581   2.096   7.796 -1.9098  0.1870 -2.1470
 8532SOL    HW237230   4.517   2.219   7.817  1.2184  0.1728  0.0435
 8533SOL     OW37231   1.748   1.055  12.991 -0.2772  0.0746 -0.1682
 8533SOL    HW137232   1.841   1.047  12.972 -0.2241  1.4540 -0.4795
 8533SOL    HW237233   1.733   1.014  13.076  1.8999  0.2053  0.2729
 8534SOL     OW37234   3.207   0.572   4.889  0.0337  0.2758  0.1338
 8534SOL    HW137235   3.250   0.556   4.805  1.2917  1.1047  0.6268
 8534SOL    HW237236   3.273   0.625   4.934  0.0179 -0.1232  0.6202
 8535SOL     OW37237   0.634   4.653   5.264 -0.0141 -0.5740 -0.4250
 8535SOL    HW137238   0.618   4.678   5.355 -0.8110 -1.4313 -0.3286
 8535SOL    HW237239   0.578   4.715   5.218 -1.6464 -1.4313  0.4211
 8536SOL     OW37240   1.246   0.964   1.123 -0.6890 -0.6331  0.2365
 8536SOL    HW137241   1.151   0.972   1.116 -0.7511 -0.3927  1.3269
 8536SOL    HW237242   1.271   1.054   1.107  2.0947 -1.4454  0.0933
 8537SOL     OW37243   1.944   2.576   2.887 -0.2522  0.2507 -0.3409
 8537SOL    HW137244   1.916   2.492   2.851  1.0648  0.5848 -2.1794
 8537SOL    HW237245   1.921   2.574   2.979  0.5246 -0.7287 -0.1652
 8538SOL     OW37246   1.623   3.497   9.237 -0.1228 -0.2674  0.1612
 8538SOL    HW137247   1.624   3.593   9.243  0.2841 -0.0433 -3.1947
 8538SOL    HW237248   1.684   3.481   9.165  0.8343  0.1895  0.8759
 8539SOL     OW37249   4.209   3.512   6.427  0.2172 -0.2680  0.3517
 8539SOL    HW137250   4.214   3.555   6.342 -2.9993  1.2033  0.9057
 8539SOL    HW237251   4.245   3.573   6.491 -1.7845  0.6264  0.6313
 8540SOL     OW37252   2.752   1.499   6.626  0.7710  0.3147 -0.5466
 8540SOL    HW137253   2.720   1.495   6.716 -1.2903 -2.4856 -1.3856
 8540SOL    HW237254   2.714   1.579   6.590  0.8855  0.8640  0.5565
 8541SOL     OW37255   3.275   2.305   5.186 -0.2674  0.1550  0.0779
 8541SOL    HW137256   3.358   2.323   5.141  0.8740 -1.8407  1.3484
 8541SOL    HW237257   3.263   2.220   5.143  1.2775 -0.1874  0.3246
 8542SOL     OW37258   3.108   1.760   4.045  0.5424 -0.0065  0.6739
 8542SOL    HW137259   3.062   1.799   3.971 -0.4397 -1.3257  0.5838
 8542SOL    HW237260   3.044   1.771   4.116 -2.1603 -0.9124 -1.6127
 8543SOL     OW37261   3.489   3.818   4.787  0.5696  0.5425 -0.4453
 8543SOL    HW137262   3.481   3.913   4.780 -3.5279  0.4002  2.5482
 8543SOL    HW237263   3.506   3.791   4.697 -2.6731 -1.1347 -0.5510
 8544SOL     OW37264   2.740   3.371   2.270  0.1177 -0.1361 -0.4566
 8544SOL    HW137265   2.725   3.278   2.256  1.8298 -0.6122  0.8436
 8544SOL    HW237266   2.665   3.396   2.324 -0.7401  2.0038 -2.6490
 8545SOL     OW37267   3.767   1.529   7.645  0.1982  0.8402  0.3280
 8545SOL    HW137268   3.781   1.588   7.719 -0.2210  1.9011 -0.4394
 8545SOL    HW237269   3.846   1.475   7.648  1.5713  2.8787  1.4583
 8546SOL     OW37270   0.907   2.838  12.360  0.1204  0.1352 -0.4268
 8546SOL    HW137271   0.967   2.765  12.345  0.3844  0.6135 -1.7207
 8546SOL    HW237272   0.904   2.843  12.455 -1.9076 -2.7039 -0.3414
 8547SOL     OW37273   2.601   3.876   4.219  0.1808 -0.0200 -0.3186
 8547SOL    HW137274   2.663   3.947   4.234  0.6920 -0.5610  0.1294
 8547SOL    HW237275   2.634   3.823   4.292  1.3940  0.3429 -0.6181
 8548SOL     OW37276   4.654   1.229   4.118  0.0521  0.4952  0.0633
 8548SOL    HW137277   4.714   1.181   4.061  0.3141 -0.5217  1.2146
 8548SOL    HW237278   4.681   1.207   4.207  2.2075 -0.3188 -0.7987
 8549SOL     OW37279   2.295   0.714   0.958 -0.7675 -0.2637  0.5921
 8549SOL    HW137280   2.212   0.725   0.910 -1.0974 -2.5832  0.6540
 8549SOL    HW237281   2.357   0.768   0.909 -0.5281  0.5306  1.7747
 8550SOL     OW37282   3.537   1.759   6.346  0.3526  0.2594 -0.0136
 8550SOL    HW137283   3.633   1.755   6.354  0.4784 -1.2484 -2.3522
 8550SOL    HW237284   3.522   1.747   6.252  3.3890  2.3771 -0.7730
 8551SOL     OW37285   4.272   3.708   9.147 -0.3848  0.2261 -0.1445
 8551SOL    HW137286   4.314   3.645   9.206 -0.7238  0.1479  0.0116
 8551SOL    HW237287   4.326   3.698   9.068 -0.1860 -0.7727  0.1217
 8552SOL     OW37288   1.371   3.915   1.215 -0.0604  0.3915  0.1736
 8552SOL    HW137289   1.316   3.847   1.255 -1.8435 -1.0661 -4.8200
 8552SOL    HW237290   1.446   3.858   1.197  0.1279  0.7289 -0.1112
 8553SOL     OW37291   1.202   3.589  11.692  0.0737  0.0738  0.9739
 8553SOL    HW137292   1.237   3.613  11.778 -0.0491  1.0322  0.7607
 8553SOL    HW237293   1.220   3.668  11.640  3.8644 -1.1588  0.4011
 8554SOL     OW37294   1.594   4.534  14.456  0.0208 -0.0847  0.0024
 8554SOL    HW137295   1.652   4.601  14.422 -0.4949 -0.0536 -0.8238
 8554SOL    HW237296   1.539   4.590  14.510  0.2736 -0.2881  0.4690
 8555SOL     OW37297   1.157   1.104   6.253  0.1525  0.2273 -0.0237
 8555SOL    HW137298   1.114   1.130   6.334  1.8510  1.0225  0.6171
 8555SOL    HW237299   1.234   1.161   6.254 -0.1087  0.5636  0.7364
 8556SOL     OW37300   4.382   0.752   8.791  0.1412 -0.1518  0.0966
 8556SOL    HW137301   4.381   0.837   8.836 -3.6900  0.1441 -0.5263
 8556SOL    HW237302   4.288   0.741   8.778  0.2158 -0.5333 -0.1123
 8557SOL     OW37303   1.910   2.898   4.785  0.1910  0.5536  0.2048
 8557SOL    HW137304   1.922   2.890   4.880 -0.1663 -1.8401  0.0582
 8557SOL    HW237305   1.882   2.989   4.776 -0.8796  0.0822 -1.0855
 8558SOL     OW37306   1.713   0.854   2.249  0.4149 -0.1381 -0.6274
 8558SOL    HW137307   1.656   0.870   2.323  1.3752  0.9853 -0.1239
 8558SOL    HW237308   1.667   0.781   2.209  1.3165 -1.2881  0.4118
 8559SOL     OW37309   2.465   4.393   4.744  0.1546 -0.4361  0.0352
 8559SOL    HW137310   2.440   4.314   4.791  1.4513 -2.3823 -2.5260
 8559SOL    HW237311   2.545   4.366   4.699  0.3060 -1.4500  0.9195
 8560SOL     OW37312   4.192   1.186   6.529  0.2483 -0.2261  0.3242
 8560SOL    HW137313   4.237   1.237   6.596  0.0415  0.6749 -0.2302
 8560SOL    HW237314   4.207   1.245   6.456  0.5988  0.9852  1.3701
 8561SOL     OW37315   1.909   3.041   7.296 -0.1106  0.3439  0.4310
 8561SOL    HW137316   1.818   3.012   7.306  0.1830 -0.7564 -0.1413
 8561SOL    HW237317   1.951   2.969   7.251 -0.6167 -0.7214  1.6681
 8562SOL     OW37318   2.470   2.214   4.389  0.3679 -0.3549 -0.4544
 8562SOL    HW137319   2.430   2.145   4.443 -1.5580  0.7378 -0.4807
 8562SOL    HW237320   2.536   2.171   4.335  0.9877 -0.8866  0.7251
 8563SOL     OW37321   2.393   1.061   4.189  0.4396 -0.1853 -0.1319
 8563SOL    HW137322   2.350   1.083   4.106 -0.0264 -3.7581 -0.8227
 8563SOL    HW237323   2.427   1.146   4.217 -1.0683 -0.3781  2.2577
 8564SOL     OW37324   2.890   0.489   7.693 -0.0107 -0.0826 -0.4605
 8564SOL    HW137325   2.866   0.564   7.637  1.9786  2.3090  1.8802
 8564SOL    HW237326   2.810   0.437   7.684 -0.9444  1.3225 -0.4436
 8565SOL     OW37327   3.537   2.208  10.063  0.0352  0.1731  0.1205
 8565SOL    HW137328   3.525   2.171   9.976 -1.9673  0.6288  0.2057
 8565SOL    HW237329   3.612   2.265  10.047  0.7665 -1.3395 -1.8446
 8566SOL     OW37330   0.789   3.220   4.032 -0.2397 -0.0081  0.2423
 8566SOL    HW137331   0.846   3.295   4.047  0.1799 -0.8925  3.1263
 8566SOL    HW237332   0.819   3.163   4.103  1.6305  0.4407 -0.1866
 8567SOL     OW37333   4.645   1.359   6.725 -0.1480  0.4321  0.1720
 8567SOL    HW137334   4.642   1.445   6.766  1.1001  0.8264 -0.5895
 8567SOL    HW237335   4.555   1.344   6.698  0.2387 -1.5156 -0.0884
 8568SOL     OW37336   2.694   4.621  16.135  0.7743  0.6698  0.2943
 8568SOL    HW137337   2.734   4.680  16.199  1.0050  0.6568  0.1625
 8568SOL    HW237338   2.763   4.632  16.069  1.8350  0.4462  1.3581
 8569SOL     OW37339   2.488   1.533  15.877  0.1108  0.1911  0.0814
 8569SOL    HW137340   2.509   1.622  15.851  0.2314  0.6061  1.5869
 8569SOL    HW237341   2.412   1.515  15.822  2.2711 -0.8515 -2.5411
 8570SOL     OW37342   2.019   3.268  11.416  0.1028 -0.2545  0.2322
 8570SOL    HW137343   2.104   3.237  11.385  1.6576  1.8394  2.3936
 8570SOL    HW237344   2.050   3.333  11.480  0.0585  0.5669 -0.5902
 8571SOL     OW37345   2.470   1.285   2.733 -0.3072  0.0627 -0.4926
 8571SOL    HW137346   2.556   1.284   2.692 -1.4168 -1.7273 -2.7626
 8571SOL    HW237347   2.449   1.370   2.695 -2.8219 -0.3905 -0.0909
 8572SOL     OW37348   1.683   3.073   2.157 -0.1092  0.2836  0.0222
 8572SOL    HW137349   1.773   3.045   2.174 -0.1925  1.3838  2.2552
 8572SOL    HW237350   1.654   3.090   2.247  1.6119 -1.8978  0.9696
 8573SOL     OW37351   2.712   2.656   5.319 -0.3612  0.3600 -0.0413
 8573SOL    HW137352   2.628   2.684   5.280  0.3400 -1.5283 -2.8890
 8573SOL    HW237353   2.747   2.732   5.366 -0.4389  0.9658 -0.9641
 8574SOL     OW37354   1.917   2.820   6.125 -0.0944  0.1442  0.1146
 8574SOL    HW137355   1.945   2.753   6.062 -1.1777 -1.2869  1.1607
 8574SOL    HW237356   1.823   2.802   6.127 -0.1950  0.7342  0.6678
 8575SOL     OW37357   2.670   3.601   8.772 -0.2757 -0.2156  0.8379
 8575SOL    HW137358   2.627   3.559   8.697  0.4485  2.1985 -0.9523
 8575SOL    HW237359   2.757   3.571   8.744  0.2428  1.6953  0.3867
 8576SOL     OW37360   1.850   3.532   9.090  0.3537 -0.2346 -0.4646
 8576SOL    HW137361   1.918   3.535   9.023  0.3755 -0.4154 -0.4517
 8576SOL    HW237362   1.898   3.547   9.172  2.6894  0.0233 -1.8621
 8577SOL     OW37363   0.438   2.198   8.669  0.3811 -0.2354  0.5600
 8577SOL    HW137364   0.475   2.282   8.697  0.4534 -0.2003  0.3618
 8577SOL    HW237365   0.432   2.220   8.576  1.0702  0.3876  0.6591
 8578SOL     OW37366   0.829   1.602   0.311 -0.1482 -0.5899  0.0202
 8578SOL    HW137367   0.910   1.568   0.350  0.6404  0.3601 -0.7772
 8578SOL    HW237368   0.805   1.531   0.251  1.8567 -2.3804  1.3186
 8579SOL     OW37369   3.360   3.829   7.968 -0.3647  0.5708 -0.2574
 8579SOL    HW137370   3.383   3.820   8.060  0.2856 -0.0604 -0.4788
 8579SOL    HW237371   3.266   3.840   7.956 -0.0579  2.4084 -1.0304
 8580SOL     OW37372   0.399   2.490  17.384 -0.2731 -0.2739 -0.0774
 8580SOL    HW137373   0.341   2.557  17.346 -1.1847 -0.5273  0.8842
 8580SOL    HW237374   0.474   2.544  17.410 -0.5983  0.7133 -1.1504
 8581SOL     OW37375   1.696   0.452   7.583 -0.2003  0.6132  0.6562
 8581SOL    HW137376   1.763   0.518   7.563  0.9210 -0.8497 -0.3710
 8581SOL    HW237377   1.744   0.394   7.642 -0.0291 -1.2514 -1.3271
 8582SOL     OW37378   4.079   4.307  10.284 -0.3331 -0.5308  0.4675
 8582SOL    HW137379   3.998   4.302  10.336 -0.2738  1.0138  0.6961
 8582SOL    HW237380   4.142   4.288  10.353 -0.2682  0.2943  0.6367
 8583SOL     OW37381   1.260   2.983   2.961 -0.5805 -0.0893  0.1128
 8583SOL    HW137382   1.290   2.955   2.875  0.0916  0.5203  0.1457
 8583SOL    HW237383   1.331   2.962   3.022 -1.8931 -0.5066  1.5270
 8584SOL     OW37384   2.951   4.042  16.565  0.5485 -0.3633 -0.1752
 8584SOL    HW137385   2.895   4.106  16.610  1.0512 -0.1230  0.0973
 8584SOL    HW237386   2.920   4.055  16.475  0.5303 -4.6118 -0.7892
 8585SOL     OW37387   1.969   3.530  16.360 -0.3688  0.0188  0.0576
 8585SOL    HW137388   1.961   3.460  16.425  2.6678 -0.1356  0.2713
 8585SOL    HW237389   2.030   3.488  16.299  1.0744  0.3582  1.2789
 8586SOL     OW37390   1.713   1.759   8.891  0.7238 -0.3611  0.0362
 8586SOL    HW137391   1.651   1.805   8.948  0.6055  1.3216 -1.4623
 8586SOL    HW237392   1.706   1.672   8.930  0.1494 -0.2227  0.2441
 8587SOL     OW37393   0.958   0.102  17.290  1.0751  0.1817  0.1829
 8587SOL    HW137394   0.986   0.084  17.201  0.0566 -0.6057  0.0286
 8587SOL    HW237395   0.921   0.190  17.291  2.7636  0.9074 -0.6085
 8588SOL     OW37396   2.767   4.629   3.428  0.2534 -0.5821  0.4490
 8588SOL    HW137397   2.793   4.660   3.342 -0.3871  0.8165  0.7598
 8588SOL    HW237398   2.718   4.554   3.394  0.2053 -0.1450 -0.4444
 8589SOL     OW37399   4.524   3.030   2.941 -0.6677  0.6596 -0.2752
 8589SOL    HW137400   4.460   3.071   2.883 -1.3680 -1.7132 -1.1798
 8589SOL    HW237401   4.602   3.033   2.886 -1.6027  2.4715 -1.5114
 8590SOL     OW37402   0.034   3.086   4.131  0.0150 -0.2360  0.2557
 8590SOL    HW137403   0.109   3.086   4.191  1.9209  0.6154 -2.1257
 8590SOL    HW237404   4.705   3.037   4.181  2.0568  0.5639  3.7603
 8591SOL     OW37405   2.247   4.335   3.345 -0.0792 -0.2459  0.3684
 8591SOL    HW137406   2.173   4.311   3.289  1.8162 -2.3891 -1.1663
 8591SOL    HW237407   2.270   4.251   3.383  1.8971 -0.1055 -0.5402
 8592SOL     OW37408   2.363   4.448   8.782  0.1518  1.0757  0.1821
 8592SOL    HW137409   2.360   4.370   8.838 -0.3794  0.8954 -0.1015
 8592SOL    HW237410   2.398   4.510   8.847 -2.3507  1.2467  1.3660
 8593SOL     OW37411   1.684   3.877  10.304  0.3258  0.1131 -0.0389
 8593SOL    HW137412   1.726   3.958  10.275 -0.7136  0.9020  0.6360
 8593SOL    HW237413   1.758   3.817  10.316  0.4721 -0.1116 -2.1703
 8594SOL     OW37414   3.394   0.510   6.710  0.0853  0.8293  0.4085
 8594SOL    HW137415   3.427   0.426   6.742  0.4501  0.6102 -0.5531
 8594SOL    HW237416   3.352   0.482   6.629  1.7410 -1.1520  0.2338
 8595SOL     OW37417   3.916   3.120   9.796  0.6835  0.0138 -0.6102
 8595SOL    HW137418   3.985   3.069   9.753  2.5106  2.3309 -0.4013
 8595SOL    HW237419   3.840   3.072   9.764  2.6350 -3.0264 -0.7807
 8596SOL     OW37420   0.091   4.413   2.049 -0.5141  0.1446 -0.5295
 8596SOL    HW137421   0.102   4.492   1.996  0.1739 -0.2937 -1.0417
 8596SOL    HW237422   0.044   4.353   1.990 -1.0276 -0.6207  0.6455
 8597SOL     OW37423   2.556   1.676   8.264 -0.1218 -0.2197  0.0061
 8597SOL    HW137424   2.544   1.666   8.169 -3.2048  0.7048  0.3021
 8597SOL    HW237425   2.538   1.587   8.293 -0.1350 -1.1937 -2.9485
 8598SOL     OW37426   3.743   3.632   3.550 -0.2412  0.2731  0.5970
 8598SOL    HW137427   3.676   3.610   3.615 -0.4541  1.3238  0.7378
 8598SOL    HW237428   3.751   3.552   3.498  1.0516  0.9502 -0.2423
 8599SOL     OW37429   2.443   1.312   1.567  0.6892 -0.0607  0.2622
 8599SOL    HW137430   2.446   1.268   1.482  1.0907 -0.3446  0.4247
 8599SOL    HW237431   2.494   1.390   1.547  2.2968 -0.6512  2.1029
 8600SOL     OW37432   1.332   4.098   3.079  0.0882 -0.3927 -0.8827
 8600SOL    HW137433   1.368   4.034   3.018 -1.2723 -0.3271 -1.7297
 8600SOL    HW237434   1.407   4.152   3.103  2.1734 -2.8736 -1.8226
 8601SOL     OW37435   4.458   0.881   6.932 -0.2178 -0.2198  0.4753
 8601SOL    HW137436   4.483   0.959   6.981 -0.6263  0.0778  0.2175
 8601SOL    HW237437   4.535   0.826   6.944 -0.2042 -0.0345  1.1811
 8602SOL     OW37438   4.308   4.171  12.252 -0.1346  0.0285  0.0388
 8602SOL    HW137439   4.377   4.231  12.225  0.8657 -0.2439  1.9430
 8602SOL    HW237440   4.290   4.135  12.165  1.5206 -2.1513  0.5979
 8603SOL     OW37441   3.470   2.173   4.415 -0.0516 -0.3724 -0.7499
 8603SOL    HW137442   3.534   2.225   4.367  2.3994 -1.3233  1.4871
 8603SOL    HW237443   3.387   2.195   4.373 -0.2317  1.3269  0.4473
 8604SOL     OW37444   1.366   0.628  14.324 -0.6290  0.1473 -0.5243
 8604SOL    HW137445   1.358   0.671  14.409  0.5959  0.4548 -0.5614
 8604SOL    HW237446   1.306   0.683  14.274 -0.5932 -0.6928 -1.5029
 8605SOL     OW37447   3.539   2.741   5.111 -0.4736  0.1717  0.3064
 8605SOL    HW137448   3.562   2.669   5.054  1.3720  0.1919  1.0335
 8605SOL    HW237449   3.567   2.707   5.196 -0.0196 -0.2977 -0.0377
 8606SOL     OW37450   3.629   0.926   1.618 -0.3416  0.4300 -0.1857
 8606SOL    HW137451   3.704   0.975   1.584  1.3389 -1.1551  1.2196
 8606SOL    HW237452   3.585   1.007   1.644 -1.5813  0.5669 -2.7682
 8607SOL     OW37453   1.985   0.159   9.897 -0.3168  0.3449  0.2648
 8607SOL    HW137454   2.023   0.233   9.944 -0.5366  0.7074 -0.1333
 8607SOL    HW237455   2.053   0.134   9.835 -0.7622 -0.4584  0.0985
 8608SOL     OW37456   0.066   3.709   4.347 -0.1114 -0.0352 -0.6556
 8608SOL    HW137457   0.107   3.789   4.381 -2.0000  0.1145  1.2078
 8608SOL    HW237458   0.110   3.644   4.401 -0.9599  0.5035  0.6771
 8609SOL     OW37459   3.213   1.087   8.555 -0.7974 -0.3292  0.1912
 8609SOL    HW137460   3.132   1.042   8.532 -1.5411 -0.2729  2.6781
 8609SOL    HW237461   3.260   1.076   8.472  0.2763 -0.5947  0.8286
 8610SOL     OW37462   3.924   0.310   4.407  0.0984 -0.0552 -0.2419
 8610SOL    HW137463   3.917   0.398   4.372 -0.4477 -0.7641 -1.9187
 8610SOL    HW237464   3.997   0.279   4.353  1.0183  1.0325  0.3690
 8611SOL     OW37465   1.082   3.878   7.114  0.5403  0.1302 -0.1234
 8611SOL    HW137466   1.062   3.785   7.127 -0.1732  0.1167 -1.4018
 8611SOL    HW237467   1.000   3.918   7.085  0.6930  1.2173  0.9167
 8612SOL     OW37468   0.291   2.980  11.611 -0.4085  0.1668  0.4091
 8612SOL    HW137469   0.223   3.007  11.548 -0.8069 -1.3886  0.1616
 8612SOL    HW237470   0.278   2.885  11.605  0.6120 -0.0039  0.9085
 8613SOL     OW37471   1.328   0.342   4.556  0.1891 -0.2928  0.0746
 8613SOL    HW137472   1.319   0.273   4.621  0.0016  0.9250  1.3327
 8613SOL    HW237473   1.250   0.334   4.501 -0.1489  0.1444  0.4920
 8614SOL     OW37474   3.508   3.708   4.184 -0.1627 -0.4778  0.3435
 8614SOL    HW137475   3.588   3.755   4.210  1.2898 -1.2051 -2.8955
 8614SOL    HW237476   3.454   3.781   4.154  0.1705 -0.5604 -0.4590
 8615SOL     OW37477   4.379   0.579   1.261 -0.3349 -0.3334 -0.1647
 8615SOL    HW137478   4.425   0.662   1.263 -2.6715  1.0428 -2.4198
 8615SOL    HW237479   4.368   0.560   1.354  1.6604 -4.5219 -0.7984
 8616SOL     OW37480   1.832   2.197   2.348  0.0604  0.1205 -0.4753
 8616SOL    HW137481   1.807   2.275   2.298 -1.6366 -0.4405 -0.5230
 8616SOL    HW237482   1.808   2.219   2.438  0.3132  1.3021 -0.7058
 8617SOL     OW37483   0.221   2.354   9.135 -0.1855 -0.1145 -0.2024
 8617SOL    HW137484   0.271   2.304   9.071  0.0978  0.4115 -0.3919
 8617SOL    HW237485   0.150   2.293   9.153 -0.6895  0.5956  0.2100
 8618SOL     OW37486   0.302   3.085   9.994 -0.2473  0.1884 -0.0078
 8618SOL    HW137487   0.258   3.163  10.028 -0.7627 -0.6487  1.2291
 8618SOL    HW237488   0.363   3.127   9.933 -1.8664  3.0989  0.3864
 8619SOL     OW37489   4.235   1.289   2.046 -0.2804 -0.2443 -0.3554
 8619SOL    HW137490   4.142   1.303   2.024 -0.3476 -1.5517 -0.9110
 8619SOL    HW237491   4.230   1.195   2.067 -2.0432 -0.0792  0.0077
 8620SOL     OW37492   3.781   0.132   8.569  0.4952  0.3738 -0.0283
 8620SOL    HW137493   3.800   0.168   8.483  2.4524 -0.4257  0.0727
 8620SOL    HW237494   3.737   0.206   8.612 -0.7519 -0.7232  0.5797
 8621SOL     OW37495   4.594   4.658   5.845 -0.3873  0.0968 -0.1399
 8621SOL    HW137496   4.542   4.613   5.778  0.4070  0.5023 -1.0284
 8621SOL    HW237497   4.677   4.612   5.837 -1.8261 -2.4841 -0.3081
 8622SOL     OW37498   0.175   0.380   5.267 -0.1119 -0.3125 -1.2061
 8622SOL    HW137499   0.150   0.469   5.289  0.4952  0.0348 -1.9032
 8622SOL    HW237500   0.141   0.319   5.333 -0.4177  1.1383 -0.0363
 8623SOL     OW37501   0.871   1.856   0.556  0.2828 -0.4225  0.0194
 8623SOL    HW137502   0.817   1.816   0.488 -0.0021  1.1343 -0.6646
 8623SOL    HW237503   0.948   1.801   0.567  1.5288  1.0538 -1.4294
 8624SOL     OW37504   2.911   4.080   0.118  0.1581  0.3231 -0.5911
 8624SOL    HW137505   2.859   4.062   0.039  1.5494 -1.2976 -1.1226
 8624SOL    HW237506   2.964   4.000   0.124  1.3616  1.2563  0.9555
 8625SOL     OW37507   2.652   2.777   2.384 -0.3550  0.1843 -0.5310
 8625SOL    HW137508   2.658   2.682   2.374  0.6564  0.0960  0.9014
 8625SOL    HW237509   2.580   2.792   2.323 -0.3800 -2.4415 -1.1376
 8626SOL     OW37510   4.610   4.229   7.361  0.2936  0.9077 -0.1592
 8626SOL    HW137511   4.663   4.212   7.439  2.5130  1.4105 -1.5482
 8626SOL    HW237512   4.675   4.191   7.302  0.7906  0.3630  0.7325
 8627SOL     OW37513   3.026   3.269  17.495 -0.3109  0.4056  0.0017
 8627SOL    HW137514   3.078   3.348  17.479 -2.1278  1.8183  1.1044
 8627SOL    HW237515   3.081   3.241  17.568 -1.7198 -1.2021  0.4549
 8628SOL     OW37516   4.616   3.159   6.723  0.1336  0.0529 -0.2866
 8628SOL    HW137517   4.673   3.216   6.672 -1.2695 -0.5548 -2.5238
 8628SOL    HW237518   4.563   3.225   6.768  0.5629  1.1562 -1.4189
 8629SOL     OW37519   0.648   2.682   2.187  0.4015  0.4875  0.1169
 8629SOL    HW137520   0.612   2.606   2.232 -0.2726 -0.4159 -1.9371
 8629SOL    HW237521   0.703   2.726   2.252 -1.0312 -2.1375  3.0663
 8630SOL     OW37522   2.655   4.054   8.024  0.0056  0.0460  0.8441
 8630SOL    HW137523   2.733   4.111   8.023  0.6181 -0.8159 -0.3709
 8630SOL    HW237524   2.592   4.099   7.968  1.1470  1.4128  0.6448
 8631SOL     OW37525   2.316   4.174   2.571 -0.0986 -0.1024 -0.0917
 8631SOL    HW137526   2.357   4.261   2.568  1.3821 -0.7846  0.5910
 8631SOL    HW237527   2.241   4.190   2.513 -0.8710 -0.3272  0.8451
 8632SOL     OW37528   0.119   1.699   7.871  0.5765  0.1212  0.1275
 8632SOL    HW137529   0.075   1.616   7.890 -0.2704  0.9301  1.7264
 8632SOL    HW237530   0.160   1.680   7.787  0.6060  0.9217 -0.0306
 8633SOL     OW37531   2.772   0.740   2.072  0.1624 -0.0027  0.1186
 8633SOL    HW137532   2.742   0.658   2.033  0.8692  0.7700 -2.0686
 8633SOL    HW237533   2.860   0.720   2.103  0.7618  2.5762  0.0882
 8634SOL     OW37534   0.348   3.531   1.566  0.5300 -0.4899 -0.1238
 8634SOL    HW137535   0.324   3.572   1.483  0.2058  0.3189  0.3653
 8634SOL    HW237536   0.414   3.476   1.523  1.4419  0.3554  0.1765
 8635SOL     OW37537   2.516   2.072  15.411  0.1110 -0.5722 -0.3528
 8635SOL    HW137538   2.597   2.108  15.374  0.7585  0.8335  2.4581
 8635SOL    HW237539   2.447   2.134  15.386 -0.3657 -0.3303  1.5908
 8636SOL     OW37540   4.565   3.475  16.993  0.2078 -0.1760  0.3929
 8636SOL    HW137541   4.653   3.467  16.956  0.7524 -1.1835  1.9023
 8636SOL    HW237542   4.518   3.406  16.945  1.2148 -1.4431  1.2503
 8637SOL     OW37543   4.025   0.046   1.544 -0.6570  0.0258 -0.2870
 8637SOL    HW137544   4.016   0.051   1.639  0.1791 -2.1930 -0.1058
 8637SOL    HW237545   4.012   0.140   1.529 -0.1518  0.4068  1.7068
 8638SOL     OW37546   1.371   3.857   7.965 -0.2205 -0.4943 -0.5142
 8638SOL    HW137547   1.387   3.782   7.908  1.8167 -1.4213  1.3192
 8638SOL    HW237548   1.380   3.924   7.896 -2.6783 -0.9673 -1.3069
 8639SOL     OW37549   3.492   2.044   3.423 -0.3743 -0.2084  0.4719
 8639SOL    HW137550   3.477   2.044   3.328 -0.3647  0.6567  0.4665
 8639SOL    HW237551   3.479   1.953   3.448  0.6046  0.1792  2.3866
 8640SOL     OW37552   0.672   2.636  17.437  0.1915  0.4852  0.6676
 8640SOL    HW137553   0.704   2.726  17.433 -1.6172  1.0274 -1.8028
 8640SOL    HW237554   0.605   2.644  17.368 -0.8205  1.3535  1.7659
 8641SOL     OW37555   1.945   4.383   2.364  0.1481 -0.5683  0.0432
 8641SOL    HW137556   1.853   4.361   2.377 -0.4137  2.4101  1.0621
 8641SOL    HW237557   1.944   4.478   2.352 -3.4649 -0.4280  1.4274
 8642SOL     OW37558   0.767   0.527   2.352 -0.0836 -0.8358 -0.0004
 8642SOL    HW137559   0.813   0.446   2.332 -0.3860 -1.2332  0.9189
 8642SOL    HW237560   0.726   0.501   2.435  0.4383  0.7272  0.7586
 8643SOL     OW37561   0.626   1.691   3.089  0.6309  0.8458  0.3801
 8643SOL    HW137562   0.654   1.628   3.022 -0.3531 -1.8045  2.4766
 8643SOL    HW237563   0.532   1.680   3.079  0.8176 -1.4204  1.0793
 8644SOL     OW37564   3.065   4.246   3.540  0.3882  0.5467 -0.6834
 8644SOL    HW137565   3.001   4.178   3.563  0.6827  1.0724  1.7109
 8644SOL    HW237566   3.019   4.296   3.474  0.7151 -0.4861 -1.7025
 8645SOL     OW37567   0.403   3.447  10.208  0.0233  0.1997  0.3504
 8645SOL    HW137568   0.355   3.512  10.157  1.1295  1.0858  0.4282
 8645SOL    HW237569   0.490   3.468  10.174  0.6024 -2.0071  0.4664
 8646SOL     OW37570   4.090   4.290  17.253 -0.2923 -0.6974 -0.2852
 8646SOL    HW137571   4.020   4.337  17.299  0.3667  0.4338 -0.4206
 8646SOL    HW237572   4.044   4.286  17.169  0.0076 -1.5521 -0.3986
 8647SOL     OW37573   4.401   0.453   2.695 -0.1967  0.2009  0.2008
 8647SOL    HW137574   4.326   0.470   2.751 -0.0466 -2.0394  1.1131
 8647SOL    HW237575   4.348   0.443   2.617  1.3702  0.1496 -0.8579
 8648SOL     OW37576   4.697   3.394   2.578  0.3793  0.7479 -0.3681
 8648SOL    HW137577   4.644   3.412   2.655  1.8776 -0.0062  0.8521
 8648SOL    HW237578   4.648   3.319   2.544  1.1580  0.3554 -0.6286
 8649SOL     OW37579   1.195   1.215   5.530 -0.0084 -0.1091  0.4140
 8649SOL    HW137580   1.209   1.227   5.436  1.3993 -0.2296  0.6089
 8649SOL    HW237581   1.104   1.243   5.537  0.0371  0.5662 -1.6921
 8650SOL     OW37582   1.057   4.342   3.148  0.9983  0.2767 -0.1536
 8650SOL    HW137583   1.146   4.353   3.180  2.2290 -0.9884 -3.1234
 8650SOL    HW237584   1.040   4.248   3.159  0.4937  0.3252 -0.5277
 8651SOL     OW37585   4.553   3.832   8.553 -0.1774  0.2952 -0.1242
 8651SOL    HW137586   4.487   3.876   8.499 -0.3190  0.0668 -0.1352
 8651SOL    HW237587   4.579   3.903   8.612 -2.5495  1.2985 -0.2810
 8652SOL     OW37588   1.636   1.400   0.372 -0.4415  0.1077 -0.1197
 8652SOL    HW137589   1.590   1.360   0.299 -0.2731 -0.9906  0.3840
 8652SOL    HW237590   1.701   1.332   0.387  0.2072  0.9990  1.1708
 8653SOL     OW37591   2.449   0.964   8.160  0.1836  0.1093  0.2807
 8653SOL    HW137592   2.425   0.936   8.249 -0.0616 -1.4005 -0.2632
 8653SOL    HW237593   2.532   0.917   8.150  1.3453  2.0402  0.8357
 8654SOL     OW37594   4.004   0.686   4.668 -0.1024 -0.5885 -0.2455
 8654SOL    HW137595   4.009   0.718   4.758 -0.5594 -0.2783 -0.3335
 8654SOL    HW237596   4.048   0.758   4.623  0.3332 -1.4190 -1.1692
 8655SOL     OW37597   4.349   2.341   2.713  0.0450 -0.2050 -0.2119
 8655SOL    HW137598   4.351   2.434   2.691 -0.2891 -0.0191  0.5318
 8655SOL    HW237599   4.271   2.332   2.769  0.5255 -1.5182  0.2242
 8656SOL     OW37600   4.173   4.323   7.017  0.3183 -0.2842 -0.1326
 8656SOL    HW137601   4.254   4.361   7.050  0.7630 -2.3305  1.1175
 8656SOL    HW237602   4.111   4.315   7.089  1.8347  2.7987  1.5164
 8657SOL     OW37603   4.305   2.736   4.844  0.0350 -0.2301 -0.1461
 8657SOL    HW137604   4.338   2.792   4.773  0.3773 -1.4619 -0.9623
 8657SOL    HW237605   4.227   2.781   4.875 -1.5822 -2.8308 -0.3919
 8658SOL     OW37606   3.768   1.215  11.756 -0.5325 -0.0544  0.1862
 8658SOL    HW137607   3.767   1.121  11.777  2.7539 -0.3462 -0.9621
 8658SOL    HW237608   3.862   1.232  11.752 -1.2518  3.7433 -0.5223
 8659SOL     OW37609   1.825   2.308   3.037 -0.1744 -0.3554  0.4926
 8659SOL    HW137610   1.918   2.327   3.048 -0.1058 -0.4563  0.1044
 8659SOL    HW237611   1.801   2.265   3.119  1.1295  2.3901  2.3191
 8660SOL     OW37612   2.078   0.384   7.878 -0.1237  0.1824  0.1670
 8660SOL    HW137613   2.021   0.392   7.955 -2.8988  3.0186 -2.1584
 8660SOL    HW237614   2.015   0.383   7.806 -0.7066 -0.8659  0.6759
 8661SOL     OW37615   1.656   3.856  11.114  0.8870  0.1290 -0.2950
 8661SOL    HW137616   1.589   3.898  11.168 -1.1922 -1.0093 -2.0033
 8661SOL    HW237617   1.712   3.931  11.091  1.3118  0.4384  1.7291
 8662SOL     OW37618   1.901   2.144  14.033 -0.7205 -0.4550  0.3923
 8662SOL    HW137619   1.880   2.196  13.955  0.5438 -0.0239  0.3342
 8662SOL    HW237620   1.827   2.137  14.093 -1.0253  1.4626  0.2154
 8663SOL     OW37621   3.880   2.495  16.718 -0.6550 -0.1828  0.0238
 8663SOL    HW137622   3.873   2.465  16.628  0.9492 -1.9339  0.4926
 8663SOL    HW237623   3.884   2.589  16.700 -1.6222 -0.3275 -0.9396
 8664SOL     OW37624   4.218   3.756  13.364  0.6677 -0.5418 -0.0789
 8664SOL    HW137625   4.247   3.832  13.413  0.4882 -1.7796  1.9583
 8664SOL    HW237626   4.282   3.690  13.390 -0.2077 -0.6500  1.7833
 8665SOL     OW37627   4.638   1.796   4.907  0.4041  0.5862  0.1497
 8665SOL    HW137628   4.694   1.855   4.857 -2.7721  1.6927 -2.1110
 8665SOL    HW237629   4.705   1.745   4.954 -0.3432 -0.3040  0.2334
 8666SOL     OW37630   2.096   1.444   6.311  0.3114  0.3072  0.1353
 8666SOL    HW137631   2.072   1.423   6.221  1.3782 -0.6738  0.0817
 8666SOL    HW237632   2.173   1.500   6.303  1.0322 -0.7489 -0.2306
 8667SOL     OW37633   2.612   4.423   8.192 -0.1952 -0.2649  0.1093
 8667SOL    HW137634   2.640   4.507   8.229  3.4812 -1.0163 -0.9758
 8667SOL    HW237635   2.621   4.450   8.100  1.8784  1.9486  0.9694
 8668SOL     OW37636   4.346   0.592  14.036  0.1830  0.4996  0.3159
 8668SOL    HW137637   4.276   0.642  13.994 -2.1378 -0.8308  2.6062
 8668SOL    HW237638   4.367   0.519  13.978 -2.3164 -0.3739  0.5372
 8669SOL     OW37639   3.135   0.683   2.942 -0.3016  0.1752 -0.2936
 8669SOL    HW137640   3.070   0.682   3.012  0.5227 -0.4560  0.4620
 8669SOL    HW237641   3.205   0.728   2.990  0.7252 -0.7727 -0.8949
 8670SOL     OW37642   1.331   2.706   3.421  0.0695  0.1822  0.4739
 8670SOL    HW137643   1.423   2.687   3.441 -0.5510 -1.5103  1.7429
 8670SOL    HW237644   1.317   2.670   3.333  0.6237 -0.0681  0.4850
 8671SOL     OW37645   3.506   4.659   4.061  0.0122 -0.2829 -0.0368
 8671SOL    HW137646   3.460   0.007   4.061  0.6466  0.0608  1.2000
 8671SOL    HW237647   3.585   4.687   4.107  0.1804  0.1164 -0.5704
 8672SOL     OW37648   3.157   2.781   3.698  0.0715  0.0257 -0.3265
 8672SOL    HW137649   3.168   2.710   3.760  0.5068  1.7258  1.5319
 8672SOL    HW237650   3.247   2.799   3.671 -0.2566  1.8587 -0.2316
 8673SOL     OW37651   3.854   0.202   3.099  1.1394 -0.3019 -0.2039
 8673SOL    HW137652   3.897   0.126   3.058  1.0054 -0.3385 -0.2775
 8673SOL    HW237653   3.800   0.145   3.154  1.6208 -1.3456 -0.7937
 8674SOL     OW37654   0.350   2.658   8.823 -0.7424 -0.0814 -0.3375
 8674SOL    HW137655   0.410   2.698   8.887 -1.3027  0.3509 -0.0753
 8674SOL    HW237656   0.287   2.622   8.885  0.0053  1.7788  1.5229
 8675SOL     OW37657   4.681   2.394   8.788  0.0314 -0.0915  0.8626
 8675SOL    HW137658   4.603   2.382   8.842 -0.7875  0.7271 -0.1345
 8675SOL    HW237659   4.731   2.450   8.847 -0.0927 -0.3180  1.1842
 8676SOL     OW37660   0.535   0.113   8.736 -0.2531 -0.1295 -0.0664
 8676SOL    HW137661   0.458   0.059   8.720 -0.8988  0.8415 -0.2459
 8676SOL    HW237662   0.508   0.204   8.726  0.5426  0.4071  2.6035
 8677SOL     OW37663   1.345   3.667   5.856 -0.4017  0.7134  0.0312
 8677SOL    HW137664   1.275   3.726   5.830 -1.8157 -1.3532 -0.8555
 8677SOL    HW237665   1.378   3.720   5.929  1.1367 -0.6622  0.3317
 8678SOL     OW37666   4.557   1.567   8.705 -0.4041 -0.1509  0.2118
 8678SOL    HW137667   4.558   1.609   8.791  2.8940 -2.0203  1.0762
 8678SOL    HW237668   4.571   1.643   8.649 -2.0185  0.1688  0.2197
 8679SOL     OW37669   0.600   4.405   4.884 -0.4764  0.2537 -0.0357
 8679SOL    HW137670   0.525   4.458   4.856 -1.1707  0.8723  2.9244
 8679SOL    HW237671   0.650   4.476   4.926  1.6647 -0.2565 -1.7256
 8680SOL     OW37672   3.234   0.398   8.643 -0.6553 -0.1383 -0.1572
 8680SOL    HW137673   3.151   0.445   8.655 -0.3907  0.7478 -1.7435
 8680SOL    HW237674   3.274   0.433   8.563  1.5808  0.1984  1.1136
 8681SOL     OW37675   4.476   1.079   6.699  0.0587  0.7679 -0.8023
 8681SOL    HW137676   4.437   1.053   6.783  1.7017  0.7578 -0.0495
 8681SOL    HW237677   4.436   1.166   6.697 -3.0231 -0.6397 -0.5745
 8682SOL     OW37678   2.474   0.552   1.930 -0.2788 -0.3866  0.1049
 8682SOL    HW137679   2.448   0.638   1.963 -0.4233 -1.0635  1.7635
 8682SOL    HW237680   2.568   0.546   1.946 -0.3875 -0.6951  0.6304
 8683SOL     OW37681   0.044   3.466   2.961  0.0669  0.1109 -0.0343
 8683SOL    HW137682   0.117   3.525   2.979  0.3417 -0.2482  0.0393
 8683SOL    HW237683   0.001   3.529   2.905 -0.1412  2.6123  2.9339
 8684SOL     OW37684   2.976   2.319   7.734 -0.4887 -0.0418  0.7178
 8684SOL    HW137685   2.999   2.307   7.826 -0.9468 -1.2437  0.6719
 8684SOL    HW237686   2.927   2.401   7.736  1.5727  1.2779 -2.7416
 8685SOL     OW37687   4.608   4.603   1.900 -0.1005  0.2520 -0.1797
 8685SOL    HW137688   4.558   4.625   1.979  0.2615 -0.2115  0.1804
 8685SOL    HW237689   4.537   4.577   1.841  0.1292 -1.4853  0.3025
 8686SOL     OW37690   2.677   2.480   4.180  0.4342 -0.0531 -0.4587
 8686SOL    HW137691   2.598   2.493   4.127  0.3784  0.5735 -0.2155
 8686SOL    HW237692   2.743   2.466   4.113 -0.8684 -0.8920 -1.5706
 8687SOL     OW37693   2.252   1.772   7.932  0.3276  0.1535  0.4662
 8687SOL    HW137694   2.238   1.796   7.840  1.9480 -1.5477 -0.2199
 8687SOL    HW237695   2.165   1.795   7.966  0.1505  1.6899 -1.0299
 8688SOL     OW37696   4.426   4.529   5.668  0.4410 -0.0810  0.0298
 8688SOL    HW137697   4.447   4.474   5.592 -2.4639  0.8927 -1.4746
 8688SOL    HW237698   4.330   4.527   5.676  0.3762  1.6546 -0.3950
 8689SOL     OW37699   1.341   4.541   2.709  0.5223  0.0067  0.3250
 8689SOL    HW137700   1.326   4.456   2.668  2.0307 -1.3153  2.5529
 8689SOL    HW237701   1.257   4.569   2.744 -0.6036 -0.5621 -1.9484
 8690SOL     OW37702   4.040   2.691   2.776  0.7176 -0.9187 -0.4255
 8690SOL    HW137703   3.987   2.615   2.752  0.9246 -2.1494  2.9842
 8690SOL    HW237704   3.968   2.754   2.782  3.3145  1.9825  0.5029
 8691SOL     OW37705   1.633   4.341   5.724  0.0723  0.0591  0.4773
 8691SOL    HW137706   1.662   4.282   5.794  0.9423 -3.3111 -2.6754
 8691SOL    HW237707   1.685   4.420   5.738 -0.1234  0.2007  0.3963
 8692SOL     OW37708   4.065   1.477   7.908  0.2591  0.3051  0.4371
 8692SOL    HW137709   3.975   1.449   7.892  0.5065 -0.9458  1.2202
 8692SOL    HW237710   4.099   1.483   7.819 -1.8016  2.0933 -0.2287
 8693SOL     OW37711   3.859   1.027  10.115  0.6043 -0.2513 -0.1588
 8693SOL    HW137712   3.824   1.059  10.032  0.0242  3.0431  1.3644
 8693SOL    HW237713   3.777   1.005  10.159 -0.0824  0.8062 -0.8998
 8694SOL     OW37714   2.693   4.663   5.025  0.8537 -0.1012 -0.4681
 8694SOL    HW137715   2.767   4.689   5.080 -0.3695  1.5895  0.3833
 8694SOL    HW237716   2.643   4.609   5.086  0.6582  1.4703  0.7500
 8695SOL     OW37717   1.734   3.497   5.703  0.3492  0.2543  0.0276
 8695SOL    HW137718   1.779   3.577   5.730  1.3785  0.2522 -1.6745
 8695SOL    HW237719   1.757   3.445   5.780  0.1877 -0.1046 -0.1645
 8696SOL     OW37720   1.666   0.783  11.375  0.4139 -0.0542 -0.3354
 8696SOL    HW137721   1.582   0.756  11.411  0.8421 -0.8497  0.0627
 8696SOL    HW237722   1.656   0.766  11.281 -0.8691 -0.3907 -0.1331
 8697SOL     OW37723   2.069   0.618   7.131  0.6610  0.3324  0.2270
 8697SOL    HW137724   2.054   0.667   7.050 -1.9935 -2.2876 -0.8453
 8697SOL    HW237725   2.078   0.529   7.099 -0.3907  0.9084 -1.6994
 8698SOL     OW37726   3.270   3.716  10.449 -0.0171 -0.4610  0.1019
 8698SOL    HW137727   3.357   3.753  10.437 -0.4844 -0.0816 -2.0957
 8698SOL    HW237728   3.209   3.778  10.410  1.3261  1.6885  1.4384
 8699SOL     OW37729   3.578   1.422  12.366 -0.6560  0.0764  0.0760
 8699SOL    HW137730   3.580   1.501  12.420 -0.9163 -0.8676  1.4671
 8699SOL    HW237731   3.654   1.424  12.308 -0.4924 -0.8952  0.2706
 8700SOL     OW37732   4.399   1.491   2.514  0.1265  0.0656 -0.2695
 8700SOL    HW137733   4.400   1.466   2.422 -1.6461 -1.2447  0.0759
 8700SOL    HW237734   4.306   1.515   2.521  0.7944  2.9497 -1.1849
 8701SOL     OW37735   1.126   2.512  15.175  0.4294 -0.4508 -0.0497
 8701SOL    HW137736   1.162   2.483  15.091 -1.3763 -0.3889 -0.8192
 8701SOL    HW237737   1.039   2.473  15.167 -0.7951  1.9119  1.7151
 8702SOL     OW37738   4.011   0.860  16.080  0.2604  0.4128  1.2787
 8702SOL    HW137739   4.011   0.787  16.141 -1.7908  0.0113  0.8076
 8702SOL    HW237740   4.061   0.818  16.010  0.1947  1.4364  0.6175
 8703SOL     OW37741   4.711   1.263   9.599 -0.5938  0.1682  0.0322
 8703SOL    HW137742   4.706   1.357   9.583  0.7244 -0.0425 -1.6179
 8703SOL    HW237743   0.054   1.247   9.548  1.5120  0.8611  3.0556
 8704SOL     OW37744   1.838   0.651  11.574 -0.2644  0.1135 -0.0352
 8704SOL    HW137745   1.792   0.573  11.604  0.9489 -0.6035 -0.0362
 8704SOL    HW237746   1.786   0.673  11.496  0.9581  1.5149 -0.4522
 8705SOL     OW37747   4.091   0.331   1.765 -0.1506  0.1980  0.4280
 8705SOL    HW137748   4.179   0.310   1.734 -0.1500  2.3027 -1.0184
 8705SOL    HW237749   4.043   0.336   1.682  0.5308  1.5591  0.1092
 8706SOL     OW37750   0.953   2.982   9.043 -0.2010  0.5199  0.3764
 8706SOL    HW137751   0.976   3.062   9.091 -0.8161 -0.7766  2.8650
 8706SOL    HW237752   0.987   2.914   9.102  2.3160 -0.1356 -1.8474
 8707SOL     OW37753   1.326   1.627   7.998 -0.2371 -0.0670 -0.3149
 8707SOL    HW137754   1.249   1.678   8.024 -0.3485  0.4941 -1.7460
 8707SOL    HW237755   1.288   1.544   7.969  1.9698 -0.4315 -2.1284
 8708SOL     OW37756   2.946   1.243   7.712  0.1773 -0.7441  0.0305
 8708SOL    HW137757   2.962   1.163   7.763 -1.1149 -1.0230 -0.0075
 8708SOL    HW237758   2.897   1.286   7.782 -0.5885 -1.4363 -0.0910
 8709SOL     OW37759   2.260   1.697   6.643  0.2077  0.0387  0.6583
 8709SOL    HW137760   2.270   1.744   6.560 -1.1894 -2.0841 -0.7017
 8709SOL    HW237761   2.349   1.680   6.671 -0.0197  0.1267  1.4323
 8710SOL     OW37762   0.892   1.378   7.890  0.1352 -0.0575 -0.1890
 8710SOL    HW137763   0.963   1.344   7.835 -0.9729 -0.9075 -1.0936
 8710SOL    HW237764   0.913   1.343   7.976  0.8450  2.5998  0.7110
 8711SOL     OW37765   3.438   0.296   7.996 -0.1495  0.1026 -0.2290
 8711SOL    HW137766   3.463   0.386   7.980  0.9191 -0.1298  0.1352
 8711SOL    HW237767   3.494   0.252   7.932 -1.0657  0.1685 -1.0764
 8712SOL     OW37768   1.286   0.039   1.543 -0.0623 -0.2353  0.0545
 8712SOL    HW137769   1.356   4.736   1.594  0.1866 -1.5162 -1.3077
 8712SOL    HW237770   1.205   4.731   1.565 -0.7416  0.7390 -0.4373
 8713SOL     OW37771   4.294   0.520   6.430 -0.7131  0.6968  0.5890
 8713SOL    HW137772   4.366   0.519   6.493 -1.3056  0.4067  1.2513
 8713SOL    HW237773   4.270   0.427   6.435  1.4143  0.1069  0.0219
 8714SOL     OW37774   0.047   4.346   5.094  0.5130 -0.0772  0.0313
 8714SOL    HW137775   0.075   4.330   5.004 -0.3755 -2.1017  0.1185
 8714SOL    HW237776   4.689   4.342   5.083  0.8101  0.6771 -2.5810
 8715SOL     OW37777   4.387   2.092  14.175 -0.5247  0.2872 -0.9286
 8715SOL    HW137778   4.407   2.130  14.089 -0.6470  1.7987 -0.3015
 8715SOL    HW237779   4.440   2.154  14.226 -0.5679  0.5868 -1.2498
 8716SOL     OW37780   2.598   0.590   3.563  0.1912  0.0024  0.0726
 8716SOL    HW137781   2.670   0.552   3.612 -1.5596 -2.2833  0.8868
 8716SOL    HW237782   2.576   0.672   3.608  0.3653 -0.0730  0.2863
 8717SOL     OW37783   2.488   1.170   7.688 -0.0189  0.1749  0.5560
 8717SOL    HW137784   2.504   1.111   7.614 -1.8179  3.2495 -2.2449
 8717SOL    HW237785   2.546   1.135   7.757  0.0640 -0.4142  0.1903
 8718SOL     OW37786   2.008   1.325  15.633 -0.2656  0.0271 -0.5285
 8718SOL    HW137787   1.932   1.300  15.581  0.9912  0.3378 -2.5336
 8718SOL    HW237788   2.068   1.258  15.601  0.9292  0.4473  0.8402
 8719SOL     OW37789   0.177   3.776  13.299 -0.0398 -0.5116  0.1428
 8719SOL    HW137790   0.232   3.832  13.354  0.2992 -0.7140  0.0143
 8719SOL    HW237791   0.179   3.813  13.210  0.9089  0.7573  0.6796
 8720SOL     OW37792   3.788   3.470   2.667 -0.0463 -0.3312  0.6015
 8720SOL    HW137793   3.724   3.537   2.643  2.1025  0.7867 -2.0637
 8720SOL    HW237794   3.770   3.462   2.761 -0.1937 -3.6078  0.2770
 8721SOL     OW37795   4.641   1.288   4.610  0.3779  0.5356 -0.3788
 8721SOL    HW137796   4.621   1.373   4.571 -3.6545 -0.1224  0.2147
 8721SOL    HW237797   4.731   1.274   4.579 -1.4840 -3.0935 -4.2237
 8722SOL     OW37798   1.611   1.644   5.700 -0.0665 -0.2290  0.0178
 8722SOL    HW137799   1.701   1.617   5.687 -0.6348 -0.7883 -2.5861
 8722SOL    HW237800   1.562   1.565   5.722 -0.8959 -0.3175 -2.1887
 8723SOL     OW37801   3.761   0.478  11.956 -0.4696  0.4126  0.0646
 8723SOL    HW137802   3.771   0.444  11.867 -1.7200 -0.4925  0.2757
 8723SOL    HW237803   3.826   0.428  12.006 -0.9845 -0.6570 -0.3571
 8724SOL     OW37804   0.295   1.100   8.389 -0.4902 -0.3339  0.9389
 8724SOL    HW137805   0.339   1.183   8.404 -0.8344  0.1359 -0.6710
 8724SOL    HW237806   0.217   1.112   8.443  0.2911  0.7788  1.8159
 8725SOL     OW37807   2.501   0.146   8.695 -0.1403 -0.1170  0.3677
 8725SOL    HW137808   2.462   0.179   8.776 -0.1187 -2.2633  1.2257
 8725SOL    HW237809   2.566   0.085   8.729 -1.2996 -0.7596  1.4311
 8726SOL     OW37810   4.520   3.014   2.243 -0.1552 -0.3138 -0.3303
 8726SOL    HW137811   4.439   2.979   2.278 -0.0177 -0.6824 -0.3872
 8726SOL    HW237812   4.565   2.938   2.207 -0.0533 -0.3626 -0.1043
 8727SOL     OW37813   3.155   2.150   0.479 -0.1398 -0.6106 -0.5181
 8727SOL    HW137814   3.075   2.195   0.507  0.8234  1.5728 -1.2599
 8727SOL    HW237815   3.215   2.223   0.497 -0.9281  0.0848 -0.6621
 8728SOL     OW37816   1.464   1.999   7.455 -0.1788  0.5061  0.2627
 8728SOL    HW137817   1.427   2.082   7.485 -1.8575 -0.2393  0.2371
 8728SOL    HW237818   1.522   2.032   7.387  0.1085  0.6526  0.5737
 8729SOL     OW37819   0.120   2.909   3.123 -0.1058  0.1219  0.4204
 8729SOL    HW137820   0.026   2.892   3.116 -0.0730  0.7930 -1.4914
 8729SOL    HW237821   0.150   2.828   3.165 -2.1423  0.3404  2.3477
 8730SOL     OW37822   2.864   4.672   2.733 -0.1974 -0.1566  0.5275
 8730SOL    HW137823   2.791   4.621   2.770 -1.6872 -0.8236 -3.3225
 8730SOL    HW237824   2.927   4.602   2.716  2.1346  2.3122 -0.8242
 8731SOL     OW37825   3.972   0.006   6.758  0.2611  0.4657 -0.1107
 8731SOL    HW137826   3.934   0.080   6.805  0.3010  0.3126  0.1678
 8731SOL    HW237827   3.947   4.669   6.814  0.6410  0.6310  0.2786
 8732SOL     OW37828   1.469   1.459  15.181 -0.4121 -0.1250  0.3095
 8732SOL    HW137829   1.512   1.379  15.210 -0.2521 -0.7133 -1.5643
 8732SOL    HW237830   1.445   1.503  15.263 -1.6766  2.9746 -1.7250
 8733SOL     OW37831   0.473   4.106   6.323  0.0469  0.3048 -0.2386
 8733SOL    HW137832   0.553   4.132   6.370  0.8570  0.5123 -1.7275
 8733SOL    HW237833   0.415   4.075   6.392  0.8650 -2.9032 -1.0160
 8734SOL     OW37834   4.423   3.872   8.922 -0.0283  0.3002 -0.2884
 8734SOL    HW137835   4.448   3.907   8.836 -2.3012  0.2129 -0.9963
 8734SOL    HW237836   4.452   3.781   8.917  2.8121  1.0414  3.2402
 8735SOL     OW37837   3.303   4.346  10.804  0.4063 -0.0952  0.3133
 8735SOL    HW137838   3.258   4.265  10.778 -2.0911  1.7902 -1.1363
 8735SOL    HW237839   3.291   4.350  10.899 -1.5582 -0.7186  0.0865
 8736SOL     OW37840   4.687   2.300  13.096 -0.3308  0.3029 -0.4833
 8736SOL    HW137841   0.021   2.363  13.085  0.3198 -0.5971 -1.4142
 8736SOL    HW237842   4.610   2.349  13.122 -1.4413 -2.0182  0.6156
 8737SOL     OW37843   1.798   3.305   7.245  0.2590  0.0111  0.0305
 8737SOL    HW137844   1.752   3.320   7.327 -0.7487  1.2999 -0.7801
 8737SOL    HW237845   1.838   3.218   7.257  1.7225  0.2804 -2.6381
 8738SOL     OW37846   4.000   4.277  10.026 -0.2506 -0.4216  0.2864
 8738SOL    HW137847   3.958   4.362  10.037 -1.3265 -0.7284 -1.4701
 8738SOL    HW237848   4.025   4.265  10.118 -2.6472  0.7749  1.0918
 8739SOL     OW37849   0.948   2.329   9.017  0.1316  0.5132 -0.4405
 8739SOL    HW137850   0.918   2.285   8.937 -1.2313  1.9428 -0.7258
 8739SOL    HW237851   0.861   2.366   9.036  0.5873  0.7013  1.2731
 8740SOL     OW37852   3.966   1.612   5.430 -0.1286 -0.7715  0.1248
 8740SOL    HW137853   3.892   1.657   5.471 -0.7908 -1.1003 -0.7076
 8740SOL    HW237854   4.037   1.628   5.492 -0.4564 -2.4488  0.9100
 8741SOL     OW37855   1.104   4.380  16.403  0.0806 -0.2511  0.3868
 8741SOL    HW137856   1.035   4.323  16.437 -1.5570  1.2806 -0.3735
 8741SOL    HW237857   1.136   4.316  16.340  0.4578  0.1720  0.1519
 8742SOL     OW37858   2.891   0.183   2.210 -0.1097  0.7916 -0.2052
 8742SOL    HW137859   2.851   0.160   2.294 -2.4148  1.5097 -1.0873
 8742SOL    HW237860   2.887   0.277   2.228 -1.0063  0.6645  0.2729
 8743SOL     OW37861   0.268   2.462   5.796  0.5005 -0.2269 -0.3737
 8743SOL    HW137862   0.333   2.528   5.821 -1.0321  0.3182  2.0531
 8743SOL    HW237863   0.227   2.442   5.879 -0.6911  2.0985 -0.3970
 8744SOL     OW37864   4.569   2.659   6.903  0.6408 -0.1598 -0.4190
 8744SOL    HW137865   4.612   2.734   6.860 -1.1880 -0.0253 -2.0190
 8744SOL    HW237866   4.635   2.593   6.923  0.7949 -0.3195 -1.4503
 8745SOL     OW37867   1.901   1.530   5.898  1.1387 -0.1606 -0.5017
 8745SOL    HW137868   1.889   1.520   5.804  2.2381 -0.2333 -0.6273
 8745SOL    HW237869   1.828   1.479   5.934 -0.5385 -0.3610 -4.2322
 8746SOL     OW37870   3.475   2.790   7.398 -0.4293  0.8167 -0.3397
 8746SOL    HW137871   3.514   2.703   7.385 -0.8927  0.1958  2.5185
 8746SOL    HW237872   3.555   2.838   7.421  0.1647 -0.5991  0.6040
 8747SOL     OW37873   2.125   2.387   8.762 -0.4636 -0.1599  0.1960
 8747SOL    HW137874   2.146   2.393   8.855 -1.5269  0.7425  0.3670
 8747SOL    HW237875   2.125   2.294   8.740 -0.1916 -0.5523  1.8479
 8748SOL     OW37876   1.542   2.421   4.146 -0.0685 -0.1720  0.5653
 8748SOL    HW137877   1.557   2.507   4.105 -0.1091 -1.0072 -1.2059
 8748SOL    HW237878   1.494   2.379   4.074 -2.0418  1.7267  0.7827
 8749SOL     OW37879   1.295   3.726   5.100  0.8371 -0.3747  0.1671
 8749SOL    HW137880   1.249   3.809   5.108 -0.7100 -1.4915  2.9117
 8749SOL    HW237881   1.295   3.717   5.004 -0.7746  0.3156  0.1089
 8750SOL     OW37882   3.546   1.814   9.272  0.3372  0.1338  0.0950
 8750SOL    HW137883   3.497   1.787   9.193  2.4630  2.6578 -2.0833
 8750SOL    HW237884   3.505   1.755   9.335  0.4430  1.3114  1.2576
 8751SOL     OW37885   3.367   4.569  15.429  0.2143  0.5804 -0.5353
 8751SOL    HW137886   3.383   4.640  15.366  1.6681 -0.3009 -1.1662
 8751SOL    HW237887   3.272   4.580  15.439  0.2602  0.0394  0.4794
 8752SOL     OW37888   3.466   0.714   1.807 -0.0115  0.2981  0.3221
 8752SOL    HW137889   3.403   0.688   1.739 -0.7986 -1.4414  1.7070
 8752SOL    HW237890   3.524   0.766   1.751 -1.2440  0.6930 -0.5773
 8753SOL     OW37891   4.654   0.732   6.172  0.2169  0.0033  0.4437
 8753SOL    HW137892   4.660   0.828   6.167  0.8602 -0.0523  0.1861
 8753SOL    HW237893   4.567   0.708   6.202 -0.1190  0.9936  0.2606
 8754SOL     OW37894   2.687   3.630   3.041 -0.4433  0.1164 -1.0777
 8754SOL    HW137895   2.716   3.625   3.132 -2.1666 -0.3456 -0.5488
 8754SOL    HW237896   2.608   3.577   3.052 -0.3903  0.6222  1.7791
 8755SOL     OW37897   2.950   1.155   9.558 -0.2748 -0.1129  0.6917
 8755SOL    HW137898   3.037   1.191   9.571 -0.9840  1.7555  0.2501
 8755SOL    HW237899   2.965   1.080   9.501  0.9695 -0.4487  1.4610
 8756SOL     OW37900   3.445   3.090   1.094  0.4367 -0.0129 -0.4575
 8756SOL    HW137901   3.535   3.121   1.106  0.4934 -0.6052  0.7188
 8756SOL    HW237902   3.419   3.114   1.005 -0.3891 -0.3279 -0.3002
 8757SOL     OW37903   2.411   1.782  12.248  0.2665 -0.0512 -0.0454
 8757SOL    HW137904   2.503   1.806  12.236  0.0313  0.8668  0.0052
 8757SOL    HW237905   2.372   1.867  12.228 -0.0519 -0.4860 -1.2778
 8758SOL     OW37906   3.426   1.317   6.464 -0.2238  0.0540  0.1102
 8758SOL    HW137907   3.469   1.295   6.381 -0.1464  3.3343 -0.6901
 8758SOL    HW237908   3.342   1.338   6.423 -0.2987  1.3724  0.9730
 8759SOL     OW37909   4.169   0.255   4.304 -0.0746 -0.1538 -0.3487
 8759SOL    HW137910   4.220   0.335   4.309  0.6363 -0.4693 -2.6737
 8759SOL    HW237911   4.232   0.189   4.275 -1.1551 -0.8334 -1.1634
 8760SOL     OW37912   2.071   2.614   4.263 -0.8172 -0.2675  0.0182
 8760SOL    HW137913   1.984   2.618   4.302 -0.3453  1.4066  0.9276
 8760SOL    HW237914   2.132   2.604   4.336  0.6313  2.1456 -0.8385
 8761SOL     OW37915   2.356   0.336  11.745 -0.9087 -0.2759  0.0533
 8761SOL    HW137916   2.339   0.391  11.669 -0.3930 -0.5055 -0.2242
 8761SOL    HW237917   2.315   0.391  11.812 -1.6636  1.2566 -1.6505
 8762SOL     OW37918   1.128   4.574   5.985  0.0728  0.0999  0.2184
 8762SOL    HW137919   1.116   4.481   6.007  1.1351 -0.1532 -0.2651
 8762SOL    HW237920   1.124   4.616   6.070  0.9778  2.4291 -0.8918
 8763SOL     OW37921   0.844   2.230  11.340  0.9538  0.4429 -0.3071
 8763SOL    HW137922   0.850   2.136  11.360 -0.5342  0.4062  0.0102
 8763SOL    HW237923   0.749   2.240  11.332  1.0558  1.9794  0.4614
 8764SOL     OW37924   4.243   2.037   6.288  0.1345 -0.1764 -0.1837
 8764SOL    HW137925   4.310   1.998   6.232  0.5375 -0.2750  0.3680
 8764SOL    HW237926   4.166   2.044   6.232 -0.4612  0.5747  0.7299
 8765SOL     OW37927   0.013   0.303   3.378  0.0917  0.1070 -0.3364
 8765SOL    HW137928   4.659   0.311   3.405 -0.6976 -1.4279 -2.5533
 8765SOL    HW237929   0.051   0.384   3.412 -0.2288 -0.2486  0.8647
 8766SOL     OW37930   3.598   3.654   8.802  0.0994  0.5318 -0.3599
 8766SOL    HW137931   3.612   3.707   8.881  1.9181 -2.2776  1.1966
 8766SOL    HW237932   3.508   3.625   8.815  0.0384 -0.3364 -2.6493
 8767SOL     OW37933   3.874   2.199   5.818  0.1773  0.2699  0.5415
 8767SOL    HW137934   3.839   2.181   5.905 -1.1327 -0.0115 -0.0308
 8767SOL    HW237935   3.796   2.187   5.763  1.0892 -0.2868 -0.6223
 8768SOL     OW37936   2.888   3.262   3.603  0.1552  0.7640 -0.1766
 8768SOL    HW137937   2.855   3.258   3.693 -1.0943  0.9076 -0.6178
 8768SOL    HW237938   2.814   3.221   3.558 -1.4512  2.5139  0.8455
 8769SOL     OW37939   1.500   1.490   4.069  0.2992  0.2124  0.6142
 8769SOL    HW137940   1.483   1.438   4.147 -1.2673 -0.7352 -0.3633
 8769SOL    HW237941   1.527   1.574   4.106  1.2805  0.4900 -0.7172
 8770SOL     OW37942   3.841   1.108   1.936 -0.2611 -0.3058  0.0224
 8770SOL    HW137943   3.905   1.069   1.876  1.1687 -1.6799  2.4202
 8770SOL    HW237944   3.807   1.029   1.979  1.6959 -1.1887 -0.0714
 8771SOL     OW37945   2.675   2.301   3.559  0.3127 -0.5270  0.3877
 8771SOL    HW137946   2.604   2.238   3.550 -0.2567 -0.0099  1.2436
 8771SOL    HW237947   2.693   2.299   3.653 -0.4506 -2.6903  0.4774
 8772SOL     OW37948   4.214   2.309   2.926  0.0876  0.5400 -0.1062
 8772SOL    HW137949   4.235   2.246   2.995 -0.2947 -0.3567 -0.8125
 8772SOL    HW237950   4.213   2.392   2.974 -0.0265  0.5213 -0.0761
 8773SOL     OW37951   2.309   1.857   4.739  0.2147 -0.5346  0.5035
 8773SOL    HW137952   2.375   1.893   4.798  0.6845 -0.0558 -0.3043
 8773SOL    HW237953   2.261   1.792   4.790  0.5212 -0.8466  0.3967
 8774SOL     OW37954   4.242   1.593   7.058 -0.1917  0.1009 -0.1284
 8774SOL    HW137955   4.308   1.657   7.031 -0.2674  0.3414  0.2624
 8774SOL    HW237956   4.162   1.645   7.051 -0.1643  0.0405 -0.9934
 8775SOL     OW37957   3.904   1.361  17.128  0.1229  0.0718  0.2873
 8775SOL    HW137958   3.860   1.394  17.207  0.5689  2.5253 -0.4771
 8775SOL    HW237959   3.993   1.391  17.146 -0.0808  0.8173  0.0727
 8776SOL     OW37960   3.676   1.083  11.288 -0.0676 -0.1903  0.2689
 8776SOL    HW137961   3.679   1.153  11.354 -1.0017 -2.1054  2.3276
 8776SOL    HW237962   3.642   1.005  11.331 -0.3833 -1.6125 -2.6062
 8777SOL     OW37963   4.128   2.490   8.805  0.0080  0.0799  0.1784
 8777SOL    HW137964   4.122   2.401   8.841 -1.8607 -0.1048 -0.5950
 8777SOL    HW237965   4.036   2.516   8.806  0.9511  3.4616  3.3817
 8778SOL     OW37966   2.926   3.171  13.080  0.0255 -0.3727 -0.3902
 8778SOL    HW137967   2.846   3.222  13.096 -0.2600 -0.9591  0.0226
 8778SOL    HW237968   2.886   3.085  13.092  0.6364 -0.6412 -0.3104
 8779SOL     OW37969   0.773   3.618   2.294 -0.1917 -0.0544  0.1970
 8779SOL    HW137970   0.784   3.648   2.384 -1.6972  0.4061  0.2193
 8779SOL    HW237971   0.830   3.685   2.256 -2.0218 -0.3025 -2.9569
 8780SOL     OW37972   4.509   1.879   4.294  0.9691  0.3913  0.0517
 8780SOL    HW137973   4.494   1.931   4.374 -2.3328 -1.6279  0.7261
 8780SOL    HW237974   4.498   1.930   4.214  5.4888 -0.1028 -0.8417
 8781SOL     OW37975   1.289   1.714   5.276  0.3685 -0.0380 -0.0207
 8781SOL    HW137976   1.235   1.650   5.322  0.2865  2.0758  2.7944
 8781SOL    HW237977   1.246   1.790   5.316 -1.4328 -0.0022 -2.0646
 8782SOL     OW37978   1.448   0.810   7.238  0.4501  0.0423  0.6439
 8782SOL    HW137979   1.386   0.743   7.210  2.7238 -3.2152  3.3886
 8782SOL    HW237980   1.501   0.812   7.158  0.9236  3.0842  1.0256
 8783SOL     OW37981   4.632   3.178   2.052  0.6073  0.1341 -0.4868
 8783SOL    HW137982   4.611   3.142   2.138 -0.3117  2.6865  0.3593
 8783SOL    HW237983   4.679   3.258   2.074  0.1337 -0.1238  1.4292
 8784SOL     OW37984   1.470   1.732  14.831  0.0316  0.2103  0.6434
 8784SOL    HW137985   1.453   1.797  14.899 -1.4236  1.3935 -0.8648
 8784SOL    HW237986   1.557   1.755  14.800 -0.2517  1.3765  0.7088
 8785SOL     OW37987   1.552   3.468  15.533 -0.0216  0.0732  0.1662
 8785SOL    HW137988   1.496   3.402  15.493  1.8653 -2.2022  1.2755
 8785SOL    HW237989   1.515   3.551  15.505  0.3440  0.0015 -0.5233
 8786SOL     OW37990   0.433   3.419  12.802  0.4203  0.4191 -0.7020
 8786SOL    HW137991   0.501   3.468  12.848 -1.6164  1.1832  1.5258
 8786SOL    HW237992   0.460   3.427  12.711 -1.7382  1.4593 -1.2608
 8787SOL     OW37993   2.467   2.721  16.247 -0.1223 -0.1160  0.2956
 8787SOL    HW137994   2.501   2.633  16.264  0.6493 -0.0051 -0.6921
 8787SOL    HW237995   2.376   2.705  16.273  0.3412 -0.6247  1.5997
 8788SOL     OW37996   4.396   3.880   8.280  0.1757 -0.0265  0.1136
 8788SOL    HW137997   4.411   3.961   8.330  2.0874 -1.2063  1.4503
 8788SOL    HW237998   4.484   3.873   8.242  0.3265  0.8950  0.2867
 8789SOL     OW37999   0.366   0.795   8.647  0.2221 -0.3513  0.3272
 8789SOL    HW138000   0.324   0.876   8.676 -2.1405 -1.0703 -1.1439
 8789SOL    HW238001   0.306   0.758   8.583  2.5589 -0.0076 -2.0822
 8790SOL     OW38002   1.942   3.033   0.806 -0.3535  0.1568  0.0638
 8790SOL    HW138003   2.000   2.978   0.859  0.7190  2.5279  1.3152
 8790SOL    HW238004   1.860   3.024   0.854  1.3577 -2.0952  2.5477
 8791SOL     OW38005   2.784   1.348   0.910  0.5455  0.4048 -0.4038
 8791SOL    HW138006   2.696   1.350   0.949  0.5092  1.7517 -0.5679
 8791SOL    HW238007   2.778   1.276   0.848  2.4305 -0.8622  0.8692
 8792SOL     OW38008   2.320   3.222  14.805 -0.3837 -0.4155  0.4451
 8792SOL    HW138009   2.391   3.282  14.784  0.9980 -2.1616  0.1414
 8792SOL    HW238010   2.258   3.246  14.737  0.9297  1.6618 -0.0320
 8793SOL     OW38011   1.111   4.120   7.409 -0.4013  0.4181 -0.1941
 8793SOL    HW138012   1.023   4.098   7.377 -0.1124 -0.1411 -0.6071
 8793SOL    HW238013   1.164   4.115   7.329  0.9249 -0.0147  0.7169
 8794SOL     OW38014   3.071   0.433   5.381  0.2429 -0.0888 -0.2420
 8794SOL    HW138015   3.165   0.445   5.390  0.3762 -0.6831 -0.8728
 8794SOL    HW238016   3.045   0.513   5.334 -0.4098 -0.8815 -1.2146
 8795SOL     OW38017   2.716   2.089   8.425  0.1930  0.5837  0.2318
 8795SOL    HW138018   2.662   2.014   8.400 -0.0828  0.9177 -0.1748
 8795SOL    HW238019   2.757   2.123   8.345  1.1185 -2.1702 -0.4675
 8796SOL     OW38020   3.369   2.131   6.140  0.6022 -0.1159  0.0213
 8796SOL    HW138021   3.321   2.053   6.168  2.6201 -0.9434  1.1104
 8796SOL    HW238022   3.318   2.161   6.065 -0.5480 -1.8686  0.1026
 8797SOL     OW38023   0.061   1.393   7.445  0.9325  0.7732  0.2410
 8797SOL    HW138024   0.084   1.328   7.511  0.8279 -0.1203 -0.6085
 8797SOL    HW238025   4.703   1.392   7.432  0.8642 -1.2580  0.9281
 8798SOL     OW38026   4.247   3.006   5.236  0.3177 -0.2363 -0.4178
 8798SOL    HW138027   4.295   2.955   5.302 -0.1050  0.1539  0.1920
 8798SOL    HW238028   4.175   2.944   5.219  1.1225 -1.2967  0.0340
 8799SOL     OW38029   0.627   1.084   8.288  0.1879 -0.6957 -0.3659
 8799SOL    HW138030   0.572   1.023   8.338  1.4777 -1.3515  0.2478
 8799SOL    HW238031   0.637   1.153   8.353 -1.0728 -1.7701  0.9864
 8800SOL     OW38032   2.964   1.737   8.543 -0.1992  0.6321  0.3511
 8800SOL    HW138033   2.875   1.705   8.557  0.0880  0.5899  1.9957
 8800SOL    HW238034   2.981   1.739   8.637  1.0685 -1.6653  0.1769
 8801SOL     OW38035   1.506   2.994  16.110  0.3122  0.2602  0.5582
 8801SOL    HW138036   1.523   3.080  16.148 -3.4639  0.5701  1.5926
 8801SOL    HW238037   1.570   3.005  16.040  0.9175  1.8603  1.3566
 8802SOL     OW38038   3.889   0.991  13.805 -0.1909  0.2053 -0.0421
 8802SOL    HW138039   3.884   0.964  13.897  2.3683  0.4264  0.1847
 8802SOL    HW238040   3.974   0.955  13.780  1.5685  2.1932  2.9918
 8803SOL     OW38041   1.963   1.854   3.244  0.2368  0.0436 -0.5044
 8803SOL    HW138042   2.035   1.879   3.301 -0.0791 -1.0657  0.3896
 8803SOL    HW238043   2.011   1.849   3.162 -0.9051  0.0306 -1.1791
 8804SOL     OW38044   1.539   0.898  11.150 -0.2978 -0.9257 -0.1524
 8804SOL    HW138045   1.566   0.938  11.067  0.9288  1.4567  1.4132
 8804SOL    HW238046   1.496   0.973  11.191  1.9660 -0.2697  0.9828
 8805SOL     OW38047   3.745   0.405   1.832 -0.4338 -0.3054 -0.8685
 8805SOL    HW138048   3.839   0.384   1.834  0.1087  2.1689 -1.6460
 8805SOL    HW238049   3.714   0.314   1.833  2.4134 -1.2945 -0.8600
 8806SOL     OW38050   0.851   3.137   2.076 -0.1762  0.1652 -0.3943
 8806SOL    HW138051   0.944   3.146   2.058 -0.0305 -0.4604  0.0464
 8806SOL    HW238052   0.823   3.171   1.991 -1.1324 -1.8559 -0.8802
 8807SOL     OW38053   4.268   4.083   5.690 -0.7604  0.1596  0.0546
 8807SOL    HW138054   4.290   4.129   5.609 -0.6646 -2.7950 -1.5856
 8807SOL    HW238055   4.284   3.991   5.672 -0.9700  0.2977 -0.8551
 8808SOL     OW38056   0.069   2.373   7.112  0.4408 -0.1433  0.0498
 8808SOL    HW138057   0.019   2.370   7.031  0.0507  1.5165  0.2314
 8808SOL    HW238058   0.163   2.364   7.094  0.4027 -1.8668  0.7002
 8809SOL     OW38059   2.848   2.693   4.306  0.4752  0.3079 -0.0118
 8809SOL    HW138060   2.796   2.622   4.268  0.4730  0.4671 -0.3076
 8809SOL    HW238061   2.779   2.759   4.311  3.2855  3.2263  0.1931
 8810SOL     OW38062   1.299   2.685  13.995 -0.6099 -0.1502 -0.1900
 8810SOL    HW138063   1.232   2.623  13.966 -1.0556 -0.8212  2.3085
 8810SOL    HW238064   1.259   2.772  13.987 -0.3155 -0.1588 -1.7838
 8811SOL     OW38065   3.337   3.513   8.562  0.4649  0.3670 -0.0376
 8811SOL    HW138066   3.302   3.589   8.609  0.3043 -1.4288  2.7819
 8811SOL    HW238067   3.274   3.455   8.604  0.4571 -1.2129 -2.2339
 8812SOL     OW38068   0.027   3.202   3.454 -0.1652 -0.0944  0.3721
 8812SOL    HW138069   4.709   3.273   3.421 -0.4600 -1.8031 -2.8231
 8812SOL    HW238070   0.089   3.195   3.382  0.7621 -1.2464  1.2875
 8813SOL     OW38071   0.261   2.104   4.119  0.7334  0.1481 -0.2510
 8813SOL    HW138072   0.185   2.085   4.175 -0.2880 -3.2437 -2.8009
 8813SOL    HW238073   0.255   2.029   4.060  1.0678  0.1967 -0.3455
 8814SOL     OW38074   2.494   3.616   7.392 -0.0709  0.0835  0.0563
 8814SOL    HW138075   2.483   3.576   7.306  0.5795 -1.0158  0.4792
 8814SOL    HW238076   2.492   3.542   7.454  1.8710  1.2181  1.4594
 8815SOL     OW38077   3.997   0.581  17.180 -0.3550 -0.1130  0.3164
 8815SOL    HW138078   4.005   0.588  17.275 -1.6852 -1.0077  0.4890
 8815SOL    HW238079   4.043   0.662  17.157  0.2514 -1.0368 -1.7783
 8816SOL     OW38080   4.232   2.147  16.351 -0.1384 -0.1202 -0.3086
 8816SOL    HW138081   4.303   2.203  16.320  1.0025 -1.0017  0.7286
 8816SOL    HW238082   4.171   2.155  16.278  1.0234 -1.1892 -1.3857
 8817SOL     OW38083   1.548   0.362   9.357  0.1601  0.9777 -0.1780
 8817SOL    HW138084   1.577   0.361   9.448 -0.0287  0.3546 -0.1239
 8817SOL    HW238085   1.468   0.414   9.365  0.4198  1.3168  0.2154
 8818SOL     OW38086   4.592   0.974   1.456 -0.5167  0.1351  0.0214
 8818SOL    HW138087   4.576   0.880   1.463 -2.3332  0.5767  1.7952
 8818SOL    HW238088   4.628   0.984   1.368  1.1645  2.5190  0.9816
 8819SOL     OW38089   1.390   3.412   3.797  0.4128  0.2698  0.6799
 8819SOL    HW138090   1.458   3.462   3.842  1.8968 -1.0873 -0.0877
 8819SOL    HW238091   1.321   3.479   3.804 -1.2511 -1.3382 -0.3805
 8820SOL     OW38092   2.904   1.618   2.259  0.1764 -0.1608 -0.0717
 8820SOL    HW138093   2.927   1.525   2.256 -0.4575 -0.3783  1.8475
 8820SOL    HW238094   2.810   1.600   2.251  0.2658 -0.7078  0.0801
 8821SOL     OW38095   1.986   0.668   5.852 -0.1919  0.0082  0.4152
 8821SOL    HW138096   1.914   0.729   5.866 -0.5375 -0.1781 -0.5887
 8821SOL    HW238097   1.930   0.597   5.820  1.2863 -0.5902 -0.8521
 8822SOL     OW38098   0.919   3.866  14.191  0.3153  0.0718 -0.3528
 8822SOL    HW138099   0.948   3.918  14.266  0.4632  0.1979 -0.4951
 8822SOL    HW238100   0.996   3.809  14.191 -1.2454 -2.0625 -3.8610
 8823SOL     OW38101   3.543   2.542   8.382 -0.1854  0.0266  0.9247
 8823SOL    HW138102   3.539   2.626   8.427 -1.5241  0.6488 -0.3489
 8823SOL    HW238103   3.474   2.552   8.317  0.5304 -0.6971  0.0565
 8824SOL     OW38104   2.514   2.336   3.189  0.3310 -0.3103 -0.2644
 8824SOL    HW138105   2.450   2.266   3.199 -0.4075  0.5359  0.9623
 8824SOL    HW238106   2.460   2.414   3.196  1.1263  0.1858  0.4664
 8825SOL     OW38107   0.362   2.893  11.908 -0.0308 -0.0071  0.8751
 8825SOL    HW138108   0.316   2.975  11.886 -0.7203 -0.1516  1.7886
 8825SOL    HW238109   0.443   2.932  11.944 -0.0325 -0.1784  1.0631
 8826SOL     OW38110   4.547   2.655  12.277  0.2738  0.0819 -0.1419
 8826SOL    HW138111   4.642   2.642  12.278  0.4222  1.1729 -0.0956
 8826SOL    HW238112   4.548   2.736  12.226  1.6649 -0.1421 -0.4771
 8827SOL     OW38113   3.431   1.938   4.554  0.2691  0.2392  0.0819
 8827SOL    HW138114   3.448   1.872   4.486  1.5496  1.5822 -0.8921
 8827SOL    HW238115   3.458   2.018   4.509  1.2611 -0.0321  0.1941
 8828SOL     OW38116   4.160   3.780   6.809  0.0194 -0.1600 -0.9491
 8828SOL    HW138117   4.230   3.839   6.836  0.2477 -1.1727  0.6919
 8828SOL    HW238118   4.170   3.716   6.879 -1.2805 -0.7656 -1.3210
 8829SOL     OW38119   1.606   1.274  12.918  0.4782  0.5147 -0.1723
 8829SOL    HW138120   1.647   1.194  12.950  1.1539  0.3888 -1.3248
 8829SOL    HW238121   1.557   1.251  12.839  1.2533  2.6466 -1.2746
 8830SOL     OW38122   3.982   0.551  15.967  0.0436  0.0940 -0.2509
 8830SOL    HW138123   4.047   0.621  15.962  0.7524 -0.5510 -0.0979
 8830SOL    HW238124   4.036   0.471  15.969  1.4851  1.0501 -0.6989
 8831SOL     OW38125   2.001   3.557   6.335  0.1018 -0.0255 -0.2405
 8831SOL    HW138126   1.929   3.513   6.382  0.1423  1.9116  1.6232
 8831SOL    HW238127   2.005   3.495   6.262  1.6988 -1.0184  0.6842
 8832SOL     OW38128   1.384   4.476  14.267  0.3688  0.2684  0.2157
 8832SOL    HW138129   1.451   4.481  14.335 -0.3727  1.3105  0.8728
 8832SOL    HW238130   1.301   4.468  14.315 -0.5006  0.6958 -1.1905
 8833SOL     OW38131   2.666   1.109   6.990  0.2604  0.0395 -0.1363
 8833SOL    HW138132   2.663   1.141   6.899  0.4216 -0.6958 -0.4004
 8833SOL    HW238133   2.574   1.114   7.016  0.5519  1.8230  0.5727
 8834SOL     OW38134   2.813   2.675   3.858 -0.2512 -0.5393 -0.4583
 8834SOL    HW138135   2.741   2.717   3.905  1.2765 -0.5148  1.8058
 8834SOL    HW238136   2.877   2.745   3.855 -0.1858 -0.6128 -0.8566
 8835SOL     OW38137   2.288   0.998   0.544 -0.2478  0.5471  0.1859
 8835SOL    HW138138   2.344   1.074   0.560 -2.4942  2.6935 -1.9113
 8835SOL    HW238139   2.312   0.983   0.452  0.6413 -1.6310  0.7862
 8836SOL     OW38140   3.009   3.463   3.163  0.6269  0.0940 -0.1528
 8836SOL    HW138141   2.961   3.422   3.091  1.8017  2.4251 -2.2620
 8836SOL    HW238142   3.022   3.551   3.125 -1.7978  0.1568 -0.8789
 8837SOL     OW38143   1.901   3.645   4.077  0.4444 -0.0720  0.1303
 8837SOL    HW138144   1.840   3.573   4.089  0.3844 -0.0367  0.0406
 8837SOL    HW238145   1.901   3.650   3.981  3.1226 -1.9027  0.0247
 8838SOL     OW38146   0.442   0.468   6.040 -0.0329 -0.1413  0.4678
 8838SOL    HW138147   0.425   0.541   5.981  0.0602  0.6485  1.4133
 8838SOL    HW238148   0.532   0.493   6.059  0.1498 -1.2734  1.1360
 8839SOL     OW38149   1.528   3.386   5.586 -0.1121  0.0206 -0.3384
 8839SOL    HW138150   1.467   3.421   5.651  2.2552 -1.5165  2.7501
 8839SOL    HW238151   1.614   3.403   5.626  0.0858 -2.1489  0.1962
 8840SOL     OW38152   1.020   0.216   8.819 -0.2818  0.6008  0.6910
 8840SOL    HW138153   1.048   0.155   8.888 -2.8991 -0.2493  1.0105
 8840SOL    HW238154   0.945   0.171   8.780 -0.2163 -0.4375  1.7574
 8841SOL     OW38155   0.955   0.025   7.672  0.2019  0.5611 -0.3578
 8841SOL    HW138156   0.946   0.008   7.578 -1.6254  0.0435 -0.0929
 8841SOL    HW238157   1.050   0.033   7.672  0.1306  1.4180 -0.0224
 8842SOL     OW38158   1.100   1.034   7.556 -0.0351  0.3863  0.3013
 8842SOL    HW138159   1.040   0.961   7.540  1.2751  0.1383 -3.6283
 8842SOL    HW238160   1.164   0.985   7.608 -0.2831 -1.0697 -0.7333
 8843SOL     OW38161   1.140   1.779   0.343 -0.0253 -0.2349 -0.4199
 8843SOL    HW138162   1.128   1.864   0.384 -1.6833 -0.8943  0.4553
 8843SOL    HW238163   1.121   1.721   0.417  1.2314 -1.1184 -0.7733
 8844SOL     OW38164   2.002   0.766  11.759 -0.1777  0.0884 -0.2898
 8844SOL    HW138165   1.932   0.718  11.716 -0.1309 -0.7411  0.5448
 8844SOL    HW238166   2.078   0.741  11.706  0.6633  1.0077  0.4761
 8845SOL     OW38167   1.968   2.889   2.536  0.6610 -0.0751 -0.4606
 8845SOL    HW138168   1.935   2.814   2.487  1.4284  0.1296 -1.2861
 8845SOL    HW238169   2.061   2.873   2.522  0.6130 -0.1266 -0.7220
 8846SOL     OW38170   1.870   3.205  17.301  0.0167 -0.6007 -0.3945
 8846SOL    HW138171   1.880   3.138  17.234 -1.9277 -0.4241 -0.8528
 8846SOL    HW238172   1.922   3.279  17.270  0.9948 -1.2271 -0.2451
 8847SOL     OW38173   0.639   2.437   6.618 -0.4942  0.0766 -0.4145
 8847SOL    HW138174   0.618   2.438   6.524 -0.5572 -0.5913 -0.4026
 8847SOL    HW238175   0.650   2.343   6.633 -0.0840  0.0639 -0.7609
 8848SOL     OW38176   3.224   0.487   7.130  0.8747 -0.7942 -0.1574
 8848SOL    HW138177   3.265   0.462   7.212  0.3383  0.9657  0.6431
 8848SOL    HW238178   3.129   0.490   7.144  0.9927  0.1958  0.4041
 8849SOL     OW38179   2.730   4.408   1.349 -0.3357  0.0106  0.2947
 8849SOL    HW138180   2.821   4.381   1.359 -0.0710  1.2788  1.2629
 8849SOL    HW238181   2.687   4.323   1.358  0.5062 -0.5593 -1.0450
 8850SOL     OW38182   2.746   4.334   4.724  0.1361  0.2226  0.3504
 8850SOL    HW138183   2.770   4.415   4.769  1.8941 -0.0264 -0.1363
 8850SOL    HW238184   2.826   4.298   4.685  0.2882  0.9828 -0.0429
 8851SOL     OW38185   0.592   3.002   2.974  0.2861  0.1138 -0.1634
 8851SOL    HW138186   0.617   2.933   3.035 -2.4443  0.0260  0.8816
 8851SOL    HW238187   0.499   3.015   2.996  0.2847  0.8434 -0.6240
 8852SOL     OW38188   3.861   3.136   3.484  0.0604 -0.0159 -0.1380
 8852SOL    HW138189   3.858   3.102   3.574 -0.5890  1.2742  0.3294
 8852SOL    HW238190   3.955   3.148   3.472  0.2076 -0.1703  0.7995
 8853SOL     OW38191   1.061   1.772   9.391  0.3039  0.7481 -0.2174
 8853SOL    HW138192   1.114   1.720   9.451 -2.7910 -2.9665 -0.6920
 8853SOL    HW238193   1.121   1.824   9.338  1.2795  2.5693  2.6917
 8854SOL     OW38194   2.341   0.405   9.822  0.4285  0.1669 -0.4123
 8854SOL    HW138195   2.361   0.312   9.836  3.2396  1.2454  2.6344
 8854SOL    HW238196   2.329   0.432   9.913  2.8978 -1.0044  0.2574
 8855SOL     OW38197   1.480   0.200  12.566  0.0243 -0.3411  0.2765
 8855SOL    HW138198   1.567   0.216  12.605  0.2103  0.8130 -0.6052
 8855SOL    HW238199   1.446   0.145  12.636 -0.0513 -0.6555 -0.0099
 8856SOL     OW38200   1.442   4.239   7.618  0.5984 -0.1426 -0.0358
 8856SOL    HW138201   1.350   4.259   7.601  1.3218  1.6609 -1.9639
 8856SOL    HW238202   1.460   4.301   7.689  1.1567 -0.6684  0.2787
 8857SOL     OW38203   3.804   4.719  15.944 -0.1482  0.3009 -0.1284
 8857SOL    HW138204   3.789   0.076  15.948 -0.4187  0.0095  5.2090
 8857SOL    HW238205   3.890   4.717  15.902  0.6968  1.9909  1.5516
 8858SOL     OW38206   1.211   2.465  11.431  0.3032  0.0096 -0.5753
 8858SOL    HW138207   1.120   2.479  11.403 -0.5537 -1.4136  1.4901
 8858SOL    HW238208   1.214   2.498  11.521  0.1828 -0.8674 -0.2533
 8859SOL     OW38209   0.675   0.037  16.129  0.1256 -0.0108  0.5978
 8859SOL    HW138210   0.599   0.003  16.176  0.4956  0.1136  1.2706
 8859SOL    HW238211   0.709   4.696  16.085 -1.1110  0.1557 -0.6616
 8860SOL     OW38212   0.222   2.165   2.659 -0.2495 -0.4006  0.2826
 8860SOL    HW138213   0.267   2.247   2.642  1.0114 -1.3806 -1.0643
 8860SOL    HW238214   0.132   2.183   2.632  0.4256 -1.5206 -2.6687
 8861SOL     OW38215   0.644   1.827   0.373  0.2925 -0.0501 -0.7587
 8861SOL    HW138216   0.685   1.744   0.347  0.1830 -0.0328 -0.9892
 8861SOL    HW238217   0.639   1.867   0.287  0.3394 -2.0301 -1.6916
 8862SOL     OW38218   4.385   1.758   5.049 -0.3795 -0.1162 -0.2902
 8862SOL    HW138219   4.359   1.666   5.054 -1.6103  0.1832 -1.3981
 8862SOL    HW238220   4.475   1.752   5.017 -0.5504  0.8023 -0.9490
 8863SOL     OW38221   2.543   2.506  17.516 -0.5211 -0.3527 -0.2915
 8863SOL    HW138222   2.489   2.441  17.469 -0.2989 -0.4921 -0.3531
 8863SOL    HW238223   2.562   2.452  17.592 -0.0477 -1.0323 -0.8869
 8864SOL     OW38224   1.803   0.703  15.831  0.7531 -0.1719 -0.2267
 8864SOL    HW138225   1.802   0.725  15.924 -3.4189  0.2232 -0.3284
 8864SOL    HW238226   1.894   0.731  15.822 -0.2739  3.6431  1.3304
 8865SOL     OW38227   2.287   3.355   2.517 -0.1792  0.3312 -0.2179
 8865SOL    HW138228   2.201   3.320   2.495 -0.6514  1.7715 -0.6412
 8865SOL    HW238229   2.263   3.420   2.583 -2.7265  0.3414 -1.1546
 8866SOL     OW38230   3.455   4.380   4.189 -0.1891  0.3502  0.3939
 8866SOL    HW138231   3.473   4.457   4.243 -2.0136  0.0059  1.4721
 8866SOL    HW238232   3.460   4.410   4.098 -3.3452 -3.0103 -0.9037
 8867SOL     OW38233   3.534   0.615  11.615 -0.2013  0.2193 -0.7232
 8867SOL    HW138234   3.501   0.687  11.562 -0.2929 -0.3392 -1.4207
 8867SOL    HW238235   3.528   0.661  11.699  0.6808 -1.6604  0.3888
 8868SOL     OW38236   2.524   0.982   7.480  0.2253  0.7142  0.3581
 8868SOL    HW138237   2.551   0.933   7.402 -0.3686 -1.4372  1.4826
 8868SOL    HW238238   2.549   0.911   7.540  0.1586  0.6537  0.3139
 8869SOL     OW38239   0.183   3.056  15.714  0.5190  0.0216  0.3255
 8869SOL    HW138240   0.146   3.114  15.647  1.3899  0.4441  0.2163
 8869SOL    HW238241   0.274   3.061  15.687  0.3099  0.1927 -0.3319
 8870SOL     OW38242   3.807   3.355   2.058  0.0190  1.0535  0.1170
 8870SOL    HW138243   3.797   3.358   1.963  1.5987 -0.8975 -0.0989
 8870SOL    HW238244   3.717   3.343   2.088  1.1519  2.4782  4.0556
 8871SOL     OW38245   3.927   3.574   5.096  0.0737 -0.2308 -0.0462
 8871SOL    HW138246   3.936   3.496   5.040 -1.6941  0.0692 -0.7581
 8871SOL    HW238247   3.846   3.607   5.057  0.1762  1.9825  1.6448
 8872SOL     OW38248   0.788   3.383   8.119 -0.3532  0.1424  0.3324
 8872SOL    HW138249   0.727   3.422   8.057 -0.4736  0.8352  0.8776
 8872SOL    HW238250   0.865   3.363   8.066  0.0716 -0.4677  1.1881
 8873SOL     OW38251   2.366   4.028  14.281  0.4307 -0.1241 -0.4380
 8873SOL    HW138252   2.444   4.024  14.227 -0.2475 -0.4030 -1.3993
 8873SOL    HW238253   2.323   4.105  14.243  1.6343  0.5246 -0.4986
 8874SOL     OW38254   1.090   0.674   0.731  0.5097 -0.0956  0.5322
 8874SOL    HW138255   1.145   0.748   0.758 -1.4044  0.2744  3.4552
 8874SOL    HW238256   1.060   0.716   0.650 -0.0733 -0.0780  0.7546
 8875SOL     OW38257   4.619   0.283   0.481 -0.4111 -0.0124  0.0971
 8875SOL    HW138258   4.606   0.248   0.393  0.9692 -0.8330  0.2264
 8875SOL    HW238259   4.664   0.367   0.480 -0.2259 -0.1677 -3.0335
 8876SOL     OW38260   2.172   1.261   0.252 -0.0852 -0.0065  0.0761
 8876SOL    HW138261   2.079   1.285   0.242  0.6578  0.8515 -4.9372
 8876SOL    HW238262   2.200   1.337   0.302 -1.0081 -0.0228  0.6275
 8877SOL     OW38263   2.685   4.585  10.883 -0.0256 -0.2018  0.1113
 8877SOL    HW138264   2.693   4.581  10.787 -0.1760  1.2798  0.0365
 8877SOL    HW238265   2.643   4.500  10.897  1.9729 -1.0986  0.7000
 8878SOL     OW38266   3.292   1.060  16.509  0.0161 -0.5011 -0.0888
 8878SOL    HW138267   3.211   1.112  16.510  0.0642 -0.4034 -1.2567
 8878SOL    HW238268   3.250   0.982  16.471 -0.6843 -0.6377  0.9771
 8879SOL     OW38269   0.025   1.353   2.717  0.2678  0.4674  0.8649
 8879SOL    HW138270   0.087   1.359   2.789  1.1620 -0.1805  0.1483
 8879SOL    HW238271   0.064   1.426   2.669 -0.2492 -0.5817 -1.1682
 8880SOL     OW38272   2.580   4.507   1.932 -0.1527 -0.0757  0.1098
 8880SOL    HW138273   2.647   4.467   1.988  1.6014  0.2123 -1.7952
 8880SOL    HW238274   2.503   4.526   1.987 -0.0781  4.1964 -1.2199
 8881SOL     OW38275   0.388   1.151  14.209 -0.4997 -0.0495  0.1454
 8881SOL    HW138276   0.326   1.100  14.157  0.1409 -2.3563  1.6416
 8881SOL    HW238277   0.374   1.097  14.287 -2.0791  0.1237 -0.0198
 8882SOL     OW38278   1.919   4.312   3.531  0.0197 -0.0279 -0.0133
 8882SOL    HW138279   1.933   4.288   3.440 -1.7627 -1.3539  0.0592
 8882SOL    HW238280   1.917   4.223   3.566  0.4193 -0.0086  0.0592
 8883SOL     OW38281   1.893   1.358  13.874 -0.3258  0.3028 -0.2063
 8883SOL    HW138282   1.856   1.354  13.786 -1.4214  3.1985  0.1188
 8883SOL    HW238283   1.967   1.417  13.859 -0.2207  0.3008  0.3090
 8884SOL     OW38284   1.563   0.454   0.387  0.1377  0.1975  0.0306
 8884SOL    HW138285   1.639   0.454   0.444 -0.2427  1.0079  0.5450
 8884SOL    HW238286   1.585   0.365   0.359  0.9715  0.3174  0.3142
 8885SOL     OW38287   3.530   2.156  14.096  0.4497  0.4231 -0.1335
 8885SOL    HW138288   3.594   2.092  14.127 -1.8513 -2.6792 -1.6354
 8885SOL    HW238289   3.585   2.233  14.107 -1.0534  1.0900  2.7248
 8886SOL     OW38290   2.031   3.875   4.897  0.5964 -0.2625 -0.1779
 8886SOL    HW138291   1.948   3.918   4.919  0.2444 -1.5927  1.1275
 8886SOL    HW238292   2.045   3.820   4.974  0.8710 -2.5541 -1.8714
 8887SOL     OW38293   1.568   4.451   4.728 -0.3364  0.1072 -0.0057
 8887SOL    HW138294   1.540   4.434   4.818 -0.1591 -0.0467  0.0230
 8887SOL    HW238295   1.487   4.493   4.701  0.3149 -0.5268 -2.8835
 8888SOL     OW38296   4.508   0.873   7.611  0.4529  0.2266  1.0478
 8888SOL    HW138297   4.583   0.817   7.594  0.6068  0.0508  2.3116
 8888SOL    HW238298   4.497   0.875   7.516 -1.7288 -1.5237  1.2424
 8889SOL     OW38299   1.706   3.672   6.450 -0.0191 -0.6736 -0.1928
 8889SOL    HW138300   1.686   3.745   6.509 -0.0432 -1.0641  0.2811
 8889SOL    HW238301   1.660   3.703   6.373 -0.9261 -0.6620  0.3515
 8890SOL     OW38302   3.244   0.102   2.935 -1.2380 -0.7006  0.0820
 8890SOL    HW138303   3.334   0.110   2.967 -0.5352 -1.4802 -1.7081
 8890SOL    HW238304   3.252   0.082   2.842  0.5623 -0.0219  0.0799
 8891SOL     OW38305   4.241   0.955  14.019  0.1668  0.4023  0.2717
 8891SOL    HW138306   4.222   0.908  13.938  2.4178 -0.0223 -0.0321
 8891SOL    HW238307   4.335   0.963  14.002  0.3923 -0.2554  1.2090
 8892SOL     OW38308   2.745   3.497   7.067 -0.1258 -0.1837 -0.5195
 8892SOL    HW138309   2.806   3.426   7.083  1.0559  1.5844  2.8334
 8892SOL    HW238310   2.769   3.565   7.130 -2.3338 -0.7462  0.9278
 8893SOL     OW38311   0.382   3.495   9.788  0.2280  0.2919  0.4487
 8893SOL    HW138312   0.338   3.548   9.721 -0.0396 -1.0175 -0.3948
 8893SOL    HW238313   0.305   3.463   9.835 -1.3548  0.8052 -1.8151
 8894SOL     OW38314   2.901   0.401  12.950 -0.0974 -0.5372  0.6280
 8894SOL    HW138315   2.930   0.456  13.023  0.5255 -0.2769  0.1867
 8894SOL    HW238316   2.929   0.314  12.980 -0.2787 -1.5284 -2.0440
 8895SOL     OW38317   4.679   2.649  15.163  0.1455  0.1409 -0.2372
 8895SOL    HW138318   0.004   2.694  15.105  2.1685 -1.1208  0.9431
 8895SOL    HW238319   4.640   2.723  15.208  1.2494  0.4064  0.2852
 8896SOL     OW38320   2.571   2.906   7.754 -0.2173 -0.1377  0.1179
 8896SOL    HW138321   2.642   2.916   7.817  1.4954  0.3373 -1.8905
 8896SOL    HW238322   2.611   2.833   7.707 -1.9209 -1.4807  0.7844
 8897SOL     OW38323   1.002   4.677   6.224 -0.4431  0.1049 -0.2007
 8897SOL    HW138324   0.966   0.009   6.167 -0.5191 -0.6945 -1.1267
 8897SOL    HW238325   0.945   4.659   6.298  2.3859  0.8585  2.1507
 8898SOL     OW38326   1.432   4.202   8.760  0.5258 -0.0314 -0.2271
 8898SOL    HW138327   1.433   4.289   8.801 -1.1535 -0.4903  0.8074
 8898SOL    HW238328   1.421   4.228   8.668  2.1543  1.4626 -0.0102
 8899SOL     OW38329   2.874   4.441   5.395 -0.0457  0.1690  0.7745
 8899SOL    HW138330   2.953   4.457   5.344 -0.8910 -1.5023 -1.0416
 8899SOL    HW238331   2.852   4.529   5.427  0.7246  0.0508  1.6473
 8900SOL     OW38332   1.249   1.611   2.769  0.1863  0.0498 -0.0420
 8900SOL    HW138333   1.247   1.597   2.675  1.1285  1.0728 -0.2201
 8900SOL    HW238334   1.202   1.540   2.814 -0.1006 -1.4564 -2.7123
 8901SOL     OW38335   1.286   1.081  13.027  0.0520 -0.0591 -0.2971
 8901SOL    HW138336   1.354   1.042  12.972  1.4216  1.2747  0.4824
 8901SOL    HW238337   1.213   1.101  12.969  0.7317 -2.5625 -2.0293
 8902SOL     OW38338   1.271   1.134  11.177 -0.1446  0.3874  0.2343
 8902SOL    HW138339   1.357   1.159  11.210 -0.2956 -1.2421  1.8316
 8902SOL    HW238340   1.252   1.077  11.252  2.8517 -1.9399 -0.7773
 8903SOL     OW38341   0.701   4.586   6.049  0.4408 -0.5916  0.2269
 8903SOL    HW138342   0.771   4.522   6.067  0.1016 -0.4831  1.9673
 8903SOL    HW238343   0.628   4.526   6.036 -0.8487  0.4708  2.4961
 8904SOL     OW38344   2.197   3.932  10.981 -0.7758  0.3905  0.1485
 8904SOL    HW138345   2.143   3.869  11.028  1.3891 -0.4651  1.4993
 8904SOL    HW238346   2.277   3.946  11.031 -1.0846  0.5139  0.6078
 8905SOL     OW38347   2.674   0.412   1.327 -0.0853 -0.5791  0.5622
 8905SOL    HW138348   2.616   0.403   1.252 -0.0338 -0.0008  0.4560
 8905SOL    HW238349   2.625   0.420   1.409  0.3754 -0.3528  0.8187
 8906SOL     OW38350   0.366   1.688   8.606  0.5153 -0.5584 -0.3659
 8906SOL    HW138351   0.380   1.675   8.699  0.0237  0.3099 -0.1681
 8906SOL    HW238352   0.366   1.782   8.590 -0.0683 -0.8696 -2.2277
 8907SOL     OW38353   1.346   3.215   3.418 -0.5171 -0.4041  0.2531
 8907SOL    HW138354   1.261   3.256   3.399  0.6148 -0.3798 -4.7901
 8907SOL    HW238355   1.374   3.198   3.328  0.9672  0.3070  0.5810
 8908SOL     OW38356   4.703   4.025   4.146 -0.1674  0.3206 -0.2764
 8908SOL    HW138357   4.669   3.996   4.061  1.0800 -1.2397 -0.2347
 8908SOL    HW238358   4.635   4.084   4.181  0.1135  0.4214  0.1027
 8909SOL     OW38359   2.617   3.223  11.100 -0.1274  0.1382  0.1537
 8909SOL    HW138360   2.674   3.175  11.040  1.5022  0.3830  1.5045
 8909SOL    HW238361   2.679   3.292  11.125 -1.0863  1.2516 -0.4716
 8910SOL     OW38362   2.307   2.618  17.197 -0.2803  0.0622 -0.0998
 8910SOL    HW138363   2.236   2.638  17.258 -1.6197 -1.2640 -1.2235
 8910SOL    HW238364   2.336   2.532  17.229  1.8907  1.1730  0.8974
 8911SOL     OW38365   0.139   4.471  15.763 -0.2734  0.8268  0.1961
 8911SOL    HW138366   0.089   4.519  15.698 -1.2611 -1.2420 -0.5671
 8911SOL    HW238367   0.219   4.517  15.739  1.7759 -1.7690  1.9725
 8912SOL     OW38368   2.948   3.641   0.621  0.6213  0.4716  0.2505
 8912SOL    HW138369   2.919   3.728   0.591  0.5884  0.2588 -0.3391
 8912SOL    HW238370   2.904   3.579   0.562  0.1795  0.7033  0.3348
 8913SOL     OW38371   3.416   3.641   3.041 -0.5830  0.5612  0.3017
 8913SOL    HW138372   3.442   3.639   3.133  0.6562 -3.0081 -0.1120
 8913SOL    HW238373   3.425   3.733   3.019  2.4682  0.7571  2.3514
 8914SOL     OW38374   4.726   0.408   3.687 -0.0659  0.2636  0.7529
 8914SOL    HW138375   0.082   0.386   3.691 -0.0446 -0.0528 -1.4851
 8914SOL    HW238376   4.697   0.324   3.652 -1.2422  0.1404  2.0298
 8915SOL     OW38377   0.479   4.386  13.425  0.2474 -0.4725 -0.3454
 8915SOL    HW138378   0.462   4.420  13.337 -0.9510  0.3333  0.2030
 8915SOL    HW238379   0.559   4.434  13.448 -0.6381  1.3013 -0.9703
 8916SOL     OW38380   2.551   0.309   8.018  0.2951  0.0548 -0.1672
 8916SOL    HW138381   2.491   0.334   8.088 -1.7591  1.4000 -2.4104
 8916SOL    HW238382   2.495   0.333   7.944 -0.6318 -3.3982 -0.5719
 8917SOL     OW38383   0.334   3.114   6.740  0.5119 -0.1639  0.3559
 8917SOL    HW138384   0.320   3.108   6.645 -0.8354 -4.7877  0.8415
 8917SOL    HW238385   0.425   3.145   6.733  0.6920 -0.8247 -0.2672
 8918SOL     OW38386   2.784   0.203   6.891 -0.5081 -0.4657  0.1851
 8918SOL    HW138387   2.775   0.275   6.953 -1.8372 -0.4191 -0.0657
 8918SOL    HW238388   2.868   0.180   6.931 -0.9468 -0.2156  1.2539
 8919SOL     OW38389   2.567   0.713  16.769 -0.5272 -0.1153 -0.3881
 8919SOL    HW138390   2.516   0.770  16.827 -1.4870  0.6180 -1.9586
 8919SOL    HW238391   2.573   0.770  16.693 -1.6012  0.6914  0.1345
 8920SOL     OW38392   1.509   2.760   6.567  0.3523  0.8003  0.4226
 8920SOL    HW138393   1.592   2.714   6.580 -0.5427 -1.0225 -0.3365
 8920SOL    HW238394   1.495   2.757   6.473 -2.7885 -3.4418  1.0153
 8921SOL     OW38395   2.064   0.683   8.923  0.3938 -0.7673 -0.6782
 8921SOL    HW138396   2.051   0.667   9.016 -1.9283 -0.5262 -0.9673
 8921SOL    HW238397   2.155   0.712   8.919 -1.4459  5.0181 -0.4018
 8922SOL     OW38398   1.431   3.327   5.286  0.1693  0.9149  0.0041
 8922SOL    HW138399   1.380   3.401   5.319  0.4534  0.4888  1.3954
 8922SOL    HW238400   1.442   3.269   5.361  0.4391 -1.6692 -2.0272
 8923SOL     OW38401   0.971   3.459   6.536  0.1192  0.2072  0.3354
 8923SOL    HW138402   0.963   3.384   6.595  2.2235 -1.5636 -1.5884
 8923SOL    HW238403   1.063   3.479   6.556  0.4215 -1.6917  0.8744
 8924SOL     OW38404   2.341   2.568   7.588 -0.3858 -0.4177 -0.1582
 8924SOL    HW138405   2.381   2.643   7.632 -1.9793  1.1053 -1.3122
 8924SOL    HW238406   2.296   2.527   7.662 -1.2042  1.0571  0.1637
 8925SOL     OW38407   0.952   2.433   3.063 -0.1536  0.3488  0.3009
 8925SOL    HW138408   0.990   2.450   2.976  0.2705 -1.5506  0.1059
 8925SOL    HW238409   1.022   2.394   3.115  1.8519  2.3479 -0.9166
 8926SOL     OW38410   2.731   4.566   1.576 -0.3139  0.2507  0.1434
 8926SOL    HW138411   2.767   4.484   1.608 -0.1777  0.1774 -0.1920
 8926SOL    HW238412   2.719   4.544   1.484  2.2647 -1.4319  0.2278
 8927SOL     OW38413   3.315   2.858  13.367 -0.0578  0.3611  0.1882
 8927SOL    HW138414   3.275   2.897  13.445 -0.6793 -0.8516  0.4754
 8927SOL    HW238415   3.243   2.840  13.306 -0.2764  0.1725  0.5025
 8928SOL     OW38416   2.912   3.684   1.227 -0.1527 -0.3589  0.2475
 8928SOL    HW138417   2.863   3.603   1.211 -1.9412  0.2338  2.6784
 8928SOL    HW238418   2.895   3.719   1.140 -3.0835 -1.5166  0.3457
 8929SOL     OW38419   4.022   3.474  12.794  0.6545 -0.1127 -0.7414
 8929SOL    HW138420   4.048   3.413  12.725 -0.8933 -1.7113  0.0949
 8929SOL    HW238421   4.102   3.482  12.848  1.6692  0.8960 -2.4088
 8930SOL     OW38422   4.315   4.001  11.733 -0.5165  0.6899 -0.0107
 8930SOL    HW138423   4.274   4.084  11.707 -1.1044  0.0334 -1.1860
 8930SOL    HW238424   4.289   3.991  11.825 -0.7197 -1.9698 -0.3579
 8931SOL     OW38425   0.138   4.640   5.081 -0.1011 -0.2397 -0.3596
 8931SOL    HW138426   0.064   4.587   5.052 -0.1974 -1.2561  1.6914
 8931SOL    HW238427   0.159   4.582   5.155 -0.5982  0.3043  0.2089
 8932SOL     OW38428   3.958   0.983  12.176 -0.1743 -0.4876  0.3814
 8932SOL    HW138429   3.877   0.932  12.177 -0.6072  0.1993  0.7384
 8932SOL    HW238430   4.020   0.927  12.223 -1.1411  0.3853  2.7065
 8933SOL     OW38431   2.185   0.233   5.511 -0.0269  0.1937  0.1190
 8933SOL    HW138432   2.174   0.301   5.445 -0.2219  0.6365  0.6106
 8933SOL    HW238433   2.273   0.202   5.490  0.8014  1.8054  1.2080
 8934SOL     OW38434   1.894   1.579  16.874 -0.5560  0.3336  0.2675
 8934SOL    HW138435   1.876   1.667  16.843 -1.0765  0.1611  0.0836
 8934SOL    HW238436   1.897   1.530  16.792 -4.2263  1.1952 -0.3623
 8935SOL     OW38437   0.815   1.846  13.831 -0.0988  0.2449 -0.1682
 8935SOL    HW138438   0.798   1.940  13.838  1.2640  0.4247  0.7352
 8935SOL    HW238439   0.881   1.836  13.900 -0.4173  3.4033  0.5892
 8936SOL     OW38440   1.451   0.310   0.636  0.6467 -0.3608 -0.5397
 8936SOL    HW138441   1.487   0.396   0.612  0.0542 -0.6921 -2.6717
 8936SOL    HW238442   1.497   0.302   0.719 -1.4534  1.2412  0.7843
 8937SOL     OW38443   2.556   1.615   4.950  0.3215  0.2151 -0.3119
 8937SOL    HW138444   2.469   1.578   4.938 -0.1575  1.0869  0.4121
 8937SOL    HW238445   2.575   1.632   4.858 -0.9281 -3.3785 -1.1875
 8938SOL     OW38446   0.275   4.666   7.087 -0.0209 -0.3550 -0.0447
 8938SOL    HW138447   0.350   4.661   7.029  0.2887 -0.0188  0.3249
 8938SOL    HW238448   0.270   4.571   7.092  2.0603 -0.4193  0.5532
 8939SOL     OW38449   1.738   4.258   1.902 -0.2514  0.2315 -0.1857
 8939SOL    HW138450   1.718   4.226   1.814 -1.1883 -0.0441  0.1261
 8939SOL    HW238451   1.825   4.216   1.900 -0.5855 -0.4689 -0.1867
 8940SOL     OW38452   4.097   0.756   8.757  0.0812 -0.0572 -0.0523
 8940SOL    HW138453   4.080   0.788   8.669 -1.2118 -1.3575 -0.2849
 8940SOL    HW238454   4.015   0.734   8.801  0.8943 -1.4827  0.7494
 8941SOL     OW38455   4.604   2.902   1.644 -0.4318  0.3533  0.3824
 8941SOL    HW138456   4.671   2.940   1.702  1.7863 -2.1022 -0.5495
 8941SOL    HW238457   4.535   2.898   1.710 -1.2267 -1.4499 -0.5777
 8942SOL     OW38458   3.486   1.037   9.911 -0.4635 -0.8767  0.4750
 8942SOL    HW138459   3.577   1.044   9.883 -0.6245 -1.6767 -0.2337
 8942SOL    HW238460   3.502   1.033  10.006 -1.4324 -0.8587  0.6418
 8943SOL     OW38461   2.633   4.442   6.663  0.1500 -0.1058 -0.4398
 8943SOL    HW138462   2.681   4.385   6.603  0.8928 -0.3576  0.3987
 8943SOL    HW238463   2.609   4.515   6.605  0.8398  0.1592 -0.3919
 8944SOL     OW38464   1.049   1.635   9.965  0.0734  0.8480 -0.0527
 8944SOL    HW138465   1.041   1.544   9.993 -0.0164  0.9081  0.1177
 8944SOL    HW238466   1.144   1.641   9.958 -0.0131  1.2082 -0.8693
 8945SOL     OW38467   0.573   2.828   3.858 -0.3539 -0.1199  0.0710
 8945SOL    HW138468   0.641   2.855   3.920  0.0219 -2.3940  0.6148
 8945SOL    HW238469   0.603   2.738   3.852 -1.1617 -0.2840 -1.5519
 8946SOL     OW38470   3.535   0.676  17.106  0.0138 -0.3467  0.2382
 8946SOL    HW138471   3.531   0.729  17.026  0.4270 -2.3731 -1.1382
 8946SOL    HW238472   3.533   0.586  17.076 -0.8852 -0.8297  1.7459
 8947SOL     OW38473   3.944   1.374   1.980  0.2890  0.1105 -0.4473
 8947SOL    HW138474   3.895   1.292   1.978  0.7840 -0.1640 -1.2962
 8947SOL    HW238475   3.909   1.421   1.904 -1.6570 -1.4331 -0.5114
 8948SOL     OW38476   3.044   1.763   5.488 -0.4439  0.5941 -0.1350
 8948SOL    HW138477   3.030   1.816   5.567 -0.5536 -0.0514  0.2835
 8948SOL    HW238478   3.007   1.678   5.513  0.2459  0.4276  0.3341
 8949SOL     OW38479   4.042   0.045   1.840  0.0955  0.9093 -0.6596
 8949SOL    HW138480   3.947   0.059   1.847  0.1862  2.0533 -1.7345
 8949SOL    HW238481   4.084   0.129   1.857  0.4877  0.4480  0.6485
 8950SOL     OW38482   2.446   0.298   4.012  0.4145  0.1015 -0.3562
 8950SOL    HW138483   2.409   0.288   3.924 -0.8070  0.2031  0.1518
 8950SOL    HW238484   2.474   0.389   4.011 -1.5543  0.7283  0.3201
 8951SOL     OW38485   2.375   3.112   2.389 -0.1666 -0.4327 -0.0258
 8951SOL    HW138486   2.336   3.192   2.426  1.2072  0.3081 -0.1875
 8951SOL    HW238487   2.367   3.127   2.295 -2.6409  0.9899  0.3850
 8952SOL     OW38488   3.097   2.552   4.795 -0.5625 -0.2864  0.0846
 8952SOL    HW138489   3.025   2.576   4.736 -1.8074 -1.3590  1.1644
 8952SOL    HW238490   3.058   2.510   4.872 -0.1678  2.3909  1.7275
 8953SOL     OW38491   2.158   3.314  14.602  0.1169 -0.1841  0.8092
 8953SOL    HW138492   2.087   3.378  14.599  1.4544  1.2269 -0.9710
 8953SOL    HW238493   2.102   3.237  14.598 -0.8574  0.3856  3.3546
 8954SOL     OW38494   0.901   3.871   4.050  0.5463  0.4220  0.5176
 8954SOL    HW138495   0.892   3.965   4.039  0.3922  0.0514 -2.7913
 8954SOL    HW238496   0.815   3.840   4.023  2.1140 -1.8743 -1.8838
 8955SOL     OW38497   1.739   4.106   2.680  0.1644  0.5451  0.2683
 8955SOL    HW138498   1.710   4.066   2.598  2.3018  1.4330 -0.9076
 8955SOL    HW238499   1.741   4.026   2.732 -0.7679  1.3758  1.6022
 8956SOL     OW38500   2.100   2.037   5.412  0.1832 -0.2184 -0.0144
 8956SOL    HW138501   2.154   2.106   5.372  0.5986 -0.3973  0.2393
 8956SOL    HW238502   2.138   1.955   5.379 -2.5454 -1.6426  0.4384
 8957SOL     OW38503   3.144   3.508  17.569 -0.4403 -0.2415  0.1734
 8957SOL    HW138504   3.162   3.601  17.584  3.2885 -0.5968 -2.0708
 8957SOL    HW238505   3.074   3.477  17.626  0.1800 -1.1869  0.4167
 8958SOL     OW38506   0.583   2.295  16.220 -0.4710 -0.3134 -0.6158
 8958SOL    HW138507   0.648   2.313  16.288 -0.2943  0.4213 -0.9789
 8958SOL    HW238508   0.497   2.332  16.240  0.1333  0.6124  0.2972
 8959SOL     OW38509   4.403   4.281   7.194 -0.1187 -0.3949 -0.1776
 8959SOL    HW138510   4.356   4.333   7.260 -1.3197 -0.4741 -0.9673
 8959SOL    HW238511   4.477   4.263   7.252 -0.3049  0.9114  0.4598
 8960SOL     OW38512   3.912   1.595   6.443  0.2937 -0.5760 -0.1020
 8960SOL    HW138513   3.935   1.574   6.352  0.1061 -0.6505 -0.1313
 8960SOL    HW238514   3.866   1.516   6.468  1.0974 -0.9841  0.1010
 8961SOL     OW38515   2.843   2.426   5.451 -0.3624  0.0995 -0.4934
 8961SOL    HW138516   2.800   2.506   5.418 -0.3315  0.8222  1.2077
 8961SOL    HW238517   2.850   2.449   5.544  1.0454 -2.7230  0.0827
 8962SOL     OW38518   3.363   3.536  14.850 -0.1011  0.4721  0.3866
 8962SOL    HW138519   3.371   3.603  14.782  2.3993 -1.4962 -1.2868
 8962SOL    HW238520   3.274   3.501  14.840 -0.4658  1.5403 -0.0441
 8963SOL     OW38521   1.473   3.210   3.141 -0.0535 -0.0635 -0.2846
 8963SOL    HW138522   1.564   3.222   3.113  0.0272  0.1408  0.0543
 8963SOL    HW238523   1.442   3.285   3.089  2.8963  1.2872 -0.1137
 8964SOL     OW38524   2.325   4.568   5.395  0.0732  0.2399  0.3077
 8964SOL    HW138525   2.397   4.549   5.455 -0.9357  1.3898  1.8941
 8964SOL    HW238526   2.376   4.563   5.315  0.2594 -0.8393  0.5004
 8965SOL     OW38527   4.209   4.012   2.227  0.0729  0.1434 -0.2724
 8965SOL    HW138528   4.183   3.922   2.209  3.0544 -0.5367 -1.2871
 8965SOL    HW238529   4.248   4.042   2.145 -2.7043  1.1703 -1.2062
 8966SOL     OW38530   0.513   0.142   5.148  0.1621  0.0150  0.1928
 8966SOL    HW138531   0.545   0.231   5.134 -0.6624 -0.0128 -1.9867
 8966SOL    HW238532   0.421   0.146   5.123  0.0607 -2.5699  0.1755
 8967SOL     OW38533   2.025   4.157   4.582  0.2664  0.4641  1.1960
 8967SOL    HW138534   2.076   4.101   4.641  0.6535 -0.0054  0.4287
 8967SOL    HW238535   2.055   4.244   4.608  4.8623  0.1110 -2.9847
 8968SOL     OW38536   3.283   1.789  15.869 -0.0553  0.0651  0.3093
 8968SOL    HW138537   3.324   1.723  15.813  1.5608 -1.6462  3.4942
 8968SOL    HW238538   3.356   1.842  15.899  1.1211 -1.1892 -0.3180
 8969SOL     OW38539   4.045   2.331  17.576 -0.4171 -0.0270 -0.2366
 8969SOL    HW138540   4.006   2.307  17.492  2.2298  0.2950 -1.5634
 8969SOL    HW238541   4.127   2.281  17.577 -0.2023  0.3292 -0.0905
 8970SOL     OW38542   2.047   0.272   8.322  0.5166 -0.0726 -0.4017
 8970SOL    HW138543   2.134   0.230   8.321 -0.3474 -1.8351 -1.6581
 8970SOL    HW238544   1.993   0.229   8.255 -0.2052 -1.8981  1.3490
 8971SOL     OW38545   1.548   0.348   8.122  0.2450 -0.3121 -0.6385
 8971SOL    HW138546   1.574   0.408   8.051  0.9864  1.8682  1.4965
 8971SOL    HW238547   1.619   0.369   8.182 -0.9070  1.9873 -0.0822
 8972SOL     OW38548   4.283   0.401   0.859  0.0572  0.4630  0.3918
 8972SOL    HW138549   4.312   0.485   0.895  0.7687  0.0826  0.7076
 8972SOL    HW238550   4.338   0.346   0.914  1.3227  0.4226 -0.8979
 8973SOL     OW38551   2.739   2.394   6.044  0.3256 -0.2064  0.3486
 8973SOL    HW138552   2.790   2.451   6.101  2.5167 -0.8326 -0.9691
 8973SOL    HW238553   2.690   2.461   5.994  0.5546  0.6464  1.2780
 8974SOL     OW38554   4.089   0.017   8.697 -0.2605  0.8331  0.6616
 8974SOL    HW138555   4.052   0.098   8.663  0.6964 -0.1242 -2.6141
 8974SOL    HW238556   4.182   0.040   8.687  0.4958 -2.1779  0.6193
 8975SOL     OW38557   3.415   3.241   3.630 -0.7389  0.0440 -0.5062
 8975SOL    HW138558   3.356   3.227   3.556 -0.4289 -0.3086 -0.6901
 8975SOL    HW238559   3.471   3.163   3.633 -1.4440 -0.5614 -2.7278
 8976SOL     OW38560   0.788   4.509  10.192 -0.7045  0.0236  0.2543
 8976SOL    HW138561   0.702   4.510  10.149 -1.1668  0.3303  1.1730
 8976SOL    HW238562   0.826   4.433  10.149 -3.5192 -0.1812 -1.8749
 8977SOL     OW38563   1.785   3.985   6.254 -0.5699 -0.4415  0.0438
 8977SOL    HW138564   1.880   3.980   6.267 -0.0100  2.7455 -2.8340
 8977SOL    HW238565   1.764   4.051   6.320 -1.3095 -1.3478  0.7116
 8978SOL     OW38566   4.288   2.352   7.366 -0.4493  0.0245 -0.0828
 8978SOL    HW138567   4.326   2.426   7.319  1.6583 -1.8550 -1.3040
 8978SOL    HW238568   4.229   2.396   7.428  0.1441  0.9757 -0.1856
 8979SOL     OW38569   0.741   3.722   5.387 -0.4661  0.0899  0.4907
 8979SOL    HW138570   0.801   3.721   5.461  2.1869  2.9187 -1.6417
 8979SOL    HW238571   0.669   3.669   5.422 -0.5989  0.0827  0.2140
 8980SOL     OW38572   0.509   0.224   7.028  0.3694 -0.2383 -0.1856
 8980SOL    HW138573   0.449   0.292   7.057  0.8564  0.1341 -0.0462
 8980SOL    HW238574   0.500   0.151   7.089  0.3674  0.9681  1.2366
 8981SOL     OW38575   1.379   2.534  17.331 -0.3580 -0.3377  0.4826
 8981SOL    HW138576   1.380   2.616  17.281 -1.0772 -0.0732  0.8996
 8981SOL    HW238577   1.441   2.486  17.277  0.6314  1.3831  0.0835
 8982SOL     OW38578   3.958   2.592   3.186 -0.8296 -0.1500  0.4650
 8982SOL    HW138579   3.905   2.648   3.243  0.2157  0.2544  1.0229
 8982SOL    HW238580   3.902   2.589   3.108 -1.1623 -0.7535  0.7216
 8983SOL     OW38581   2.635   0.512   5.846 -0.2669  0.2180  0.3254
 8983SOL    HW138582   2.630   0.607   5.840 -0.2670  0.3172  2.1073
 8983SOL    HW238583   2.731   0.507   5.841 -0.2986  1.4377 -1.4804
 8984SOL     OW38584   3.688   4.053   5.727  0.4194  0.2708 -0.1293
 8984SOL    HW138585   3.682   4.122   5.660 -1.3130  0.2530 -0.0077
 8984SOL    HW238586   3.607   4.003   5.717  0.8148 -0.2760 -0.5838
 8985SOL     OW38587   4.107   3.252   5.387 -0.5882  0.5066 -0.2407
 8985SOL    HW138588   4.036   3.233   5.326  0.5416  1.7639 -1.9392
 8985SOL    HW238589   4.172   3.233   5.319  0.8682 -1.9346  1.8381
 8986SOL     OW38590   0.854   3.854   9.282  0.0413 -0.1699 -0.0767
 8986SOL    HW138591   0.768   3.896   9.281 -1.9187 -4.2478 -0.7029
 8986SOL    HW238592   0.852   3.803   9.201 -1.6237 -0.0657 -0.1002
 8987SOL     OW38593   1.029   4.465   4.455 -0.0805 -0.2404  0.2200
 8987SOL    HW138594   1.060   4.545   4.497 -2.2552  0.0059  1.3456
 8987SOL    HW238595   1.006   4.415   4.533  1.8183  1.3777  1.8120
 8988SOL     OW38596   0.191   1.882   9.002  0.3198 -0.6353 -0.0526
 8988SOL    HW138597   0.226   1.888   9.091 -3.5352 -0.8254  1.4831
 8988SOL    HW238598   0.272   1.840   8.974 -0.0150 -1.6830  0.5208
 8989SOL     OW38599   3.933   2.365   8.041 -0.0654  0.1731  0.8990
 8989SOL    HW138600   3.900   2.384   7.953 -1.5071 -1.6245  1.0391
 8989SOL    HW238601   3.879   2.425   8.092  0.6420  0.9993  0.6773
 8990SOL     OW38602   2.187   4.168  17.743  0.4210  0.4390 -0.6510
 8990SOL    HW138603   2.138   4.106  17.689  0.8223  0.0688 -0.5845
 8990SOL    HW238604   2.168   4.247  17.691 -0.0728 -0.2124 -1.4661
 8991SOL     OW38605   0.431   0.192   3.537  0.6612  0.2996 -0.2581
 8991SOL    HW138606   0.359   0.180   3.475 -1.5011  0.3009  2.2790
 8991SOL    HW238607   0.481   0.256   3.486 -0.5953  0.0691 -1.8014
 8992SOL     OW38608   0.372   2.256  17.527 -0.0830  0.4131  0.7347
 8992SOL    HW138609   0.453   2.253  17.578 -0.2082  1.2893  0.9788
 8992SOL    HW238610   0.374   2.348  17.503  1.0381  0.1921 -0.0534
 8993SOL     OW38611   1.180   0.278   2.221  0.5076 -0.1600 -0.0509
 8993SOL    HW138612   1.101   0.330   2.237  0.0447 -1.0142  0.4310
 8993SOL    HW238613   1.154   0.187   2.206  0.1371  0.3856 -2.6912
 8994SOL     OW38614   4.058   4.405   2.844  0.2717  0.3216  0.0987
 8994SOL    HW138615   3.993   4.341   2.873 -1.9163  2.7432  0.4969
 8994SOL    HW238616   4.010   4.466   2.788 -0.9169 -1.4181 -0.7673
 8995SOL     OW38617   0.651   1.642   6.576 -0.1178 -0.1593 -0.5963
 8995SOL    HW138618   0.601   1.584   6.633 -3.3239  2.6953 -0.5051
 8995SOL    HW238619   0.734   1.629   6.621 -2.3202 -0.9454  3.2136
 8996SOL     OW38620   3.485   0.190  12.083 -0.0695 -0.2042  0.0366
 8996SOL    HW138621   3.509   0.215  11.994  0.9883 -1.1606  0.0534
 8996SOL    HW238622   3.394   0.161  12.082 -0.0877 -0.0905 -1.4536
 8997SOL     OW38623   0.511   4.078  10.800  0.0547 -0.4987  0.5462
 8997SOL    HW138624   0.539   4.167  10.825  1.0935 -0.0869 -2.1051
 8997SOL    HW238625   0.559   4.065  10.719 -0.1379  0.1930  0.3219
 8998SOL     OW38626   4.661   4.399   3.111  0.5205  0.3307 -0.4875
 8998SOL    HW138627   0.003   4.417   3.059  0.5664 -2.2264 -1.2894
 8998SOL    HW238628   4.659   4.304   3.104  0.5755  0.2148  1.2058
 8999SOL     OW38629   0.747   0.917   8.840  0.0973  0.2531  0.3008
 8999SOL    HW138630   0.817   0.852   8.830  0.5037  0.5537  1.2198
 8999SOL    HW238631   0.669   0.863   8.826 -0.5426  1.5515 -1.1178
 9000SOL     OW38632   2.864   4.661  11.101  0.4320  0.3125  0.3332
 9000SOL    HW138633   2.823   4.668  11.014  0.3331 -1.8188  0.2068
 9000SOL    HW238634   2.910   0.008  11.099  0.4554  0.2765 -0.9801
 9001SOL     OW38635   1.919   0.320   9.449 -0.0034 -0.4008  0.1846
 9001SOL    HW138636   1.994   0.352   9.500 -0.5979  1.1705  0.0568
 9001SOL    HW238637   1.850   0.304   9.513 -2.1156  1.2323 -1.7225
 9002SOL     OW38638   0.432   0.707   1.158 -0.0933  0.1715  0.2200
 9002SOL    HW138639   0.455   0.733   1.247  0.2081 -0.7486  0.4127
 9002SOL    HW238640   0.448   0.614   1.172 -0.8861  0.5903  3.7637
 9003SOL     OW38641   0.845   4.280   2.230  0.2144  0.5387  0.0807
 9003SOL    HW138642   0.808   4.212   2.174  0.1285  1.1018 -0.5435
 9003SOL    HW238643   0.796   4.356   2.199  0.7421  1.0634  0.5375
 9004SOL     OW38644   0.519   1.097   0.285 -0.7224 -0.1073 -0.1088
 9004SOL    HW138645   0.565   1.032   0.232 -0.6326  0.0458 -0.2185
 9004SOL    HW238646   0.433   1.084   0.246  1.6889  1.1761 -5.8754
 9005SOL     OW38647   4.040   0.911   1.847 -0.2497  0.2501 -0.2645
 9005SOL    HW138648   4.032   0.900   1.752  2.4355 -2.7054 -0.1532
 9005SOL    HW238649   4.006   0.828   1.880  1.7403  0.0887  1.3880
 9006SOL     OW38650   3.467   2.974   2.428 -0.2656  0.4418  0.6522
 9006SOL    HW138651   3.554   2.953   2.394  0.4600  1.8025  1.6667
 9006SOL    HW238652   3.440   2.885   2.452 -0.8573  0.8178  1.3898
 9007SOL     OW38653   4.420   4.317  16.545 -0.0439  0.5183  0.0646
 9007SOL    HW138654   4.452   4.274  16.624 -2.8931 -0.2364  0.8237
 9007SOL    HW238655   4.331   4.341  16.571  1.0907  3.3533  1.2494
 9008SOL     OW38656   1.827   2.023  17.668  0.8654 -0.0251 -0.8193
 9008SOL    HW138657   1.887   2.006  17.741  1.2968  0.4107 -1.0749
 9008SOL    HW238658   1.782   1.939  17.663 -1.2817  1.1058 -0.6276
 9009SOL     OW38659   3.871   1.679  13.915  0.3600  0.6589 -0.4693
 9009SOL    HW138660   3.960   1.697  13.945  0.1878  0.0100  0.4215
 9009SOL    HW238661   3.850   1.600  13.965 -1.3807  2.2084  1.3042
 9010SOL     OW38662   4.233   0.529   0.205  0.2341 -0.3229 -0.7967
 9010SOL    HW138663   4.313   0.519   0.257 -0.2602 -1.3496 -0.2349
 9010SOL    HW238664   4.278   0.561   0.126 -2.0275  1.5940 -1.2891
 9011SOL     OW38665   3.251   3.823   6.060 -0.2844 -0.2932 -0.2515
 9011SOL    HW138666   3.256   3.850   6.152  0.5005  0.3964 -0.5007
 9011SOL    HW238667   3.216   3.735   6.072  0.9841 -0.4590  2.3236
 9012SOL     OW38668   2.029   2.831  16.992  0.4443  0.1170  0.0660
 9012SOL    HW138669   1.977   2.751  16.982  2.2458 -0.7441 -2.3561
 9012SOL    HW238670   2.035   2.837  17.088 -0.1154  0.1582  0.0996
 9013SOL     OW38671   1.056   4.606   3.988  0.0003 -0.7246  0.0511
 9013SOL    HW138672   1.002   4.535   3.954  0.4688 -1.4191  0.7676
 9013SOL    HW238673   1.145   4.588   3.959 -0.5610 -0.6126 -1.7450
 9014SOL     OW38674   1.120   3.289   3.670 -0.1988  0.1683  0.2236
 9014SOL    HW138675   1.198   3.345   3.675 -0.1371  0.2026 -1.3380
 9014SOL    HW238676   1.090   3.308   3.581 -0.6857  0.5686  0.4692
 9015SOL     OW38677   4.099   3.322   9.677  0.2547 -0.3139  0.2676
 9015SOL    HW138678   4.076   3.413   9.659  0.5258 -0.5163 -1.0527
 9015SOL    HW238679   4.019   3.296   9.722  0.1455  0.6771  0.6547
 9016SOL     OW38680   3.866   0.725   8.426  0.8926 -0.1968 -0.4464
 9016SOL    HW138681   3.806   0.705   8.354  0.9465 -3.2195  0.3588
 9016SOL    HW238682   3.815   0.723   8.507  1.7060 -2.9750 -0.0119
 9017SOL     OW38683   2.665   0.486   4.586 -0.1499  0.0185 -0.0159
 9017SOL    HW138684   2.651   0.404   4.540 -2.7378 -0.7571  2.1452
 9017SOL    HW238685   2.759   0.492   4.570  0.0002  0.0736  0.8911
 9018SOL     OW38686   3.569   1.540   3.862 -0.1819 -0.4835 -0.0729
 9018SOL    HW138687   3.541   1.470   3.803 -0.0270  1.0532 -1.9928
 9018SOL    HW238688   3.663   1.521   3.852 -0.3764 -1.2199 -0.5016
 9019SOL     OW38689   3.222   0.613   2.704  0.8093  0.2219  0.6422
 9019SOL    HW138690   3.196   0.631   2.794 -1.1971 -0.4008  0.1730
 9019SOL    HW238691   3.268   0.530   2.720  0.7692  0.0253 -0.2769
 9020SOL     OW38692   2.633   3.822   2.004  0.5329  0.1292  0.2034
 9020SOL    HW138693   2.672   3.783   2.083 -0.6961  0.4765  0.9796
 9020SOL    HW238694   2.700   3.826   1.936 -0.2910  1.1489 -0.5354
 9021SOL     OW38695   3.237   4.253   7.010  1.1285 -0.0143  0.1535
 9021SOL    HW138696   3.144   4.245   6.988  1.1940 -1.7617  0.5186
 9021SOL    HW238697   3.282   4.189   6.954 -0.1529  0.3984 -1.3720
 9022SOL     OW38698   0.450   0.876   6.010 -0.0023  0.1818 -0.1590
 9022SOL    HW138699   0.428   0.800   5.955  0.6756 -0.4707  0.4591
 9022SOL    HW238700   0.540   0.900   5.989 -1.2987  1.2617 -4.4994
 9023SOL     OW38701   4.278   3.309   6.236 -0.2051  0.6203  0.2898
 9023SOL    HW138702   4.211   3.373   6.259  2.0002  2.8127  0.6709
 9023SOL    HW238703   4.258   3.250   6.308  0.9014 -0.8330 -0.6049
 9024SOL     OW38704   4.303   2.204  16.027 -0.3130 -0.2728  0.6514
 9024SOL    HW138705   4.337   2.275  16.082 -0.9025  0.5092 -0.0000
 9024SOL    HW238706   4.267   2.246  15.949 -0.1483 -0.3712  0.5200
 9025SOL     OW38707   3.653   0.829   2.803 -0.2545 -0.0594 -0.1672
 9025SOL    HW138708   3.566   0.837   2.764  0.2943  2.1658 -0.9362
 9025SOL    HW238709   3.663   0.735   2.786 -2.7534 -0.4248  0.4102
 9026SOL     OW38710   2.448   3.481   7.167 -0.0487  0.0319 -0.2089
 9026SOL    HW138711   2.462   3.388   7.184  1.0239  0.3740  0.7153
 9026SOL    HW238712   2.491   3.496   7.083 -0.0162  1.3035  0.0437
 9027SOL     OW38713   3.880   3.650   3.094 -0.5659 -0.1727  0.3691
 9027SOL    HW138714   3.853   3.740   3.111 -1.3176 -0.2015 -0.6970
 9027SOL    HW238715   3.801   3.618   3.051 -1.6981 -1.3029  3.2583
 9028SOL     OW38716   2.600   3.516   4.285 -0.4320  0.6581  0.1031
 9028SOL    HW138717   2.506   3.499   4.281 -0.7469  2.6372 -1.0349
 9028SOL    HW238718   2.605   3.570   4.364 -0.7697 -1.2647  1.4265
 9029SOL     OW38719   3.517   1.116   4.317 -0.4164  0.0918  0.2998
 9029SOL    HW138720   3.578   1.056   4.360 -3.4347 -1.9829  1.6607
 9029SOL    HW238721   3.565   1.194   4.342  0.5915 -1.0651  1.9518
 9030SOL     OW38722   2.449   2.721   8.046 -0.0387  0.0455 -0.0595
 9030SOL    HW138723   2.410   2.707   8.133  1.0284  1.3212  0.6317
 9030SOL    HW238724   2.522   2.778   8.072  0.4106 -0.7299  0.4113
 9031SOL     OW38725   3.763   2.101   4.708  0.1867  0.2202  0.0140
 9031SOL    HW138726   3.850   2.133   4.733 -0.2280  0.1508  1.5262
 9031SOL    HW238727   3.784   2.022   4.657  0.1244  1.0952 -1.3625
 9032SOL     OW38728   0.787   1.373   4.634 -0.2326  0.5361 -0.5939
 9032SOL    HW138729   0.823   1.383   4.546 -1.3688  0.5133 -1.0704
 9032SOL    HW238730   0.871   1.370   4.678  0.8123 -2.2514 -2.7553
 9033SOL     OW38731   2.160   2.198   7.421 -0.1958  0.1682  0.4329
 9033SOL    HW138732   2.125   2.109   7.423 -0.4420  0.1982 -2.5724
 9033SOL    HW238733   2.115   2.231   7.498 -2.4168  0.0631 -0.8236
 9034SOL     OW38734   3.203   4.530   5.603 -0.1298 -0.2567 -0.0632
 9034SOL    HW138735   3.271   4.560   5.663 -1.9553  0.6442  1.5375
 9034SOL    HW238736   3.124   4.574   5.633 -0.1920 -1.5341  1.6534
 9035SOL     OW38737   2.559   3.852  11.948 -0.3134  0.5503  0.4488
 9035SOL    HW138738   2.623   3.913  11.912  2.3298 -1.7099  1.4063
 9035SOL    HW238739   2.611   3.778  11.978  0.0436  0.5820 -0.0977
 9036SOL     OW38740   4.247   4.233   4.343  0.5827  0.5268 -0.3378
 9036SOL    HW138741   4.191   4.176   4.395 -0.3270  0.8773 -0.9297
 9036SOL    HW238742   4.319   4.177   4.316  0.4523  0.8145 -1.2780
 9037SOL     OW38743   4.304   3.599   2.651 -0.0910 -0.3868  0.0377
 9037SOL    HW138744   4.217   3.616   2.687 -0.4001  0.0182 -0.8876
 9037SOL    HW238745   4.288   3.528   2.589  1.8115  0.0746 -0.9789
 9038SOL     OW38746   0.027   1.693   1.893 -0.0106 -0.3089  0.1092
 9038SOL    HW138747   4.685   1.745   1.907  1.7705  2.5046 -0.0933
 9038SOL    HW238748   0.037   1.695   1.798 -3.5810  0.9678 -0.2202
 9039SOL     OW38749   1.363   0.858   8.579 -0.0426 -0.6094 -0.2379
 9039SOL    HW138750   1.430   0.824   8.639  0.9813  1.6254 -0.1321
 9039SOL    HW238751   1.353   0.787   8.515  1.2881 -0.0088 -1.0884
 9040SOL     OW38752   4.373   0.379  13.872 -0.0900  0.2686  0.1349
 9040SOL    HW138753   4.279   0.363  13.867 -0.2925  1.6198 -0.5848
 9040SOL    HW238754   4.399   0.381  13.780  0.6158 -2.7238  0.2707
 9041SOL     OW38755   3.949   0.996   5.684 -0.0857  0.0752  0.6642
 9041SOL    HW138756   4.036   1.031   5.666 -0.5483  0.3864 -0.9368
 9041SOL    HW238757   3.960   0.914   5.636 -0.4111 -0.3594  1.3228
 9042SOL     OW38758   0.587   1.114   4.986 -0.2224 -0.1817 -0.1598
 9042SOL    HW138759   0.605   1.020   4.996 -0.5152 -0.1987  0.2066
 9042SOL    HW238760   0.601   1.124   4.892 -2.5597  0.0943 -0.4907
 9043SOL     OW38761   2.558   3.466  10.837  0.2776  0.3027 -0.4675
 9043SOL    HW138762   2.511   3.529  10.891  0.4753  0.3084 -0.3006
 9043SOL    HW238763   2.622   3.527  10.799  1.1699  0.6475  1.5571
 9044SOL     OW38764   0.108   3.155  13.956  0.0809  0.2398 -0.0974
 9044SOL    HW138765   0.089   3.083  13.895 -0.0390 -0.2260  0.4927
 9044SOL    HW238766   0.204   3.158  13.957 -0.0433  3.7390 -0.6504
 9045SOL     OW38767   0.707   1.365   3.480  0.8754  0.2645 -0.6741
 9045SOL    HW138768   0.735   1.439   3.426  3.3048 -1.7252 -2.1038
 9045SOL    HW238769   0.618   1.399   3.490  0.9649  0.0172  0.9998
 9046SOL     OW38770   1.905   3.159   9.684  0.5174 -0.0597  0.2180
 9046SOL    HW138771   1.844   3.232   9.668 -0.6692 -1.3855 -1.4112
 9046SOL    HW238772   1.945   3.157   9.597  3.9992 -2.7315  1.8937
 9047SOL     OW38773   3.178   2.640   6.852 -0.2685  0.0681  0.0974
 9047SOL    HW138774   3.214   2.560   6.813 -0.1463 -0.2639  0.8912
 9047SOL    HW238775   3.255   2.692   6.871 -1.2023  1.0383  1.2274
 9048SOL     OW38776   1.415   4.230   6.475  0.3549  0.3584 -0.2391
 9048SOL    HW138777   1.346   4.290   6.449 -0.0975 -0.1043 -0.1123
 9048SOL    HW238778   1.453   4.203   6.391  2.1607  1.8885  0.0847
 9049SOL     OW38779   1.264   2.603  11.654  0.5306 -0.4662 -0.2564
 9049SOL    HW138780   1.221   2.688  11.652 -1.2929 -1.3676  1.2426
 9049SOL    HW238781   1.337   2.609  11.715 -0.8324 -1.7391  1.4648
 9050SOL     OW38782   0.057   4.612   4.154  0.3369 -0.1996  0.1388
 9050SOL    HW138783   0.140   4.567   4.143  0.8298  0.4911  1.0566
 9050SOL    HW238784   0.057   4.662   4.072  1.8511 -1.3337 -0.5589
 9051SOL     OW38785   1.302   1.596   1.810  0.7352  0.1031  0.2140
 9051SOL    HW138786   1.226   1.558   1.765 -0.9320  0.6024  2.5942
 9051SOL    HW238787   1.362   1.523   1.821  3.0213  1.7639 -1.2751
 9052SOL     OW38788   1.765   1.525   1.462  0.7490  0.1946  1.0480
 9052SOL    HW138789   1.845   1.545   1.510  1.2248 -0.2730  0.4512
 9052SOL    HW238790   1.770   1.430   1.470  0.6816  0.2864  2.1207
 9053SOL     OW38791   3.546   2.642   3.290  0.2720  0.5344  0.1991
 9053SOL    HW138792   3.632   2.619   3.325 -0.6667 -0.2265  2.0233
 9053SOL    HW238793   3.537   2.572   3.226  0.0723  0.0565  0.7448
 9054SOL     OW38794   3.145   2.701   2.571  0.2040 -0.2635 -0.2123
 9054SOL    HW138795   3.087   2.778   2.563 -2.0605 -1.6068  3.4910
 9054SOL    HW238796   3.085   2.651   2.626  1.0867 -0.3998  0.6168
 9055SOL     OW38797   1.501   3.699   3.058 -0.2643  0.7276 -0.1908
 9055SOL    HW138798   1.419   3.712   3.106  0.7306  1.7602  1.2327
 9055SOL    HW238799   1.556   3.659   3.125  0.3590 -2.1723 -2.4247
 9056SOL     OW38800   1.710   0.425  10.238 -0.5721  0.2092  0.3036
 9056SOL    HW138801   1.792   0.417  10.286  0.4002 -1.8763 -1.7211
 9056SOL    HW238802   1.724   0.514  10.206 -1.5770  0.4547  0.5429
 9057SOL     OW38803   2.579   3.998   4.832 -0.6420  0.1487 -0.2963
 9057SOL    HW138804   2.514   3.930   4.814 -1.3198  0.8070 -0.3295
 9057SOL    HW238805   2.521   4.065   4.869  0.5573 -0.4572  2.6701
 9058SOL     OW38806   0.816   3.645   6.786 -0.1923  0.1712 -0.1434
 9058SOL    HW138807   0.762   3.688   6.720  0.1466 -0.2744 -0.7031
 9058SOL    HW238808   0.771   3.656   6.870  0.9875  2.3649  0.2245
 9059SOL     OW38809   1.683   0.854   4.479 -0.1321 -0.0642 -0.6756
 9059SOL    HW138810   1.750   0.791   4.452 -1.1088 -0.8495 -1.2953
 9059SOL    HW238811   1.700   0.918   4.410  1.0736  1.3945  1.0015
 9060SOL     OW38812   4.505   3.846   2.738 -0.4277 -0.3639 -0.5416
 9060SOL    HW138813   4.476   3.780   2.800 -1.4148  0.2900 -0.3028
 9060SOL    HW238814   4.581   3.804   2.699 -1.1893 -0.0488 -2.3889
 9061SOL     OW38815   1.222   0.208   6.424 -0.5125  0.1162 -0.6328
 9061SOL    HW138816   1.282   0.158   6.480 -1.4206  1.6616  1.7200
 9061SOL    HW238817   1.140   0.212   6.472 -0.1656  0.2284 -0.0519
 9062SOL     OW38818   0.266   2.196  12.982  0.1112 -0.2582 -0.8118
 9062SOL    HW138819   0.308   2.271  13.023 -0.3898 -1.0704  1.1619
 9062SOL    HW238820   0.215   2.145  13.045  0.9256 -0.5263 -0.3708
 9063SOL     OW38821   2.723   1.547   5.183 -0.0814 -0.5388  0.2189
 9063SOL    HW138822   2.691   1.457   5.175 -0.9317  0.0264 -2.8942
 9063SOL    HW238823   2.673   1.592   5.115 -0.4017  0.0528  0.8459
 9064SOL     OW38824   4.705   2.057   5.265  0.1990  0.3764 -0.1000
 9064SOL    HW138825   0.022   2.131   5.296  1.6103 -0.7098  0.0235
 9064SOL    HW238826   0.026   1.982   5.278 -0.1878 -0.3282 -2.4881
 9065SOL     OW38827   1.350   3.716   2.396 -0.4460 -0.2616 -0.1969
 9065SOL    HW138828   1.278   3.655   2.382 -0.1811 -1.1044  2.0920
 9065SOL    HW238829   1.424   3.667   2.360 -0.1505 -1.4120  1.9400
 9066SOL     OW38830   3.329   2.450   6.099  0.2240  0.2534  0.1094
 9066SOL    HW138831   3.367   2.424   6.183  1.2076 -1.7804 -0.9928
 9066SOL    HW238832   3.385   2.526   6.088  2.9583 -1.8853 -0.6264
 9067SOL     OW38833   0.931   1.496   3.962 -0.2617 -0.0048  0.1936
 9067SOL    HW138834   0.844   1.532   3.944  0.3187  0.5359 -1.5173
 9067SOL    HW238835   0.987   1.534   3.893 -0.5928 -0.1422 -0.1499
 9068SOL     OW38836   1.500   2.676   8.187  0.4360 -0.0626  0.0085
 9068SOL    HW138837   1.451   2.740   8.137 -1.4950 -0.3748  1.5165
 9068SOL    HW238838   1.506   2.728   8.267  1.3733  2.9175 -2.0215
 9069SOL     OW38839   2.712   0.909  12.136 -0.3758  0.3824  0.6156
 9069SOL    HW138840   2.698   0.820  12.169  2.7012 -0.8961 -1.5558
 9069SOL    HW238841   2.691   0.950  12.220 -0.7977 -0.5497  0.9576
 9070SOL     OW38842   3.822   0.246   5.872 -0.2356  0.3374  0.2401
 9070SOL    HW138843   3.897   0.294   5.908 -1.7717  2.2913  0.8773
 9070SOL    HW238844   3.794   0.201   5.952  3.2640  1.9793  2.3831
 9071SOL     OW38845   0.135   2.932   8.935  0.5856 -0.1141  0.5065
 9071SOL    HW138846   0.085   3.010   8.911  1.6633  1.9541  4.8956
 9071SOL    HW238847   0.224   2.948   8.904  0.0482 -2.6483 -2.3623
 9072SOL     OW38848   0.530   0.795  10.894  0.4264  0.0910 -0.1349
 9072SOL    HW138849   0.452   0.746  10.871 -0.2240  1.0507  0.0194
 9072SOL    HW238850   0.509   0.882  10.861 -1.4407 -0.7581 -1.1889
 9073SOL     OW38851   1.728   0.092   5.693 -0.2938 -0.4656 -0.0059
 9073SOL    HW138852   1.706   0.110   5.601 -0.0766 -0.9329 -0.1510
 9073SOL    HW238853   1.818   0.126   5.689 -0.1587 -0.9661 -1.2813
 9074SOL     OW38854   4.569   0.065   3.840  0.4423 -0.8373  0.5345
 9074SOL    HW138855   4.520   4.725   3.869 -1.1936 -0.0118 -0.0858
 9074SOL    HW238856   4.655   0.047   3.879  1.0158  0.5864 -0.0514
 9075SOL     OW38857   3.955   3.311   9.985 -0.2199  0.2136 -0.1920
 9075SOL    HW138858   3.961   3.399   9.949 -0.7616  1.0067  1.6134
 9075SOL    HW238859   3.930   3.259   9.909 -0.0577  0.8592 -0.6816
 9076SOL     OW38860   4.591   0.093   5.550  0.7223 -0.4233  0.2421
 9076SOL    HW138861   4.621   0.023   5.608  1.4568 -0.5886 -0.3384
 9076SOL    HW238862   4.574   0.163   5.612 -3.3738 -0.7373 -0.5022
 9077SOL     OW38863   2.983   2.387  12.584  0.2431  0.0957  0.3274
 9077SOL    HW138864   3.032   2.414  12.661 -0.7730  0.8845  0.7054
 9077SOL    HW238865   3.033   2.311  12.556  0.1200 -0.3030  1.2074
 9078SOL     OW38866   2.845   3.402   4.257 -0.1935 -0.3068  0.2055
 9078SOL    HW138867   2.756   3.433   4.272 -1.3021 -4.1695  1.6314
 9078SOL    HW238868   2.883   3.488   4.275 -2.5375  0.5442  1.1618
 9079SOL     OW38869   1.703   1.223  14.032 -0.1645  0.4554 -0.3449
 9079SOL    HW138870   1.767   1.293  14.017  0.1435  0.8360  2.6264
 9079SOL    HW238871   1.644   1.263  14.095 -0.6791  0.9317 -1.1294
 9080SOL     OW38872   3.219   1.248   1.092 -0.2504 -0.7338  0.4529
 9080SOL    HW138873   3.231   1.205   1.007  2.5831 -2.0198  1.5145
 9080SOL    HW238874   3.203   1.171   1.147 -1.2626 -0.4561  0.5510
 9081SOL     OW38875   3.313   0.423   3.555 -0.4027 -0.4021  0.1501
 9081SOL    HW138876   3.240   0.471   3.516 -1.0694 -1.3801  0.2247
 9081SOL    HW238877   3.321   0.347   3.497  0.0512 -1.2565  1.3476
 9082SOL     OW38878   0.739   4.639   1.094 -0.7252 -0.1481  0.2807
 9082SOL    HW138879   0.829   4.607   1.104 -0.5318 -0.1188 -1.4279
 9082SOL    HW238880   0.714   4.598   1.012  0.2684 -0.7078  0.2534
 9083SOL     OW38881   1.570   3.194   5.974  0.0518 -0.2960  0.4805
 9083SOL    HW138882   1.660   3.194   6.008  0.5132 -2.2070 -0.7344
 9083SOL    HW238883   1.522   3.234   6.046 -0.4887  1.1089 -0.6680
 9084SOL     OW38884   0.452   3.573   6.611 -0.0331 -0.1661 -0.2294
 9084SOL    HW138885   0.531   3.625   6.625  0.8282 -1.4032 -0.5957
 9084SOL    HW238886   0.486   3.493   6.571 -0.3600 -1.0951  1.3587
 9085SOL     OW38887   1.305   2.189   9.816 -0.0538 -0.3572 -0.1129
 9085SOL    HW138888   1.322   2.221   9.904 -1.7012 -1.5054  0.6327
 9085SOL    HW238889   1.239   2.255   9.793  1.3915  1.2050  0.2140
 9086SOL     OW38890   3.481   1.045   5.643  1.0918 -0.0894 -0.0802
 9086SOL    HW138891   3.438   1.084   5.567  1.8897  0.9671  0.0074
 9086SOL    HW238892   3.574   1.041   5.623  0.9428 -2.2520 -0.3530
 9087SOL     OW38893   0.208   1.456   5.897  0.0170  0.2958  0.5972
 9087SOL    HW138894   0.267   1.530   5.889 -1.7621  1.2455 -3.8040
 9087SOL    HW238895   0.243   1.413   5.975  1.1285 -1.7176 -1.0229
 9088SOL     OW38896   2.954   0.527   0.545  0.2498  0.7247  0.1750
 9088SOL    HW138897   3.030   0.570   0.585  0.6416  1.6850 -1.6108
 9088SOL    HW238898   2.880   0.578   0.579  0.4079 -0.2784  2.0099
 9089SOL     OW38899   0.551   1.179   4.036 -0.0841  0.2152 -0.0789
 9089SOL    HW138900   0.495   1.256   4.035 -2.2015 -1.3501 -0.8196
 9089SOL    HW238901   0.521   1.151   3.950 -0.3387  1.7161 -0.4746
 9090SOL     OW38902   0.126   1.781   6.452  0.2639 -0.1175  0.6697
 9090SOL    HW138903   0.058   1.714   6.446  0.8757 -0.2989 -4.3790
 9090SOL    HW238904   0.107   1.826   6.534  1.7865 -0.4231  1.1875
 9091SOL     OW38905   1.767   1.784  14.754  0.2803 -0.5255  0.6963
 9091SOL    HW138906   1.811   1.708  14.716 -1.4079 -1.4730  0.6255
 9091SOL    HW238907   1.805   1.851  14.697 -0.7561 -1.4843 -1.1250
 9092SOL     OW38908   1.551   2.698  14.157 -0.6228  0.1139 -0.4047
 9092SOL    HW138909   1.586   2.619  14.114 -0.4302 -0.2458  0.4247
 9092SOL    HW238910   1.466   2.716  14.118 -1.9432 -1.3833  1.7684
 9093SOL     OW38911   4.484   4.098   4.838  0.2833 -0.1095  0.4351
 9093SOL    HW138912   4.445   4.114   4.924 -2.3530 -0.7122 -0.6364
 9093SOL    HW238913   4.566   4.147   4.839  2.6418 -4.0529 -0.8572
 9094SOL     OW38914   2.696   1.220   3.679  0.1831 -0.0871  0.3203
 9094SOL    HW138915   2.623   1.282   3.685 -1.6223 -1.6817 -5.1232
 9094SOL    HW238916   2.689   1.196   3.772  0.1557 -1.8453 -0.1565
 9095SOL     OW38917   3.689   2.318   8.493  0.1001 -0.3827  0.2673
 9095SOL    HW138918   3.627   2.277   8.553 -0.0589 -3.8664 -2.2134
 9095SOL    HW238919   3.637   2.395   8.469 -0.3236 -0.8172 -0.2230
 9096SOL     OW38920   2.576   4.451   5.533  0.5349 -0.3684  0.0926
 9096SOL    HW138921   2.624   4.389   5.587  1.0600  1.0084  1.2143
 9096SOL    HW238922   2.648   4.512   5.516 -0.0177 -0.1802 -1.5874
 9097SOL     OW38923   2.779   1.692   5.839 -0.1979  0.2867  0.0992
 9097SOL    HW138924   2.864   1.666   5.805  0.3546 -1.1089  2.5242
 9097SOL    HW238925   2.751   1.601   5.843 -2.5534  1.1152  2.9582
 9098SOL     OW38926   4.541   1.075   2.083 -0.2651 -0.0411 -0.7511
 9098SOL    HW138927   4.488   1.035   2.014 -2.0696 -0.7241  1.0685
 9098SOL    HW238928   4.609   1.008   2.091 -1.7393 -1.5254 -0.6487
 9099SOL     OW38929   0.018   0.678   6.460  0.3025  0.0645  0.5509
 9099SOL    HW138930   4.732   0.713   6.374  3.0882 -0.8298 -0.5861
 9099SOL    HW238931   4.728   0.756   6.509 -0.9376 -0.3766  0.5446
 9100SOL     OW38932   0.391   1.740   2.642  0.2842 -0.0750  0.7901
 9100SOL    HW138933   0.473   1.787   2.635  0.7158 -1.1300 -1.3130
 9100SOL    HW238934   0.344   1.789   2.575  1.2508 -1.7246 -1.0956
 9101SOL     OW38935   1.136   3.599   6.265  0.4643 -0.1529 -0.1397
 9101SOL    HW138936   1.051   3.559   6.250  0.3266  0.0257  0.1709
 9101SOL    HW238937   1.130   3.670   6.201  0.5340  0.1189  0.1528
 9102SOL     OW38938   0.708   3.800   7.553 -0.1724 -0.2689 -0.5109
 9102SOL    HW138939   0.617   3.775   7.538 -0.0280 -1.3111  0.3844
 9102SOL    HW238940   0.703   3.849   7.635  1.2300 -3.2307  1.3156
 9103SOL     OW38941   2.921   2.209   2.182  1.1424  0.0227 -1.1864
 9103SOL    HW138942   2.844   2.182   2.133  0.3269  0.3771 -0.1140
 9103SOL    HW238943   2.981   2.227   2.110  2.9667  0.6262  0.4647
 9104SOL     OW38944   0.152   0.335   1.242 -0.0128 -0.3410  0.7408
 9104SOL    HW138945   0.156   0.370   1.153  0.0074 -2.0297  0.0632
 9104SOL    HW238946   0.237   0.292   1.254 -0.6123 -2.1092 -1.1573
 9105SOL     OW38947   0.013   0.422   7.095  0.0488  0.9303  0.2626
 9105SOL    HW138948   0.092   0.432   7.042  0.2591  3.0241  0.9590
 9105SOL    HW238949   0.038   0.368   7.170  0.6340 -0.3352 -0.8503
 9106SOL     OW38950   4.460   2.631   2.634 -0.3722  0.2243 -0.1055
 9106SOL    HW138951   4.478   2.725   2.622 -0.4458  0.3863  1.0412
 9106SOL    HW238952   4.405   2.615   2.710  2.6189  0.0048  2.0141
 9107SOL     OW38953   4.157   2.965   7.818 -0.2178 -0.0674  0.0979
 9107SOL    HW138954   4.205   3.048   7.814 -1.3588  0.5310 -1.0421
 9107SOL    HW238955   4.202   2.929   7.895  1.2324 -0.7652 -1.0905
 9108SOL     OW38956   3.315   2.785   5.386 -0.6193  0.1480 -0.3248
 9108SOL    HW138957   3.300   2.823   5.473  2.8441 -0.0031  0.3586
 9108SOL    HW238958   3.372   2.853   5.349  0.0552 -0.3841 -0.2717
 9109SOL     OW38959   3.602   1.696   4.069  0.1078 -0.4571 -0.0933
 9109SOL    HW138960   3.585   1.645   3.989 -0.6067  1.8365 -1.3843
 9109SOL    HW238961   3.693   1.720   4.054  0.3861 -0.5550  1.4810
 9110SOL     OW38962   2.564   0.345   4.844 -0.4723 -0.7289 -0.0140
 9110SOL    HW138963   2.544   0.334   4.751 -1.4248 -2.5365  0.4120
 9110SOL    HW238964   2.660   0.349   4.849 -0.6620 -1.7919  4.0558
 9111SOL     OW38965   0.856   0.127   4.274 -0.1078  0.5032  0.2146
 9111SOL    HW138966   0.788   0.071   4.236  0.3534  0.0935  0.0064
 9111SOL    HW238967   0.917   0.129   4.200 -0.2465 -2.4608  0.0208
 9112SOL     OW38968   0.848   1.359  11.350 -0.7538  0.1024 -0.0927
 9112SOL    HW138969   0.758   1.376  11.322 -1.0511  0.4792  1.0790
 9112SOL    HW238970   0.856   1.409  11.431  0.6321  2.2326 -1.5499
 9113SOL     OW38971   0.240   1.154   7.310 -0.8127 -0.0162 -0.3775
 9113SOL    HW138972   0.163   1.210   7.299  0.9559  1.9803 -2.6747
 9113SOL    HW238973   0.297   1.216   7.355 -1.9420 -0.3581  1.4916
 9114SOL     OW38974   1.350   4.398   1.711  0.5766  0.5469 -0.3638
 9114SOL    HW138975   1.430   4.367   1.667  1.0765 -1.9141  2.2359
 9114SOL    HW238976   1.337   4.482   1.668  0.0249 -0.0774 -1.4291
 9115SOL     OW38977   2.720   3.018   8.851  0.5449  0.1858  0.1058
 9115SOL    HW138978   2.696   2.934   8.814  0.4899 -0.3917  1.4528
 9115SOL    HW238979   2.805   2.993   8.888  0.6422 -0.6467 -0.6931
 9116SOL     OW38980   2.532   1.742  15.506 -0.5618 -0.1164  0.6744
 9116SOL    HW138981   2.530   1.820  15.449 -2.3623  0.0357  0.9491
 9116SOL    HW238982   2.485   1.681  15.449 -0.2214  0.9095 -0.7203
 9117SOL     OW38983   3.180   2.544   5.550 -0.5172  0.3381  0.3554
 9117SOL    HW138984   3.174   2.570   5.458 -5.1861 -0.6881  0.4022
 9117SOL    HW238985   3.172   2.630   5.592 -0.4788 -0.8073  2.6974
 9118SOL     OW38986   4.435   3.456   6.076  0.6197  0.2540  0.6494
 9118SOL    HW138987   4.371   3.472   6.006  0.6014 -0.4760  0.4937
 9118SOL    HW238988   4.390   3.385   6.122 -0.1785 -1.2647 -2.4246
 9119SOL     OW38989   0.992   0.022   4.838  0.6577 -0.3870 -0.5539
 9119SOL    HW138990   0.900   4.732   4.835  0.1359  1.2110  0.9803
 9119SOL    HW238991   1.007   0.012   4.932  0.9696 -2.7370 -0.8633
 9120SOL     OW38992   0.581   1.501   4.348 -0.2025  0.3711 -0.1888
 9120SOL    HW138993   0.581   1.558   4.271  2.0920 -0.5274 -0.8635
 9120SOL    HW238994   0.628   1.423   4.317 -2.5425 -1.4057  0.7093
 9121SOL     OW38995   4.510   1.211   5.974  0.8977  0.0258  0.2551
 9121SOL    HW138996   4.587   1.247   6.018  1.8467 -0.8380 -0.6984
 9121SOL    HW238997   4.507   1.126   6.018 -2.3053 -0.0183 -0.0468
 9122SOL     OW38998   1.218   0.082   7.631  0.0118 -0.8942 -0.3274
 9122SOL    HW138999   1.154   0.150   7.608  0.8154 -0.0791 -0.1579
 9122SOL    HW239000   1.284   0.107   7.566 -1.3727  0.5000 -1.2197
 9123SOL     OW39001   2.758   0.978   8.349  0.1957  0.8315 -0.5485
 9123SOL    HW139002   2.693   0.908   8.354  1.8296 -0.6164  0.7075
 9123SOL    HW239003   2.708   1.059   8.358  1.3528  1.6128 -1.2115
 9124SOL     OW39004   2.718   3.274  13.184  0.1033  0.9345  0.2061
 9124SOL    HW139005   2.699   3.319  13.267  0.0878  0.7580  0.2997
 9124SOL    HW239006   2.632   3.234  13.175  0.8589 -1.2077  2.3486
 9125SOL     OW39007   0.354   3.482   2.357 -0.6608  0.7206  0.0658
 9125SOL    HW139008   0.412   3.423   2.405 -1.0582  0.8361  0.6905
 9125SOL    HW239009   0.412   3.505   2.284  1.5914  0.7274  1.8327
 9126SOL     OW39010   2.149   1.700   5.791 -0.1649  0.4879 -0.8327
 9126SOL    HW139011   2.105   1.639   5.732 -0.1222 -0.1980 -0.1488
 9126SOL    HW239012   2.095   1.700   5.870 -0.6877 -0.2541 -1.1870
 9127SOL     OW39013   3.076   0.221  12.022 -0.0636 -0.1249  0.3450
 9127SOL    HW139014   3.096   0.127  12.024 -0.9613 -0.3561 -1.7074
 9127SOL    HW239015   2.981   0.227  12.014 -0.0744 -2.3541 -1.3356
 9128SOL     OW39016   1.088   0.543   5.429  0.0767  0.0844  0.6313
 9128SOL    HW139017   0.993   0.536   5.421  0.2547 -3.4202  1.3436
 9128SOL    HW239018   1.124   0.534   5.341 -1.6303  1.3297 -0.1901
 9129SOL     OW39019   2.130   2.318  17.453  0.3180 -0.0467 -0.1075
 9129SOL    HW139020   2.073   2.244  17.473 -0.0873  0.4685  0.6444
 9129SOL    HW239021   2.061   2.368  17.411 -0.5532 -0.4379  0.8427
 9130SOL     OW39022   0.998   2.717  14.280 -0.0263 -0.3874 -0.7413
 9130SOL    HW139023   1.005   2.735  14.186 -0.1096  0.1954 -0.6340
 9130SOL    HW239024   1.039   2.632  14.293  2.3861  0.8143 -0.6431
 9131SOL     OW39025   0.958   2.729   8.879 -0.3589 -0.0585  0.1643
 9131SOL    HW139026   0.969   2.731   8.974  1.4599 -1.7242  0.0089
 9131SOL    HW239027   1.034   2.785   8.861  1.0656 -1.3789  2.0077
 9132SOL     OW39028   2.839   3.341   5.921  0.1680  0.2142  0.0163
 9132SOL    HW139029   2.922   3.379   5.893 -1.1596  2.6740 -0.5424
 9132SOL    HW239030   2.781   3.400   5.873 -0.0495 -0.0771 -0.0777
 9133SOL     OW39031   4.724   2.227   5.579 -0.8262  0.5984  0.0039
 9133SOL    HW139032   0.057   2.192   5.524  0.3095 -0.3070  2.0067
 9133SOL    HW239033   4.670   2.149   5.587  0.5893 -0.5082 -1.3770
 9134SOL     OW39034   2.104   1.506   2.673 -0.0773 -0.3301  0.0118
 9134SOL    HW139035   2.020   1.471   2.704 -1.4650  3.2025  0.2429
 9134SOL    HW239036   2.086   1.505   2.579  0.5235  0.1976 -0.1015
 9135SOL     OW39037   2.682   3.982  16.771 -0.0241  0.4708  0.3275
 9135SOL    HW139038   2.612   4.017  16.825 -1.2665  1.6568 -2.0607
 9135SOL    HW239039   2.727   3.918  16.826 -0.5207  0.0972  0.2914
 9136SOL     OW39040   4.658   2.820   4.660  0.5307  0.1250  0.4156
 9136SOL    HW139041   4.728   2.879   4.630  0.2152  0.8206  1.0429
 9136SOL    HW239042   4.675   2.820   4.754  1.2154  1.4352  0.2949
 9137SOL     OW39043   3.558   2.624   6.083  0.0056 -0.2277  0.1032
 9137SOL    HW139044   3.613   2.596   6.010  0.2169 -0.5738  0.3936
 9137SOL    HW239045   3.531   2.711   6.055 -5.6440 -1.7270  0.7874
 9138SOL     OW39046   3.805   4.423   7.659 -0.0599  0.0365 -0.3091
 9138SOL    HW139047   3.718   4.427   7.700 -0.4656 -0.4907 -1.1217
 9138SOL    HW239048   3.850   4.368   7.723 -0.3288  0.8797  0.6008
 9139SOL     OW39049   3.726   1.075   5.514 -0.0881  0.2286  0.0238
 9139SOL    HW139050   3.717   1.161   5.474 -2.7692  0.5415  1.3051
 9139SOL    HW239051   3.811   1.078   5.557 -0.3699  0.8262  0.5364
 9140SOL     OW39052   0.289   4.127   5.520  0.1537  0.6456  0.0381
 9140SOL    HW139053   0.232   4.052   5.539 -0.4198  0.7150 -1.3454
 9140SOL    HW239054   0.305   4.119   5.426  1.4969  0.6306  0.2661
 9141SOL     OW39055   2.662   3.943   3.398  0.1186 -0.2690 -0.2709
 9141SOL    HW139056   2.657   4.013   3.334  0.1741  0.1375  0.1700
 9141SOL    HW239057   2.577   3.924   3.437 -0.1458 -0.3433 -0.8844
 9142SOL     OW39058   1.182   0.311   0.570 -0.1705  0.7146  0.3798
 9142SOL    HW139059   1.168   0.363   0.492 -2.2458  0.8536  0.8608
 9142SOL    HW239060   1.277   0.304   0.583  0.2523  0.8188 -2.8249
 9143SOL     OW39061   4.640   0.311   2.953  0.1351  0.1846 -0.1218
 9143SOL    HW139062   4.607   0.262   2.877 -0.8619  1.1400 -0.2933
 9143SOL    HW239063   4.714   0.353   2.910  0.9550 -3.7182 -2.6142
 9144SOL     OW39064   2.797   3.905   1.799  0.0902 -0.7577  0.2134
 9144SOL    HW139065   2.874   3.880   1.851 -1.5377 -0.3462  2.8154
 9144SOL    HW239066   2.776   3.821   1.760  0.7648 -1.5575  1.5375
 9145SOL     OW39067   1.909   1.452   8.811  0.1434  0.6228  0.8090
 9145SOL    HW139068   1.894   1.444   8.906 -1.6042 -3.7941  0.1632
 9145SOL    HW239069   1.871   1.367   8.789  1.5587  0.5604 -1.3617
 9146SOL     OW39070   1.720   0.762  10.674  0.4228  0.0180 -0.0099
 9146SOL    HW139071   1.645   0.782  10.618  0.8619  0.8803 -0.2956
 9146SOL    HW239072   1.781   0.833  10.656  0.1301  0.1186 -0.6016
 9147SOL     OW39073   1.676   2.100   6.580 -0.0209 -0.5648  0.4445
 9147SOL    HW139074   1.627   2.127   6.503 -1.7782 -2.3611  0.9292
 9147SOL    HW239075   1.688   2.178   6.634  0.1094  0.9095 -1.7350
 9148SOL     OW39076   2.318   3.913   7.780  0.2597  0.4485 -0.0692
 9148SOL    HW139077   2.353   4.001   7.787 -0.1302  0.5577  0.5202
 9148SOL    HW239078   2.224   3.916   7.798  0.9344 -0.5148  3.6380
 9149SOL     OW39079   1.126   3.261   9.211  0.2804  0.2114 -0.5306
 9149SOL    HW139080   1.213   3.290   9.185  0.6714  1.1583  1.7853
 9149SOL    HW239081   1.077   3.339   9.184  0.9326  1.2170  1.1356
 9150SOL     OW39082   0.929   1.394   0.511  0.0039  0.0767 -0.1857
 9150SOL    HW139083   0.846   1.356   0.482  0.2933  0.0129 -0.9228
 9150SOL    HW239084   0.984   1.325   0.547 -0.6208  0.1733  0.9451
 9151SOL     OW39085   3.455   4.188   4.503  0.6199  0.0556 -0.0633
 9151SOL    HW139086   3.404   4.242   4.443  0.2137 -1.0877 -0.7579
 9151SOL    HW239087   3.518   4.158   4.437 -1.7978 -2.6269 -1.1430
 9152SOL     OW39088   3.177   3.919  10.689  0.2367  0.6839 -0.0690
 9152SOL    HW139089   3.213   3.880  10.768  0.8127  0.1921 -0.5787
 9152SOL    HW239090   3.125   3.846  10.657  0.2576  0.3092  0.7512
 9153SOL     OW39091   3.883   1.792   3.695  0.1709  0.5297 -0.6034
 9153SOL    HW139092   3.813   1.818   3.636 -0.2931 -0.7696 -0.6289
 9153SOL    HW239093   3.957   1.847   3.671 -0.3406  1.1626 -0.7387
 9154SOL     OW39094   3.369   2.822  12.343  0.4777  0.5672 -0.6038
 9154SOL    HW139095   3.430   2.764  12.390 -0.3853 -1.4005 -1.9252
 9154SOL    HW239096   3.288   2.806  12.391  0.7993  4.0101  1.0664
 9155SOL     OW39097   1.954   2.235   4.482  0.0525 -0.1529 -0.1992
 9155SOL    HW139098   2.016   2.228   4.554  4.0319  0.2625 -3.5871
 9155SOL    HW239099   1.888   2.171   4.507  0.0506  0.1865  0.6575
 9156SOL     OW39100   3.949   4.706   5.045  0.5557  0.1943  0.6073
 9156SOL    HW139101   3.931   0.055   5.007 -0.2006  0.3550  1.3119
 9156SOL    HW239102   4.040   4.688   5.024  0.8993  2.1448  0.4037
 9157SOL     OW39103   3.865   1.089  16.106 -0.0673  0.6220 -0.2132
 9157SOL    HW139104   3.804   1.034  16.057 -0.7946  1.9152 -0.7655
 9157SOL    HW239105   3.928   1.021  16.128  1.6269  2.0248 -0.7073
 9158SOL     OW39106   2.231   1.715  16.728  0.0548 -0.4761 -0.1471
 9158SOL    HW139107   2.148   1.759  16.743 -0.5777 -1.3546 -0.9958
 9158SOL    HW239108   2.230   1.703  16.633  0.2479 -4.0161  0.2768
 9159SOL     OW39109   0.681   0.238   1.587 -0.1254 -0.3923  0.4443
 9159SOL    HW139110   0.677   0.200   1.499 -1.0947  0.3649  0.1707
 9159SOL    HW239111   0.767   0.278   1.599 -0.7424  1.0835 -0.0598
 9160SOL     OW39112   2.500   0.397  11.087 -0.1071  0.6521 -0.5443
 9160SOL    HW139113   2.446   0.327  11.124 -0.7584  1.8907  0.8580
 9160SOL    HW239114   2.569   0.417  11.150 -1.2820  0.2981  0.8614
 9161SOL     OW39115   4.659   0.209   5.049 -0.0459  0.3825  0.0405
 9161SOL    HW139116   4.653   0.124   5.006 -0.9135  0.2311  0.4737
 9161SOL    HW239117   4.688   0.172   5.133 -1.3042  0.6789  0.6049
 9162SOL     OW39118   4.242   1.065  13.059 -0.6029 -0.1089  0.1889
 9162SOL    HW139119   4.295   0.998  13.102  1.4805  0.8727 -0.8645
 9162SOL    HW239120   4.319   1.119  13.039 -1.5640  1.0499 -0.3894
 9163SOL     OW39121   1.460   3.502  16.801  0.1110 -0.3573 -0.2104
 9163SOL    HW139122   1.432   3.418  16.837  3.0844 -0.8865  0.9214
 9163SOL    HW239123   1.541   3.508  16.852  0.3986  0.3701 -0.7499
 9164SOL     OW39124   1.055   1.613   5.671  0.3662  0.2552 -0.5746
 9164SOL    HW139125   1.021   1.671   5.739  2.0319 -0.4791  0.8874
 9164SOL    HW239126   0.986   1.551   5.647  0.8980 -0.0179 -1.4077
 9165SOL     OW39127   2.541   4.196   3.498  0.0705  0.1096 -0.2020
 9165SOL    HW139128   2.525   4.260   3.567  0.2618  0.8440 -0.8304
 9165SOL    HW239129   2.454   4.158   3.484  0.6943 -0.8722 -1.3638
 9166SOL     OW39130   2.046   0.969  16.955  0.2425 -0.7808 -0.0237
 9166SOL    HW139131   2.042   1.052  16.906  0.8817  0.1201  1.4395
 9166SOL    HW239132   1.972   0.991  17.012 -0.3102  0.4866 -1.2232
 9167SOL     OW39133   2.927   1.514  12.695  0.2484  0.0096 -0.7929
 9167SOL    HW139134   2.906   1.523  12.602 -0.8326 -0.7631 -0.6262
 9167SOL    HW239135   2.893   1.428  12.720  0.7452  0.4606  1.4077
 9168SOL     OW39136   2.241   2.675   2.108  0.0442  0.1341 -0.0198
 9168SOL    HW139137   2.159   2.644   2.069  0.1528  0.0033 -0.1449
 9168SOL    HW239138   2.299   2.599   2.100  0.2222  0.1870  0.7635
 9169SOL     OW39139   1.940   2.424   4.986 -0.1192  0.4886  0.3218
 9169SOL    HW139140   1.942   2.402   5.079 -2.6040 -1.2736 -0.0511
 9169SOL    HW239141   1.922   2.342   4.941  1.0458  0.4590 -0.0932
 9170SOL     OW39142   1.041   2.732   7.397 -0.2465 -0.4097 -0.6384
 9170SOL    HW139143   0.954   2.769   7.413  1.4472  1.9206  3.1240
 9170SOL    HW239144   1.084   2.816   7.412 -0.2309 -0.3424 -1.0571
 9171SOL     OW39145   4.459   3.831   4.740  0.5450  0.7060 -0.1249
 9171SOL    HW139146   4.448   3.924   4.761 -1.0135  0.5471 -0.2436
 9171SOL    HW239147   4.385   3.792   4.786  0.9420  0.7526  0.5574
 9172SOL     OW39148   3.135   3.502   6.354  0.2179 -0.3948  0.3839
 9172SOL    HW139149   3.125   3.438   6.424  0.5476 -1.7306 -0.8000
 9172SOL    HW239150   3.059   3.498   6.297  0.7735 -1.4449 -0.2639
 9173SOL     OW39151   3.544   2.153   7.976 -0.6006  0.4639  0.1349
 9173SOL    HW139152   3.535   2.242   8.010 -1.9485  0.6058 -0.6407
 9173SOL    HW239153   3.494   2.155   7.895  2.2324 -1.3765 -1.6543
 9174SOL     OW39154   2.747   3.257   8.082  0.8715  0.0006 -0.3084
 9174SOL    HW139155   2.797   3.211   8.015 -3.9772 -1.2571 -3.0470
 9174SOL    HW239156   2.757   3.343   8.041 -2.8976  0.7184  0.3035
 9175SOL     OW39157   3.898   4.442   6.058  0.0712  0.1813  0.4454
 9175SOL    HW139158   3.874   4.534   6.047  1.2013  0.3852 -0.3939
 9175SOL    HW239159   3.992   4.453   6.068 -0.2072  0.5620  2.5560
 9176SOL     OW39160   1.435   1.238   4.599  0.1995  0.2686  0.5816
 9176SOL    HW139161   1.392   1.179   4.537 -0.8001  0.2214  1.3384
 9176SOL    HW239162   1.520   1.224   4.556  1.0232  1.0175  1.9882
 9177SOL     OW39163   1.712   0.725   3.314  0.1560  0.0363  0.1172
 9177SOL    HW139164   1.765   0.648   3.296  1.0905  0.1407  2.4787
 9177SOL    HW239165   1.669   0.708   3.397  1.0257 -0.7226  0.4131
 9178SOL     OW39166   1.404   0.123   7.450 -0.4730  0.4483  0.1301
 9178SOL    HW139167   1.408   0.116   7.354 -0.4746 -1.2277  0.2546
 9178SOL    HW239168   1.482   0.178   7.451 -0.4347  0.3431  1.9643
 9179SOL     OW39169   2.174   3.235   4.629 -0.4167 -0.1172 -0.2114
 9179SOL    HW139170   2.079   3.243   4.622 -0.5284 -0.3165  1.0935
 9179SOL    HW239171   2.180   3.276   4.715 -0.7061 -0.6317  0.0570
 9180SOL     OW39172   4.421   2.896   2.596 -0.3755 -0.0193 -0.0023
 9180SOL    HW139173   4.386   2.907   2.507  1.3906  1.2376 -0.5584
 9180SOL    HW239174   4.340   2.898   2.646  0.5256  0.5554  1.4304
 9181SOL     OW39175   2.862   2.700   9.336  0.0712 -0.5724 -0.4418
 9181SOL    HW139176   2.914   2.624   9.307  1.1826 -0.1206  0.3525
 9181SOL    HW239177   2.814   2.719   9.256 -0.2482 -0.9673 -0.3415
 9182SOL     OW39178   4.408   0.955   4.725 -0.6256 -0.1287  0.3663
 9182SOL    HW139179   4.357   1.029   4.756  0.5688  0.0678  1.9025
 9182SOL    HW239180   4.446   1.007   4.654  0.0780  1.7119  2.0618
 9183SOL     OW39181   3.678   1.915   8.064  0.0429 -0.8636  0.4498
 9183SOL    HW139182   3.627   1.984   8.021 -1.6992 -0.7657  2.6872
 9183SOL    HW239183   3.761   1.953   8.092  0.3603  0.6645 -2.4995
 9184SOL     OW39184   2.433   0.280   6.536  0.7346 -0.7511  0.0316
 9184SOL    HW139185   2.394   0.330   6.608  1.0143  0.0360 -0.3585
 9184SOL    HW239186   2.389   0.308   6.455 -0.1648 -0.4357  0.6272
 9185SOL     OW39187   1.792   3.911   7.028  0.4551 -0.0105 -0.0270
 9185SOL    HW139188   1.799   3.829   6.980  1.2299 -0.9995  1.8038
 9185SOL    HW239189   1.703   3.939   7.007 -0.4563 -0.7999  2.8186
 9186SOL     OW39190   2.424   3.145   2.920 -0.1015 -0.1761 -0.3178
 9186SOL    HW139191   2.437   3.189   2.836  1.9166 -0.8392 -0.3651
 9186SOL    HW239192   2.511   3.105   2.916  0.7872  1.4528  2.4764
 9187SOL     OW39193   1.908   1.937   5.089 -0.2989 -0.0401 -0.1680
 9187SOL    HW139194   1.827   1.900   5.056  0.2186  0.3087 -1.8377
 9187SOL    HW239195   1.919   1.867   5.153  0.6812 -0.1908 -0.5011
 9188SOL     OW39196   3.645   3.540  14.832  0.4653 -0.1406 -0.3452
 9188SOL    HW139197   3.576   3.589  14.877  0.8517 -1.1743  1.3747
 9188SOL    HW239198   3.707   3.549  14.905  1.0503 -2.2035 -0.5950
 9189SOL     OW39199   3.203   3.294   4.264 -0.7301  0.1463 -0.1394
 9189SOL    HW139200   3.213   3.379   4.222  0.5456 -1.6063 -3.3692
 9189SOL    HW239201   3.122   3.301   4.315 -0.5333  0.2430  0.1624
 9190SOL     OW39202   1.740   0.236   9.164 -0.0585  0.0425  1.0202
 9190SOL    HW139203   1.817   0.243   9.220  1.1381 -3.0123 -0.2863
 9190SOL    HW239204   1.666   0.243   9.224 -2.0615 -1.2479 -1.3254
 9191SOL     OW39205   3.147   3.945   5.798 -0.2598 -0.0864 -0.1463
 9191SOL    HW139206   3.113   4.029   5.829  0.1692  0.7212 -1.8493
 9191SOL    HW239207   3.176   3.907   5.881  2.4051  1.5754 -0.3358
 9192SOL     OW39208   1.431   1.542  15.441 -0.3548  0.4389 -0.1263
 9192SOL    HW139209   1.418   1.467  15.499  1.9619 -0.0441 -0.2349
 9192SOL    HW239210   1.524   1.560  15.448  0.1961 -2.4446 -0.4350
 9193SOL     OW39211   3.548   0.304   2.200 -0.1152 -0.7757 -0.0648
 9193SOL    HW139212   3.587   0.226   2.241  1.6079  0.4470  0.5990
 9193SOL    HW239213   3.467   0.308   2.249  1.3007  0.7207  2.1598
 9194SOL     OW39214   3.100   3.628   8.409 -0.2124  0.2723  0.1718
 9194SOL    HW139215   3.027   3.675   8.368 -1.8021 -0.6042  2.0627
 9194SOL    HW239216   3.101   3.555   8.348 -1.2924 -0.0416  0.5360
 9195SOL     OW39217   0.284   1.695   0.749 -0.0490 -0.1906 -0.0585
 9195SOL    HW139218   0.341   1.723   0.678  0.8492  0.2699  0.8387
 9195SOL    HW239219   0.201   1.667   0.711  0.6079 -1.6732 -0.4095
 9196SOL     OW39220   2.618   4.190   8.668 -0.4762 -0.2466 -0.0490
 9196SOL    HW139221   2.568   4.151   8.597 -0.8059  1.6482 -0.8727
 9196SOL    HW239222   2.551   4.208   8.734  1.4700  1.1656  1.5658
 9197SOL     OW39223   3.295   1.143  10.466 -0.0585 -0.1502 -0.4730
 9197SOL    HW139224   3.378   1.127  10.510 -0.3141 -0.5183 -0.1196
 9197SOL    HW239225   3.312   1.164  10.375  1.5743 -2.3934 -0.6834
 9198SOL     OW39226   3.498   1.369   2.354  0.0322 -0.4168 -0.6327
 9198SOL    HW139227   3.438   1.355   2.280  1.5328 -1.6839 -1.6056
 9198SOL    HW239228   3.583   1.352   2.314  0.3262  0.3388 -0.3237
 9199SOL     OW39229   3.241   3.975  12.539 -0.4817 -0.2121 -0.4981
 9199SOL    HW139230   3.228   3.962  12.633 -0.6641  2.7605 -0.0958
 9199SOL    HW239231   3.336   3.972  12.529 -0.5253  0.8692 -1.2579
 9200SOL     OW39232   1.225   2.328  12.324  0.0962  0.2471  0.1628
 9200SOL    HW139233   1.249   2.308  12.233 -1.0038  0.4351 -0.1767
 9200SOL    HW239234   1.216   2.424  12.323  0.8170  0.3232  2.2757
 9201SOL     OW39235   3.844   1.309   7.859 -0.3166  0.0136  0.5086
 9201SOL    HW139236   3.894   1.227   7.855 -0.0827  0.1030  1.8046
 9201SOL    HW239237   3.767   1.267   7.818  0.4975  0.6446 -1.6459
 9202SOL     OW39238   1.154   3.973  17.323  0.7803 -0.2003 -0.6217
 9202SOL    HW139239   1.080   3.951  17.380  0.7075  1.0147 -0.2302
 9202SOL    HW239240   1.202   3.892  17.334 -0.1878 -0.4448  1.8340
 9203SOL     OW39241   2.734   3.177  14.749 -0.5304  0.2762 -0.1078
 9203SOL    HW139242   2.685   3.096  14.764  1.7703 -1.5152 -2.2637
 9203SOL    HW239243   2.681   3.254  14.732 -0.7306  0.3317  0.7422
 9204SOL     OW39244   3.520   3.476   1.104 -0.3158 -0.3691 -0.2982
 9204SOL    HW139245   3.596   3.454   1.051 -0.5523 -0.2109 -0.6986
 9204SOL    HW239246   3.565   3.522   1.175  0.0166  0.5707 -1.1146
 9205SOL     OW39247   0.682   2.574  16.202 -0.9111  0.2362  0.0837
 9205SOL    HW139248   0.587   2.578  16.193 -0.7815  0.7755 -0.9721
 9205SOL    HW239249   0.704   2.484  16.230  1.2192  0.4377 -0.9812
 9206SOL     OW39250   3.965   1.255  12.094  0.8002 -0.4307  0.5872
 9206SOL    HW139251   3.970   1.167  12.132 -2.5379 -1.0885 -0.5540
 9206SOL    HW239252   3.943   1.238  12.003 -0.0736  0.7043  0.5927
 9207SOL     OW39253   0.011   1.290   6.448  0.0981  0.0377 -0.9728
 9207SOL    HW139254   0.043   1.293   6.538 -1.2395  0.1700 -0.4984
 9207SOL    HW239255   4.659   1.254   6.460 -0.0424  0.3501 -1.0681
 9208SOL     OW39256   2.384   4.497   7.759  0.0558 -0.4539  0.6652
 9208SOL    HW139257   2.329   4.560   7.806 -0.7767 -0.4033 -0.3722
 9208SOL    HW239258   2.329   4.459   7.691  1.2344 -0.3602 -0.3565
 9209SOL     OW39259   2.253   3.754  12.804 -0.0706  0.1246 -0.2447
 9209SOL    HW139260   2.268   3.803  12.884  0.7011 -1.0316  0.3117
 9209SOL    HW239261   2.191   3.688  12.834  0.9093  0.1467  1.7857
 9210SOL     OW39262   4.021   0.005   2.138 -0.0760  0.1540 -0.2073
 9210SOL    HW139263   4.113   4.733   2.113  0.6167  1.0874  2.0748
 9210SOL    HW239264   3.999   4.649   2.140  0.1019  0.1026 -0.5787
 9211SOL     OW39265   3.058   3.842  15.615 -0.2730 -0.4580 -0.2769
 9211SOL    HW139266   3.032   3.884  15.697 -0.3042 -0.7064 -0.1580
 9211SOL    HW239267   3.058   3.748  15.636 -0.3814 -0.0295  1.6001
 9212SOL     OW39268   0.042   0.271   9.501  0.5890 -0.2421  0.8745
 9212SOL    HW139269   4.702   0.281   9.557  1.0283  0.7850  1.3004
 9212SOL    HW239270   0.061   0.356   9.462  0.7766 -0.3083  0.8183
 9213SOL     OW39271   3.931   1.137   6.409 -0.3671  0.3196 -0.1009
 9213SOL    HW139272   4.010   1.146   6.462 -1.4262  3.3202  0.9771
 9213SOL    HW239273   3.967   1.149   6.321 -1.8615  2.3530 -0.4310
 9214SOL     OW39274   4.530   3.718   6.097 -0.5100 -0.0928  0.1979
 9214SOL    HW139275   4.541   3.682   6.009 -0.2189 -2.1924  1.1126
 9214SOL    HW239276   4.603   3.674   6.139 -1.4876 -1.6560  0.2603
 9215SOL     OW39277   2.531   1.662   7.974 -0.4975  0.8481  0.4820
 9215SOL    HW139278   2.444   1.677   7.936  0.1942  0.1019 -1.3501
 9215SOL    HW239279   2.559   1.582   7.930 -1.2455  1.5626 -1.2893
 9216SOL     OW39280   2.483   3.844  10.666 -0.6811 -0.0748 -0.1473
 9216SOL    HW139281   2.566   3.868  10.623 -1.6038  0.3146 -1.7087
 9216SOL    HW239282   2.509   3.777  10.729  2.7400  0.1987 -1.2373
 9217SOL     OW39283   2.248   3.669   4.630  0.1090 -0.0486 -0.2249
 9217SOL    HW139284   2.212   3.582   4.613 -0.6889  0.8097 -2.9522
 9217SOL    HW239285   2.178   3.722   4.593  0.1138 -0.7895 -1.3027
 9218SOL     OW39286   1.323   1.604   9.906 -0.2828 -0.0206 -0.2238
 9218SOL    HW139287   1.329   1.522   9.955 -1.2869  0.6548  1.0361
 9218SOL    HW239288   1.371   1.572   9.830 -0.0687 -1.3016  0.4463
 9219SOL     OW39289   1.225   4.193   1.555 -0.1759  0.0432 -0.6098
 9219SOL    HW139290   1.282   4.116   1.562 -0.5256 -0.2712 -1.2373
 9219SOL    HW239291   1.278   4.258   1.602  1.7183 -1.3043 -0.8662
 9220SOL     OW39292   2.649   2.077   2.466  0.4806 -0.3149 -0.5258
 9220SOL    HW139293   2.628   2.036   2.382 -2.2123 -1.1473  0.5632
 9220SOL    HW239294   2.716   2.141   2.442  1.3036 -1.0597 -0.2253
 9221SOL     OW39295   1.689   2.479   0.827  0.1625  0.4037 -0.0718
 9221SOL    HW139296   1.701   2.424   0.749  2.0010  0.2828  0.2937
 9221SOL    HW239297   1.776   2.467   0.866 -0.3164 -0.8131  0.6370
 9222SOL     OW39298   3.131   1.520  15.048 -0.2556 -0.0607 -0.3476
 9222SOL    HW139299   3.146   1.602  15.096  1.8331  0.3069 -1.5958
 9222SOL    HW239300   3.113   1.556  14.961 -0.3484 -1.5072 -0.9288
 9223SOL     OW39301   3.612   2.514   2.381 -0.0259  0.1842 -0.8108
 9223SOL    HW139302   3.683   2.450   2.389  0.4714  0.9300  0.7093
 9223SOL    HW239303   3.654   2.580   2.326 -2.1390  1.3108 -1.0585
 9224SOL     OW39304   4.468   0.838   3.223 -0.0252  0.7740 -0.3083
 9224SOL    HW139305   4.378   0.848   3.255  0.8721  1.6407  1.9584
 9224SOL    HW239306   4.474   0.743   3.212  0.5813  0.8575 -0.7087
 9225SOL     OW39307   0.376   1.308   2.562 -0.0985 -0.4537  0.4865
 9225SOL    HW139308   0.425   1.247   2.508  0.0721 -1.5629  1.8764
 9225SOL    HW239309   0.413   1.391   2.534  1.6977 -1.4137  0.0542
 9226SOL     OW39310   2.421   2.463   6.575 -0.3343 -0.1780 -0.7950
 9226SOL    HW139311   2.490   2.443   6.511 -0.3451 -1.3580 -0.4519
 9226SOL    HW239312   2.481   2.504   6.637 -0.8205 -0.3387 -0.2154
 9227SOL     OW39313   0.517   3.792   8.844 -0.2252 -0.2266  0.1651
 9227SOL    HW139314   0.474   3.877   8.845 -1.0547 -0.5934 -2.4377
 9227SOL    HW239315   0.459   3.747   8.782 -1.2190 -0.3932  1.2112
 9228SOL     OW39316   1.811   3.136  13.153  0.0749  0.2357 -0.0765
 9228SOL    HW139317   1.730   3.172  13.189  0.2603 -1.2202  1.8108
 9228SOL    HW239318   1.777   3.093  13.075 -0.7403  1.1881 -0.2437
 9229SOL     OW39319   2.430   2.435  13.762  0.2046 -0.2228 -0.2278
 9229SOL    HW139320   2.469   2.498  13.701 -0.9019  0.7580  0.0759
 9229SOL    HW239321   2.504   2.391  13.805  0.5874 -1.2712 -1.9824
 9230SOL     OW39322   1.735   4.146   8.758 -0.0292 -0.5029  0.2473
 9230SOL    HW139323   1.671   4.217   8.768  0.4920  0.2447 -1.5908
 9230SOL    HW239324   1.768   4.151   8.847  1.3117 -0.0298 -0.2866
 9231SOL     OW39325   4.018   2.063   3.383 -0.2928 -0.1598 -0.3330
 9231SOL    HW139326   3.974   2.075   3.467  0.1812  1.2121 -0.2787
 9231SOL    HW239327   3.981   2.139   3.338  1.9302  0.4166 -1.1789
 9232SOL     OW39328   2.191   2.710   2.894  0.9339 -0.0288  0.1416
 9232SOL    HW139329   2.161   2.784   2.947  0.1520 -0.1289 -0.1579
 9232SOL    HW239330   2.114   2.666   2.858  0.9067  1.1654 -1.2834
 9233SOL     OW39331   1.962   4.630   1.749  0.9403  0.0678  0.0017
 9233SOL    HW139332   1.915   4.573   1.810 -1.1337  0.9008 -0.8279
 9233SOL    HW239333   1.983   4.708   1.801  1.3513  1.1386 -1.7738
 9234SOL     OW39334   0.470   0.740   0.222  0.1248 -0.1270 -0.3317
 9234SOL    HW139335   0.399   0.726   0.160  1.5746 -2.0621 -1.5332
 9234SOL    HW239336   0.543   0.785   0.179 -0.7630 -0.3574 -2.0607
 9235SOL     OW39337   1.974   1.514  16.612 -0.2219  0.2349  0.0836
 9235SOL    HW139338   1.883   1.514  16.584 -0.2737 -2.6005  0.1968
 9235SOL    HW239339   2.011   1.575  16.547 -1.7726  0.7383 -0.3254
 9236SOL     OW39340   2.968   3.349   7.104 -0.0286  0.3440 -0.1864
 9236SOL    HW139341   2.917   3.285   7.154  1.5025 -2.5081 -2.2990
 9236SOL    HW239342   3.048   3.297   7.102 -1.3329 -1.7269  1.9164
 9237SOL     OW39343   2.284   2.642   2.613  0.3509 -0.4993  0.0198
 9237SOL    HW139344   2.309   2.649   2.705  1.8135 -1.0162 -0.3450
 9237SOL    HW239345   2.245   2.555   2.611 -1.0953  0.1340  0.5786
 9238SOL     OW39346   2.341   3.919  13.008 -0.0092 -0.6330 -0.0381
 9238SOL    HW139347   2.268   3.977  13.030  1.9591  1.1907  1.6781
 9238SOL    HW239348   2.373   3.956  12.926 -1.9715  1.4333  0.1445
 9239SOL     OW39349   2.014   2.191   3.377  0.0012  0.5703 -0.1406
 9239SOL    HW139350   2.048   2.104   3.396 -0.2782  1.1641  3.0750
 9239SOL    HW239351   2.097   2.240   3.372  1.0629 -1.0989  1.2126
 9240SOL     OW39352   2.735   0.483   1.672 -0.2882  0.3554  0.1983
 9240SOL    HW139353   2.716   0.399   1.716 -1.4513  0.5296  0.0440
 9240SOL    HW239354   2.658   0.489   1.616 -0.7872  1.6781  1.0197
 9241SOL     OW39355   1.568   3.975   5.152  0.0747  0.0899  0.3027
 9241SOL    HW139356   1.580   3.895   5.204  0.9003  1.3861  2.0890
 9241SOL    HW239357   1.649   3.967   5.100 -1.3809 -1.6084 -1.7079
 9242SOL     OW39358   2.887   0.290   3.858  0.2798  0.3848 -0.2845
 9242SOL    HW139359   2.974   0.279   3.819  1.0119 -0.2381  1.4899
 9242SOL    HW239360   2.856   0.206   3.826 -0.6371  1.4033 -2.0386
 9243SOL     OW39361   0.593   3.174   8.760 -0.2957  0.0821 -0.3506
 9243SOL    HW139362   0.580   3.266   8.785 -1.3250 -0.1616  0.0118
 9243SOL    HW239363   0.604   3.181   8.666  0.0466 -0.5800 -0.3607
 9244SOL     OW39364   0.098   4.495   2.702  0.1667 -0.1759  0.2386
 9244SOL    HW139365   0.178   4.480   2.652  0.0599  2.2540 -0.6624
 9244SOL    HW239366   0.033   4.430   2.674  2.2310 -2.9546  1.9566
 9245SOL     OW39367   4.633   4.196  10.759  0.1657 -0.0432  0.1192
 9245SOL    HW139368   4.661   4.270  10.814  1.1653  0.4842 -1.1185
 9245SOL    HW239369   4.627   4.120  10.816 -0.2633  0.2628  0.4873
 9246SOL     OW39370   0.287   3.819   9.250 -0.3548  0.2118  0.1972
 9246SOL    HW139371   0.313   3.860   9.332 -1.7234 -3.1939  2.3475
 9246SOL    HW239372   0.354   3.751   9.242 -1.2535 -0.6772  0.2268
 9247SOL     OW39373   1.588   0.381   0.919  0.6300  0.0481 -0.1421
 9247SOL    HW139374   1.547   0.467   0.911  0.2941 -0.1623 -0.6677
 9247SOL    HW239375   1.560   0.352   1.006  0.9839 -0.0416 -0.0593
 9248SOL     OW39376   0.827   3.713  12.961 -0.3223  0.3315 -0.0306
 9248SOL    HW139377   0.783   3.794  12.936  1.4661  1.6096  0.9747
 9248SOL    HW239378   0.891   3.745  13.025 -0.4376 -1.9674  1.2450
 9249SOL     OW39379   2.306   0.598   3.747  0.4373  0.0039 -0.2758
 9249SOL    HW139380   2.221   0.554   3.752  0.4450 -0.0724 -0.8178
 9249SOL    HW239381   2.359   0.527   3.784  3.0785  1.6320 -0.9690
 9250SOL     OW39382   1.274   1.548   9.054 -0.0491  0.0275  0.1696
 9250SOL    HW139383   1.362   1.514   9.041 -0.5734 -1.5168  0.6312
 9250SOL    HW239384   1.232   1.483   9.111 -0.9701 -0.9743 -1.6440
 9251SOL     OW39385   1.853   1.975  11.518  0.1552 -0.1899 -0.6135
 9251SOL    HW139386   1.803   2.022  11.451  1.3928 -0.0521 -1.4337
 9251SOL    HW239387   1.842   1.887  11.482 -0.8063 -0.3899  0.1851
 9252SOL     OW39388   4.103   1.901   4.510  0.0335 -0.3955 -0.4096
 9252SOL    HW139389   4.164   1.841   4.467 -0.8030 -2.5000  1.2753
 9252SOL    HW239390   4.046   1.914   4.435  0.0408 -1.8049 -0.6754
 9253SOL     OW39391   3.876   0.512   4.251 -0.2343 -0.0466 -0.3684
 9253SOL    HW139392   3.895   0.484   4.161 -0.6692 -0.4928 -0.3197
 9253SOL    HW239393   3.915   0.600   4.248  1.3818 -0.8421 -2.7643
 9254SOL     OW39394   1.723   3.158   5.121  0.3302 -0.1048  0.5255
 9254SOL    HW139395   1.677   3.239   5.099  2.1054  0.8475  0.3655
 9254SOL    HW239396   1.735   3.157   5.216 -1.6318 -1.0493  0.7628
 9255SOL     OW39397   4.285   1.425   8.070  0.7453  0.2622 -0.1840
 9255SOL    HW139398   4.241   1.352   8.114  1.2915 -1.4316 -2.4141
 9255SOL    HW239399   4.212   1.451   8.014  0.5637  0.3638  0.1050
 9256SOL     OW39400   3.245   2.568  14.467 -0.8898  0.3819  0.3703
 9256SOL    HW139401   3.293   2.489  14.491  0.6076  1.8714  2.4073
 9256SOL    HW239402   3.286   2.591  14.384  1.3861 -0.2289  1.3158
 9257SOL     OW39403   2.590   3.989  14.155 -0.4243 -0.0838  0.1517
 9257SOL    HW139404   2.627   3.981  14.067 -0.3830  1.3434  0.0513
 9257SOL    HW239405   2.663   4.029  14.201 -0.5083 -1.0816  1.1644
 9258SOL     OW39406   4.090   4.203  12.777 -0.2006 -0.2365 -0.3603
 9258SOL    HW139407   4.002   4.177  12.752 -0.0632  1.6148 -2.8138
 9258SOL    HW239408   4.102   4.135  12.843  2.8938 -0.4874 -1.1728
 9259SOL     OW39409   2.235   2.081   5.858 -0.0966  0.2715  0.4704
 9259SOL    HW139410   2.217   2.120   5.943 -2.6714 -1.8625  0.9034
 9259SOL    HW239411   2.327   2.107   5.852 -0.8905  2.8168 -0.6108
 9260SOL     OW39412   1.705   1.347   5.998  0.5952 -0.4177  0.0676
 9260SOL    HW139413   1.651   1.424   6.016  1.9078  0.6570 -0.6778
 9260SOL    HW239414   1.633   1.284   6.007  1.4415 -1.0610  2.3385
 9261SOL     OW39415   1.905   0.371  12.853  0.3334  0.1060 -0.2384
 9261SOL    HW139416   1.886   0.430  12.926  0.5425  0.0403 -0.1298
 9261SOL    HW239417   1.816   0.337  12.840  0.5916 -0.2830 -0.9894
 9262SOL     OW39418   1.906   1.932  14.364 -0.0519 -0.1541 -0.5297
 9262SOL    HW139419   1.860   1.849  14.352  1.5814 -1.2036  0.4801
 9262SOL    HW239420   1.885   1.953  14.455 -0.1477 -2.0537 -0.1012
 9263SOL     OW39421   2.521   2.039   6.549 -0.0217  0.6715  0.4755
 9263SOL    HW139422   2.579   2.066   6.620 -0.1525  0.4056  0.6855
 9263SOL    HW239423   2.436   2.084   6.554  0.0297  1.1629 -3.4098
 9264SOL     OW39424   4.029   3.607   2.701 -0.1684  0.4475 -0.4528
 9264SOL    HW139425   3.992   3.694   2.712 -1.4302 -0.3098  1.3038
 9264SOL    HW239426   3.954   3.553   2.675 -1.2425  0.8516  1.7374
 9265SOL     OW39427   0.278   1.724   2.023 -0.2087  0.6309 -0.4917
 9265SOL    HW139428   0.325   1.641   2.013 -0.3473  0.3529  1.1879
 9265SOL    HW239429   0.184   1.708   2.015  0.4082 -2.9288 -0.5274
 9266SOL     OW39430   4.478   1.900   3.779 -0.3467 -0.0692 -0.1100
 9266SOL    HW139431   4.467   1.936   3.691  0.4295 -1.7119 -0.8736
 9266SOL    HW239432   4.489   1.805   3.768  1.5526  0.3070 -1.5056
 9267SOL     OW39433   0.554   0.444   5.210 -0.2331  0.0486  0.1365
 9267SOL    HW139434   0.506   0.470   5.132  0.0316 -1.1390 -0.4158
 9267SOL    HW239435   0.506   0.497   5.274 -2.6486 -1.3487 -0.5252
 9268SOL     OW39436   2.391   0.290   6.834 -0.3825 -0.0752 -0.1707
 9268SOL    HW139437   2.380   0.344   6.912 -0.3083 -0.1074 -0.1375
 9268SOL    HW239438   2.404   0.205   6.876 -0.5652  0.2737  0.5884
 9269SOL     OW39439   2.655   0.561  14.762  0.7476  0.0170 -0.1409
 9269SOL    HW139440   2.719   0.511  14.712 -1.1623 -1.5016 -1.0906
 9269SOL    HW239441   2.625   0.499  14.828 -0.2286  1.6861  0.9795
 9270SOL     OW39442   0.222   2.898   9.795 -0.0162 -0.2359 -0.8168
 9270SOL    HW139443   0.247   2.823   9.847 -2.4835  0.2621  1.0869
 9270SOL    HW239444   0.257   2.971   9.846  0.6298 -0.2648 -1.2297
 9271SOL     OW39445   4.362   2.057   9.225  0.2342  0.6860  0.6760
 9271SOL    HW139446   4.274   2.083   9.254 -0.2720  1.0985 -1.2720
 9271SOL    HW239447   4.409   2.132   9.263  0.3654  1.1160 -0.3331
 9272SOL     OW39448   1.266   1.428  15.723 -0.6778  0.1604  0.6225
 9272SOL    HW139449   1.307   1.465  15.801 -0.6158 -0.3992  0.8550
 9272SOL    HW239450   1.177   1.462  15.721 -0.5381  0.4193 -1.6019
 9273SOL     OW39451   4.214   2.318   2.294  0.1386 -0.5761  0.6006
 9273SOL    HW139452   4.270   2.391   2.322  1.0882 -0.7992 -0.7671
 9273SOL    HW239453   4.243   2.250   2.355  1.4044  0.0201  0.6633
 9274SOL     OW39454   2.436   4.210   7.808 -0.3866 -0.7220  0.3052
 9274SOL    HW139455   2.456   4.181   7.719 -1.1675 -0.3957  0.0225
 9274SOL    HW239456   2.450   4.303   7.794 -2.4090 -0.4215  0.1599
 9275SOL     OW39457   4.164   1.412   3.020  0.2189  0.2303  0.1093
 9275SOL    HW139458   4.118   1.329   3.030 -0.9203  0.5968 -1.9634
 9275SOL    HW239459   4.123   1.460   3.091 -0.7542 -0.5653  0.0808
 9276SOL     OW39460   2.507   4.652   4.817  0.6006 -0.3390 -0.0899
 9276SOL    HW139461   2.508   4.560   4.792  1.0648  0.5993 -3.5555
 9276SOL    HW239462   2.583   4.659   4.875  0.0174 -0.1779  0.6427
 9277SOL     OW39463   0.706   4.232   1.820 -0.0416 -0.4866  0.1794
 9277SOL    HW139464   0.678   4.289   1.748 -0.5926  0.7515  1.3755
 9277SOL    HW239465   0.641   4.246   1.888 -1.3331 -0.2499 -1.0995
 9278SOL     OW39466   4.587   3.479  12.125 -0.6077 -0.1078  0.5714
 9278SOL    HW139467   4.497   3.470  12.093 -1.0080 -0.1997  1.7186
 9278SOL    HW239468   4.615   3.527  12.046 -1.3009 -2.7029 -1.2428
 9279SOL     OW39469   4.123   2.537   0.272 -0.3111 -0.2169 -0.2805
 9279SOL    HW139470   4.193   2.471   0.267 -0.2948 -0.4208  2.4440
 9279SOL    HW239471   4.056   2.497   0.217  1.2779  0.0083 -2.3641
 9280SOL     OW39472   4.451   0.059   7.644 -0.2105  0.1155  0.3917
 9280SOL    HW139473   4.444   0.087   7.736  0.2222  1.3442  0.0503
 9280SOL    HW239474   4.510   0.127   7.612  0.3330 -0.0155  1.1184
 9281SOL     OW39475   0.726   3.793   7.027  0.0581 -0.0122  0.9289
 9281SOL    HW139476   0.773   3.874   7.008 -0.1916 -0.7783 -2.8821
 9281SOL    HW239477   0.641   3.830   7.051 -0.3061 -0.1546 -0.1221
 9282SOL     OW39478   3.875   2.753   2.506 -0.5847  0.2009 -0.6432
 9282SOL    HW139479   3.958   2.799   2.494 -0.1086 -0.0641  1.6723
 9282SOL    HW239480   3.845   2.801   2.584  1.2100  0.1591  0.0804
 9283SOL     OW39481   1.104   4.474   5.548 -0.1153 -0.2982  0.2472
 9283SOL    HW139482   1.191   4.471   5.587 -1.4575 -0.1994  3.2417
 9283SOL    HW239483   1.108   4.561   5.507 -2.2145 -1.1386 -1.6815
 9284SOL     OW39484   0.320   3.221   8.596 -0.4157  0.0936 -0.1414
 9284SOL    HW139485   0.390   3.222   8.530 -2.0530  0.5992 -1.8684
 9284SOL    HW239486   0.240   3.219   8.543 -0.2877 -1.3920 -0.2754
 9285SOL     OW39487   0.484   2.510  16.536  0.1673  0.5576 -0.1565
 9285SOL    HW139488   0.526   2.427  16.517 -1.2873  0.0392 -1.0810
 9285SOL    HW239489   0.391   2.487  16.543  0.5431 -0.8492  0.0659
 9286SOL     OW39490   1.106   3.050  10.687  0.8924 -0.2048 -0.1291
 9286SOL    HW139491   1.150   3.097  10.758  1.9558 -1.6845  0.1679
 9286SOL    HW239492   1.149   2.968  10.707  0.4159 -0.6190 -0.7918
 9287SOL     OW39493   1.772   2.088   5.698  0.3981 -0.2621  0.4582
 9287SOL    HW139494   1.718   2.016   5.665 -0.3401  0.8197 -0.7076
 9287SOL    HW239495   1.852   2.041   5.722  0.4254 -0.1901  0.5066
 9288SOL     OW39496   3.543   2.780   8.543  0.1465  0.6335  0.6062
 9288SOL    HW139497   3.452   2.780   8.573  0.4922 -2.1825  1.6284
 9288SOL    HW239498   3.597   2.764   8.620 -1.0303 -1.4927  0.9987
 9289SOL     OW39499   4.369   3.001   6.016  0.0676 -0.0316  0.6101
 9289SOL    HW139500   4.281   3.038   6.025 -0.4823 -0.6346 -2.1477
 9289SOL    HW239501   4.400   3.070   5.956 -0.9883  0.1261  0.2460
 9290SOL     OW39502   1.661   2.963   4.329 -0.7198 -0.0276  0.2981
 9290SOL    HW139503   1.573   2.926   4.343 -0.4588 -1.3456 -1.4655
 9290SOL    HW239504   1.671   3.015   4.408  2.2791  1.0887 -0.8286
 9291SOL     OW39505   1.132   3.959   5.063  0.0680  0.1221  0.3978
 9291SOL    HW139506   1.114   3.937   4.972 -2.2923 -0.6014  1.0456
 9291SOL    HW239507   1.054   4.006   5.092  0.6719  2.0686 -1.0945
 9292SOL     OW39508   2.712   3.569   3.327 -0.0247  0.1863  0.1462
 9292SOL    HW139509   2.785   3.519   3.362 -0.2630  0.2364  0.7318
 9292SOL    HW239510   2.635   3.532   3.371 -0.9581  3.0944  1.0468
 9293SOL     OW39511   3.382   3.917   4.067  0.3521 -0.2968  0.3762
 9293SOL    HW139512   3.300   3.869   4.079  0.1682  0.0391  0.4579
 9293SOL    HW239513   3.367   4.002   4.108 -0.6226 -0.1323 -0.3378
 9294SOL     OW39514   2.439   3.716  10.957 -0.0205  0.1437 -0.0445
 9294SOL    HW139515   2.470   3.774  11.027  0.3449  0.6375 -0.6178
 9294SOL    HW239516   2.345   3.711  10.974 -0.3115  0.4744 -1.5731
 9295SOL     OW39517   3.608   1.963  10.992 -0.4535 -0.3374 -0.3719
 9295SOL    HW139518   3.601   1.902  11.065  0.0368 -0.4044 -0.3804
 9295SOL    HW239519   3.702   1.972  10.972 -0.5769  0.6041 -0.5279
 9296SOL     OW39520   1.574   1.819   8.624 -0.4355  0.0780 -0.3435
 9296SOL    HW139521   1.544   1.728   8.623 -0.8624  0.2049  1.2751
 9296SOL    HW239522   1.634   1.817   8.699  0.6657 -1.8239 -1.2613
 9297SOL     OW39523   1.276   1.335   0.718 -0.3114  0.0901 -0.4088
 9297SOL    HW139524   1.302   1.294   0.801  1.6317 -1.1625 -1.6301
 9297SOL    HW239525   1.362   1.368   0.692 -0.6143  0.8814 -0.3879
 9298SOL     OW39526   4.347   3.018   4.203  0.3968 -0.3752 -0.7022
 9298SOL    HW139527   4.283   2.959   4.242  1.6000  0.4141  2.4477
 9298SOL    HW239528   4.290   3.076   4.153  2.4878  1.3229 -1.1360
 9299SOL     OW39529   3.912   3.878   6.358  0.0396  0.2437  0.4417
 9299SOL    HW139530   3.821   3.889   6.387  0.3988 -0.4892  1.8441
 9299SOL    HW239531   3.951   3.837   6.436  1.7849  1.3777  0.1575
 9300SOL     OW39532   1.162   2.217  10.837  0.0745  0.2889  0.3045
 9300SOL    HW139533   1.168   2.178  10.925  3.0035 -1.0171 -0.4743
 9300SOL    HW239534   1.082   2.269  10.841  1.0587  1.8285  0.0404
 9301SOL     OW39535   1.440   1.393   3.327  0.2580  0.5847 -0.2186
 9301SOL    HW139536   1.355   1.394   3.283  0.5677  1.5886 -0.8033
 9301SOL    HW239537   1.471   1.308   3.298 -0.6560 -0.2096  1.0947
 9302SOL     OW39538   1.639   2.478   3.317  0.0125 -0.1270 -0.4720
 9302SOL    HW139539   1.668   2.387   3.312  2.0811  0.4375  1.3284
 9302SOL    HW239540   1.544   2.465   3.310 -0.0252  0.1322 -0.4388
 9303SOL     OW39541   0.891   3.421   3.764  0.0130 -0.0269 -0.4615
 9303SOL    HW139542   0.840   3.341   3.754  0.3409 -0.7077  3.4686
 9303SOL    HW239543   0.979   3.389   3.745  0.2563 -0.7116  1.9335
 9304SOL     OW39544   0.933   3.361  17.507 -0.0974 -0.1940 -0.1103
 9304SOL    HW139545   0.923   3.395  17.418 -1.8930 -1.0191 -0.2362
 9304SOL    HW239546   0.999   3.422  17.540  1.2153 -1.7688  0.1503
 9305SOL     OW39547   3.773   0.535  13.704 -0.1320 -0.0673  0.4070
 9305SOL    HW139548   3.796   0.563  13.792  0.1727  1.9784 -0.3168
 9305SOL    HW239549   3.693   0.589  13.704 -0.2995 -0.3126  1.0783
 9306SOL     OW39550   4.729   2.493   4.701  0.5051  0.0144 -0.5573
 9306SOL    HW139551   0.057   2.479   4.632  1.0322  0.4845 -0.1565
 9306SOL    HW239552   0.001   2.583   4.731 -0.4816  0.6037 -2.0234
 9307SOL     OW39553   3.466   1.241   1.399 -0.9991 -0.2484 -0.1207
 9307SOL    HW139554   3.412   1.168   1.368 -0.2643 -0.5327 -0.7201
 9307SOL    HW239555   3.414   1.274   1.473  0.8298 -0.0036  1.0396
 9308SOL     OW39556   4.690   2.446   0.550  0.3875  0.1536  0.1136
 9308SOL    HW139557   0.018   2.375   0.551  1.8279  1.5046  0.9709
 9308SOL    HW239558   0.007   2.519   0.519  1.0931  0.4657  2.1217
 9309SOL     OW39559   1.123   1.902   4.731 -0.4696 -0.4046  0.3613
 9309SOL    HW139560   1.070   1.924   4.808 -0.0427 -4.1348  1.7117
 9309SOL    HW239561   1.207   1.910   4.776 -0.9176 -0.8094  1.2810
 9310SOL     OW39562   3.570   4.497   9.948  0.1876 -0.1004  0.5697
 9310SOL    HW139563   3.496   4.466  10.001 -0.5149  1.1834  0.3215
 9310SOL    HW239564   3.646   4.478  10.004  0.6885 -1.9564 -0.7308
 9311SOL     OW39565   3.411   4.134   8.623 -0.1971 -0.3199 -0.0826
 9311SOL    HW139566   3.346   4.134   8.693  1.2971  3.0126  1.2891
 9311SOL    HW239567   3.444   4.223   8.614 -2.7628  0.6693  0.4820
 9312SOL     OW39568   0.184   4.060   8.027  0.3795 -0.5381 -0.3034
 9312SOL    HW139569   0.258   4.121   8.036 -1.1045  0.9889  1.6587
 9312SOL    HW239570   0.230   3.979   8.049 -0.3358 -1.1465 -1.0729
 9313SOL     OW39571   1.514   1.515  10.461  0.2400 -0.5442  0.4992
 9313SOL    HW139572   1.456   1.584  10.494  2.3879  1.1447  0.8049
 9313SOL    HW239573   1.458   1.439  10.449  3.7041 -3.0128  0.0197
 9314SOL     OW39574   3.649   0.805   5.393 -0.0008  0.0175  0.3365
 9314SOL    HW139575   3.644   0.882   5.450  1.8246  2.1271 -2.3407
 9314SOL    HW239576   3.744   0.792   5.403  0.0868 -0.6384 -1.4199
 9315SOL     OW39577   1.232   3.832   2.041 -0.2786  0.3636  0.0824
 9315SOL    HW139578   1.215   3.919   2.078 -0.6228  0.9518 -1.4924
 9315SOL    HW239579   1.213   3.847   1.949 -0.4949  2.0200  0.3878
 9316SOL     OW39580   2.030   4.234   7.742 -0.3040 -0.8539  0.2791
 9316SOL    HW139581   2.070   4.225   7.828  0.5976 -1.0443 -0.1587
 9316SOL    HW239582   2.103   4.272   7.693  2.0005 -1.6984  3.0729
 9317SOL     OW39583   0.904   3.456  10.313 -0.3270 -0.8547 -0.1046
 9317SOL    HW139584   0.930   3.544  10.339 -0.5752 -0.2721 -1.8787
 9317SOL    HW239585   0.918   3.413  10.398 -0.6049 -2.8605 -1.0625
 9318SOL     OW39586   2.773   2.169   8.162 -0.3766 -1.0287  0.0829
 9318SOL    HW139587   2.726   2.243   8.200 -1.2048 -1.1807 -0.6428
 9318SOL    HW239588   2.727   2.138   8.084  1.3029 -0.1049 -1.2630
 9319SOL     OW39589   1.116   2.056   2.977 -0.3806  0.1392 -0.1706
 9319SOL    HW139590   1.104   1.962   2.961  2.3356 -0.1660 -0.3839
 9319SOL    HW239591   1.036   2.073   3.026  0.4551  0.6731  1.0129
 9320SOL     OW39592   0.901   1.685   9.745 -0.0289 -0.1267  0.2683
 9320SOL    HW139593   0.952   1.665   9.824  0.0454 -0.1442  0.2151
 9320SOL    HW239594   0.976   1.680   9.686  1.7612 -1.1677  2.6303
 9321SOL     OW39595   0.783   4.656   5.793 -0.8859 -0.7107 -0.7291
 9321SOL    HW139596   0.766   4.642   5.886 -0.7317  0.3128 -0.5428
 9321SOL    HW239597   0.705   4.701   5.761  0.9822  2.2855 -1.0498
 9322SOL     OW39598   0.753   0.638   1.293  0.2692  0.5284  0.2161
 9322SOL    HW139599   0.674   0.633   1.346  0.5005  0.1054  0.5130
 9322SOL    HW239600   0.767   0.545   1.277  2.0273  0.9432 -0.6911
 9323SOL     OW39601   4.087   4.168   9.549 -0.1786 -0.2303 -0.1984
 9323SOL    HW139602   4.154   4.191   9.485 -1.0589  0.9505 -0.7021
 9323SOL    HW239603   4.034   4.248   9.551  0.5354  0.2666 -0.9911
 9324SOL     OW39604   1.034   3.046   8.308  0.2005 -0.2521 -0.4995
 9324SOL    HW139605   0.948   3.028   8.271  0.1329 -2.7625  0.8705
 9324SOL    HW239606   1.010   3.107   8.377 -1.6173  1.0609 -2.3075
 9325SOL     OW39607   3.749   4.489   2.844 -0.1709  0.0518 -0.2332
 9325SOL    HW139608   3.794   4.405   2.847  0.3630  0.3110 -1.0089
 9325SOL    HW239609   3.656   4.474   2.828  0.0464  0.3187 -1.7674
 9326SOL     OW39610   2.130   1.592   3.364  0.2943  0.3943  0.2018
 9326SOL    HW139611   2.072   1.666   3.352  1.1685  1.0319 -0.1423
 9326SOL    HW239612   2.105   1.547   3.445 -0.3328 -0.5654 -0.5155
 9327SOL     OW39613   0.449   0.087   3.174  0.5654  0.2284 -0.6335
 9327SOL    HW139614   0.450   0.001   3.215  0.2009 -0.8517 -2.9131
 9327SOL    HW239615   0.400   0.133   3.242  0.7537 -0.3750 -0.0845
 9328SOL     OW39616   3.154   2.605   1.246 -0.1831  0.2528 -0.1349
 9328SOL    HW139617   3.153   2.560   1.161 -0.3589 -1.2230  0.6546
 9328SOL    HW239618   3.172   2.697   1.225 -1.9447  0.4235 -0.8861
 9329SOL     OW39619   0.480   1.263  17.467  0.3624 -0.3371  0.0131
 9329SOL    HW139620   0.417   1.334  17.457  0.1365 -0.8379 -2.0317
 9329SOL    HW239621   0.539   1.292  17.398 -0.7509  2.0723  0.0845
 9330SOL     OW39622   3.166   1.912   6.196  0.1432 -0.0242 -0.1569
 9330SOL    HW139623   3.130   1.870   6.274 -0.3731 -0.2898 -0.5393
 9330SOL    HW239624   3.208   1.836   6.155  0.0817 -0.1007 -0.0786
 9331SOL     OW39625   3.592   1.872   7.614  0.9326  0.0635 -0.0881
 9331SOL    HW139626   3.593   1.829   7.528 -1.0719  1.5385 -0.8467
 9331SOL    HW239627   3.631   1.959   7.603  1.5750 -0.4460 -2.0054
 9332SOL     OW39628   1.507   0.873   0.494 -0.1879 -0.0234  0.3682
 9332SOL    HW139629   1.556   0.955   0.497  1.9804 -1.3680  1.4011
 9332SOL    HW239630   1.425   0.909   0.460  1.0327  1.2453 -1.2419
 9333SOL     OW39631   3.526   4.506  15.655  0.2039  0.1601 -0.5109
 9333SOL    HW139632   3.575   4.428  15.630 -0.0038 -0.0626 -0.2251
 9333SOL    HW239633   3.471   4.523  15.578  0.8360  1.2909 -0.7046
 9334SOL     OW39634   3.674   3.061   5.356 -0.5667  0.2581 -0.1686
 9334SOL    HW139635   3.628   3.043   5.274  0.5387  0.9982 -0.9367
 9334SOL    HW239636   3.663   2.983   5.410  1.5433 -0.5671 -0.9405
 9335SOL     OW39637   4.179   4.451   2.515 -0.0861 -0.0743  0.3204
 9335SOL    HW139638   4.167   4.362   2.481 -1.8944  1.9735 -4.4060
 9335SOL    HW239639   4.270   4.442   2.544  1.0197 -0.5995 -3.2525
 9336SOL     OW39640   4.525   3.713   6.864  0.3239 -0.3980  0.3081
 9336SOL    HW139641   4.591   3.652   6.830  0.9831 -0.3997  1.6154
 9336SOL    HW239642   4.465   3.662   6.918  0.5416  0.1497  1.0586
 9337SOL     OW39643   0.435   0.848   1.898  0.1486  0.0759  0.0351
 9337SOL    HW139644   0.504   0.782   1.890 -0.5452 -0.8089  1.3075
 9337SOL    HW239645   0.436   0.903   1.819 -1.9907  1.0412  0.6987
 9338SOL     OW39646   3.835   2.007   8.580 -0.0257  0.3525 -0.2663
 9338SOL    HW139647   3.811   1.928   8.629  0.1545  0.8132  0.5706
 9338SOL    HW239648   3.848   2.061   8.658 -1.4588  0.2290  0.0714
 9339SOL     OW39649   3.148   4.089   3.865 -0.3540  0.1034 -0.0447
 9339SOL    HW139650   3.232   4.062   3.828 -1.6239 -1.6403 -1.6781
 9339SOL    HW239651   3.105   4.005   3.884 -0.0867 -0.5638 -2.3044
 9340SOL     OW39652   3.805   1.239  14.941 -0.1359  0.0083 -0.2406
 9340SOL    HW139653   3.876   1.266  14.882  0.5863  2.7212  1.8628
 9340SOL    HW239654   3.734   1.216  14.881  0.5640 -1.7710 -0.3673
 9341SOL     OW39655   2.680   2.848   4.029  0.1530 -0.1641 -0.3810
 9341SOL    HW139656   2.606   2.891   3.987  1.0812  1.0002 -0.7950
 9341SOL    HW239657   2.633   2.817   4.106 -1.9024  0.1933 -1.4972
 9342SOL     OW39658   0.748   3.099  16.653  0.5186 -0.6240 -0.0922
 9342SOL    HW139659   0.786   3.158  16.718  0.5764  0.7517 -1.3984
 9342SOL    HW239660   0.726   3.025  16.710 -0.6710 -0.4794 -0.3548
 9343SOL     OW39661   3.468   4.623  15.906 -0.0068  0.0209 -0.2195
 9343SOL    HW139662   3.459   4.608  15.812 -0.7354  0.7852 -0.2688
 9343SOL    HW239663   3.561   4.631  15.928  0.0265  0.9674 -0.7227
 9344SOL     OW39664   3.797   1.394   8.158 -0.5131  0.4040  0.7585
 9344SOL    HW139665   3.812   1.355   8.072  0.3573  2.4976 -0.0191
 9344SOL    HW239666   3.758   1.479   8.136 -1.3370 -0.2647 -0.3823
 9345SOL     OW39667   3.811   3.182   4.767  0.0478  0.5816 -0.2542
 9345SOL    HW139668   3.803   3.193   4.672 -1.8528  0.6434 -0.0790
 9345SOL    HW239669   3.721   3.169   4.798 -0.4916 -0.2191 -2.1198
 9346SOL     OW39670   2.815   4.106   6.647  0.2164  0.2040  0.1546
 9346SOL    HW139671   2.758   4.140   6.578  1.9401 -0.7139 -1.7015
 9346SOL    HW239672   2.886   4.168   6.630  0.8848 -0.1168  1.8283
 9347SOL     OW39673   4.256   3.447  10.522 -0.1964 -0.0942  0.3894
 9347SOL    HW139674   4.217   3.531  10.548 -0.6902  0.1987 -1.2636
 9347SOL    HW239675   4.174   3.409  10.491 -0.8352  2.2370 -0.8510
 9348SOL     OW39676   0.881   1.581   2.529  0.1257 -0.1544 -0.3356
 9348SOL    HW139677   0.890   1.643   2.602  1.5221 -0.3966 -0.2995
 9348SOL    HW239678   0.964   1.534   2.527  0.7737  1.0171 -1.0758
 9349SOL     OW39679   1.223   3.996   9.470 -0.8604  0.4075  0.2830
 9349SOL    HW139680   1.149   4.013   9.528 -1.5265 -0.3702 -0.3445
 9349SOL    HW239681   1.196   3.921   9.418 -0.0096  1.5951 -1.8498
 9350SOL     OW39682   3.108   0.789   8.227  0.3385  0.2601  0.3031
 9350SOL    HW139683   3.051   0.714   8.208  0.9638  0.1286 -1.0559
 9350SOL    HW239684   3.146   0.806   8.142 -2.3862  0.7584 -0.8246
 9351SOL     OW39685   2.204   1.978   3.392  0.9507  0.1799 -0.3800
 9351SOL    HW139686   2.258   1.987   3.470  0.4993 -0.8190  0.0448
 9351SOL    HW239687   2.271   2.006   3.330  1.8722  0.7003  0.8627
 9352SOL     OW39688   2.196   1.972   6.530 -0.6738 -0.1538 -0.4975
 9352SOL    HW139689   2.217   2.064   6.519 -1.3149  0.1490  0.8299
 9352SOL    HW239690   2.101   1.968   6.526 -0.8927  3.1158  1.6889
 9353SOL     OW39691   2.502   2.310  16.548  0.2402 -0.1424 -0.0364
 9353SOL    HW139692   2.454   2.240  16.593  0.1263  0.8481  1.3779
 9353SOL    HW239693   2.519   2.370  16.621 -0.6418  1.9288 -1.5467
 9354SOL     OW39694   2.610   1.539   2.817  0.4330 -0.0372 -0.1392
 9354SOL    HW139695   2.572   1.498   2.739 -0.3235  0.4456 -0.0336
 9354SOL    HW239696   2.533   1.585   2.852 -1.1308 -1.2112 -2.0070
 9355SOL     OW39697   0.825   1.036  16.941 -0.1431  0.2360  0.2104
 9355SOL    HW139698   0.768   0.985  16.999 -0.2091 -0.7575 -0.7327
 9355SOL    HW239699   0.813   0.977  16.867  1.0549  0.9947 -0.6035
 9356SOL     OW39700   2.655   2.563  10.800  0.2851 -0.3060  0.4422
 9356SOL    HW139701   2.635   2.656  10.788  0.3521 -0.2862  0.4839
 9356SOL    HW239702   2.748   2.563  10.775  0.2030 -0.4823  0.1460
 9357SOL     OW39703   2.510   0.630   1.151 -0.0184  0.3401  0.0831
 9357SOL    HW139704   2.573   0.662   1.086 -0.5940  1.1642 -0.0657
 9357SOL    HW239705   2.496   0.540   1.120 -1.1862  1.1893 -1.8227
 9358SOL     OW39706   2.852   0.008   4.566  0.3565  0.2902  0.5808
 9358SOL    HW139707   2.845   4.683   4.638 -2.4369  1.0021  0.9543
 9358SOL    HW239708   2.854   0.094   4.608  2.0261  0.1889  0.6995
 9359SOL     OW39709   0.396   4.621   9.693 -0.2464 -0.0795  0.0101
 9359SOL    HW139710   0.376   4.709   9.660 -1.0918  0.0153  0.8116
 9359SOL    HW239711   0.387   4.571   9.612 -2.5479 -0.4567  0.5037
 9360SOL     OW39712   1.787   1.921   5.412  0.1542  0.6589  1.0045
 9360SOL    HW139713   1.855   1.941   5.477 -0.3257  0.5620  1.5374
 9360SOL    HW239714   1.839   1.851   5.371 -0.1000  0.2664  1.3428
 9361SOL     OW39715   3.069   1.709   1.612 -0.3723 -0.1607 -0.5562
 9361SOL    HW139716   3.104   1.621   1.624 -0.1828  0.3311  2.6953
 9361SOL    HW239717   2.989   1.708   1.664 -0.4467  1.1216 -0.6324
 9362SOL     OW39718   4.443   4.099   2.099 -0.5044 -0.1510  0.4035
 9362SOL    HW139719   4.458   4.171   2.038 -1.3762 -0.6939 -0.4559
 9362SOL    HW239720   4.418   4.028   2.041  1.1014  0.0483 -0.5442
 9363SOL     OW39721   2.061   4.652   7.195 -0.0420 -0.2042 -0.0364
 9363SOL    HW139722   1.968   4.644   7.175 -0.0319  2.0377 -0.9622
 9363SOL    HW239723   2.084   4.560   7.204 -0.3699 -0.0277  2.8572
 9364SOL     OW39724   0.533   3.310   2.454  0.0901  0.1238  0.2677
 9364SOL    HW139725   0.618   3.276   2.425 -0.2470 -1.1256  0.7489
 9364SOL    HW239726   0.493   3.244   2.511  1.0647 -3.5706 -3.3221
 9365SOL     OW39727   3.180   4.439  10.414  0.1346 -0.4259 -0.5413
 9365SOL    HW139728   3.225   4.359  10.387 -0.2242 -0.9217  0.3741
 9365SOL    HW239729   3.110   4.438  10.349  1.5016 -0.2183 -2.0308
 9366SOL     OW39730   3.823   4.337  14.904 -0.4015 -0.0838 -0.7700
 9366SOL    HW139731   3.853   4.408  14.960 -1.1028 -0.6987  0.3965
 9366SOL    HW239732   3.868   4.263  14.945 -0.7859 -0.1221 -0.4230
 9367SOL     OW39733   4.192   2.536   3.082 -0.1229  0.0621  0.5239
 9367SOL    HW139734   4.253   2.528   3.156  1.7946 -0.7368 -1.1658
 9367SOL    HW239735   4.109   2.562   3.123 -0.2057 -0.5237  0.7354
 9368SOL     OW39736   2.492   3.747  14.717  0.1500 -0.1570  0.1402
 9368SOL    HW139737   2.528   3.808  14.653  1.6830 -1.7174 -0.4945
 9368SOL    HW239738   2.407   3.729  14.675  0.1931 -0.0512  0.0069
 9369SOL     OW39739   0.939   2.388   8.540  0.4417 -0.5706 -0.7643
 9369SOL    HW139740   0.918   2.480   8.519  0.0100 -0.2334  1.1513
 9369SOL    HW239741   0.868   2.343   8.495 -0.4973 -0.0245  0.1705
 9370SOL     OW39742   3.603   2.374   3.158  0.1090  0.9290  0.0715
 9370SOL    HW139743   3.651   2.303   3.199 -2.2451  0.9261  2.8182
 9370SOL    HW239744   3.675   2.400   3.101 -1.9912  0.3174 -2.8990
 9371SOL     OW39745   2.298   2.208  12.417  0.0615 -0.1932  0.1450
 9371SOL    HW139746   2.360   2.279  12.430  0.3725 -0.1727 -1.4330
 9371SOL    HW239747   2.212   2.250  12.419  0.4122  0.5608 -0.5133
 9372SOL     OW39748   3.340   1.571   7.225  0.3435 -0.3929  0.0233
 9372SOL    HW139749   3.248   1.589   7.242  0.1289 -3.0670  1.6790
 9372SOL    HW239750   3.311   1.485   7.195 -0.6379  0.6452 -2.0318
 9373SOL     OW39751   1.387   3.993   2.357  0.9194 -0.0134  0.1859
 9373SOL    HW139752   1.344   4.015   2.440  0.5422  0.3496 -0.1089
 9373SOL    HW239753   1.368   3.899   2.357 -1.2007  0.4029  1.5798
 9374SOL     OW39754   0.339   2.833   6.009  0.0279  0.5442  0.4031
 9374SOL    HW139755   0.256   2.826   6.057 -1.2393 -2.9499 -2.3166
 9374SOL    HW239756   0.302   2.863   5.926  0.9965 -0.3030 -0.3325
 9375SOL     OW39757   3.024   0.441   3.450 -0.2473 -0.3434  0.0498
 9375SOL    HW139758   3.023   0.536   3.461 -0.5805 -0.1647 -1.4394
 9375SOL    HW239759   3.033   0.432   3.355  0.3496 -1.3393  0.1965
 9376SOL     OW39760   1.546   2.349  15.144 -0.0826 -0.2797 -0.0122
 9376SOL    HW139761   1.462   2.311  15.117  1.2270 -1.4044 -2.5062
 9376SOL    HW239762   1.594   2.280  15.190 -1.5811  0.4160  2.5825
 9377SOL     OW39763   3.874   2.657   4.653 -0.2277  0.6353 -0.3624
 9377SOL    HW139764   3.897   2.581   4.600  0.3594  0.6031 -0.0574
 9377SOL    HW239765   3.811   2.702   4.596  0.1953  0.0116 -1.3170
 9378SOL     OW39766   3.307   3.475   1.738  0.1014 -0.2162 -0.4621
 9378SOL    HW139767   3.397   3.457   1.710  0.1471 -0.3578 -0.2239
 9378SOL    HW239768   3.272   3.478   1.649  0.5007  1.6480 -0.5591
 9379SOL     OW39769   0.235   3.309   3.630 -0.1560  0.0525 -0.2473
 9379SOL    HW139770   0.163   3.325   3.691 -1.1455  1.6047 -1.8013
 9379SOL    HW239771   0.190   3.250   3.570  0.5498 -1.4661  0.7324
 9380SOL     OW39772   4.629   3.108   9.338  0.0532  0.1520  0.0442
 9380SOL    HW139773   4.641   3.183   9.397 -1.2649  0.3470  0.0752
 9380SOL    HW239774   4.711   3.106   9.289 -0.1225  1.4283 -0.3149
 9381SOL     OW39775   1.330   4.234   3.916  0.2288  0.0002 -0.4991
 9381SOL    HW139776   1.340   4.266   3.826 -2.2433 -0.1246 -0.8223
 9381SOL    HW239777   1.381   4.305   3.953 -1.0014  1.3649 -1.4179
 9382SOL     OW39778   0.702   3.015   6.992  0.3239  0.2993  0.4676
 9382SOL    HW139779   0.765   2.981   6.929 -2.3733 -1.3182 -1.3545
 9382SOL    HW239780   0.689   3.109   6.979  1.8466  0.3347 -0.6795
 9383SOL     OW39781   0.954   2.163  12.944 -0.1298 -0.6469 -0.4468
 9383SOL    HW139782   1.028   2.122  12.898  0.2930  0.2075 -0.5245
 9383SOL    HW239783   0.894   2.168  12.869 -1.7780 -0.3901  0.9092
 9384SOL     OW39784   0.242   0.788  12.902 -0.1254  0.0254  0.6676
 9384SOL    HW139785   0.311   0.754  12.844  0.0094 -0.4160  1.0801
 9384SOL    HW239786   0.289   0.847  12.961  0.3486  0.1383  0.1819
 9385SOL     OW39787   0.846   0.661  10.480  0.6373  0.4384  0.1189
 9385SOL    HW139788   0.796   0.722  10.425  2.1138  0.0193 -1.6718
 9385SOL    HW239789   0.930   0.652  10.436  0.7570 -1.0577  0.6451
 9386SOL     OW39790   2.723   1.456   1.717  0.0668  0.2094 -0.1355
 9386SOL    HW139791   2.685   1.470   1.630  1.1659  1.3858 -0.4273
 9386SOL    HW239792   2.759   1.541   1.741  2.8548 -1.6977  2.5215
 9387SOL     OW39793   1.375   4.370   5.685 -0.1066 -0.6524  0.0937
 9387SOL    HW139794   1.341   4.281   5.680  1.8604 -1.5503  2.3806
 9387SOL    HW239795   1.464   4.337   5.700 -0.5528 -1.7582  0.2807
 9388SOL     OW39796   1.421   0.022   6.562 -0.0717 -0.0489 -0.1893
 9388SOL    HW139797   1.457   4.684   6.609 -0.3462  0.3923  0.7068
 9388SOL    HW239798   1.397   4.720   6.477  0.0108  0.6623 -0.5429
 9389SOL     OW39799   1.641   2.409   2.877 -0.3124  0.4115 -0.4670
 9389SOL    HW139800   1.618   2.324   2.841 -2.8298  0.1189  1.8098
 9389SOL    HW239801   1.711   2.389   2.940 -2.0585 -0.5995  1.1539
 9390SOL     OW39802   0.180   1.165   6.289  0.1395  0.6223 -0.0224
 9390SOL    HW139803   0.120   1.230   6.325  0.5277  1.7323 -1.3505
 9390SOL    HW239804   0.122   1.090   6.297 -0.7111  1.1139 -1.6237
 9391SOL     OW39805   2.615   4.460  15.293 -0.1613  0.1392  0.0197
 9391SOL    HW139806   2.559   4.398  15.339 -1.6365  0.5371 -1.2640
 9391SOL    HW239807   2.607   4.444  15.199  0.8916  1.4523 -0.3033
 9392SOL     OW39808   3.572   0.239   5.485  0.4593  0.2975  0.0747
 9392SOL    HW139809   3.560   0.191   5.566 -0.0211  1.9561  0.9960
 9392SOL    HW239810   3.540   0.174   5.422  1.4908  1.0899 -1.2804
 9393SOL     OW39811   3.204   4.645   5.054  0.6888 -0.0860  0.1269
 9393SOL    HW139812   3.212   4.708   4.982 -2.2405  2.2889  1.8669
 9393SOL    HW239813   3.291   4.609   5.040  1.0083  0.2232  1.3651
 9394SOL     OW39814   3.399   1.357   5.313  0.1012 -0.0083 -0.5510
 9394SOL    HW139815   3.395   1.447   5.280  3.9632  0.3358 -0.1493
 9394SOL    HW239816   3.312   1.321   5.293  0.9212 -2.1328 -0.3438
 9395SOL     OW39817   0.248   0.982   1.192  0.3433  0.8737 -0.1652
 9395SOL    HW139818   0.318   1.045   1.176  1.0905  0.1202  0.1162
 9395SOL    HW239819   0.280   0.901   1.151  2.2727  0.6759  1.7268
 9396SOL     OW39820   3.514   1.251   3.444 -0.3244  0.3099  0.0955
 9396SOL    HW139821   3.514   1.158   3.420  3.1402  0.1930  0.5715
 9396SOL    HW239822   3.556   1.246   3.530 -1.5783 -0.7462  0.6551
 9397SOL     OW39823   4.550   0.195   0.175  0.7840 -0.3827  0.1865
 9397SOL    HW139824   4.505   0.116   0.205 -0.0717 -0.1545 -0.4810
 9397SOL    HW239825   4.595   0.168   0.095 -1.6788  0.1821 -1.3818
 9398SOL     OW39826   2.108   1.864  12.069 -0.0387  0.7800  0.0122
 9398SOL    HW139827   2.167   1.928  12.109  0.4653 -0.3996  1.1270
 9398SOL    HW239828   2.059   1.845  12.148  0.2574  0.3760  0.0960
 9399SOL     OW39829   3.378   4.572   7.020 -0.3308 -0.2110  0.0817
 9399SOL    HW139830   3.326   4.640   6.976  0.3637 -0.5905 -1.3243
 9399SOL    HW239831   3.326   4.495   6.998  0.0919 -0.2673 -0.6946
 9400SOL     OW39832   2.776   1.865   2.001  0.2372  0.3898  0.1621
 9400SOL    HW139833   2.699   1.828   2.042  0.8925  0.2908  1.3099
 9400SOL    HW239834   2.765   1.958   2.021  2.0353  0.6335  0.0490
 9401SOL     OW39835   3.357   2.607   7.784 -0.0252 -0.1375 -0.4673
 9401SOL    HW139836   3.286   2.670   7.799 -0.2964 -0.8663  1.2780
 9401SOL    HW239837   3.313   2.542   7.729 -0.5762 -0.3037  0.1733
 9402SOL     OW39838   4.351   2.883   6.606  0.4034 -0.6644  0.4383
 9402SOL    HW139839   4.269   2.836   6.622 -1.3545  2.4156  0.4703
 9402SOL    HW239840   4.357   2.859   6.513 -0.6328 -1.9831  0.7059
 9403SOL     OW39841   1.353   4.626   4.657 -0.0769  0.3543  0.0313
 9403SOL    HW139842   1.299   4.555   4.692  1.5312 -0.6529  0.5072
 9403SOL    HW239843   1.299   4.703   4.669  0.3230  0.4728  1.0901
 9404SOL     OW39844   0.962   3.682   7.603  0.3330 -0.1269 -0.0531
 9404SOL    HW139845   0.880   3.726   7.583 -0.2399 -0.1105  2.3522
 9404SOL    HW239846   0.966   3.632   7.522 -2.1532 -2.0797  1.0144
 9405SOL     OW39847   3.835   2.788   7.971  0.1207 -0.1576  0.2291
 9405SOL    HW139848   3.839   2.702   8.012  0.5922 -0.0237  0.4651
 9405SOL    HW239849   3.880   2.837   8.041  2.5396 -2.1203  0.0463
 9406SOL     OW39850   1.232   0.884   9.575  0.1481 -0.3418  0.1182
 9406SOL    HW139851   1.185   0.897   9.658  0.3711 -0.6104  0.2856
 9406SOL    HW239852   1.302   0.948   9.585  0.4340 -0.8701  1.5795
 9407SOL     OW39853   4.703   1.245   3.570  0.2804  0.3039  0.2676
 9407SOL    HW139854   4.672   1.335   3.566 -1.2204 -0.1449  1.3024
 9407SOL    HW239855   0.053   1.246   3.609  0.0033  1.7812  0.8389
 9408SOL     OW39856   3.828   1.309  13.828 -0.3275 -0.2354  0.0015
 9408SOL    HW139857   3.753   1.272  13.781 -1.6179  2.3010  0.0704
 9408SOL    HW239858   3.875   1.226  13.832  0.2329 -0.1130 -3.4640
 9409SOL     OW39859   0.297   2.469   2.255 -0.5514 -0.3260  0.3266
 9409SOL    HW139860   0.300   2.431   2.343  1.0563 -0.2031  0.3328
 9409SOL    HW239861   0.366   2.535   2.248 -2.1689  1.1822 -1.2175
 9410SOL     OW39862   0.309   0.312   8.734 -0.5400  0.3577 -0.1055
 9410SOL    HW139863   0.233   0.365   8.710 -0.1741  0.3658 -1.2164
 9410SOL    HW239864   0.265   0.254   8.796 -0.9116 -1.2594 -1.8847
 9411SOL     OW39865   3.653   4.145   4.314  0.4772  0.0166  0.2844
 9411SOL    HW139866   3.658   4.049   4.317 -2.6598 -0.1003  1.3949
 9411SOL    HW239867   3.626   4.157   4.223 -2.4597  1.8392  1.3937
 9412SOL     OW39868   1.788   4.666   7.185 -0.0674 -0.2390  0.1036
 9412SOL    HW139869   1.740   4.593   7.224  0.6615 -0.9042 -0.2505
 9412SOL    HW239870   1.767   4.662   7.091  1.9550  0.9363 -0.3917
 9413SOL     OW39871   0.101   4.436   2.310  0.5998 -0.2243 -0.2607
 9413SOL    HW139872   0.166   4.505   2.320  1.2837 -0.7355 -1.1331
 9413SOL    HW239873   0.085   4.436   2.215  1.4181 -0.0400 -0.3987
 9414SOL     OW39874   4.336   1.361   3.658 -0.2063 -0.2453 -0.2357
 9414SOL    HW139875   4.391   1.284   3.647  0.5545  0.2519  0.0592
 9414SOL    HW239876   4.305   1.373   3.568 -0.0267  0.6823 -0.1783
 9415SOL     OW39877   1.164   4.386   8.561 -0.7010 -0.0367  0.0496
 9415SOL    HW139878   1.254   4.359   8.541 -0.4963 -0.7850  2.0213
 9415SOL    HW239879   1.115   4.304   8.568  0.4694 -0.7473  0.0316
 9416SOL     OW39880   2.745   1.949   3.273  0.2610 -0.4675  0.3458
 9416SOL    HW139881   2.821   1.935   3.216 -0.2588  1.4571 -0.8237
 9416SOL    HW239882   2.798   1.959   3.352 -2.1843  0.4387  1.8581
 9417SOL     OW39883   3.788   1.454   2.966  0.0119  0.1379  0.2178
 9417SOL    HW139884   3.746   1.481   2.884  3.6618  0.7867 -1.4411
 9417SOL    HW239885   3.725   1.397   3.009 -0.9617  0.1953 -1.1435
 9418SOL     OW39886   1.550   1.664   3.367 -0.1771 -0.5717 -0.2342
 9418SOL    HW139887   1.514   1.580   3.395 -1.3391 -0.0654 -0.2381
 9418SOL    HW239888   1.524   1.725   3.436 -0.0105 -0.0474 -0.6381
 9419SOL     OW39889   2.413   0.940   7.883  0.3427 -0.0175  0.1541
 9419SOL    HW139890   2.401   0.946   7.978  2.0652  1.5705  0.2782
 9419SOL    HW239891   2.346   1.000   7.849  0.8735  0.2146 -0.4791
 9420SOL     OW39892   1.435   0.342   1.474  0.1900  0.5808 -0.0973
 9420SOL    HW139893   1.472   0.296   1.549  0.3404  0.1035 -0.4679
 9420SOL    HW239894   1.372   0.283   1.433 -0.1090 -0.0286  1.2615
 9421SOL     OW39895   4.143   1.956   5.022  0.2236 -0.0148 -0.2768
 9421SOL    HW139896   4.084   1.904   5.077  1.7727 -1.9392 -0.4642
 9421SOL    HW239897   4.221   1.901   5.014  0.4870  0.3538 -0.2565
 9422SOL     OW39898   2.016   0.881   5.585  0.0458  0.5800  0.1586
 9422SOL    HW139899   1.930   0.920   5.601 -0.3642  0.2764 -1.3316
 9422SOL    HW239900   2.068   0.948   5.629  0.5047 -1.0202  2.0494
 9423SOL     OW39901   0.139   4.138  14.902 -0.6121  0.2188 -0.2628
 9423SOL    HW139902   0.101   4.183  14.826  1.1656  2.7168  0.3073
 9423SOL    HW239903   0.232   4.153  14.889  0.0743 -1.8715  2.3102
 9424SOL     OW39904   2.848   3.207   1.474 -0.0390 -0.3524  0.3048
 9424SOL    HW139905   2.917   3.258   1.517  0.9026 -2.7011  1.5783
 9424SOL    HW239906   2.776   3.222   1.536 -1.6948 -0.8590 -1.4975
 9425SOL     OW39907   0.683   2.720   8.234 -0.6377  0.0747 -0.2872
 9425SOL    HW139908   0.633   2.737   8.314  0.0613  0.2145  0.1159
 9425SOL    HW239909   0.655   2.633   8.207 -1.1869  0.4273 -0.8387
 9426SOL     OW39910   3.926   1.758  15.557 -0.2379  0.0494 -0.0039
 9426SOL    HW139911   3.885   1.672  15.567 -2.3106  0.8802 -1.5095
 9426SOL    HW239912   3.953   1.779  15.647  0.7699  1.8242 -0.7219
 9427SOL     OW39913   0.688   1.575  17.003 -0.0566 -0.6821  0.0781
 9427SOL    HW139914   0.720   1.486  16.985  0.4320 -0.7944  1.5149
 9427SOL    HW239915   0.670   1.555  17.095  3.1943  1.5343  1.1636
 9428SOL     OW39916   4.522   3.228   8.002 -0.0913 -0.0593 -0.2787
 9428SOL    HW139917   4.446   3.286   8.007 -0.6632 -0.8059 -0.3564
 9428SOL    HW239918   4.488   3.153   7.954  0.4174 -0.3991 -0.1061
 9429SOL     OW39919   4.635   4.078   5.325 -0.5204 -0.0344 -0.1627
 9429SOL    HW139920   4.710   4.069   5.267 -0.3581  0.1619  0.0158
 9429SOL    HW239921   4.624   3.984   5.338 -1.2792  0.0890  0.0872
 9430SOL     OW39922   2.297   0.142   4.595  0.3468 -0.2257  0.1885
 9430SOL    HW139923   2.284   0.106   4.507 -0.2680  0.4265  0.0143
 9430SOL    HW239924   2.225   0.204   4.586  1.0757  0.8349  1.8060
 9431SOL     OW39925   0.361   4.687   4.582 -0.1061  0.0970  0.1104
 9431SOL    HW139926   0.355   0.006   4.505 -1.8265  1.1367  1.0092
 9431SOL    HW239927   0.406   4.608   4.551 -0.4243 -0.2819  0.6167
 9432SOL     OW39928   3.263   3.560  15.603  0.2624 -0.0635  0.9240
 9432SOL    HW139929   3.292   3.650  15.585  1.0113 -0.7366 -1.2007
 9432SOL    HW239930   3.189   3.573  15.662 -0.5615  1.0048 -0.3451
 9433SOL     OW39931   3.312   0.092   2.397 -0.0182 -0.3369 -0.2778
 9433SOL    HW139932   3.339   0.072   2.308 -2.2422 -0.3638 -0.9316
 9433SOL    HW239933   3.218   0.078   2.386 -0.3145  0.0369  1.7328
 9434SOL     OW39934   3.465   1.543   6.876  0.4904 -0.0743  0.6570
 9434SOL    HW139935   3.432   1.457   6.902  0.8561 -0.7236 -1.0178
 9434SOL    HW239936   3.539   1.522   6.819 -0.4519 -2.5491  0.3560
 9435SOL     OW39937   2.971   3.743   1.477 -0.4768  0.4542 -0.2687
 9435SOL    HW139938   2.959   3.724   1.384  1.7861  0.3306 -0.5260
 9435SOL    HW239939   2.899   3.698   1.522  0.5268 -0.9871 -0.0743
 9436SOL     OW39940   3.218   2.431   1.663  1.1722  0.2298  0.4123
 9436SOL    HW139941   3.187   2.342   1.675  3.8434 -1.1083 -2.4191
 9436SOL    HW239942   3.307   2.426   1.698  0.7013  1.8612  1.8181
 9437SOL     OW39943   1.886   3.304   0.101 -0.2264  0.1930  0.3510
 9437SOL    HW139944   1.910   3.287   0.192  0.9058 -2.3173 -0.3928
 9437SOL    HW239945   1.799   3.340   0.116  0.2055  2.1716 -1.9937
 9438SOL     OW39946   2.972   0.156  12.996  0.1705 -0.0110 -0.6080
 9438SOL    HW139947   3.060   0.119  12.999  0.2754  0.3165  0.2230
 9438SOL    HW239948   2.921   0.092  13.045  1.3027  0.8546  1.7092
 9439SOL     OW39949   2.209   0.337   1.064  0.1488 -0.1207 -0.5013
 9439SOL    HW139950   2.116   0.339   1.042  0.0657 -1.6181 -0.2969
 9439SOL    HW239951   2.209   0.430   1.088  0.1123 -0.0825 -0.6543
 9440SOL     OW39952   1.345   2.703   7.054 -0.3903  0.3214 -0.2740
 9440SOL    HW139953   1.371   2.701   6.962 -0.9224 -0.2380 -0.4118
 9440SOL    HW239954   1.252   2.721   7.045 -0.8895 -3.3033 -2.6986
 9441SOL     OW39955   1.400   1.025  10.932 -0.1043  0.1578 -0.0845
 9441SOL    HW139956   1.330   1.056  10.990  0.7382  3.3751 -0.7935
 9441SOL    HW239957   1.424   1.095  10.872 -0.8541  1.3340  0.9920
 9442SOL     OW39958   0.248   3.034   7.764 -0.1944 -0.1291  0.2551
 9442SOL    HW139959   0.219   2.952   7.723  0.2961  0.1021 -0.5671
 9442SOL    HW239960   0.183   3.099   7.739  2.8114  2.0585 -1.9077
 9443SOL     OW39961   4.725   2.246   8.507 -0.0555 -0.4401  0.2013
 9443SOL    HW139962   0.058   2.266   8.570 -0.3649  0.7946  0.1618
 9443SOL    HW239963   4.646   2.258   8.560  0.3710  1.1879  0.4717
 9444SOL     OW39964   3.912   2.199   3.715 -0.0848  0.0607 -0.5293
 9444SOL    HW139965   3.947   2.286   3.732 -0.8305 -0.4122  3.3903
 9444SOL    HW239966   3.868   2.212   3.631 -0.5234 -3.3527 -0.8469
 9445SOL     OW39967   0.041   2.738   4.189 -0.6489  0.4455  0.1802
 9445SOL    HW139968   4.721   2.812   4.210 -0.6038  0.0113  1.7967
 9445SOL    HW239969   4.720   2.683   4.137  1.1750 -1.6134  0.3158
 9446SOL     OW39970   2.156   4.705   0.149 -0.7164  0.2178 -0.2454
 9446SOL    HW139971   2.214   4.636   0.117 -2.4563 -1.0107 -0.7594
 9446SOL    HW239972   2.074   4.670   0.115 -0.0708  1.2226 -2.8100
 9447SOL     OW39973   1.108   4.048   4.754 -0.0873  0.3402  0.2983
 9447SOL    HW139974   1.195   4.024   4.721 -0.1155  0.8646 -0.1410
 9447SOL    HW239975   1.067   3.961   4.754 -0.1316  0.3660 -4.5908
 9448SOL     OW39976   4.383   4.149   7.513  0.1404  0.2502  0.0707
 9448SOL    HW139977   4.463   4.189   7.480  1.3355 -1.7450  0.5741
 9448SOL    HW239978   4.312   4.210   7.491 -0.4024  0.4291  2.3741
 9449SOL     OW39979   2.599   4.423   1.107 -0.5767 -0.3234  0.1482
 9449SOL    HW139980   2.613   4.331   1.086 -0.0738 -0.3376  0.5628
 9449SOL    HW239981   2.656   4.429   1.183  1.3405  2.9476 -1.5263
 9450SOL     OW39982   1.811   4.706   8.062  0.1605 -0.0602  0.4425
 9450SOL    HW139983   1.772   4.619   8.051 -0.7195  0.5876 -1.4779
 9450SOL    HW239984   1.889   4.707   8.007 -2.9476  0.7405 -3.9826
 9451SOL     OW39985   1.156   3.843   0.596 -0.0420  0.0735  0.3710
 9451SOL    HW139986   1.173   3.934   0.618 -3.4277  0.5978  0.8463
 9451SOL    HW239987   1.102   3.854   0.518 -0.5124  0.1848  0.7081
 9452SOL     OW39988   0.992   4.508   2.929 -0.1058  0.1388 -0.3158
 9452SOL    HW139989   0.929   4.443   2.896 -0.8785  0.7754 -0.0930
 9452SOL    HW239990   1.037   4.458   2.997 -0.1223 -0.3192 -0.6452
 9453SOL     OW39991   3.812   3.881   2.800  0.5260  0.6489  0.1043
 9453SOL    HW139992   3.742   3.889   2.865  0.9862 -2.2320  0.9572
 9453SOL    HW239993   3.760   3.863   2.721  1.2031  0.5403 -0.3179
 9454SOL     OW39994   1.042   0.000   5.781 -0.6609 -0.6039 -0.0998
 9454SOL    HW139995   0.946   0.001   5.775 -0.7718  1.5790  2.2097
 9454SOL    HW239996   1.060   4.669   5.846 -0.5869 -0.9641 -0.4968
 9455SOL     OW39997   4.049   0.268  15.976 -0.2257 -0.5880  0.4331
 9455SOL    HW139998   4.143   0.286  15.979 -0.6585  1.7010 -0.0414
 9455SOL    HW239999   4.044   0.172  15.969 -1.4175 -0.2546 -2.8128
 9456SOL     OW40000   0.352   0.389   0.319  0.3665  0.3056  0.3013
 9456SOL    HW140001   0.283   0.411   0.382 -0.2365  1.7002 -0.8379
 9456SOL    HW240002   0.286   0.375   0.252  0.6657 -1.6733  0.4320
 9457SOL     OW40003   3.931   3.785   2.439 -0.1571 -0.2070 -0.2936
 9457SOL    HW140004   4.005   3.730   2.413 -1.7695 -1.5181 -2.0905
 9457SOL    HW240005   3.966   3.832   2.515  0.7591 -0.8826 -0.2961
 9458SOL     OW40006   0.571   1.723   6.937  0.0744 -0.6514 -0.2305
 9458SOL    HW140007   0.659   1.734   6.975 -0.1531 -0.9743  0.3848
 9458SOL    HW240008   0.541   1.671   7.011  1.8563 -1.9284 -0.3995
 9459SOL     OW40009   4.729   3.601   3.637 -0.6951 -0.4041 -0.1752
 9459SOL    HW140010   0.004   3.695   3.629 -0.1876 -0.4787 -0.2966
 9459SOL    HW240011   4.705   3.590   3.730 -0.2937 -1.4753 -0.1923
 9460SOL     OW40012   3.705   1.146  12.346  0.6339  0.4490 -1.0605
 9460SOL    HW140013   3.786   1.170  12.390 -1.1017  0.1207  2.2856
 9460SOL    HW240014   3.644   1.215  12.370  2.1310  0.9335  1.3497
 9461SOL     OW40015   2.930   0.874   5.609 -0.0886 -0.3243  0.1432
 9461SOL    HW140016   3.002   0.828   5.565  0.0020 -1.8375  1.8432
 9461SOL    HW240017   2.892   0.918   5.533  1.7232 -1.0347 -1.1680
 9462SOL     OW40018   0.790   2.157   5.121 -0.5737 -0.6434  0.0656
 9462SOL    HW140019   0.881   2.137   5.146 -0.1896 -1.8102 -2.2876
 9462SOL    HW240020   0.751   2.073   5.144 -1.0499 -0.1675  0.9806
 9463SOL     OW40021   0.307   1.583  16.938 -0.4695 -0.5563  0.0073
 9463SOL    HW140022   0.355   1.621  16.865 -0.3108 -0.2195  0.2907
 9463SOL    HW240023   0.332   1.640  17.010 -2.3774  1.1599 -0.6791
 9464SOL     OW40024   3.519   1.389  13.928  0.0188 -0.1290 -0.4918
 9464SOL    HW140025   3.534   1.356  13.839 -1.6810 -0.8260 -0.5224
 9464SOL    HW240026   3.466   1.467  13.909 -0.7786 -0.5398  0.0433
 9465SOL     OW40027   0.996   2.870   4.883  0.5092  0.3356 -0.2028
 9465SOL    HW140028   1.020   2.948   4.832  2.7695 -0.3948 -0.2742
 9465SOL    HW240029   0.929   2.907   4.941 -0.8120 -0.1836 -1.4035
 9466SOL     OW40030   1.912   4.292   8.557 -0.2530 -0.1012  0.4841
 9466SOL    HW140031   1.895   4.385   8.545  1.4346 -0.0064 -1.2257
 9466SOL    HW240032   1.839   4.253   8.604  0.2172 -0.6785  0.7335
 9467SOL     OW40033   1.757   0.083   2.751  0.2106  0.9430  0.0868
 9467SOL    HW140034   1.690   0.088   2.683 -1.0806  0.7215  1.3607
 9467SOL    HW240035   1.822   0.133   2.701 -0.1783  0.9059 -0.4569
 9468SOL     OW40036   2.639   1.874   4.488 -0.5139  0.1461 -0.2712
 9468SOL    HW140037   2.635   1.894   4.395  0.2598  0.8177 -0.1553
 9468SOL    HW240038   2.732   1.863   4.508 -1.0650 -0.1578  2.1059
 9469SOL     OW40039   4.434   3.691   3.005  0.4117 -0.2025  0.4012
 9469SOL    HW140040   4.459   3.633   3.078 -0.3954  0.4665  1.2031
 9469SOL    HW240041   4.340   3.673   2.999  0.1705  2.1930 -2.3526
 9470SOL     OW40042   0.179   0.049   6.745  0.1117  0.0494 -0.2458
 9470SOL    HW140043   0.202   0.143   6.746  1.5680 -0.2909 -1.3354
 9470SOL    HW240044   0.249   0.020   6.804 -1.3126  0.0314  1.4422
 9471SOL     OW40045   0.472   2.227   2.440  0.1300  0.2299  0.0515
 9471SOL    HW140046   0.489   2.184   2.356 -0.3639 -1.2735  0.7410
 9471SOL    HW240047   0.387   2.195   2.468  0.6980 -1.3033  0.0128
 9472SOL     OW40048   0.887   4.639   1.914  0.4831 -0.1715 -0.0119
 9472SOL    HW140049   0.949   4.571   1.886  2.8082  1.2548  1.5962
 9472SOL    HW240050   0.854   4.661   1.827  0.9018 -0.5837 -0.2784
 9473SOL     OW40051   1.814   3.963   5.696 -0.1160 -0.1222 -0.0165
 9473SOL    HW140052   1.907   3.983   5.684 -0.1052  0.2356  0.6495
 9473SOL    HW240053   1.784   3.960   5.605 -0.7278  0.7423  0.1536
 9474SOL     OW40054   0.064   2.974  13.773 -0.0966 -0.1880 -0.1922
 9474SOL    HW140055   4.724   2.918  13.781  0.4739 -1.0131 -0.4491
 9474SOL    HW240056   0.051   3.013  13.687 -0.8811 -1.4664 -0.6551
 9475SOL     OW40057   3.677   0.719   8.204 -0.1535 -0.6529  0.1776
 9475SOL    HW140058   3.584   0.704   8.222  0.1474  1.1586  3.1227
 9475SOL    HW240059   3.683   0.737   8.110 -1.8802  0.7556  0.3388
 9476SOL     OW40060   1.242   1.128  17.409 -0.1343  0.5376  0.7919
 9476SOL    HW140061   1.317   1.120  17.350 -0.1262  0.2624  0.8382
 9476SOL    HW240062   1.181   1.066  17.370  1.4459 -2.0144  2.2982
 9477SOL     OW40063   2.470   3.629  12.671 -0.3464 -0.6991  0.3294
 9477SOL    HW140064   2.376   3.635  12.684 -0.2183  3.7542 -0.5984
 9477SOL    HW240065   2.500   3.591  12.753 -0.2758 -0.7875  0.2636
 9478SOL     OW40066   1.817   4.618   3.907 -0.3099  0.6977  0.6411
 9478SOL    HW140067   1.748   4.683   3.897  0.5916  1.3366 -1.3246
 9478SOL    HW240068   1.886   4.663   3.859 -0.1499  1.3274  1.4707
 9479SOL     OW40069   2.189   2.919   2.726 -0.0994 -0.9000 -0.8106
 9479SOL    HW140070   2.178   2.836   2.772 -2.8885 -1.2786 -2.1792
 9479SOL    HW240071   2.258   2.898   2.662 -2.3369  1.5636 -4.0765
 9480SOL     OW40072   0.294   3.603   4.774  0.7702  0.5857  0.0406
 9480SOL    HW140073   0.255   3.565   4.852  1.3607  1.6423  0.8438
 9480SOL    HW240074   0.351   3.672   4.807 -0.4157  0.9982  1.1990
 9481SOL     OW40075   3.025   2.749   7.056 -0.1661  0.1534  0.6020
 9481SOL    HW140076   3.069   2.730   7.139 -0.6215  1.5768  1.1688
 9481SOL    HW240077   3.082   2.686   7.011 -1.4954 -0.1858 -0.6171
 9482SOL     OW40078   0.738   4.517   8.110  0.4528  0.1775  0.3181
 9482SOL    HW140079   0.773   4.518   8.021  0.9459 -1.2568  0.4974
 9482SOL    HW240080   0.759   4.427   8.134 -0.6557 -0.5352 -1.3775
 9483SOL     OW40081   0.671   0.838  10.306 -0.5531 -0.3980 -0.5038
 9483SOL    HW140082   0.638   0.851  10.395 -0.7329  0.7971 -0.7470
 9483SOL    HW240083   0.592   0.791  10.282 -2.2341  1.2799  1.7275
 9484SOL     OW40084   4.162   4.183   2.427 -0.3044 -0.0421  0.0731
 9484SOL    HW140085   4.163   4.113   2.363 -0.8375 -0.6073  0.6726
 9484SOL    HW240086   4.234   4.178   2.490  0.1930  0.2070 -0.4886
 9485SOL     OW40087   4.227   4.060   7.155  0.2987 -0.4796  0.1899
 9485SOL    HW140088   4.161   4.125   7.180  0.7060 -0.3443  0.8950
 9485SOL    HW240089   4.309   4.108   7.167  0.3174 -0.3223 -0.5287
 9486SOL     OW40090   1.149   3.910  15.062  0.4010  0.2576  0.0439
 9486SOL    HW140091   1.202   3.877  14.989  1.7840  1.5180  0.4669
 9486SOL    HW240092   1.107   3.990  15.031  0.0087  1.8176  4.5608
 9487SOL     OW40093   3.692   0.723   8.610 -0.6540  0.2862 -0.3663
 9487SOL    HW140094   3.618   0.785   8.606 -0.2023  0.8667  0.3176
 9487SOL    HW240095   3.670   0.673   8.688 -1.3830  2.9252  1.1472
 9488SOL     OW40096   2.384   4.030   3.934  0.0809 -0.5683  0.2799
 9488SOL    HW140097   2.462   3.989   3.898  1.6735  3.1952 -0.5192
 9488SOL    HW240098   2.362   3.971   4.006 -0.1877 -1.2109 -0.3314
 9489SOL     OW40099   2.279   1.637   2.361 -0.0743  0.7979  0.1491
 9489SOL    HW140100   2.297   1.592   2.278  2.4173 -0.7200  1.4988
 9489SOL    HW240101   2.204   1.588   2.393 -0.2357 -0.1615 -1.7344
 9490SOL     OW40102   1.181   2.169   5.406 -0.0805  0.5156 -0.1751
 9490SOL    HW140103   1.268   2.154   5.443 -0.7864 -2.4086  0.2942
 9490SOL    HW240104   1.149   2.242   5.460  0.2725 -0.5442  1.4699
 9491SOL     OW40105   0.606   3.105   2.189 -0.0898  0.2949  0.0179
 9491SOL    HW140106   0.685   3.109   2.134  0.8702 -0.3986  1.3480
 9491SOL    HW240107   0.650   3.093   2.273 -1.2870 -0.7142  0.5017
 9492SOL     OW40108   4.438   3.284   6.907 -0.1669 -0.1208 -0.0643
 9492SOL    HW140109   4.389   3.230   6.968 -0.9371  1.7144  0.9261
 9492SOL    HW240110   4.437   3.369   6.951  0.8348 -0.8826  1.4139
 9493SOL     OW40111   2.388   1.246  10.292  0.1150 -0.1716  0.1401
 9493SOL    HW140112   2.442   1.177  10.253  0.6154 -0.2498  0.9750
 9493SOL    HW240113   2.436   1.323  10.261 -1.7042  0.3269 -1.4537
 9494SOL     OW40114   2.390   0.217  10.159  0.5914  0.3425  0.0777
 9494SOL    HW140115   2.441   0.246  10.235 -0.2801 -2.1227  1.6069
 9494SOL    HW240116   2.386   0.302  10.116  0.3846  0.8397  1.0832
 9495SOL     OW40117   3.277   0.568   6.268 -0.2282  0.1823 -0.0632
 9495SOL    HW140118   3.265   0.652   6.313 -1.9035  0.8078 -1.6819
 9495SOL    HW240119   3.372   0.563   6.264 -0.2860 -0.8002 -0.2445
 9496SOL     OW40120   2.662   3.205  10.747  0.4101 -0.4788 -0.4322
 9496SOL    HW140121   2.732   3.158  10.791 -0.1510  0.0481  1.0354
 9496SOL    HW240122   2.672   3.291  10.788 -1.3171  0.0450 -1.0899
 9497SOL     OW40123   1.520   0.480   5.212 -0.0139 -0.1958 -0.2343
 9497SOL    HW140124   1.606   0.521   5.199  1.7740 -3.1271  2.5088
 9497SOL    HW240125   1.537   0.440   5.297  0.9401  2.4150  0.7862
 9498SOL     OW40126   1.266   4.194   8.161  0.5228  0.1765 -0.4586
 9498SOL    HW140127   1.208   4.175   8.087 -3.8615  0.1731  2.9692
 9498SOL    HW240128   1.261   4.116   8.215 -0.3075  0.3164 -0.3301
 9499SOL     OW40129   2.518   2.938   9.147  0.4375  0.4494 -0.9092
 9499SOL    HW140130   2.522   2.976   9.235 -2.7550 -0.2307 -0.4433
 9499SOL    HW240131   2.502   3.015   9.093  0.3937  0.6466 -0.6128
 9500SOL     OW40132   2.230   3.275   7.031  0.4578 -0.3685 -0.2670
 9500SOL    HW140133   2.210   3.185   7.004  1.5421 -0.2965 -1.2940
 9500SOL    HW240134   2.300   3.248   7.090 -1.9677 -0.9866  2.3509
 9501SOL     OW40135   2.328   2.210  13.409 -0.0733  0.0102  0.6762
 9501SOL    HW140136   2.419   2.199  13.438 -0.4674 -1.4290  1.3563
 9501SOL    HW240137   2.333   2.203  13.314  3.1419 -1.8824  0.9772
 9502SOL     OW40138   4.611   1.519   9.560 -0.2195  0.0214 -0.1991
 9502SOL    HW140139   4.639   1.605   9.590 -1.4447 -0.5171  2.5434
 9502SOL    HW240140   4.517   1.526   9.542 -0.3383  2.2108  1.2974
 9503SOL     OW40141   4.090   0.632   6.268 -0.2375 -0.0885  0.0651
 9503SOL    HW140142   4.141   0.613   6.347 -0.5098 -2.2571 -0.2773
 9503SOL    HW240143   4.133   0.567   6.212  0.0937 -0.3278  0.6008
 9504SOL     OW40144   1.667   1.208   6.447  0.4995  0.1117  0.3673
 9504SOL    HW140145   1.597   1.251   6.397  0.1938  0.2883  0.9497
 9504SOL    HW240146   1.695   1.287   6.493  1.5167  0.1056 -0.2426
 9505SOL     OW40147   0.073   3.083   4.751 -0.1399  0.2967  0.3071
 9505SOL    HW140148   0.000   3.087   4.812 -0.7929 -0.6159 -0.3976
 9505SOL    HW240149   0.051   3.162   4.703  0.0191  0.2456  0.1469
 9506SOL     OW40150   1.769   0.998   3.905  0.5051 -0.7461  0.3839
 9506SOL    HW140151   1.710   0.992   3.830  0.8379  1.7619 -0.0959
 9506SOL    HW240152   1.855   0.977   3.868  0.1459 -1.0616 -0.2641
 9507SOL     OW40153   2.667   3.276  16.275  0.2491 -0.3718  0.1469
 9507SOL    HW140154   2.596   3.214  16.259 -0.6120  0.1619  1.8985
 9507SOL    HW240155   2.691   3.294  16.184  0.0329 -1.3453 -0.1032
 9508SOL     OW40156   1.255   2.912  16.126  0.4329  0.2250 -0.2663
 9508SOL    HW140157   1.309   2.878  16.055  2.0691  0.8404  0.7062
 9508SOL    HW240158   1.327   2.943  16.180  0.9186 -2.1223  0.4578
 9509SOL     OW40159   0.743   2.025  10.093 -0.0126  0.1889 -0.5026
 9509SOL    HW140160   0.830   1.994  10.119  0.8440  3.1172  0.1022
 9509SOL    HW240161   0.757   2.120  10.093  4.0991 -0.4179  1.2054
 9510SOL     OW40162   4.733   0.977   8.106 -0.1786  0.2334 -0.6402
 9510SOL    HW140163   4.728   0.902   8.048  1.5036 -0.3650 -0.0151
 9510SOL    HW240164   0.058   0.947   8.172 -1.3998  1.4536  1.0633
 9511SOL     OW40165   2.464   2.990  16.849 -0.1388  0.1001 -0.1816
 9511SOL    HW140166   2.444   2.911  16.899 -2.1024  0.9594  0.3974
 9511SOL    HW240167   2.398   2.983  16.780  0.8740 -1.8758 -0.9406
 9512SOL     OW40168   2.348   1.284   5.923 -0.2647 -0.2318  0.2435
 9512SOL    HW140169   2.401   1.333   5.987  0.0849  2.0882 -1.8200
 9512SOL    HW240170   2.270   1.299   5.977  2.1493  1.1308  3.3411
 9513SOL     OW40171   1.074   1.726   8.188  0.4572 -0.7641  0.0758
 9513SOL    HW140172   0.994   1.705   8.139 -0.4608  0.1773  1.1746
 9513SOL    HW240173   1.098   1.815   8.162 -1.8708 -0.5144 -1.2232
 9514SOL     OW40174   3.649   0.648   9.093  0.8047  0.3324 -0.0978
 9514SOL    HW140175   3.665   0.742   9.109 -1.2123  0.5227  0.7563
 9514SOL    HW240176   3.685   0.609   9.173  0.3881 -1.0380 -0.5865
 9515SOL     OW40177   4.058   1.532   7.638  0.4785 -0.3529  0.5037
 9515SOL    HW140178   4.042   1.618   7.599 -1.8369 -1.2894 -0.5913
 9515SOL    HW240179   4.000   1.474   7.588  1.5614  0.8468 -2.1328
 9516SOL     OW40180   2.539   1.369   1.910 -0.4893  0.6165  0.0247
 9516SOL    HW140181   2.595   1.384   1.834 -0.4214 -0.6506 -0.1720
 9516SOL    HW240182   2.606   1.328   1.964 -1.1275 -0.7804 -0.2269
 9517SOL     OW40183   2.761   0.733   6.044  0.1154  0.3107 -0.5114
 9517SOL    HW140184   2.760   0.640   6.067 -0.9296  0.4615  0.0240
 9517SOL    HW240185   2.669   0.757   6.039 -0.2571 -0.5279  2.2484
 9518SOL     OW40186   3.625   0.013   7.646  0.0246  0.5705 -0.0848
 9518SOL    HW140187   3.699   0.014   7.585  0.7271 -0.5426  0.7574
 9518SOL    HW240188   3.633   4.657   7.668  1.3321  0.6483 -0.2138
 9519SOL     OW40189   4.547   4.559  15.774 -1.0910  0.2261 -0.2939
 9519SOL    HW140190   4.570   4.507  15.851 -0.1622  1.1017  0.0267
 9519SOL    HW240191   4.586   4.645  15.791  1.2356 -0.8489 -0.2641
 9520SOL     OW40192   2.143   1.539   4.160 -0.7634 -0.3395  0.3160
 9520SOL    HW140193   2.220   1.576   4.117  0.1442 -1.8151  0.6781
 9520SOL    HW240194   2.072   1.598   4.135  0.0715  1.6204  2.5488
 9521SOL     OW40195   0.882   3.808   7.340 -0.0244  0.2523  0.7580
 9521SOL    HW140196   0.849   3.841   7.424 -1.7333 -2.2695  1.0975
 9521SOL    HW240197   0.891   3.888   7.289  0.4090 -1.1689 -1.3907
 9522SOL     OW40198   4.478   2.269   5.123  0.2618  0.1127 -0.6290
 9522SOL    HW140199   4.487   2.259   5.028 -0.3729  0.5644 -0.7323
 9522SOL    HW240200   4.562   2.311   5.143 -0.8870  1.3088  1.6610
 9523SOL     OW40201   4.062   1.756   7.487  0.3071 -0.1681 -0.1232
 9523SOL    HW140202   4.052   1.850   7.504  1.2155 -0.5526  2.5681
 9523SOL    HW240203   4.156   1.755   7.503 -0.0072  2.9973  1.9408
 9524SOL     OW40204   3.990   1.732   8.922 -0.2922 -0.6684  0.0563
 9524SOL    HW140205   3.954   1.762   8.839 -0.8573 -0.1972  0.4698
 9524SOL    HW240206   3.920   1.673   8.949 -0.8116  0.2560  0.7334
 9525SOL     OW40207   2.931   0.963   2.916  0.5090  0.0330 -0.4923
 9525SOL    HW140208   2.861   0.976   2.981  0.8820  0.4391 -0.1699
 9525SOL    HW240209   3.008   1.003   2.956  0.3832  0.4729 -0.6789
 9526SOL     OW40210   1.533   4.142  16.903  0.3621  0.0695  0.3947
 9526SOL    HW140211   1.622   4.108  16.894  0.3828  0.2010  0.0996
 9526SOL    HW240212   1.504   4.183  16.822 -0.7908  0.3344  0.9363
 9527SOL     OW40213   2.549   2.618   6.803  0.5882  0.0750  0.1553
 9527SOL    HW140214   2.639   2.586   6.800  0.7995  0.5867  1.1898
 9527SOL    HW240215   2.550   2.647   6.894 -2.8477  2.1469 -0.4743
 9528SOL     OW40216   3.810   0.288   0.758  0.5324  0.0700  0.0791
 9528SOL    HW140217   3.779   0.367   0.803  1.5952 -0.1780  1.2599
 9528SOL    HW240218   3.775   0.289   0.669 -0.3887  1.8480  0.4531
 9529SOL     OW40219   4.268   0.262   4.662 -0.2909  0.0443 -0.0646
 9529SOL    HW140220   4.276   0.356   4.649 -1.0168 -0.1627 -1.8987
 9529SOL    HW240221   4.356   0.240   4.631 -0.3687  1.2991 -1.1195
 9530SOL     OW40222   1.849   0.240  10.889 -0.0563  0.2562 -0.1695
 9530SOL    HW140223   1.781   0.243  10.822  0.3009 -1.5969 -0.6299
 9530SOL    HW240224   1.829   0.324  10.930 -0.8822  0.2963 -0.6602
 9531SOL     OW40225   2.647   4.344  16.055 -0.2483  0.3661 -0.4565
 9531SOL    HW140226   2.710   4.349  15.983 -0.1275 -0.4968 -0.4083
 9531SOL    HW240227   2.640   4.435  16.083 -0.6511  0.5975 -1.3008
 9532SOL     OW40228   2.950   0.656   3.913  0.5038  0.3742 -0.2609
 9532SOL    HW140229   2.875   0.619   3.866  1.8462  1.0666 -2.9361
 9532SOL    HW240230   2.980   0.723   3.852  0.2915  0.2207 -0.5324
 9533SOL     OW40231   4.546   3.876  13.203  1.0160  0.8102  0.2386
 9533SOL    HW140232   4.463   3.879  13.156  0.6867 -0.6425  0.7116
 9533SOL    HW240233   4.517   3.889  13.294 -0.5022  0.5810 -0.2182
 9534SOL     OW40234   2.358   1.004  16.716  0.2835  0.0627  0.5375
 9534SOL    HW140235   2.362   0.923  16.768 -0.1105  0.3586  1.0158
 9534SOL    HW240236   2.421   0.969  16.652  0.0874 -0.1161  0.4438
 9535SOL     OW40237   3.708   2.224   4.006 -0.2750 -0.4751 -0.2236
 9535SOL    HW140238   3.763   2.293   3.968 -0.0865 -0.4041  0.1772
 9535SOL    HW240239   3.702   2.176   3.923  1.4338  1.6148 -1.5524
 9536SOL     OW40240   0.018   2.738   2.558  0.2419  0.0758  0.4776
 9536SOL    HW140241   4.690   2.794   2.515 -0.7152 -1.8820 -0.6070
 9536SOL    HW240242   0.050   2.682   2.487  0.9635 -1.0501  1.6956
 9537SOL     OW40243   2.395   1.294   6.799  0.1811  0.1144 -0.3623
 9537SOL    HW140244   2.360   1.230   6.737  2.6648 -0.8289 -0.7775
 9537SOL    HW240245   2.324   1.357   6.787 -0.2368 -0.3637 -0.4098
 9538SOL     OW40246   3.149   1.512   4.250 -0.1353  0.2611 -0.1411
 9538SOL    HW140247   3.090   1.587   4.258 -2.7802 -1.6683 -1.1116
 9538SOL    HW240248   3.202   1.524   4.171 -0.8042 -0.2466 -0.6714
 9539SOL     OW40249   3.146   1.293   5.221  0.1924  0.1997 -0.2628
 9539SOL    HW140250   3.117   1.376   5.183 -0.3302  0.3109  0.3764
 9539SOL    HW240251   3.065   1.257   5.257  0.7772  0.8920  1.7544
 9540SOL     OW40252   3.695   1.736  17.587  0.0031  0.8823 -0.2979
 9540SOL    HW140253   3.662   1.749  17.498 -1.1524  3.6423  0.5237
 9540SOL    HW240254   3.628   1.691  17.638 -0.8189  0.6550 -1.5815
 9541SOL     OW40255   1.530   0.754   3.881  0.3747 -0.2221  0.1796
 9541SOL    HW140256   1.584   0.701   3.938 -0.4622  0.0275  1.2059
 9541SOL    HW240257   1.496   0.812   3.949  3.5768  1.4466  0.3726
 9542SOL     OW40258   2.426   4.071   9.355  0.3577  0.6730  0.1466
 9542SOL    HW140259   2.423   4.157   9.313  2.2522  0.1929 -0.9680
 9542SOL    HW240260   2.398   4.094   9.444 -1.8356 -0.0060 -0.3688
 9543SOL     OW40261   2.386   2.747   5.420  0.5862  0.1915  0.2022
 9543SOL    HW140262   2.413   2.724   5.331 -0.0616  0.3088 -0.0251
 9543SOL    HW240263   2.405   2.674   5.478 -0.2482 -0.4082 -0.2744
 9544SOL     OW40264   4.221   0.531   8.478 -0.4282 -0.3858 -0.8824
 9544SOL    HW140265   4.222   0.622   8.447 -0.1281 -0.1208 -0.1029
 9544SOL    HW240266   4.144   0.496   8.434 -0.3887 -1.0493 -0.4267
 9545SOL     OW40267   3.333   0.125   7.743  0.6102 -0.6646  0.3217
 9545SOL    HW140268   3.423   0.106   7.716 -0.2636 -0.3453 -2.7675
 9545SOL    HW240269   3.334   0.074   7.825  2.5430 -0.9464  0.1293
 9546SOL     OW40270   0.761   2.521   5.671 -0.1423  0.3770  0.4286
 9546SOL    HW140271   0.829   2.552   5.611  1.0837 -2.3629  0.4078
 9546SOL    HW240272   0.682   2.537   5.619  1.4490  1.2686 -1.7292
 9547SOL     OW40273   3.911   2.133   9.972  0.1935  0.3953  0.0260
 9547SOL    HW140274   3.883   2.224   9.966 -0.6365  0.3414  2.7500
 9547SOL    HW240275   3.903   2.110  10.065  2.1757 -0.0213  0.0846
 9548SOL     OW40276   3.532   0.659   5.189  0.3270  0.7664  0.5212
 9548SOL    HW140277   3.585   0.616   5.121  0.8678  2.4391 -0.1263
 9548SOL    HW240278   3.596   0.708   5.240  1.3398 -1.5827  1.5341
 9549SOL     OW40279   0.319   0.169   4.016  0.3446  0.1490  0.5238
 9549SOL    HW140280   0.271   0.232   4.070 -1.3429 -0.1675 -0.5871
 9549SOL    HW240281   0.382   0.233   3.985  1.1152 -0.0796  1.6399
 9550SOL     OW40282   1.500   2.863   5.488 -0.4294  0.5102 -0.5641
 9550SOL    HW140283   1.570   2.881   5.551 -0.8550  0.5276 -0.1030
 9550SOL    HW240284   1.553   2.807   5.431  1.1978  0.9983  0.4741
 9551SOL     OW40285   2.138   3.012  15.931  0.3936  0.5155 -0.1411
 9551SOL    HW140286   2.096   2.946  15.876 -2.4992  2.0505  0.2354
 9551SOL    HW240287   2.219   2.974  15.965 -0.0166  0.1900  0.4761
 9552SOL     OW40288   3.511   2.619   4.840  0.4247 -0.1831  0.1214
 9552SOL    HW140289   3.498   2.705   4.801 -0.0590 -0.4152 -0.2220
 9552SOL    HW240290   3.566   2.581   4.772 -0.3718  0.3810 -0.8248
 9553SOL     OW40291   0.394   2.541   3.046 -0.0533  0.2368  0.0593
 9553SOL    HW140292   0.475   2.566   3.002  0.0968 -0.1524  0.1169
 9553SOL    HW240293   0.334   2.588   2.989 -0.0307 -0.5378 -0.6001
 9554SOL     OW40294   2.090   0.706  12.039  0.0743 -0.1438  0.2015
 9554SOL    HW140295   2.174   0.678  12.075  0.5704  2.7153  1.2605
 9554SOL    HW240296   2.099   0.716  11.944  1.3810  1.0062  0.4497
 9555SOL     OW40297   2.742   0.402   2.960  0.3829  0.3226  0.3726
 9555SOL    HW140298   2.685   0.360   3.025 -0.0802  0.0857 -0.1822
 9555SOL    HW240299   2.679   0.470   2.936 -0.9741 -1.2657 -0.5486
 9556SOL     OW40300   0.342   1.264   3.314  0.0061 -0.0615  0.3884
 9556SOL    HW140301   0.334   1.171   3.333  2.5540 -0.2878  0.3457
 9556SOL    HW240302   0.254   1.274   3.279  0.3569 -0.9930 -0.7559
 9557SOL     OW40303   0.874   2.902   6.800  0.1394  0.3169  0.1874
 9557SOL    HW140304   0.817   2.825   6.802  1.3332 -0.5902 -0.5255
 9557SOL    HW240305   0.942   2.868   6.741  0.7607 -0.0228  1.1032
 9558SOL     OW40306   2.032   1.882   8.436  0.3096 -0.1079 -0.2043
 9558SOL    HW140307   1.949   1.840   8.414 -0.0032  0.4633 -0.1173
 9558SOL    HW240308   2.086   1.819   8.388 -1.8576 -1.7580 -0.4383
 9559SOL     OW40309   1.641   0.620   4.713  0.1248 -0.0391  0.4044
 9559SOL    HW140310   1.724   0.613   4.761  0.0692  1.7990  0.7670
 9559SOL    HW240311   1.616   0.708   4.743 -0.1225  0.5645 -1.6119
 9560SOL     OW40312   2.221   4.319   1.214 -0.1066  0.0857 -0.6153
 9560SOL    HW140313   2.253   4.336   1.303 -0.0700 -0.8842 -0.4447
 9560SOL    HW240314   2.127   4.326   1.230 -0.1413  1.1644 -1.2919
 9561SOL     OW40315   4.534   2.392   4.133  0.5685 -0.7252  0.6473
 9561SOL    HW140316   4.597   2.450   4.176  0.1073  1.5918 -1.8605
 9561SOL    HW240317   4.489   2.458   4.081  1.1359 -2.4374 -1.9848
 9562SOL     OW40318   0.221   4.480   8.876 -0.2410 -0.2929  0.5157
 9562SOL    HW140319   0.261   4.403   8.915  0.1179  0.7080  2.1009
 9562SOL    HW240320   0.129   4.471   8.901  0.5845  2.5351  4.4807
 9563SOL     OW40321   2.040   3.051   6.138 -0.1066  0.5390 -0.2157
 9563SOL    HW140322   2.130   3.018   6.139  0.1834  1.3034 -1.6589
 9563SOL    HW240323   2.007   2.968   6.104 -0.0789  1.1450 -1.7288
 9564SOL     OW40324   1.196   2.169  11.571 -0.5912 -0.4637  0.5957
 9564SOL    HW140325   1.135   2.127  11.632 -1.2348 -0.5091 -0.0823
 9564SOL    HW240326   1.254   2.104  11.530 -1.2613  0.2735 -1.4983
 9565SOL     OW40327   0.246   2.060   3.508 -0.4339  0.2885  0.1266
 9565SOL    HW140328   0.182   2.024   3.447  0.9473 -1.6518 -0.1681
 9565SOL    HW240329   0.310   2.104   3.453 -1.1644 -0.0769 -1.0158
 9566SOL     OW40330   1.336   2.916   2.712  0.2022  0.0728 -0.0673
 9566SOL    HW140331   1.272   2.939   2.645  0.6302 -3.0203 -1.5677
 9566SOL    HW240332   1.414   2.937   2.660  0.6154  0.4746  0.7088
 9567SOL     OW40333   3.076   4.493   3.109  0.1499  0.2503 -0.8663
 9567SOL    HW140334   3.085   4.399   3.125 -0.3770  0.5558  1.2097
 9567SOL    HW240335   3.163   4.533   3.106  0.0849  0.1854 -3.3636
 9568SOL     OW40336   2.267   4.354   6.912 -0.7037  0.5881  0.5680
 9568SOL    HW140337   2.191   4.302   6.887 -0.4357 -0.6984  2.4193
 9568SOL    HW240338   2.250   4.438   6.871 -0.4274 -0.0979 -0.9645
 9569SOL     OW40339   0.431   0.191  12.494 -0.3087  0.1821 -0.2747
 9569SOL    HW140340   0.367   0.261  12.506  0.0961  0.8136 -1.9685
 9569SOL    HW240341   0.443   0.175  12.588 -1.0434 -1.0504 -0.3857
 9570SOL     OW40342   2.672   4.348   3.309 -0.2478  0.3126 -0.0831
 9570SOL    HW140343   2.645   4.308   3.392  1.7285 -0.8197  0.0235
 9570SOL    HW240344   2.671   4.271   3.252 -0.4333 -0.6874  1.2593
 9571SOL     OW40345   0.330   3.936  17.139  0.1573 -0.3327  0.5408
 9571SOL    HW140346   0.242   3.919  17.106 -0.3072  0.1008  1.5633
 9571SOL    HW240347   0.314   3.986  17.219  0.2210  1.7757 -0.7370
   4.73688   4.73688  17.74591
