Membrane in water
40347
    1TMC1    C1    1   3.433   0.386  11.628 -0.1378 -0.4205  0.5321
    1TMC1    C2    2   3.360   0.350  11.518 -0.0253  0.8941 -0.4535
    1TMC1    C3    3   3.433   0.354  11.398  0.1468  0.2608 -0.4701
    1TMC1    C4    4   3.560   0.427  11.628  0.0862 -0.3166 -0.0192
    1TMC1    C5    5   3.628   0.415  11.509 -0.4983  0.2137  0.4601
    1TMC1    C6    6   3.571   0.387  11.393 -0.2786 -0.6949 -0.7580
    1TMC1     C    7   3.366   0.377  11.754 -0.0988  0.4083  0.2245
    1TMC1     O    8   3.245   0.358  11.749 -0.3580  0.2542 -0.2768
    1TMC1     H    9   3.252   0.340  11.525  0.2069 -0.3631  1.4945
    1TMC1    H1   10   3.618   0.460  11.714  0.3109 -1.2605  0.1858
    1TMC1    H2   11   3.634   0.380  11.305 -0.0767 -0.7579 -0.6067
    1TMC1    C7   12   3.758   0.466  11.497 -0.0747 -0.0701  1.0116
    1TMC1    C8   13   3.357   0.366  11.273  0.3718  0.1413 -0.8687
    1TMC1    O1   14   3.814   0.483  11.388 -0.6260 -0.3296  0.5909
    1TMC1    O2   15   3.410   0.403  11.167 -0.2743  0.3658 -0.2946
    1TMC1    O3   16   3.825   0.421  11.605  0.0485 -0.2363 -0.3847
    1TMC1    H3   17   3.772   0.376  11.673  1.3094  0.2137  0.9004
    1TMC1    O5   18   3.238   0.301  11.279  0.2118  0.0788 -1.1834
    1TMC1    H5   19   3.223   0.255  11.363 -0.8974  1.2997 -0.7135
    2MPD2     C   20   3.319   0.340  12.260  0.0222 -0.0603  0.4354
    2MPD2    C1   21   3.229   0.368  12.159 -0.4171  1.1684  0.3494
    2MPD2    C2   22   3.267   0.393  12.027  0.4000  0.0684 -0.0266
    2MPD2    C3   23   3.401   0.379  12.000 -0.0667  0.1912 -0.0210
    2MPD2    C4   24   3.497   0.360  12.098  0.2126 -0.6826  0.6180
    2MPD2    C5   25   3.452   0.334  12.221 -0.4000  0.3355  0.9343
    2MPD2     H   26   3.188   0.413  11.955 -0.3867 -0.3320  0.7345
    2MPD2    H1   27   3.601   0.351  12.069  0.6183  1.3435  1.4497
    2MPD2    H2   28   3.293   0.306  12.360 -1.9907 -1.2945 -0.5171
    2MPD2    H3   29   3.524   0.287  12.286 -0.2248  0.8015  1.0704
    2MPD2     N   30   3.443   0.378  11.869  0.0943 -0.1960 -0.1145
    2MPD2    H5   31   3.545   0.384  11.868  0.1118 -0.6918 -2.1296
    2MPD2    N1   32   3.084   0.364  12.185 -0.2521  0.0284 -0.3084
    2MPD2    H7   33   3.026   0.396  12.108 -0.1300 -2.0806 -1.3073
    3TMC1    C1   34   2.669   2.124  10.499 -0.3547 -0.0349 -0.3460
    3TMC1    C2   35   2.787   2.192  10.529 -0.0441  0.1001  0.4164
    3TMC1    C3   36   2.881   2.198  10.434 -0.1159 -0.1037  0.5329
    3TMC1    C4   37   2.651   2.054  10.378  0.5224 -0.2285  0.9252
    3TMC1    C5   38   2.753   2.062  10.281  0.8569  0.1487 -0.2144
    3TMC1    C6   39   2.866   2.132  10.311  0.1693 -0.0258  0.3393
    3TMC1     C   40   2.561   2.133  10.589 -0.3012  0.4708 -0.3982
    3TMC1     O   41   2.471   2.056  10.572 -0.0978  0.3336 -0.4429
    3TMC1     H   42   2.800   2.240  10.626  0.8834  1.7895 -0.5379
    3TMC1    H1   43   2.554   2.015  10.349  1.0503 -1.8081  1.2829
    3TMC1    H2   44   2.941   2.149  10.234 -0.6783 -1.0767 -0.7268
    3TMC1    C7   45   2.720   2.046  10.136  0.4064  0.5889  0.9473
    3TMC1    C8   46   3.003   2.276  10.448  0.0548  0.2883  0.0150
    3TMC1    O1   47   2.748   2.135  10.056  0.2264  0.2914  0.0929
    3TMC1    O2   48   3.071   2.307  10.348  0.4728 -0.1235  0.2547
    3TMC1    O3   49   2.620   1.958  10.129 -0.1763  0.2701 -0.5269
    3TMC1    H3   50   2.598   1.896  10.201  2.9501  1.1460  1.1932
    3TMC1    O5   51   3.041   2.283  10.574 -0.6676 -0.8047 -0.0193
    3TMC1    H5   52   3.003   2.218  10.637 -0.2950 -0.7359  0.2761
    4MPD2     C   53   2.301   2.278  10.992  0.1379  0.5135  0.1188
    4MPD2    C1   54   2.362   2.391  10.937 -0.5164 -0.1521  0.8845
    4MPD2    C2   55   2.468   2.370  10.850  1.1403 -0.6279 -0.2035
    4MPD2    C3   56   2.482   2.253  10.789  0.2942 -0.0320 -0.4231
    4MPD2    C4   57   2.414   2.148  10.839 -0.9260  0.2099 -0.6772
    4MPD2    C5   58   2.330   2.154  10.940  0.2101  0.3930 -0.3341
    4MPD2     H   59   2.526   2.452  10.812 -1.6272  0.8734 -1.2046
    4MPD2    H1   60   2.439   2.045  10.814  0.3817  0.6386 -1.0975
    4MPD2    H2   61   2.222   2.293  11.066 -1.9893 -4.9897 -1.0620
    4MPD2    H3   62   2.277   2.066  10.975  0.7947 -0.1344 -0.7781
    4MPD2     N   63   2.571   2.237  10.676 -0.2369  0.0014  0.0757
    4MPD2    H5   64   2.640   2.309  10.656  0.5525 -0.4423  1.2697
    4MPD2    N1   65   2.332   2.521  10.984  0.2950 -0.2319 -0.2156
    4MPD2    H7   66   2.385   2.599  10.947 -1.4314 -0.1458 -2.4943
    5TCq1    O1   67   3.692   4.121  11.640  0.0391 -0.2198 -0.2494
    5TCq1    C1   68   3.638   4.061  11.533  0.2819  0.3397 -0.0481
    5TCq1    O2   69   3.710   4.014  11.447  0.6974 -0.4000 -0.1534
    5TCq1    C2   70   3.493   4.068  11.543 -0.0169 -0.4821  0.5622
    5TCq1    C3   71   3.423   4.028  11.656  0.2502 -0.3076 -0.6079
    5TCq1    C4   72   3.291   4.038  11.645  0.3276 -0.4404  0.0012
    5TCq1    C5   73   3.231   4.088  11.535 -0.0794 -0.1727 -0.1419
    5TCq1    C6   74   3.302   4.125  11.427 -0.7652  0.2662  0.9694
    5TCq1    C7   75   3.439   4.105  11.429  0.5968  0.1253  0.2767
    5TCq1    C8   76   3.229   4.133  11.302  0.1829 -0.2488 -0.6168
    5TCq1    O4   77   3.130   4.067  11.286 -0.0936  0.6662 -0.0146
    5TCq1    C9   78   3.209   4.016  11.764 -0.1417  0.7117  0.8535
    5TCq1    O5   79   3.255   3.944  11.861  0.1345  0.6773 -0.3857
    5TCq1    O6   80   3.089   4.057  11.755 -0.7438 -0.0747 -0.1690
    5TCq1    H1   81   3.622   4.158  11.697  0.4487  0.0096  0.1098
    5TCq1    H2   82   3.468   3.994  11.749  0.6104 -0.2459 -0.7586
    5TCq1    H3   83   3.123   4.088  11.534 -0.0646 -0.4293 -2.2343
    5TCq1    H4   84   3.506   4.113  11.344 -0.5818 -2.1518 -0.8404
    6MPD2     C   85   3.359   4.269  10.998 -0.1603  0.3391  0.4582
    6MPD2    C1   86   3.265   4.196  11.067 -0.5682 -0.0475 -0.5137
    6MPD2    C2   87   3.191   4.098  11.005 -0.1721  0.3896 -0.7718
    6MPD2    C3   88   3.193   4.088  10.869 -0.3549 -0.2778  0.1940
    6MPD2    C4   89   3.276   4.173  10.799 -0.4452 -0.3463  0.4787
    6MPD2    C5   90   3.364   4.257  10.862  0.0575  0.3139 -0.5997
    6MPD2     H   91   3.122   4.034  11.059 -2.2348  1.5172 -2.0706
    6MPD2    H1   92   3.282   4.168  10.691 -0.1420  1.4395  0.4116
    6MPD2    H2   93   3.419   4.344  11.048 -0.6497  2.1410 -1.6714
    6MPD2    H3   94   3.434   4.309  10.798  1.8991 -0.8792  0.4252
    6MPD2     N   95   3.101   4.000  10.813  0.0436  0.3092 -0.3191
    6MPD2    H5   96   3.062   3.933  10.879  0.4493  0.1813 -0.2130
    6MPD2    N1   97   3.289   4.204  11.208 -0.1634  0.0510 -0.1690
    6MPD2    H7   98   3.368   4.255  11.248 -0.2986  0.5799 -0.5753
    7TCq1    O1   99   0.943   3.416  12.666 -0.3284  0.9427 -0.0711
    7TCq1    C1  100   1.031   3.364  12.756 -0.1507  0.3432 -0.2827
    7TCq1    O2  101   1.154   3.373  12.751  0.1551  0.1178 -0.1071
    7TCq1    C2  102   0.947   3.358  12.881  0.2111 -0.0810  0.1930
    7TCq1    C3  103   1.027   3.376  12.988  0.7234 -0.1679 -0.0088
    7TCq1    C4  104   0.986   3.323  13.111 -0.0186 -0.2741  0.2597
    7TCq1    C5  105   0.874   3.247  13.127  0.2625  1.4431  0.1918
    7TCq1    C6  106   0.798   3.226  13.018  0.3896 -0.4166  0.1890
    7TCq1    C7  107   0.831   3.282  12.890 -0.0015  0.6992 -0.2087
    7TCq1    C8  108   0.709   3.116  13.027  0.0683 -0.3747  0.8362
    7TCq1    O4  109   0.657   3.100  13.134  0.1878 -0.5646 -0.1936
    7TCq1    C9  110   1.057   3.358  13.231 -0.1580  0.0473  0.1989
    7TCq1    O5  111   1.001   3.319  13.338  0.8555  0.1976 -0.1308
    7TCq1    O6  112   1.142   3.452  13.215  0.2987  0.7560  0.1335
    7TCq1    H1  113   0.852   3.415  12.702  0.1529 -1.6660  1.0960
    7TCq1    H2  114   1.110   3.446  12.986 -1.2495  2.1649 -0.5532
    7TCq1    H3  115   0.851   3.201  13.223  2.1145 -1.4896 -0.7663
    7TCq1    H4  116   0.764   3.251  12.811 -1.4290  1.1266  0.8329
    8MPD2     C  117   0.495   2.699  12.812  0.1347  0.0446  0.0452
    8MPD2    C1  118   0.475   2.750  12.941  0.2516 -0.5592  0.0302
    8MPD2    C2  119   0.541   2.862  12.980  0.6427  0.1297 -0.3431
    8MPD2    C3  120   0.637   2.913  12.892 -0.1182 -0.0342  0.2091
    8MPD2    C4  121   0.666   2.847  12.775 -1.2703  1.6239  0.6522
    8MPD2    C5  122   0.593   2.739  12.738 -0.0765 -0.9353  0.6633
    8MPD2     H  123   0.531   2.905  13.079 -0.0827 -1.6468  0.3511
    8MPD2    H1  124   0.738   2.880  12.701  0.0712 -0.3691  1.0461
    8MPD2    H2  125   0.444   2.606  12.792 -0.3019  0.0770  1.0007
    8MPD2    H3  126   0.620   2.699  12.640 -1.6987  0.0190 -0.1807
    8MPD2     N  127   0.712   3.035  12.915  0.0070  0.4709  0.5386
    8MPD2    H5  128   0.789   3.047  12.850 -2.3626 -0.8111 -2.4421
    8MPD2    N1  129   0.380   2.683  13.024  0.2371 -0.3789 -0.5578
    8MPD2    H7  130   0.329   2.605  12.984 -1.6060  0.5264 -0.0169
    9TMC1    C1  131   2.884   1.694  10.861 -0.3925  0.0253 -0.3386
    9TMC1    C2  132   2.934   1.766  10.766 -0.5813  0.2744 -0.5715
    9TMC1    C3  133   2.858   1.802  10.663  0.4701 -0.0490 -0.0976
    9TMC1    C4  134   2.749   1.659  10.869 -0.3097 -0.1221  0.5489
    9TMC1    C5  135   2.680   1.704  10.756 -0.1875 -0.1799 -0.2555
    9TMC1    C6  136   2.726   1.768  10.650  0.4151  0.3871  0.6789
    9TMC1     C  137   2.977   1.651  10.962 -0.1471 -0.1876  0.2909
    9TMC1     O  138   3.096   1.659  10.931 -0.5418  0.0459  0.2210
    9TMC1     H  139   3.039   1.791  10.759 -0.6857  0.8318 -0.1683
    9TMC1    H1  140   2.701   1.600  10.946 -2.2005  0.7584  0.0205
    9TMC1    H2  141   2.667   1.810  10.570 -0.3116  0.6974  1.3749
    9TMC1    C7  142   2.541   1.724  10.766 -0.5040 -0.3693  0.8357
    9TMC1    C8  143   2.922   1.850  10.543 -0.2291 -0.2031 -0.0007
    9TMC1    O1  144   2.467   1.724  10.669  0.2231 -0.8371  0.8613
    9TMC1    O2  145   2.924   1.790  10.436 -0.3082  0.1195  0.1443
    9TMC1    O3  146   2.522   1.799  10.875 -0.8619  0.4299 -0.3427
    9TMC1    H3  147   2.596   1.808  10.939  0.1946  3.1149 -1.9255
    9TMC1    O5  148   3.005   1.955  10.576  0.4382 -0.2420  0.1511
    9TMC1    H5  149   2.983   2.008  10.656 -1.6657 -1.1141  0.1453
   10MPD2     C  150   3.131   1.596  11.211  0.2098  0.6597 -0.1150
   10MPD2    C1  151   2.992   1.597  11.204 -0.1007  0.8692 -0.0206
   10MPD2    C2  152   2.926   1.568  11.317  0.3145  0.1018  0.1109
   10MPD2    C3  153   2.989   1.546  11.441 -0.6136  0.3316  0.5180
   10MPD2    C4  154   3.125   1.556  11.443  0.5374 -0.3221  0.6965
   10MPD2    C5  155   3.199   1.577  11.330  0.2332 -0.0043 -0.3688
   10MPD2     H  156   2.819   1.575  11.303  0.2231 -0.3246  0.6469
   10MPD2    H1  157   3.180   1.550  11.537 -1.9126  2.1381  2.2516
   10MPD2    H2  158   3.186   1.626  11.122  1.8103 -1.0390  0.2890
   10MPD2    H3  159   3.306   1.591  11.336  0.2870 -0.5355 -0.0264
   10MPD2     N  160   2.920   1.521  11.560  0.4905  0.5082 -0.2192
   10MPD2    H5  161   2.981   1.516  11.641 -0.9317 -0.9362  0.7639
   10MPD2    N1  162   2.922   1.621  11.084  0.5508  0.5654  0.2599
   10MPD2    H7  163   2.822   1.628  11.096  0.9167  3.0165  1.8714
   11TCq1    O1  164   0.088   2.002  14.799  0.0687  0.3924 -0.6027
   11TCq1    C1  165   0.004   2.046  14.705 -0.4283 -1.2045  0.1476
   11TCq1    O2  166   0.036   2.104  14.598  0.2485  0.2858  0.1166
   11TCq1    C2  167   4.618   1.974  14.725 -0.1878 -0.0191  0.2206
   11TCq1    C3  168   4.622   1.841  14.760  0.5262  0.6230  0.5470
   11TCq1    C4  169   4.502   1.768  14.744 -0.8284  0.4639  0.0282
   11TCq1    C5  170   4.389   1.828  14.687 -0.3008 -0.4951 -0.4829
   11TCq1    C6  171   4.394   1.961  14.657  0.0943  0.3361 -0.1608
   11TCq1    C7  172   4.508   2.035  14.673  0.6550  0.4936  0.4407
   11TCq1    C8  173   4.281   2.023  14.586 -0.5896  0.4497  0.2637
   11TCq1    O4  174   4.265   2.147  14.594 -0.4284  0.0226  0.3673
   11TCq1    C9  175   4.498   1.625  14.777 -0.0190 -0.0377  0.7379
   11TCq1    O5  176   4.602   1.562  14.794  0.4801 -0.6928 -0.4220
   11TCq1    O6  177   4.387   1.572  14.783  0.2568 -0.1972 -0.2809
   11TCq1    H1  178   0.050   1.978  14.886 -0.5587 -1.5434 -1.4064
   11TCq1    H2  179   4.709   1.791  14.801  1.2769 -0.1264 -1.9592
   11TCq1    H3  180   4.306   1.766  14.656  1.2009 -2.0261 -1.4413
   11TCq1    H4  181   4.529   2.130  14.625  1.5023 -0.0490 -0.2701
   12MPD2     C  182   4.019   2.098  14.449  0.3158 -0.0554 -0.2485
   12MPD2    C1  183   4.073   1.970  14.451  0.4934 -0.6545  0.3526
   12MPD2    C2  184   4.003   1.866  14.394  0.0559  0.2615 -0.1367
   12MPD2    C3  185   3.873   1.882  14.342 -0.3432 -0.8539 -0.7367
   12MPD2    C4  186   3.819   2.006  14.355 -0.0930 -0.2511 -0.3448
   12MPD2    C5  187   3.891   2.110  14.399  0.2955 -0.7593  0.4851
   12MPD2     H  188   4.046   1.767  14.409 -1.4370 -0.2130  1.1050
   12MPD2    H1  189   3.716   2.020  14.322 -0.4632  1.5436  1.5584
   12MPD2    H2  190   4.079   2.186  14.468  0.7125 -0.3858  0.0293
   12MPD2    H3  191   3.851   2.210  14.385  1.1186 -0.6589 -1.2063
   12MPD2     N  192   3.795   1.780  14.287 -0.4330 -0.7543 -0.6981
   12MPD2    H5  193   3.701   1.809  14.262 -1.0647 -3.3051 -1.2379
   12MPD2    N1  194   4.195   1.935  14.517  0.0218  0.8979 -0.1925
   12MPD2    H7  195   4.215   1.836  14.517  3.5444  1.6205 -1.3545
   13TCq1    O1  196   3.000   2.594  10.948  0.2038 -0.3080 -0.1352
   13TCq1    C1  197   2.868   2.582  10.936 -0.2540 -0.1267  1.2624
   13TCq1    O2  198   2.784   2.670  10.960 -0.2752  0.5002  0.3631
   13TCq1    C2  199   2.848   2.445  10.972  0.6792  0.2446 -0.4530
   13TCq1    C3  200   2.903   2.336  10.910 -0.7686 -0.2976 -0.2782
   13TCq1    C4  201   2.866   2.207  10.952  0.1898 -0.4225 -0.5404
   13TCq1    C5  202   2.784   2.193  11.059  0.2476  0.5640  0.6855
   13TCq1    C6  203   2.720   2.302  11.113  0.7150  0.6648 -0.3784
   13TCq1    C7  204   2.751   2.428  11.068  0.0723 -0.1199  0.2023
   13TCq1    C8  205   2.640   2.286  11.231 -0.2956  0.5127  0.2429
   13TCq1    O4  206   2.667   2.361  11.320  0.3396  0.2742  0.2579
   13TCq1    C9  207   2.924   2.094  10.893 -0.0715 -0.1663  1.3491
   13TCq1    O5  208   2.973   2.013  10.977 -0.1455 -0.2439 -0.3445
   13TCq1    O6  209   2.942   2.100  10.770 -0.1141 -0.0420 -0.2863
   13TCq1    H1  210   3.040   2.507  10.929 -0.1239 -0.2453 -1.1195
   13TCq1    H2  211   2.968   2.337  10.824  0.0236 -0.4514  0.3162
   13TCq1    H3  212   2.770   2.093  11.099  1.6948 -0.1097 -0.5083
   13TCq1    H4  213   2.711   2.517  11.117  0.3003  0.9332 -1.5137
   14MPD2     C  214   2.390   2.022  11.284 -0.0014  0.2162 -0.0644
   14MPD2    C1  215   2.472   2.130  11.317  0.0640  0.3510  0.6801
   14MPD2    C2  216   2.468   2.192  11.440  0.1773 -0.2305  0.2425
   14MPD2    C3  217   2.396   2.126  11.546  1.1778 -0.3304  0.7787
   14MPD2    C4  218   2.325   2.011  11.522 -0.8722 -0.3219 -0.5540
   14MPD2    C5  219   2.321   1.963  11.392  0.1737 -1.0577 -0.1043
   14MPD2     H  220   2.519   2.285  11.461 -1.5515  1.0343 -1.1367
   14MPD2    H1  221   2.283   1.951  11.602  0.4260 -2.4731 -1.4614
   14MPD2    H2  222   2.396   1.976  11.186  2.9333  0.1398  0.1398
   14MPD2    H3  223   2.284   1.862  11.379 -0.3252 -0.9264  0.2967
   14MPD2     N  224   2.416   2.182  11.677 -0.3601 -0.4299 -1.0348
   14MPD2    H5  225   2.486   2.254  11.692 -0.6811 -0.2997 -0.1664
   14MPD2    N1  226   2.544   2.188  11.211 -0.3782  0.0621 -0.1422
   14MPD2    H7  227   2.546   2.150  11.117 -1.0810  0.7505 -0.4315
   15TCq1    O1  228   0.395   1.196   1.726 -0.2822 -0.3951  0.0207
   15TCq1    C1  229   0.425   1.115   1.621  0.9296 -0.1846 -0.4330
   15TCq1    O2  230   0.343   1.074   1.541 -0.0909 -0.5841 -0.0686
   15TCq1    C2  231   0.552   1.048   1.667 -0.1573 -1.0859 -0.9172
   15TCq1    C3  232   0.651   1.124   1.729  0.3569  0.2947 -0.1279
   15TCq1    C4  233   0.756   1.058   1.781 -0.7576  0.1623  0.0861
   15TCq1    C5  234   0.769   0.921   1.767  0.3292  0.7653  0.8811
   15TCq1    C6  235   0.675   0.849   1.697 -0.9805  0.2345 -0.2423
   15TCq1    C7  236   0.566   0.919   1.641  0.1887 -0.0525  0.5577
   15TCq1    C8  237   0.696   0.704   1.694 -0.8330 -0.2850 -0.3457
   15TCq1    O4  238   0.786   0.644   1.751 -0.4750  0.7435  0.0397
   15TCq1    C9  239   0.850   1.128   1.868 -1.0276 -1.4145 -0.0051
   15TCq1    O5  240   0.934   1.054   1.927 -0.0126  0.3290  0.2604
   15TCq1    O6  241   0.819   1.246   1.895 -0.3655  0.8343 -0.2004
   15TCq1    H1  242   0.472   1.211   1.786 -1.4982  0.6676  1.3072
   15TCq1    H2  243   0.642   1.231   1.744  3.1295  0.4332  0.5563
   15TCq1    H3  244   0.847   0.872   1.826  0.6000 -1.8583 -1.6726
   15TCq1    H4  245   0.478   0.859   1.619  0.0526 -0.1808  1.4406
   16MPD2     C  246   0.451   0.483   1.538  0.1989  0.5135  0.0901
   16MPD2    C1  247   0.574   0.520   1.584  0.3191 -0.1065 -0.5570
   16MPD2    C2  248   0.677   0.434   1.586  0.0229  0.4678  0.1087
   16MPD2    C3  249   0.647   0.301   1.554 -0.1696  0.1828  0.3191
   16MPD2    C4  250   0.521   0.257   1.523 -0.0138 -0.5946 -0.6186
   16MPD2    C5  251   0.424   0.349   1.516  0.1719 -0.2300  0.2887
   16MPD2     H  252   0.779   0.462   1.609 -1.2125  5.0625 -0.1374
   16MPD2    H1  253   0.485   0.156   1.516  0.6123 -0.9872  1.6109
   16MPD2    H2  254   0.371   0.555   1.528 -2.6750 -2.5826  0.8085
   16MPD2    H3  255   0.320   0.333   1.489  0.6709 -3.2640  0.1696
   16MPD2     N  256   0.759   0.215   1.554  0.7727  0.8000  0.3541
   16MPD2    H5  257   0.849   0.262   1.553 -0.0659  2.3933 -0.2746
   16MPD2    N1  258   0.600   0.654   1.612 -0.0365  0.3079  0.7251
   16MPD2    H7  259   0.528   0.723   1.596 -1.5076 -2.0805 -2.9072
   17TMC1    C1  260   2.862   0.481  11.481  0.0717  0.0689  0.2346
   17TMC1    C2  261   2.886   0.364  11.408 -0.2566 -0.5907  0.0817
   17TMC1    C3  262   2.798   0.259  11.419 -0.0966 -0.4105  0.0362
   17TMC1    C4  263   2.755   0.495  11.565 -0.4660 -0.1697  0.4549
   17TMC1    C5  264   2.671   0.382  11.573 -0.4080 -0.1825  0.1954
   17TMC1    C6  265   2.691   0.269  11.503 -0.4718 -0.6644 -0.3539
   17TMC1     C  266   2.975   0.570  11.495  0.6778  0.6907 -0.1387
   17TMC1     O  267   2.980   0.639  11.598  0.2696 -0.5568 -0.1706
   17TMC1     H  268   2.964   0.346  11.335  0.9378 -0.3811  1.2860
   17TMC1    H1  269   2.746   0.585  11.625 -0.9850  1.3423 -1.8910
   17TMC1    H2  270   2.624   0.187  11.521  0.5684 -1.4660 -0.1146
   17TMC1    C7  271   2.584   0.374  11.687  0.5008  0.0213 -0.2897
   17TMC1    C8  272   2.819   0.142  11.340  0.0804  1.1122  0.3386
   17TMC1    O1  273   2.540   0.268  11.725  0.5717  0.9095  0.1945
   17TMC1    O2  274   2.925   0.078  11.326  0.0743 -0.2013  0.0271
   17TMC1    O3  275   2.504   0.487  11.680 -0.9104 -0.0920  0.0202
   17TMC1    H3  276   2.543   0.567  11.637  0.2409 -0.2181  0.8291
   17TMC1    O5  277   2.695   0.085  11.311  0.4674 -0.5630  0.2678
   17TMC1    H5  278   2.631   0.158  11.298  0.2356 -0.3556  2.5264
   18MPD2     C  279   3.211   0.756  11.481 -0.5551 -0.2743 -0.1653
   18MPD2    C1  280   3.169   0.670  11.378 -0.0313  0.8671  0.0302
   18MPD2    C2  281   3.226   0.684  11.256  0.6952 -0.3423 -0.4474
   18MPD2    C3  282   3.325   0.779  11.229 -0.5177 -0.2190  0.4646
   18MPD2    C4  283   3.372   0.857  11.337 -0.1517 -0.9802 -0.1067
   18MPD2    C5  284   3.318   0.840  11.463  0.4431 -0.2235 -0.2146
   18MPD2     H  285   3.185   0.627  11.174  1.6190 -2.8615  0.8719
   18MPD2    H1  286   3.448   0.934  11.336 -1.1908  0.0524 -0.0868
   18MPD2    H2  287   3.160   0.761  11.576  0.5360 -1.5191  0.4798
   18MPD2    H3  288   3.354   0.911  11.537 -1.9499 -1.3009  1.9879
   18MPD2     N  289   3.383   0.813  11.106  1.0120 -0.3679  1.1849
   18MPD2    H5  290   3.450   0.889  11.113  0.9493 -0.1514 -0.5264
   18MPD2    N1  291   3.056   0.583  11.385  0.3415 -0.0337 -0.7842
   18MPD2    H7  292   3.051   0.532  11.298  0.2838  0.0743 -0.8442
   19TMC2    C1  293   0.352   1.576  13.422  0.0263  0.5757 -0.4600
   19TMC2    C2  294   0.310   1.698  13.381  0.6193  0.4388 -0.2143
   19TMC2    C3  295   0.194   1.751  13.435  0.2839  0.1833  0.0517
   19TMC2    C4  296   0.263   1.482  13.478  0.2735  0.2651 -0.5039
   19TMC2    C5  297   0.144   1.534  13.530 -0.1554 -0.8502 -0.1084
   19TMC2    C6  298   0.110   1.674  13.515 -0.7686 -0.5568 -0.0153
   19TMC2     C  299   0.490   1.581  13.463 -0.6064 -0.7148  0.9359
   19TMC2     O  300   0.559   1.683  13.468  0.4326 -0.3948 -0.1400
   19TMC2     H  301   0.382   1.769  13.343  0.4480  1.1948  0.8690
   19TMC2    H1  302   0.281   1.376  13.493 -2.8167 -0.0934  0.6644
   19TMC2    H2  303   0.022   1.719  13.558 -0.4989 -0.5838  0.5815
   19TMC2    C7  304   0.086   1.459  13.637  0.4712 -0.1900  0.5678
   19TMC2    C8  305   0.189   1.886  13.484 -0.0593 -0.1769 -0.2692
   19TMC2    O1  306   0.121   1.340  13.650 -0.7507  0.2458  0.0077
   19TMC2    O2  307   0.150   1.911  13.598 -0.2553 -0.6562  0.4104
   19TMC2    O5  308   0.263   1.978  13.413 -0.1742  1.5704 -0.6163
   19TMC2    H5  309   0.251   1.953  13.319 -1.4973  2.2792 -0.6317
   20MPD2     C  310   0.766   1.525  13.557  0.1677  0.0255 -0.2715
   20MPD2    C1  311   0.654   1.461  13.602  0.3524  0.8028  0.2559
   20MPD2    C2  312   0.649   1.394  13.726 -0.5404 -0.0698 -0.1387
   20MPD2    C3  313   0.769   1.384  13.801  0.5614 -0.0321  0.1155
   20MPD2    C4  314   0.879   1.447  13.752 -0.5738  0.9839  0.5960
   20MPD2    C5  315   0.872   1.523  13.638 -0.8245 -0.2699 -0.4997
   20MPD2     H  316   0.558   1.358  13.773  0.0150 -0.7456  0.4127
   20MPD2    H1  317   0.969   1.454  13.812 -1.7445 -0.7700  2.5225
   20MPD2    H2  318   0.760   1.581  13.464  0.3459  0.7964  0.1838
   20MPD2    H3  319   0.953   1.591  13.614 -1.0977 -0.6099 -2.4053
   20MPD2     N  320   0.783   1.319  13.924 -0.7096  0.0533 -0.0731
   20MPD2    H5  321   0.867   1.352  13.971 -1.6156  1.9564  0.1935
   20MPD2    N1  322   0.527   1.471  13.534 -0.4724  0.3172 -0.6111
   20MPD2    H7  323   0.455   1.404  13.562  0.0371 -0.3574 -0.9045
   21TMC2    C1  324   2.089   1.924  14.966 -0.1247 -0.7106 -0.0953
   21TMC2    C2  325   2.109   1.799  15.030 -0.1747  0.7850 -0.1717
   21TMC2    C3  326   2.005   1.736  15.093 -0.1959  0.0033 -0.2625
   21TMC2    C4  327   1.967   1.991  14.972  0.2372  0.3581 -0.4958
   21TMC2    C5  328   1.863   1.923  15.035 -0.1868 -0.0688 -0.8705
   21TMC2    C6  329   1.878   1.793  15.092 -0.0318  0.2754 -0.3794
   21TMC2     C  330   2.214   1.992  14.928  0.2632  0.2377 -0.4927
   21TMC2     O  331   2.320   1.943  14.946  0.6257 -0.7703 -0.0312
   21TMC2     H  332   2.211   1.764  15.042  0.1960  2.3428  1.2567
   21TMC2    H1  333   1.953   2.093  14.938 -1.3299  0.0586 -0.7795
   21TMC2    H2  334   1.788   1.737  15.116 -0.0893 -0.3824 -2.1359
   21TMC2    C7  335   1.729   1.964  15.009  0.2922  0.5651 -0.7233
   21TMC2    C8  336   2.044   1.629  15.184  0.6752  0.5713  0.1027
   21TMC2    O1  337   1.646   1.897  15.063 -0.2320  0.0381 -0.0629
   21TMC2    O2  338   2.141   1.560  15.156  0.2493 -0.0739 -0.2939
   21TMC2    O5  339   1.939   1.609  15.260  0.8007  0.2775 -0.0739
   21TMC2    H5  340   1.879   1.686  15.266  0.0407 -0.3161 -0.0621
   22MPD2     C  341   2.478   2.336  14.652 -0.6019 -0.0345  0.2933
   22MPD2    C1  342   2.510   2.207  14.686  0.1258 -0.2972  0.2052
   22MPD2    C2  343   2.422   2.135  14.758  0.6817 -0.1069 -0.2480
   22MPD2    C3  344   2.294   2.183  14.783  0.1536  0.5734  0.8178
   22MPD2    C4  345   2.261   2.308  14.735 -0.4276  0.2998 -0.1257
   22MPD2    C5  346   2.353   2.390  14.680 -0.5636  0.2151  0.1643
   22MPD2     H  347   2.453   2.037  14.792  1.4024 -0.5842 -2.3345
   22MPD2    H1  348   2.165   2.351  14.764  0.6489  1.5044  1.6327
   22MPD2    H2  349   2.544   2.389  14.584 -0.7072  0.3660  0.5043
   22MPD2    H3  350   2.335   2.495  14.659 -3.0726 -0.3527 -0.5499
   22MPD2     N  351   2.196   2.111  14.854  0.3526 -0.0352  0.4803
   22MPD2    H5  352   2.108   2.155  14.831  0.4318 -0.1993 -0.1305
   22MPD2    N1  353   2.635   2.150  14.649  0.2677  0.8108  0.1237
   22MPD2    H7  354   2.649   2.050  14.663  0.2703  0.8898  0.6700
   23TMC2    C1  355   3.619   3.187  14.672 -0.6207  0.3885 -0.8560
   23TMC2    C2  356   3.566   3.289  14.757  0.5524 -0.1537  0.6023
   23TMC2    C3  357   3.441   3.320  14.732 -0.2918  0.1210 -0.0560
   23TMC2    C4  358   3.539   3.113  14.591  0.1995 -0.0686  0.1194
   23TMC2    C5  359   3.410   3.152  14.572 -0.1287  0.8868 -0.4937
   23TMC2    C6  360   3.358   3.260  14.638  0.5089 -0.6754 -0.4853
   23TMC2     C  361   3.740   3.125  14.717  0.4323 -0.0013 -0.2520
   23TMC2     O  362   3.773   3.144  14.832  0.1025 -1.0399 -0.1013
   23TMC2     H  363   3.626   3.347  14.825  1.7675 -0.0739 -0.5264
   23TMC2    H1  364   3.575   3.018  14.553 -0.5121 -0.5317  0.6042
   23TMC2    H2  365   3.254   3.289  14.623  0.2760 -0.6396  1.2982
   23TMC2    C7  366   3.336   3.082  14.467  0.2693  1.0433  0.6514
   23TMC2    C8  367   3.385   3.440  14.797  0.8216 -0.2415 -0.3178
   23TMC2    O1  368   3.383   2.969  14.439  0.2411 -0.0649  0.6192
   23TMC2    O2  369   3.287   3.491  14.741  0.4340  0.2666 -0.0602
   23TMC2    O5  370   3.407   3.439  14.934 -0.4136  0.0502 -0.4803
   23TMC2    H5  371   3.483   3.388  14.970 -2.1331 -3.5670 -1.9134
   24MPD2     C  372   4.153   2.839  14.666  0.4543  0.2026  0.3382
   24MPD2    C1  373   4.074   2.860  14.773  0.0716 -0.1831  0.1115
   24MPD2    C2  374   3.971   2.946  14.763 -0.2945  0.3822 -0.3088
   24MPD2    C3  375   3.931   2.988  14.642  0.0364 -0.9305 -0.2017
   24MPD2    C4  376   4.007   2.959  14.530 -0.4348 -0.6182  0.0589
   24MPD2    C5  377   4.121   2.899  14.546  0.1090 -1.0115 -0.1488
   24MPD2     H  378   3.895   2.956  14.840 -3.4980 -2.2280 -3.1170
   24MPD2    H1  379   3.975   2.987  14.431  3.8032  0.8319 -0.8758
   24MPD2    H2  380   4.241   2.776  14.660  0.1910 -0.2519  1.2556
   24MPD2    H3  381   4.193   2.884  14.466  2.0479 -1.5096  1.6694
   24MPD2     N  382   3.808   3.065  14.619 -0.3027  0.1508  0.1236
   24MPD2    H5  383   3.782   3.091  14.524 -1.4372 -4.3029 -0.7969
   24MPD2    N1  384   4.118   2.807  14.899  0.2432 -0.4826  0.4264
   24MPD2    H7  385   4.070   2.843  14.981  1.8615  1.8179  0.3466
   25TMC2    C1  386   1.993   0.233  11.792 -0.3324 -0.3078  0.2452
   25TMC2    C2  387   1.896   0.286  11.708  0.0385  0.0708  0.3419
   25TMC2    C3  388   1.792   0.363  11.750  0.4876 -0.1049  0.2078
   25TMC2    C4  389   1.987   0.263  11.926  0.0572 -0.3574  0.2950
   25TMC2    C5  390   1.885   0.343  11.965 -0.4122 -0.1210 -0.9753
   25TMC2    C6  391   1.799   0.402  11.877  0.2672  0.1130 -0.1557
   25TMC2     C  392   2.108   0.154  11.744  0.1645  0.0198 -0.0770
   25TMC2     O  393   2.202   0.152  11.821 -0.5183 -0.4783 -0.0820
   25TMC2     H  394   1.904   0.267  11.601  0.7244 -0.2197  0.4460
   25TMC2    H1  395   2.056   0.234  12.004 -0.9139 -0.9310  0.9549
   25TMC2    H2  396   1.729   0.474  11.918  1.1595  1.0272 -0.2412
   25TMC2    C7  397   1.896   0.387  12.111  0.3420  0.4923  0.2232
   25TMC2    C8  398   1.722   0.437  11.643 -0.3066  0.2156  0.1737
   25TMC2    O1  399   1.940   0.304  12.187  1.0346  0.1454 -0.4627
   25TMC2    O2  400   1.707   0.392  11.532  0.3945 -0.2256  0.3607
   25TMC2    O5  401   1.704   0.569  11.675  0.1539 -0.1293  0.1763
   25TMC2    H5  402   1.749   0.606  11.754 -0.0650 -0.0797  0.2798
   26MPD2     C  403   2.413   4.669  11.394 -0.2520  0.7114 -0.2842
   26MPD2    C1  404   2.280   4.663  11.350 -0.0439 -0.3139  0.3341
   26MPD2    C2  405   2.174   4.727  11.416  0.4772  0.5151  0.0096
   26MPD2    C3  406   2.207   0.051  11.536 -0.6245 -0.1275 -0.0008
   26MPD2    C4  407   2.336   0.045  11.582  0.3964  0.0905 -0.0131
   26MPD2    C5  408   2.440   4.725  11.512  0.2284  0.9250 -0.2229
   26MPD2     H  409   2.070   4.712  11.392 -0.8008  2.7045  4.1185
   26MPD2    H1  410   2.358   0.088  11.679 -1.7810 -0.3469  0.6731
   26MPD2    H2  411   2.501   4.623  11.350  0.0426  0.7799  0.2380
   26MPD2    H3  412   2.541   4.721  11.549  0.3890  0.4658 -0.7003
   26MPD2     N  413   2.099   0.101  11.617  0.1898 -0.0995  0.1368
   26MPD2    H5  414   2.007   0.101  11.575  0.8087  0.3546 -1.2230
   26MPD2    N1  415   2.259   4.589  11.233  0.1309  0.0994  0.0428
   26MPD2    H7  416   2.333   4.527  11.201  0.1122 -1.9528  3.9626
   27TMC2    C1  417   1.677   2.630  12.068  0.4595  0.8297  0.1054
   27TMC2    C2  418   1.794   2.590  12.009  0.3232 -0.9299  0.6262
   27TMC2    C3  419   1.900   2.618  12.074  0.2740 -0.2613 -0.8416
   27TMC2    C4  420   1.664   2.710  12.178 -0.2086 -0.2361  0.5143
   27TMC2    C5  421   1.779   2.737  12.245 -0.5943  0.2738 -0.3164
   27TMC2    C6  422   1.893   2.676  12.197 -0.4246 -0.5626 -0.0332
   27TMC2     C  423   1.567   2.590  11.990  0.1240 -0.0169  1.0667
   27TMC2     O  424   1.574   2.614  11.872  0.4234 -0.0454  0.3733
   27TMC2     H  425   1.789   2.536  11.915 -1.7274  1.1951 -0.4749
   27TMC2    H1  426   1.573   2.733  12.233  1.6523  1.1494  3.0429
   27TMC2    H2  427   1.992   2.686  12.241 -0.2950 -0.9097 -0.2442
   27TMC2    C7  428   1.790   2.811  12.369  0.5263 -0.3836 -0.0976
   27TMC2    C8  429   2.007   2.519  12.064 -0.4857 -1.2648  0.5458
   27TMC2    O1  430   1.688   2.821  12.440  0.6619  0.1974  0.2980
   27TMC2    O2  431   2.053   2.460  12.162  0.0212 -0.1973  0.0702
   27TMC2    O5  432   2.023   2.473  11.939  0.5725 -0.1934  0.1816
   27TMC2    H5  433   2.010   2.542  11.871  2.6289 -1.9713 -2.0216
   28MPD2     C  434   1.056   2.558  11.987 -0.2705  0.1706 -0.7256
   28MPD2    C1  435   1.106   2.513  12.111 -0.6545  0.0216 -0.4621
   28MPD2    C2  436   1.242   2.512  12.135  0.0439  0.3070  0.2104
   28MPD2    C3  437   1.332   2.555  12.040  0.3792  0.2110  0.0505
   28MPD2    C4  438   1.284   2.594  11.922 -0.7479 -0.7384 -0.0326
   28MPD2    C5  439   1.147   2.605  11.897  0.5392 -0.6211  0.1463
   28MPD2     H  440   1.273   2.477  12.233 -0.2747 -0.5899 -0.0097
   28MPD2    H1  441   1.352   2.616  11.840 -0.5797  1.2409  0.6549
   28MPD2    H2  442   0.952   2.555  11.956  0.2857  0.6919 -2.6884
   28MPD2    H3  443   1.109   2.653  11.808 -1.5048 -1.2889  0.6531
   28MPD2     N  444   1.469   2.554  12.074 -0.0814  0.0275 -0.2922
   28MPD2    H5  445   1.492   2.528  12.170 -0.1799 -0.1911 -0.3279
   28MPD2    N1  446   1.004   2.463  12.199  0.4452  0.8020 -1.0502
   28MPD2    H7  447   0.908   2.452  12.165  1.2226  1.5109 -3.4207
   29TMC2    C1  448   1.230   0.307  14.317 -0.6012  0.2234  0.0815
   29TMC2    C2  449   1.366   0.306  14.318  1.2144 -0.7070 -0.4391
   29TMC2    C3  450   1.435   0.385  14.405  0.4738  0.5518  0.1472
   29TMC2    C4  451   1.159   0.398  14.388  0.5442  0.0336 -0.3217
   29TMC2    C5  452   1.239   0.476  14.475 -0.0868  0.5434 -0.1756
   29TMC2    C6  453   1.379   0.475  14.483  0.2558  0.0833 -0.3151
   29TMC2     C  454   1.171   0.193  14.250 -0.1196  0.0813  0.2919
   29TMC2     O  455   1.239   0.138  14.164 -0.3079 -0.2519 -0.0535
   29TMC2     H  456   1.422   0.218  14.286  0.1422 -1.8084  0.7073
   29TMC2    H1  457   1.052   0.395  14.375  0.4626  0.6134  0.2369
   29TMC2    H2  458   1.445   0.538  14.541 -0.4145 -0.4542  1.0419
   29TMC2    C7  459   1.164   0.571  14.556  0.4323 -0.5574  0.1490
   29TMC2    C8  460   1.579   0.382  14.409 -0.1961  0.6107 -0.6943
   29TMC2    O1  461   1.041   0.568  14.540 -0.1635  0.2721  0.1474
   29TMC2    O2  462   1.643   0.414  14.510 -0.1922 -0.4376  0.0023
   29TMC2    O5  463   1.626   0.387  14.276  0.1302  0.3420  0.0050
   29TMC2    H5  464   1.562   0.380  14.203 -0.0680  0.4080  0.1737
   30MPD2     C  465   0.899   4.496  14.254  0.8251  0.9417  0.3188
   30MPD2    C1  466   0.995   4.538  14.158 -0.3047  0.9293 -0.0424
   30MPD2    C2  467   1.045   4.672  14.172 -0.2502 -0.2618 -0.2296
   30MPD2    C3  468   1.003   0.021  14.274  0.4677 -0.2989  0.0005
   30MPD2    C4  469   0.906   4.711  14.361 -0.5469  0.5070  0.7340
   30MPD2    C5  470   0.853   4.584  14.345 -0.2933  0.6059 -0.4581
   30MPD2     H  471   1.122   4.707  14.104  1.6477 -1.3911  1.3227
   30MPD2    H1  472   0.857   0.034  14.438 -2.4711  0.4337 -0.4327
   30MPD2    H2  473   0.858   4.397  14.268 -0.4649  1.9196  3.5313
   30MPD2    H3  474   0.785   4.546  14.421  1.3594  0.1308  0.7875
   30MPD2     N  475   1.054   0.147  14.312 -0.3904 -0.3378  0.0172
   30MPD2    H5  476   1.011   0.197  14.389  1.2961  0.6964  0.2731
   30MPD2    N1  477   1.054   4.455  14.058 -0.3675  0.4216 -0.4702
   30MPD2    H7  478   1.134   4.493  14.008  1.4184 -3.8531 -0.7836
   31TMC2    C1  479   3.410   3.600  15.433  0.4264 -0.4017  0.5009
   31TMC2    C2  480   3.291   3.656  15.468 -0.5006 -0.1170 -0.3743
   31TMC2    C3  481   3.263   3.659  15.603  0.4032  1.0678  0.5906
   31TMC2    C4  482   3.498   3.542  15.527 -0.0719  0.3190 -0.2319
   31TMC2    C5  483   3.460   3.556  15.653  0.2022 -0.1994 -0.6203
   31TMC2    C6  484   3.348   3.612  15.701  0.1603  0.2350  0.3485
   31TMC2     C  485   3.453   3.639  15.304 -0.2258 -1.1629  0.9763
   31TMC2     O  486   3.364   3.668  15.225 -0.3226 -0.1172  0.1119
   31TMC2     H  487   3.227   3.710  15.400 -0.2550  2.0066  1.0692
   31TMC2    H1  488   3.596   3.500  15.510 -0.1590  0.6571 -1.6044
   31TMC2    H2  489   3.314   3.621  15.804 -0.8030  2.3049 -0.1446
   31TMC2    C7  490   3.556   3.530  15.759 -0.0844  0.5378  0.2743
   31TMC2    C8  491   3.132   3.717  15.649 -0.0198 -0.4422  0.1045
   31TMC2    O1  492   3.650   3.452  15.747 -0.4883 -0.8977  0.0409
   31TMC2    O2  493   3.083   3.651  15.733 -0.1773  0.8707  0.1109
   31TMC2    O5  494   3.167   3.844  15.662  0.0852 -0.0182  0.0847
   31TMC2    H5  495   3.188   3.876  15.571  0.5919 -1.7024 -0.3927
   32MPD2     C  496   3.776   3.725  14.926 -0.8338 -0.5035  0.0796
   32MPD2    C1  497   3.646   3.755  14.929 -0.0017 -0.1374  0.2172
   32MPD2    C2  498   3.580   3.724  15.051 -0.1374  0.4904 -0.0588
   32MPD2    C3  499   3.646   3.668  15.158  0.7753 -0.1549  0.4448
   32MPD2    C4  500   3.778   3.642  15.145 -0.5738  0.0300 -0.2050
   32MPD2    C5  501   3.845   3.661  15.027 -0.1967  0.2800  0.1239
   32MPD2     H  502   3.483   3.771  15.056 -0.6447 -0.7074  1.2139
   32MPD2    H1  503   3.829   3.584  15.221 -0.4657  1.2884  0.6708
   32MPD2    H2  504   3.825   3.759  14.835  0.1033  1.1867  1.2113
   32MPD2    H3  505   3.946   3.622  15.022 -0.8621 -1.2498 -1.3379
   32MPD2     N  506   3.586   3.635  15.284  0.1150 -0.5684 -0.5015
   32MPD2    H5  507   3.651   3.618  15.360  0.1870  2.8403  0.1657
   32MPD2    N1  508   3.587   3.822  14.820  0.1829 -0.2948 -0.0597
   32MPD2    H7  509   3.648   3.845  14.743 -0.4989  1.6752 -0.0278
   33TMC2    C1  510   3.738   1.744  10.658  0.2006  0.0561 -0.9036
   33TMC2    C2  511   3.760   1.766  10.794 -0.5590 -0.1445  0.7369
   33TMC2    C3  512   3.814   1.888  10.828 -0.1747  0.2895  0.6864
   33TMC2    C4  513   3.745   1.846  10.562 -0.0254  0.7110  0.4589
   33TMC2    C5  514   3.809   1.958  10.602  0.6699  0.2603  0.1600
   33TMC2    C6  515   3.845   1.979  10.735  0.4323  0.2315 -0.0852
   33TMC2     C  516   3.668   1.612  10.643  0.0369  0.3649 -0.1629
   33TMC2     O  517   3.671   1.532  10.739 -0.1273  0.5977  0.1779
   33TMC2     H  518   3.713   1.705  10.871  0.5613 -3.3774 -1.1701
   33TMC2    H1  519   3.726   1.820  10.459  0.4726 -0.9819  0.7875
   33TMC2    H2  520   3.888   2.074  10.766 -0.3497 -0.6209  3.5251
   33TMC2    C7  521   3.845   2.055  10.511  0.3312  0.1235 -0.0386
   33TMC2    C8  522   3.843   1.919  10.961  0.1891 -1.3403  0.0180
   33TMC2    O1  523   3.925   2.141  10.549 -0.3426 -0.3525  0.3671
   33TMC2    O2  524   3.845   1.825  11.037  0.2455 -0.0808  0.0121
   33TMC2    O5  525   3.801   2.041  10.993 -0.4898 -0.4517  0.0820
   33TMC2    H5  526   3.769   2.088  10.913  1.2477 -3.1156 -2.1947
   34MPD2     C  527   3.399   1.269  10.388  0.0912  0.4458  0.9689
   34MPD2    C1  528   3.460   1.261  10.512  0.2511  0.8089  0.3160
   34MPD2    C2  529   3.526   1.372  10.564  0.1175  0.2449  0.3131
   34MPD2    C3  530   3.543   1.480  10.479  0.0849 -0.3987 -0.0409
   34MPD2    C4  531   3.486   1.489  10.353  0.2493  0.0450  0.0345
   34MPD2    C5  532   3.407   1.384  10.308 -0.4984  0.1974  0.7615
   34MPD2     H  533   3.574   1.347  10.657  2.6509  0.2573 -0.9765
   34MPD2    H1  534   3.504   1.574  10.288 -1.5936 -0.8964 -1.6968
   34MPD2    H2  535   3.342   1.188  10.343 -0.5475  1.4459 -0.0077
   34MPD2    H3  536   3.355   1.392  10.213  0.3736 -2.7883  0.0053
   34MPD2     N  537   3.618   1.589  10.514 -0.3647  0.0823 -0.2096
   34MPD2    H5  538   3.620   1.667  10.450  5.9779 -0.5625 -0.7622
   34MPD2    N1  539   3.443   1.137  10.572 -0.3659 -0.0242  0.5822
   34MPD2    H7  540   3.395   1.067  10.516  0.6584  1.3899 -2.1184
   35TMC2    C1  541   4.264   2.412  11.050  0.6668 -0.0205 -0.0730
   35TMC2    C2  542   4.287   2.301  10.972 -0.5118 -0.3212 -0.4553
   35TMC2    C3  543   4.198   2.194  10.982  0.6391  0.3047  0.9965
   35TMC2    C4  544   4.163   2.413  11.139 -0.2161  0.1569 -0.1022
   35TMC2    C5  545   4.077   2.308  11.139  0.0895 -0.1534 -0.2440
   35TMC2    C6  546   4.093   2.193  11.069 -0.2764  0.4257 -0.4377
   35TMC2     C  547   4.377   2.498  11.065  1.1518 -1.1814  0.1537
   35TMC2     O  548   4.464   2.487  10.982  0.0517  0.0656 -0.6041
   35TMC2     H  549   4.369   2.299  10.901  0.2767 -3.0480  0.5332
   35TMC2    H1  550   4.154   2.500  11.203  0.5632 -0.5774  1.0056
   35TMC2    H2  551   4.023   2.110  11.066 -0.1226  0.2020  2.3079
   35TMC2    C7  552   3.991   2.303  11.251 -0.6286  0.2850  0.8802
   35TMC2    C8  553   4.198   2.111  10.867 -0.3323 -0.1747 -0.1394
   35TMC2    O1  554   4.002   2.388  11.341 -0.1574 -0.7640  1.0082
   35TMC2    O2  555   4.145   2.000  10.858 -0.0972  0.5278 -1.0376
   35TMC2    O5  556   4.172   2.212  10.777  0.3141 -0.5580 -0.1825
   35TMC2    H5  557   4.200   2.305  10.791 -1.5209 -0.0733  0.3524
   36MPD2     C  558   4.658   2.878  11.256  0.0621 -0.3565  0.5757
   36MPD2    C1  559   4.628   2.786  11.360  0.8381 -0.3149 -0.1752
   36MPD2    C2  560   4.528   2.696  11.338  0.8134  0.5124 -0.3859
   36MPD2    C3  561   4.481   2.670  11.208 -0.5075  0.4038 -0.1707
   36MPD2    C4  562   4.520   2.753  11.110 -0.2324  0.4387  0.2725
   36MPD2    C5  563   4.595   2.864  11.136  0.0829  0.2305 -0.2155
   36MPD2     H  564   4.494   2.639  11.424 -1.0046 -0.0824 -1.5153
   36MPD2    H1  565   4.477   2.743  11.011 -3.5166 -0.3325  1.7611
   36MPD2    H2  566   4.729   2.958  11.268 -1.4168  1.0665 -0.0880
   36MPD2    H3  567   4.604   2.943  11.062 -1.7780 -1.7354 -2.5479
   36MPD2     N  568   4.389   2.564  11.187  0.3406  0.0090 -0.3164
   36MPD2    H5  569   4.340   2.532  11.270 -0.4810  0.3570 -0.6665
   36MPD2    N1  570   4.700   2.785  11.482  0.1187 -0.3594 -0.0449
   36MPD2    H7  571   0.044   2.847  11.483  0.5116 -0.8435 -2.8935
   37TMC2    C1  572   2.233   3.564  11.592 -0.2449  0.4478  0.2319
   37TMC2    C2  573   2.125   3.582  11.499 -0.3405  0.7674 -0.0813
   37TMC2    C3  574   2.155   3.640  11.376  0.4074  0.0332 -0.1049
   37TMC2    C4  575   2.366   3.585  11.566  0.1655 -0.2709 -0.5498
   37TMC2    C5  576   2.380   3.654  11.442 -0.5096 -0.1596 -0.1707
   37TMC2    C6  577   2.281   3.679  11.353 -0.4381 -0.0650 -0.2544
   37TMC2     C  578   2.199   3.489  11.716  0.7450 -0.0544 -0.2253
   37TMC2     O  579   2.079   3.481  11.739  0.0717 -0.7266 -0.1751
   37TMC2     H  580   2.022   3.568  11.531 -0.4094  0.8579 -0.2681
   37TMC2    H1  581   2.446   3.579  11.639 -1.4020  2.3789  1.3650
   37TMC2    H2  582   2.298   3.718  11.254  0.5094 -0.0919 -0.1048
   37TMC2    C7  583   2.524   3.652  11.393 -0.1190  0.2317  0.2324
   37TMC2    C8  584   2.046   3.687  11.296 -0.2826  0.6870 -0.4509
   37TMC2    O1  585   2.605   3.609  11.472  0.2926 -0.1044 -0.2803
   37TMC2    O2  586   2.059   3.765  11.199  0.2613  0.1954 -0.0549
   37TMC2    O5  587   1.966   3.574  11.282  0.3958  0.0578  0.0570
   37TMC2    H5  588   1.969   3.509  11.355 -1.2696  1.1913  1.1569
   38MPD2     C  589   2.256   3.181  12.110  0.3590 -0.0360  0.0197
   38MPD2    C1  590   2.377   3.168  12.041  0.5621 -0.0198 -0.2032
   38MPD2    C2  591   2.399   3.254  11.927  0.1360  0.1632  0.3806
   38MPD2    C3  592   2.303   3.348  11.892 -0.4842 -0.1052  0.6170
   38MPD2    C4  593   2.197   3.376  11.979  0.2142 -0.2507 -0.2238
   38MPD2    C5  594   2.174   3.290  12.087 -0.0200  0.4899 -1.0625
   38MPD2     H  595   2.476   3.229  11.856 -0.4522 -0.7417  0.0644
   38MPD2    H1  596   2.134   3.463  11.963  0.5196 -0.1141 -0.6560
   38MPD2    H2  597   2.237   3.118  12.196 -0.4021  1.3219  0.8436
   38MPD2    H3  598   2.089   3.317  12.149  0.3457  0.4265 -0.5325
   38MPD2     N  599   2.309   3.423  11.774  0.3087  0.2285 -0.0080
   38MPD2    H5  600   2.395   3.419  11.721 -0.2397 -2.9144 -0.6491
   38MPD2    N1  601   2.477   3.071  12.066  0.3472  0.1102 -0.3926
   38MPD2    H7  602   2.561   3.073  12.008  0.4192 -0.3905 -0.3098
   39TMC2    C1  603   1.112   0.240   1.959 -0.2506  0.2502 -0.2458
   39TMC2    C2  604   1.025   0.323   2.017 -0.0896  0.2981  0.7337
   39TMC2    C3  605   1.075   0.449   2.051 -0.2145 -0.8833  0.8728
   39TMC2    C4  606   1.247   0.262   1.935  0.2866  0.1342  0.5328
   39TMC2    C5  607   1.289   0.387   1.977 -0.1348  0.0649 -0.6064
   39TMC2    C6  608   1.206   0.482   2.037 -0.2632 -0.3047 -0.6266
   39TMC2     C  609   1.058   0.120   1.891 -0.3569  1.0549 -0.1156
   39TMC2     O  610   0.944   0.141   1.854 -0.4748  0.0974 -0.6336
   39TMC2     H  611   0.918   0.303   2.012 -0.2862  1.3856  0.6005
   39TMC2    H1  612   1.317   0.192   1.892 -0.1223 -0.1522  0.3366
   39TMC2    H2  613   1.233   0.581   2.070  1.2673 -1.0608  0.3898
   39TMC2    C7  614   1.417   0.424   1.924 -0.4575 -0.5071 -0.5819
   39TMC2    C8  615   0.994   0.549   2.099  0.3631  0.7566 -0.1351
   39TMC2    O1  616   1.509   0.345   1.924 -0.0589  0.6309  0.1697
   39TMC2    O2  617   1.000   0.664   2.047  0.2291 -0.3295  0.0493
   39TMC2    O5  618   0.890   0.488   2.152 -0.3837  0.0764  0.2118
   39TMC2    H5  619   0.903   0.394   2.176  0.4857  0.0612 -0.3132
   40MPD2     C  620   1.212   4.532   1.802 -0.1921  0.2245 -0.0347
   40MPD2    C1  621   1.107   4.619   1.811  0.0126 -0.2357 -0.1789
   40MPD2    C2  622   0.979   4.580   1.754 -0.9239  0.0401  0.1223
   40MPD2    C3  623   0.965   4.459   1.688  0.2440  0.6274 -0.5853
   40MPD2    C4  624   1.078   4.380   1.670  0.6189  0.3887  0.4035
   40MPD2    C5  625   1.191   4.415   1.739  0.1372 -0.8494 -0.3536
   40MPD2     H  626   0.888   4.638   1.766 -0.8269 -0.0136  1.1204
   40MPD2    H1  627   1.068   4.280   1.630 -0.5528  0.7444 -0.2053
   40MPD2    H2  628   1.311   4.559   1.838  0.3037  1.9756 -2.7157
   40MPD2    H3  629   1.282   4.356   1.732 -0.1351 -1.0546 -2.2486
   40MPD2     N  630   0.846   4.411   1.631  0.2858  0.2688  0.2156
   40MPD2    H5  631   0.848   4.335   1.564  0.4951 -0.0409  0.5745
   40MPD2    N1  632   1.134   0.003   1.885 -0.2959 -0.1422 -0.2616
   40MPD2    H7  633   1.224   0.012   1.930 -0.5849 -0.0302  0.2891
   41TMC2    C1  634   4.374   3.101  13.335  0.0588  0.5654  0.9892
   41TMC2    C2  635   4.250   3.160  13.328  0.0765 -0.7924 -0.6729
   41TMC2    C3  636   4.192   3.159  13.203  0.3065 -1.0739  0.1059
   41TMC2    C4  637   4.432   3.034  13.226 -0.1401 -0.3873  0.1178
   41TMC2    C5  638   4.367   3.032  13.106  0.3001 -0.3356 -0.7126
   41TMC2    C6  639   4.249   3.106  13.089 -0.0705  0.9998 -0.1203
   41TMC2     C  640   4.445   3.085  13.457 -0.1957 -0.4385  0.2879
   41TMC2     O  641   4.544   3.015  13.445  0.0003  0.0389  0.2825
   41TMC2     H  642   4.219   3.222  13.412  1.8588 -0.2516 -0.3995
   41TMC2    H1  643   4.534   2.997  13.229 -0.8315 -2.1209  2.3646
   41TMC2    H2  644   4.195   3.099  12.995  0.5928 -1.6313 -0.3222
   41TMC2    C7  645   4.435   2.974  12.996  0.0763  0.3811  0.2734
   41TMC2    C8  646   4.067   3.242  13.192 -0.0650  0.0536  0.0125
   41TMC2    O1  647   4.560   2.962  13.022 -0.6016  0.2645  0.0662
   41TMC2    O2  648   4.016   3.252  13.081 -0.1460 -0.1184  0.1469
   41TMC2    O5  649   4.003   3.211  13.304  0.1849 -0.1804  0.2808
   41TMC2    H5  650   4.054   3.158  13.368  2.2380  2.3008  0.6956
   42MPD2     C  651   4.570   3.101  13.726  0.9686  0.3142  0.8119
   42MPD2    C1  652   4.449   3.155  13.696 -0.3061 -0.6075  0.0853
   42MPD2    C2  653   4.369   3.192  13.804  0.1232 -0.0439  0.0903
   42MPD2    C3  654   4.405   3.176  13.936  0.2644 -1.4540  0.1098
   42MPD2    C4  655   4.529   3.126  13.958  0.5450  0.0840  0.0492
   42MPD2    C5  656   4.610   3.083  13.859 -0.5129  0.0839  0.6072
   42MPD2     H  657   4.269   3.228  13.784  0.1443  0.2323  0.4618
   42MPD2    H1  658   4.569   3.102  14.056 -2.3807 -0.6316  1.0627
   42MPD2    H2  659   4.635   3.061  13.649  1.6074  0.9674  1.0107
   42MPD2    H3  660   4.694   3.018  13.879  1.4211  2.2940 -0.3509
   42MPD2     N  661   4.324   3.213  14.053  0.2686  0.3183  0.0379
   42MPD2    H5  662   4.363   3.186  14.143 -1.3741 -0.6677  0.4664
   42MPD2    N1  663   4.386   3.150  13.567  0.1092  0.6509  0.4846
   42MPD2    H7  664   4.296   3.195  13.562 -1.2192 -2.0928 -0.4099
   43TMC2    C1  665   1.142   0.643   0.582  0.3149 -0.3038 -0.3023
   43TMC2    C2  666   1.138   0.528   0.501 -0.2893 -0.2458  0.5989
   43TMC2    C3  667   1.134   0.413   0.566 -0.2667  0.0496 -0.1988
   43TMC2    C4  668   1.150   0.635   0.719  0.6607  0.0865 -0.1933
   43TMC2    C5  669   1.166   0.508   0.774 -0.3848  0.3626  0.5624
   43TMC2    C6  670   1.156   0.396   0.699 -0.2293 -0.5923 -0.3074
   43TMC2     C  671   1.201   0.759   0.513 -0.4324 -0.1738 -0.3467
   43TMC2     O  672   1.264   0.747   0.408 -0.0481 -0.0221  0.2654
   43TMC2     H  673   1.129   0.541   0.393  0.8721 -4.1350  0.0221
   43TMC2    H1  674   1.173   0.719   0.783 -1.2279 -1.2010  2.2209
   43TMC2    H2  675   1.157   0.298   0.745  1.8518 -0.7819 -0.7272
   43TMC2    C7  676   1.213   0.488   0.913 -0.2369  0.6790 -0.4709
   43TMC2    C8  677   1.134   0.296   0.490 -0.0546  0.7348  0.5232
   43TMC2    O1  678   1.198   0.373   0.957  0.3199 -0.0724  0.4329
   43TMC2    O2  679   1.059   0.274   0.398 -0.3591  1.0026  0.6909
   43TMC2    O5  680   1.252   0.241   0.515 -0.0545 -0.3515  0.1001
   43TMC2    H5  681   1.308   0.291   0.578  1.4329 -1.3025 -0.4925
   44MPD2     C  682   1.481   1.165   0.655  0.7588  0.6393  0.2772
   44MPD2    C1  683   1.513   1.051   0.582  0.6604 -0.2086  0.2546
   44MPD2    C2  684   1.422   0.950   0.559  0.7770 -0.3248 -0.0129
   44MPD2    C3  685   1.291   0.976   0.600 -0.3275 -0.6405 -0.2293
   44MPD2    C4  686   1.257   1.092   0.676  0.6953  0.4285 -0.2478
   44MPD2    C5  687   1.353   1.182   0.705 -0.0362  0.2301  0.3509
   44MPD2     H  688   1.454   0.865   0.500 -0.2668  0.5643 -1.8541
   44MPD2    H1  689   1.163   1.096   0.729 -0.6287 -0.0877 -2.6101
   44MPD2    H2  690   1.546   1.250   0.673 -0.1458  1.5087 -0.5514
   44MPD2    H3  691   1.317   1.264   0.766  0.8078  1.6473 -1.0458
   44MPD2     N  692   1.191   0.872   0.587  0.5086 -0.0409  0.8042
   44MPD2    H5  693   1.103   0.883   0.636  0.9895 -0.2207  1.7057
   44MPD2    N1  694   1.646   1.034   0.536  0.1245  0.4565 -0.4682
   44MPD2    H7  695   1.664   0.968   0.460 -0.8834 -3.2536  2.4872
   45TMC2    C1  696   2.570   3.534   9.182 -0.2381 -0.0694 -0.0755
   45TMC2    C2  697   2.667   3.600   9.111  0.4372  0.1079 -0.7307
   45TMC2    C3  698   2.702   3.723   9.146  0.0860  0.4389  0.5658
   45TMC2    C4  699   2.526   3.592   9.299 -0.1096  0.3589 -0.3521
   45TMC2    C5  700   2.566   3.715   9.335  0.5385  0.7456 -0.5339
   45TMC2    C6  701   2.660   3.783   9.258  0.6920  0.8362  0.3638
   45TMC2     C  702   2.507   3.415   9.132  0.2015  0.6974 -0.3931
   45TMC2     O  703   2.576   3.346   9.060 -0.6218 -0.2021 -0.1926
   45TMC2     H  704   2.714   3.555   9.024  0.2372 -1.1347 -0.2045
   45TMC2    H1  705   2.459   3.539   9.366  0.5219  0.0458  0.0392
   45TMC2    H2  706   2.677   3.889   9.271  0.4109  0.9065  0.1503
   45TMC2    C7  707   2.517   3.762   9.465  0.0710 -0.0967 -0.0040
   45TMC2    C8  708   2.821   3.786   9.081 -0.7505  0.2781 -0.8147
   45TMC2    O1  709   2.500   3.674   9.548  0.5780 -0.0446  0.5474
   45TMC2    O2  710   2.890   3.874   9.138  0.1384  0.6615  0.2039
   45TMC2    O5  711   2.781   3.799   8.952  0.0024 -0.0806  0.4464
   45TMC2    H5  712   2.714   3.730   8.930  0.2128 -1.0332  2.7277
   46MPD2     C  713   2.335   3.169   9.137 -0.0048  0.4535 -0.7350
   46MPD2    C1  714   2.297   3.294   9.182  0.4681  0.4657 -0.2476
   46MPD2    C2  715   2.168   3.308   9.223  0.5478  0.1647  0.9507
   46MPD2    C3  716   2.078   3.199   9.238  0.5560  0.5136  0.2568
   46MPD2    C4  717   2.132   3.077   9.202 -0.2085 -0.3037  0.2620
   46MPD2    C5  718   2.252   3.061   9.152  0.5721  0.7343 -0.3617
   46MPD2     H  719   2.142   3.403   9.270 -0.1463  1.1130 -1.2934
   46MPD2    H1  720   2.071   2.988   9.189  0.7618 -1.0767  1.0457
   46MPD2    H2  721   2.428   3.136   9.094  0.6628 -0.8922  1.7432
   46MPD2    H3  722   2.287   2.961   9.128  0.3637  0.5535  0.0968
   46MPD2     N  723   1.945   3.222   9.273  0.5846  1.0786  0.0785
   46MPD2    H5  724   1.920   3.313   9.311  1.0718  1.5900 -0.7954
   46MPD2    N1  725   2.382   3.400   9.188  0.6129  0.0184 -0.3572
   46MPD2    H7  726   2.344   3.482   9.235 -1.0430 -1.5368  1.0207
   47TMC2    C1  727   4.586   4.042   9.110 -0.0760 -0.6250  0.3441
   47TMC2    C2  728   4.502   4.153   9.109 -0.0570  0.8860  0.1157
   47TMC2    C3  729   4.381   4.155   9.043 -0.4402  0.0006  0.0097
   47TMC2    C4  730   4.546   3.928   9.046  0.7212 -0.2148 -0.2084
   47TMC2    C5  731   4.424   3.936   8.993 -0.5208  0.1314 -0.5220
   47TMC2    C6  732   4.336   4.037   9.000  0.0170  0.2081  0.1200
   47TMC2     C  733   4.696   4.043   9.204  0.4682 -0.4233 -0.3337
   47TMC2     O  734   0.010   4.156   9.222  0.3391  0.5081  0.0174
   47TMC2     H  735   4.526   4.236   9.174 -0.5639  0.7671  0.4569
   47TMC2    H1  736   4.617   3.846   9.040  2.9678  1.4211  4.1309
   47TMC2    H2  737   4.239   4.030   8.954  0.7105 -0.8329 -1.1788
   47TMC2    C7  738   4.383   3.830   8.900  0.1608 -0.0229 -0.2412
   47TMC2    C8  739   4.290   4.267   9.051  0.0457  0.1593 -0.1086
   47TMC2    O1  740   4.286   3.848   8.826 -0.0540  0.1874 -0.0781
   47TMC2    O2  741   4.166   4.263   9.046  0.2533  0.6723 -0.0158
   47TMC2    O5  742   4.363   4.382   9.050  0.2513  0.4249  0.2536
   47TMC2    H5  743   4.461   4.379   9.049  0.2138 -1.6068  3.6503
   48MPD2     C  744   0.031   4.015   9.487  0.0367  0.3271  0.3192
   48MPD2    C1  745   0.032   3.911   9.395  0.0450  0.0591 -0.0466
   48MPD2    C2  746   0.084   3.792   9.428  1.4936 -0.1530  0.5251
   48MPD2    C3  747   0.133   3.770   9.557 -0.5570  0.1529  0.1722
   48MPD2    C4  748   0.120   3.871   9.654 -0.3167 -0.4079 -0.2701
   48MPD2    C5  749   0.077   3.995   9.611  0.1389 -0.1303 -0.2221
   48MPD2     H  750   0.080   3.703   9.367 -0.3206 -0.4966  1.1184
   48MPD2    H1  751   0.166   3.862   9.752 -1.1444  0.0917  0.1617
   48MPD2    H2  752   4.729   4.113   9.462 -0.0688  1.0112  3.2207
   48MPD2    H3  753   0.090   4.069   9.689  0.8786  0.0203 -0.4802
   48MPD2     N  754   0.186   3.646   9.586 -0.1269  0.7777 -0.5891
   48MPD2    H5  755   0.214   3.599   9.501  0.7922  0.2076  0.0172
   48MPD2    N1  756   4.708   3.926   9.269 -0.0219 -0.0132  0.3006
   48MPD2    H7  757   4.687   3.843   9.213 -3.2163  1.0512 -0.0980
   49TMC2    C1  758   2.792   1.109  10.399 -0.2382 -0.3646 -0.4753
   49TMC2    C2  759   2.909   1.105  10.329  0.7060  0.0228 -0.5544
   49TMC2    C3  760   2.918   1.200  10.220 -0.2695 -0.3395  0.0302
   49TMC2    C4  761   2.677   1.191  10.364  0.6612 -0.0526  0.3818
   49TMC2    C5  762   2.697   1.268  10.256 -0.5191 -0.0317 -0.4939
   49TMC2    C6  763   2.817   1.278  10.185 -1.1102  0.5062 -0.0504
   49TMC2     C  764   2.775   1.010  10.491  0.0369  0.2391 -0.8226
   49TMC2     O  765   2.842   0.906  10.480  0.3187  0.2236 -0.2186
   49TMC2     H  766   2.982   1.027  10.350  1.1129  1.1124  2.0099
   49TMC2    H1  767   2.580   1.188  10.414  0.0841 -0.3785 -0.7466
   49TMC2    H2  768   2.830   1.332  10.092  0.7589  0.1900  0.0147
   49TMC2    C7  769   2.584   1.343  10.208  0.1180  0.2397 -0.1449
   49TMC2    C8  770   3.048   1.230  10.171 -0.3837 -0.3482 -0.4278
   49TMC2    O1  771   2.477   1.290  10.239 -0.1348  0.2173 -0.4633
   49TMC2    O2  772   3.070   1.295  10.071  0.1201  0.0497  0.2962
   49TMC2    O5  773   3.107   1.271  10.282  0.0183 -0.3910 -0.1056
   49TMC2    H5  774   3.054   1.267  10.365 -1.2183  2.9370 -0.7170
   50MPD2     C  775   2.696   0.835  10.718  0.1243 -0.3489  0.3146
   50MPD2    C1  776   2.636   0.956  10.702 -0.1714  0.0411 -0.4057
   50MPD2    C2  777   2.539   1.001  10.790  0.4570 -0.2130 -0.5650
   50MPD2    C3  778   2.514   0.933  10.907  0.0527 -0.2158  0.2417
   50MPD2    C4  779   2.582   0.810  10.923 -0.1798  0.1289  0.7342
   50MPD2    C5  780   2.661   0.757  10.828  0.7484 -0.0609  0.8087
   50MPD2     H  781   2.486   1.093  10.769 -2.9031 -2.5457 -2.3637
   50MPD2    H1  782   2.572   0.750  11.013  1.6797  1.1063  1.6193
   50MPD2    H2  783   2.771   0.785  10.657 -0.3298 -1.8145  0.9748
   50MPD2    H3  784   2.707   0.659  10.833 -0.1417 -0.4983  0.5763
   50MPD2     N  785   2.409   0.959  11.007 -0.1357 -0.1430  0.5299
   50MPD2    H5  786   2.407   0.895  11.085  1.7677 -2.0997 -1.0212
   50MPD2    N1  787   2.676   1.040  10.587 -0.1909  0.3614 -0.2549
   50MPD2    H7  788   2.642   1.136  10.586 -1.9730 -0.2665 -0.6938
   51TMC2    C1  789   3.326   4.479   0.372  0.9597  0.3724  0.1030
   51TMC2    C2  790   3.251   4.430   0.274 -0.4531 -0.5377  0.0919
   51TMC2    C3  791   3.213   4.507   0.177 -0.0357 -0.1785 -0.0479
   51TMC2    C4  792   3.388   4.604   0.367  0.9070  0.0638  1.1061
   51TMC2    C5  793   3.341   4.680   0.260  0.0445  0.2371 -0.2555
   51TMC2    C6  794   3.251   4.641   0.167 -0.0827  0.3045  0.6065
   51TMC2     C  795   3.368   4.398   0.484 -0.7852  0.3718  0.7069
   51TMC2     O  796   3.475   4.430   0.536 -0.0272  0.6040 -0.0109
   51TMC2     H  797   3.216   4.328   0.283  1.8278 -1.2812  0.5174
   51TMC2    H1  798   3.468   4.640   0.431  0.3376  3.0616  0.1262
   51TMC2    H2  799   3.206   4.702   0.089 -1.5819  0.3021  1.4533
   51TMC2    C7  800   3.392   0.080   0.261  0.9421  0.5349  0.1207
   51TMC2    C8  801   3.113   4.474   0.077 -0.4082  0.4379 -0.2132
   51TMC2    O1  802   3.468   0.112   0.352  0.0459 -0.7353  0.6920
   51TMC2    O2  803   3.061   4.556   0.004  0.1463  0.2175  0.2584
   51TMC2    O5  804   3.097   4.341   0.076  0.0509 -0.3502 -0.4629
   51TMC2    H5  805   3.162   4.288   0.127  0.9653  0.5385 -0.7076
   52MPD2     C  806   3.354   4.016   0.812  0.4756 -0.0797 -0.1147
   52MPD2    C1  807   3.449   4.105   0.784 -0.1323 -0.1897 -0.4406
   52MPD2    C2  808   3.425   4.195   0.687 -0.5548 -0.0693 -0.3093
   52MPD2    C3  809   3.325   4.186   0.601  0.3594  0.4355  1.0762
   52MPD2    C4  810   3.232   4.085   0.626  0.1532 -0.3413 -0.4704
   52MPD2    C5  811   3.246   4.000   0.731  0.4963 -1.0117 -0.0680
   52MPD2     H  812   3.489   4.282   0.685  0.8544 -1.0987 -0.4146
   52MPD2    H1  813   3.140   4.083   0.569 -0.8546  0.4716  1.1213
   52MPD2    H2  814   3.375   3.934   0.880  0.8554 -0.5215 -0.7643
   52MPD2    H3  815   3.184   3.915   0.757  3.0925 -2.1060  2.5699
   52MPD2     N  816   3.295   4.286   0.501  0.3123 -0.6975  0.3420
   52MPD2    H5  817   3.212   4.269   0.446  1.4026 -0.8489 -1.2836
   52MPD2    N1  818   3.564   4.117   0.872 -0.1749 -0.3541  0.7849
   52MPD2    H7  819   3.632   4.187   0.843 -0.2327 -0.1442  1.1622
   53TMC2    C1  820   3.183   3.498  11.164  0.2411  0.3258 -0.9356
   53TMC2    C2  821   3.274   3.439  11.083 -0.1036 -0.9738  0.1842
   53TMC2    C3  822   3.345   3.341  11.146  0.1493 -0.4998  0.0603
   53TMC2    C4  823   3.170   3.474  11.293  0.3586 -0.0214 -0.5785
   53TMC2    C5  824   3.238   3.370  11.347  0.2312  0.5510 -0.5486
   53TMC2    C6  825   3.322   3.297  11.274  0.1747  0.3224  0.2608
   53TMC2     C  826   3.096   3.596  11.097  0.2489  0.6380  0.1026
   53TMC2     O  827   3.121   3.642  10.986 -0.4292 -0.6540 -0.0948
   53TMC2     H  828   3.270   3.452  10.975 -0.1823 -0.8714  0.1997
   53TMC2    H1  829   3.122   3.542  11.363  0.2261 -1.0422  0.3229
   53TMC2    H2  830   3.360   3.198  11.296  2.3158  1.0231 -0.2793
   53TMC2    C7  831   3.208   3.348  11.491 -0.6552  0.1863 -0.0468
   53TMC2    C8  832   3.442   3.270  11.070 -0.1449  0.8138  0.0414
   53TMC2    O1  833   3.124   3.427  11.535  0.1004  0.0440 -0.6169
   53TMC2    O2  834   3.544   3.228  11.125  0.1758  0.2819  0.3165
   53TMC2    O5  835   3.383   3.244  10.950  0.0608  0.2273 -0.0054
   53TMC2    H5  836   3.290   3.271  10.941 -0.9073 -3.1218 -0.1930
   54MPD2     C  837   2.908   3.814  11.085 -0.3037 -0.0327  0.1288
   54MPD2    C1  838   2.889   3.699  11.159  0.4808 -0.6118 -0.2779
   54MPD2    C2  839   2.774   3.683  11.240 -0.1724 -0.2693 -0.0738
   54MPD2    C3  840   2.665   3.770  11.224  0.3463 -0.0916 -0.2360
   54MPD2    C4  841   2.681   3.875  11.143  0.0543 -0.5053  0.1684
   54MPD2    C5  842   2.806   3.906  11.083  0.2281 -0.8417 -0.1698
   54MPD2     H  843   2.767   3.591  11.296  0.2861  1.0398  2.1286
   54MPD2    H1  844   2.601   3.947  11.130  1.8541  1.3997 -0.2274
   54MPD2    H2  845   2.985   3.817  11.009 -0.5157 -1.3806 -0.1437
   54MPD2    H3  846   2.804   4.001  11.029 -0.6941 -0.3767  0.6779
   54MPD2     N  847   2.541   3.744  11.284  0.0428  0.0385  0.7813
   54MPD2    H5  848   2.467   3.812  11.267  0.3882  0.2029 -0.0387
   54MPD2    N1  849   2.988   3.610  11.171 -0.1031 -0.0737 -0.3782
   54MPD2    H7  850   2.973   3.539  11.242  0.8435 -1.7427 -1.8317
   55TMC2    C1  851   4.719   1.087   0.403 -0.4526  0.2890 -0.2651
   55TMC2    C2  852   4.729   1.041   0.280 -0.1591 -0.0876  0.2206
   55TMC2    C3  853   0.022   0.904   0.278 -0.0871  0.4754  0.1070
   55TMC2    C4  854   4.733   1.014   0.516 -0.2742  1.1462 -0.1440
   55TMC2    C5  855   0.028   0.880   0.497 -0.0284  0.1779  0.5196
   55TMC2    C6  856   0.045   0.826   0.378  0.7706  0.1079  0.1130
   55TMC2     C  857   4.678   1.224   0.432  0.0227  0.3117 -0.6312
   55TMC2     O  858   4.649   1.246   0.544 -0.5373  0.2424  0.1763
   55TMC2     H  859   0.001   1.100   0.189  1.9542 -0.7886 -0.0562
   55TMC2    H1  860   4.720   1.057   0.616 -1.8721  2.1232 -0.7576
   55TMC2    H2  861   0.081   0.725   0.368 -0.5371 -0.2639 -0.9088
   55TMC2    C7  862   0.001   0.785   0.603 -0.5881 -0.2672  0.0003
   55TMC2    C8  863   0.027   0.840   0.153  0.2021  0.5873 -0.2358
   55TMC2    O1  864   0.063   0.678   0.589  0.8145 -0.7758  0.1100
   55TMC2    O2  865   0.039   0.904   0.044 -0.1070 -0.2647 -0.1553
   55TMC2    O5  866   4.675   0.742   0.176  0.6417 -0.1647 -0.7532
   55TMC2    H5  867   4.651   0.737   0.271  2.6748 -3.4339 -0.4331
   56MPD2     C  868   0.001   1.516   0.221 -0.4117  0.0124 -0.1574
   56MPD2    C1  869   4.687   1.441   0.324  0.1144  0.4073  0.4397
   56MPD2    C2  870   4.601   1.499   0.416 -0.5893  0.2775  0.6084
   56MPD2    C3  871   4.572   1.631   0.414  0.1412 -0.5004 -0.0685
   56MPD2    C4  872   4.633   1.707   0.312  1.0401  0.7013  0.1533
   56MPD2    C5  873   4.713   1.652   0.215  0.1310 -0.3412  0.5710
   56MPD2     H  874   4.557   1.443   0.498  0.9807 -2.2814 -0.3051
   56MPD2    H1  875   4.622   1.813   0.294 -0.4472  0.9147  2.3810
   56MPD2    H2  876   0.065   1.466   0.148 -1.9002 -1.8593 -0.1915
   56MPD2    H3  877   0.023   1.716   0.141  0.4026  2.4200  3.1211
   56MPD2     N  878   4.485   1.678   0.512  0.2067 -0.6852  0.5575
   56MPD2    H5  879   4.447   1.611   0.579  2.4893 -0.3459  2.1948
   56MPD2    N1  880   4.714   1.305   0.328 -0.6536  0.2098 -0.5642
   56MPD2    H7  881   0.038   1.275   0.252 -0.0252  0.6961 -0.2578
   57TMC2    C1  882   3.205   2.166  13.983  0.0879 -0.6444 -0.2514
   57TMC2    C2  883   3.295   2.144  14.080  0.3609  0.3405  0.6188
   57TMC2    C3  884   3.395   2.053  14.055 -0.3978  0.1890  0.2423
   57TMC2    C4  885   3.207   2.098  13.868  0.0582 -0.0024  0.2457
   57TMC2    C5  886   3.305   2.005  13.845  0.3737 -0.3789  0.2871
   57TMC2    C6  887   3.403   1.987  13.942  0.3430 -0.1283  0.7255
   57TMC2     C  888   3.073   2.178  14.041  0.5078  0.2496 -0.1873
   57TMC2     O  889   3.060   2.251  14.143  0.0998 -0.1741 -0.0201
   57TMC2     H  890   3.287   2.201  14.172  1.4017  2.0373 -0.3440
   57TMC2    H1  891   3.146   2.137  13.787 -1.1603 -0.0225  1.1618
   57TMC2    H2  892   3.490   1.925  13.925  0.5142  0.1848  0.4516
   57TMC2    C7  893   3.331   1.965  13.708 -0.4855 -0.3834 -0.1847
   57TMC2    C8  894   3.493   2.017  14.155  0.1864 -0.2335  0.3614
   57TMC2    O1  895   3.277   2.027  13.616  0.7935  0.2653  0.6996
   57TMC2    O2  896   3.583   1.934  14.152  0.4078  0.0186  0.5968
   57TMC2    O5  897   3.493   2.105  14.264  0.4663 -0.0301  0.4546
   57TMC2    H5  898   3.434   2.183  14.271 -0.0865 -0.3597 -0.4560
   58MPD2     C  899   2.633   1.968  14.134  0.5181  0.0501  0.5168
   58MPD2    C1  900   2.676   2.093  14.163 -0.7511 -0.7406 -0.5594
   58MPD2    C2  901   2.797   2.141  14.120 -0.0462 -0.0495 -0.0292
   58MPD2    C3  902   2.875   2.057  14.040 -0.3331  0.5575  0.0255
   58MPD2    C4  903   2.828   1.939  14.002 -0.1046 -0.2669  0.2101
   58MPD2    C5  904   2.704   1.892  14.041  0.0710 -0.2220  0.6780
   58MPD2     H  905   2.833   2.238  14.152  1.1225  0.0873 -1.7630
   58MPD2    H1  906   2.883   1.878  13.931 -1.7399 -0.7638 -0.6331
   58MPD2    H2  907   2.531   1.932  14.144  0.7246 -0.5300  0.4810
   58MPD2    H3  908   2.661   1.802  13.997 -0.3768  0.0441  0.5742
   58MPD2     N  909   2.996   2.085  13.985 -0.4841  0.2178  0.2576
   58MPD2    H5  910   3.036   2.016  13.921 -2.2121  0.5694 -1.2024
   58MPD2    N1  911   2.595   2.188  14.229 -0.0502 -0.7171 -0.4288
   58MPD2    H7  912   2.624   2.284  14.242  1.2296 -1.0372 -0.9160
   59TMC2    C1  913   0.799   2.025  12.464  0.7832  0.1942 -0.3151
   59TMC2    C2  914   0.911   2.065  12.394 -0.2693  0.5689  0.5873
   59TMC2    C3  915   0.891   2.059  12.255 -0.3036 -0.1178 -0.8929
   59TMC2    C4  916   0.680   1.996  12.400  0.0770  0.0851 -0.2121
   59TMC2    C5  917   0.670   2.022  12.268  0.3496  0.1152 -0.2020
   59TMC2    C6  918   0.774   2.045  12.191  0.5212 -0.4031  0.5082
   59TMC2     C  919   0.784   2.040  12.605 -0.5186 -0.2759  0.1651
   59TMC2     O  920   0.675   2.025  12.658 -0.3722  0.3414 -0.0576
   59TMC2     H  921   1.007   2.082  12.443  0.8176  2.6429 -2.2153
   59TMC2    H1  922   0.592   1.983  12.462  0.4662  1.5165  0.6270
   59TMC2    H2  923   0.777   2.047  12.083 -2.2309 -2.7159  0.3994
   59TMC2    C7  924   0.542   1.996  12.216  0.3857 -0.6672 -0.1055
   59TMC2    C8  925   1.012   2.062  12.169  0.0744  0.2962 -0.7076
   59TMC2    O1  926   0.478   1.919  12.282  0.2033  0.1150 -0.1491
   59TMC2    O2  927   1.111   2.124  12.203  0.1838 -0.0788 -0.0189
   59TMC2    O5  928   1.002   1.974  12.065 -0.1379 -0.1073  0.1336
   59TMC2    H5  929   0.917   1.927  12.055 -0.3864  0.1375  1.0747
   60MPD2     C  930   0.803   2.071  12.907 -0.0234  0.5111  0.4346
   60MPD2    C1  931   0.909   2.089  12.823 -0.3656  0.0963  0.3540
   60MPD2    C2  932   1.035   2.107  12.879 -0.2305 -0.3081  0.2745
   60MPD2    C3  933   1.052   2.120  13.013  0.1744 -0.1292 -0.2969
   60MPD2    C4  934   0.942   2.119  13.093  0.3658 -0.2263  0.1533
   60MPD2    C5  935   0.817   2.094  13.041  0.0539 -0.4782  0.5111
   60MPD2     H  936   1.118   2.113  12.810 -0.3402  2.3766  0.3457
   60MPD2    H1  937   0.942   2.131  13.201 -0.9176  0.3652  0.0873
   60MPD2    H2  938   0.702   2.048  12.875  0.4220 -0.0508 -0.5623
   60MPD2    H3  939   0.730   2.087  13.105 -0.9847  0.2225 -0.8175
   60MPD2     N  940   1.179   2.151  13.075 -0.5102  0.1453 -0.6535
   60MPD2    H5  941   1.182   2.205  13.160 -0.3886  1.4474 -1.4885
   60MPD2    N1  942   0.894   2.089  12.675  0.1178  0.3219 -0.0231
   60MPD2    H7  943   0.982   2.106  12.626 -1.2020  0.1671 -2.4498
   61TMC2    C1  944   0.174   2.728  15.585 -0.1000 -0.3053  1.1733
   61TMC2    C2  945   0.178   2.648  15.690  0.9109  0.4421  0.0790
   61TMC2    C3  946   0.123   2.700  15.810 -0.4695 -0.0871  0.5637
   61TMC2    C4  947   0.121   2.851  15.583  0.0729  0.1273 -0.0488
   61TMC2    C5  948   0.066   2.899  15.699 -0.8730  0.1903 -0.8142
   61TMC2    C6  949   0.058   2.821  15.813  0.9505  1.2508  0.0709
   61TMC2     C  950   0.234   2.676  15.459 -0.7230 -0.4749  0.1520
   61TMC2     O  951   0.248   2.556  15.460 -0.1461  0.4413 -0.1743
   61TMC2     H  952   0.227   2.552  15.690  0.1900  0.0698  1.1126
   61TMC2    H1  953   0.146   2.908  15.494 -0.0467 -1.6523 -1.2248
   61TMC2    H2  954   0.005   2.849  15.903  0.2214 -0.1032  0.0660
   61TMC2    C7  955   0.036   3.041  15.697  0.2229 -0.0916  0.1037
   61TMC2    C8  956   0.168   2.641  15.937 -0.1362  0.2999  0.1101
   61TMC2    O1  957   0.022   3.096  15.588 -0.1227  0.3483  0.0038
   61TMC2    O2  958   0.137   2.694  16.045 -0.0687 -0.0405  0.0671
   61TMC2    O5  959   0.299   2.613  15.897 -0.5981  0.2009 -0.2319
   61TMC2    H5  960   0.361   2.608  15.973 -0.2883 -0.4583 -0.5332
   62MPD2     C  961   0.378   2.619  15.199  0.0674  0.4214  0.8591
   62MPD2    C1  962   0.317   2.736  15.227  0.3985  0.0361 -0.4906
   62MPD2    C2  963   0.318   2.832  15.129  0.2484 -0.0200 -0.3802
   62MPD2    C3  964   0.373   2.805  15.005 -0.4575 -0.2692 -0.3540
   62MPD2    C4  965   0.439   2.685  14.978  0.1931 -0.3752  0.1022
   62MPD2    C5  966   0.437   2.588  15.077  0.1422  0.0313  0.1636
   62MPD2     H  967   0.265   2.927  15.138  2.0362  0.8517  0.8537
   62MPD2    H1  968   0.475   2.668  14.877  1.7460  0.3485  0.5411
   62MPD2    H2  969   0.381   2.535  15.267  1.2713 -0.8087 -0.7040
   62MPD2    H3  970   0.463   2.484  15.062  2.0766  0.6411 -0.7046
   62MPD2     N  971   0.366   2.912  14.910 -0.0014 -0.5034  0.1339
   62MPD2    H5  972   0.301   2.988  14.926 -0.4485 -0.6069 -1.1975
   62MPD2    N1  973   0.257   2.767  15.352  0.2033 -0.5948 -0.1480
   62MPD2    H7  974   0.227   2.863  15.357 -0.5935 -0.8684  0.2918
   63TMC2    C1  975   4.455   3.573  10.653  0.3288 -0.1854  0.3316
   63TMC2    C2  976   4.540   3.596  10.758  0.3788  0.1656 -0.0233
   63TMC2    C3  977   4.650   3.679  10.731 -0.2638 -0.1709  0.1341
   63TMC2    C4  978   4.473   3.622  10.528  0.4714 -0.3763  0.1648
   63TMC2    C5  979   4.585   3.698  10.500  0.5136 -0.3511 -0.1301
   63TMC2    C6  980   4.671   3.736  10.605  0.7278  0.0522  0.6409
   63TMC2     C  981   4.354   3.469  10.676  0.3162  0.6575 -0.5694
   63TMC2     O  982   4.361   3.400  10.777 -0.8119 -0.3141 -0.4194
   63TMC2     H  983   4.520   3.555  10.857 -0.8100 -0.2848 -0.4405
   63TMC2    H1  984   4.395   3.602  10.456 -0.5812 -1.8180  1.6909
   63TMC2    H2  985   0.015   3.806  10.583 -0.4800  1.9165  2.1988
   63TMC2    C7  986   4.600   3.741  10.360 -0.4686 -0.4218  0.5419
   63TMC2    C8  987   4.730   3.729  10.842  0.1897 -0.5542 -0.5104
   63TMC2    O1  988   4.514   3.701  10.285  0.6430  0.2123 -0.3703
   63TMC2    O2  989   4.671   3.763  10.945  0.6790 -0.1655 -0.2165
   63TMC2    O5  990   0.114   3.768  10.807 -0.2653  0.7091  0.0447
   63TMC2    H5  991   0.151   3.723  10.728  0.0286 -0.0683  0.6322
   64MPD2     C  992   3.929   3.235  10.534 -0.0740  0.2394  0.4047
   64MPD2    C1  993   4.038   3.187  10.603  0.1039 -0.1020  0.1488
   64MPD2    C2  994   4.147   3.267  10.618 -0.6105  0.3747  0.7505
   64MPD2    C3  995   4.139   3.400  10.576 -0.5299 -0.1721  0.0712
   64MPD2    C4  996   4.031   3.444  10.500  0.3434  0.5436  0.0688
   64MPD2    C5  997   3.931   3.357  10.469 -0.6009 -0.5899  0.3948
   64MPD2     H  998   4.241   3.229  10.655  0.5176  3.0215  0.5624
   64MPD2    H1  999   4.029   3.539  10.448  0.8738  0.4482 -0.1311
   64MPD2    H2 1000   3.844   3.173  10.508 -0.7728  0.8705  1.1520
   64MPD2    H3 1001   3.856   3.381  10.395  0.2758  0.6822 -0.0588
   64MPD2     N 1002   4.243   3.496  10.599  0.4843 -0.2095  0.3208
   64MPD2    H5 1003   4.237   3.584  10.548  0.7421 -0.6246 -0.4227
   64MPD2    N1 1004   4.040   3.063  10.666 -0.6832  0.1301  0.3052
   64MPD2    H7 1005   4.125   3.035  10.714 -1.6595  0.6306  2.3238
   65TMC2    C1 1006   0.366   3.235  15.646  0.0278  0.4192 -0.4156
   65TMC2    C2 1007   0.348   3.190  15.524 -0.2028  0.0221 -0.2417
   65TMC2    C3 1008   0.304   3.273  15.424 -0.3273  0.5528  0.4967
   65TMC2    C4 1009   0.349   3.368  15.674  0.7206 -0.5316  0.3307
   65TMC2    C5 1010   0.309   3.449  15.566  0.3928 -0.0669 -0.3271
   65TMC2    C6 1011   0.279   3.405  15.439  0.6202  0.0228 -0.3132
   65TMC2     C 1012   0.415   3.144  15.751 -0.1549 -0.7835 -0.1209
   65TMC2     O 1013   0.406   3.182  15.867  0.0087  0.3963 -0.0688
   65TMC2     H 1014   0.360   3.087  15.491 -0.5352  0.6369 -2.2795
   65TMC2    H1 1015   0.362   3.402  15.776  0.6153  0.1258  0.1230
   65TMC2    H2 1016   0.243   3.462  15.354  0.1033  0.2543  0.0555
   65TMC2    C7 1017   0.293   3.590  15.591  0.1791 -0.2212  1.1902
   65TMC2    C8 1018   0.247   3.199  15.313 -0.2840  0.1541  0.4846
   65TMC2    O1 1019   0.248   3.653  15.496 -0.0298  0.1525 -0.2207
   65TMC2    O2 1020   0.192   3.090  15.311 -0.8146 -0.1927  0.4947
   65TMC2    O5 1021   0.262   3.275  15.204  0.2328  0.0892  0.4331
   65TMC2    H5 1022   0.330   3.342  15.222 -0.4316  0.2955  2.1772
   66MPD2     C 1023   0.526   2.908  15.888  0.1251  0.0710 -0.2249
   66MPD2    C1 1024   0.516   2.917  15.754  0.2910 -0.4821  0.5712
   66MPD2    C2 1025   0.543   2.809  15.673 -0.0251  0.5517 -0.1663
   66MPD2    C3 1026   0.597   2.697  15.731 -0.4442  0.3348  0.7099
   66MPD2    C4 1027   0.612   2.692  15.869 -0.5481 -0.5278 -0.5816
   66MPD2    C5 1028   0.586   2.800  15.946 -0.6183  0.0807  0.5267
   66MPD2     H 1029   0.517   2.817  15.568 -1.0608  0.6125  0.0956
   66MPD2    H1 1030   0.651   2.597  15.904 -1.0925 -0.1871  0.9451
   66MPD2    H2 1031   0.505   2.997  15.946  2.3649  0.0912  0.5572
   66MPD2    H3 1032   0.586   2.800  16.055  1.7045 -0.4915  0.5128
   66MPD2     N 1033   0.622   2.578  15.659  0.6272  0.1066  0.1507
   66MPD2    H5 1034   0.658   2.496  15.707 -0.4701 -0.5231 -0.1271
   66MPD2    N1 1035   0.464   3.027  15.690 -0.6620 -0.1141 -0.7012
   66MPD2    H7 1036   0.465   3.018  15.589 -0.6833  1.4729 -0.8478
   67TMC2    C1 1037   0.878   1.882  14.178 -0.5574  0.2248  0.8902
   67TMC2    C2 1038   0.909   2.015  14.159  0.3923  0.0182 -0.2645
   67TMC2    C3 1039   0.951   2.094  14.257 -0.2533  0.3419 -0.3423
   67TMC2    C4 1040   0.882   1.827  14.301  0.6462 -0.5747  0.2369
   67TMC2    C5 1041   0.925   1.913  14.401  0.2112 -0.4782  0.3961
   67TMC2    C6 1042   0.957   2.045  14.387 -0.0322 -0.4171  0.1859
   67TMC2     C 1043   0.786   1.822  14.080 -0.7103 -0.6837 -0.7420
   67TMC2     O 1044   0.793   1.700  14.069  0.0665 -0.4649  0.8696
   67TMC2     H 1045   0.899   2.058  14.060 -3.3040  0.9949  0.5196
   67TMC2    H1 1046   0.849   1.725  14.317 -0.7311 -0.2275 -0.3787
   67TMC2    H2 1047   1.011   2.099  14.463 -0.6650  0.6849 -0.1556
   67TMC2    C7 1048   0.971   1.835  14.514  0.4177 -0.3046 -0.0703
   67TMC2    C8 1049   0.980   2.231  14.247 -0.4199  0.0328  0.2360
   67TMC2    O1 1050   1.004   1.719  14.492  0.0725 -0.0945 -0.1887
   67TMC2    O2 1051   1.000   2.302  14.344  0.5030 -0.2834  0.0552
   67TMC2    O5 1052   1.013   2.258  14.117 -0.0877 -0.3033  0.3674
   67TMC2    H5 1053   1.006   2.182  14.056  2.2540 -1.0101  0.9800
   68MPD2     C 1054   0.580   1.745  13.880 -0.1881 -0.5097 -0.2287
   68MPD2    C1 1055   0.592   1.871  13.936 -0.1598 -0.1471 -0.2742
   68MPD2    C2 1056   0.493   1.967  13.921  0.0264  0.4857 -0.3043
   68MPD2    C3 1057   0.375   1.939  13.848  0.6640  0.2973 -0.7977
   68MPD2    C4 1058   0.367   1.806  13.804 -0.0723 -0.0771  0.8088
   68MPD2    C5 1059   0.466   1.710  13.820  0.0625 -0.1998  0.2894
   68MPD2     H 1060   0.501   2.062  13.973  0.5042  0.8979 -1.1451
   68MPD2    H1 1061   0.287   1.775  13.738  0.2751  0.5097  0.1124
   68MPD2    H2 1062   0.649   1.664  13.899  1.4978  0.4088 -2.5029
   68MPD2    H3 1063   0.457   1.608  13.784 -1.8794 -0.0102  0.2177
   68MPD2     N 1064   0.271   2.027  13.837 -0.6490 -0.4859  0.0312
   68MPD2    H5 1065   0.193   1.991  13.785 -1.1092  0.1509  0.2840
   68MPD2    N1 1066   0.696   1.907  14.026  0.1598  0.6594  0.0015
   68MPD2    H7 1067   0.698   2.005  14.052 -1.0148 -0.3437  3.8250
   69TMC2    C1 1068   3.295   3.529  12.038  0.4170 -0.2318 -0.8167
   69TMC2    C2 1069   3.172   3.590  12.040  0.3261  0.4701 -0.2341
   69TMC2    C3 1070   3.140   3.667  11.928 -0.4531 -0.3676 -0.0120
   69TMC2    C4 1071   3.368   3.521  11.920  0.6199 -0.5111 -0.3222
   69TMC2    C5 1072   3.324   3.587  11.813  0.1766 -0.2215 -0.2518
   69TMC2    C6 1073   3.206   3.657  11.811  0.7010 -0.1716  0.1912
   69TMC2     C 1074   3.327   3.445  12.156  0.2744  1.0602  0.7800
   69TMC2     O 1075   3.238   3.444  12.245 -0.8093 -0.4759 -0.0173
   69TMC2     H 1076   3.112   3.601  12.130  1.2677 -2.6813  0.7878
   69TMC2    H1 1077   3.463   3.470  11.917  1.1112  0.3261  1.3935
   69TMC2    H2 1078   3.156   3.715  11.734  3.0440  1.3132 -0.2009
   69TMC2    C7 1079   3.413   3.579  11.695  0.1692 -0.3172 -0.1516
   69TMC2    C8 1080   3.021   3.748  11.937  0.1028  0.3781 -0.5270
   69TMC2    O1 1081   3.505   3.499  11.694 -0.3547 -0.3537 -0.2411
   69TMC2    O2 1082   2.911   3.696  11.968 -0.5991 -0.5692  0.0249
   69TMC2    O5 1083   3.071   3.852  12.006  0.0729  0.2361  1.0210
   69TMC2    H5 1084   3.141   3.893  11.951 -0.7003 -1.6569 -1.3741
   70MPD2     C 1085   3.600   3.213  12.211  0.2937  0.1456  0.2364
   70MPD2    C1 1086   3.474   3.271  12.237  0.2037  0.5263 -0.5444
   70MPD2    C2 1087   3.387   3.214  12.328 -0.3387 -0.2723 -0.2817
   70MPD2    C3 1088   3.414   3.095  12.393  0.0379  0.3284 -0.6489
   70MPD2    C4 1089   3.539   3.039  12.361 -0.5356 -0.2882  0.0640
   70MPD2    C5 1090   3.633   3.092  12.273 -0.0358  0.1116 -0.9574
   70MPD2     H 1091   3.288   3.255  12.344 -0.0919 -0.1653  0.9620
   70MPD2    H1 1092   3.563   2.939  12.397 -1.0442 -0.1985  0.6458
   70MPD2    H2 1093   3.678   3.263  12.156  1.9648 -1.1579  1.4350
   70MPD2    H3 1094   3.727   3.041  12.259  1.0380  1.0270  3.1265
   70MPD2     N 1095   3.335   3.022  12.475 -0.9151  0.0930  0.5892
   70MPD2    H5 1096   3.380   2.937  12.507  1.0137  0.5651 -0.8336
   70MPD2    N1 1097   3.439   3.373  12.146 -0.4220 -0.0961 -0.0779
   70MPD2    H7 1098   3.504   3.382  12.069 -0.1734 -0.5310  0.0819
   71TMC2    C1 1099   0.596   4.002   1.747  0.7806  0.2190 -0.4127
   71TMC2    C2 1100   0.683   4.094   1.793  0.2117  0.3528 -0.0793
   71TMC2    C3 1101   0.643   4.178   1.895  0.0788 -0.0163  0.0716
   71TMC2    C4 1102   0.474   3.996   1.795  0.1992  0.3881  0.0808
   71TMC2    C5 1103   0.430   4.086   1.889  0.5404  0.2081 -0.0794
   71TMC2    C6 1104   0.513   4.174   1.947 -0.8392 -0.3050 -0.2635
   71TMC2     C 1105   0.635   3.930   1.624  0.1509 -0.2208  0.2075
   71TMC2     O 1106   0.733   3.978   1.570  0.1202 -0.5112  0.2724
   71TMC2     H 1107   0.786   4.090   1.759  0.4330  2.1034  0.3664
   71TMC2    H1 1108   0.413   3.919   1.747  1.8410 -1.0720  0.3432
   71TMC2    H2 1109   0.481   4.251   2.016 -0.1064 -0.5134  0.3045
   71TMC2    C7 1110   0.293   4.085   1.936 -0.6140  0.5119 -0.1825
   71TMC2    C8 1111   0.746   4.184   1.991 -0.1287  0.4187  0.7813
   71TMC2    O1 1112   0.274   4.159   2.030  0.7046  0.0733 -0.1578
   71TMC2    O2 1113   0.842   4.107   1.984  0.1617 -0.6745 -0.5809
   71TMC2    O5 1114   0.734   4.295   2.064  0.8019 -0.6306 -0.4381
   71TMC2    H5 1115   0.660   4.354   2.037  2.0423  0.7673 -0.7152
   72MPD2     C 1116   0.595   3.607   1.234 -0.0660 -0.0479  0.3540
   72MPD2    C1 1117   0.666   3.729   1.247  0.0182 -0.9012  0.0650
   72MPD2    C2 1118   0.674   3.798   1.368  0.0636  1.0186  0.1699
   72MPD2    C3 1119   0.594   3.749   1.472 -0.0819 -0.4799  0.1871
   72MPD2    C4 1120   0.524   3.631   1.455  0.0539  0.3892  0.3020
   72MPD2    C5 1121   0.529   3.562   1.340  0.0944 -0.3092 -0.2293
   72MPD2     H 1122   0.733   3.889   1.374  0.8179  0.5470 -0.0651
   72MPD2    H1 1123   0.468   3.582   1.534  0.9306  0.6707  1.0986
   72MPD2    H2 1124   0.604   3.548   1.144  0.3191  0.3665  0.1185
   72MPD2    H3 1125   0.485   3.463   1.337 -0.4293 -0.1179  1.0373
   72MPD2     N 1126   0.567   3.818   1.595 -0.0903  0.4314 -0.0867
   72MPD2    H5 1127   0.492   3.775   1.648  1.2442 -2.1712 -0.2726
   72MPD2    N1 1128   0.735   3.775   1.136  0.4580 -0.3373 -0.3280
   72MPD2    H7 1129   0.799   3.851   1.159  0.6418 -0.2151 -1.2663
   73TMC2    C1 1130   4.161   1.875  13.065 -0.3666  0.3776 -0.1943
   73TMC2    C2 1131   4.214   1.999  13.070 -0.4478  0.3146 -0.7029
   73TMC2    C3 1132   4.249   2.041  13.194  0.2353 -0.1828  0.4639
   73TMC2    C4 1133   4.129   1.802  13.171  0.1421  0.5054 -0.6149
   73TMC2    C5 1134   4.178   1.849  13.292 -0.0177  0.6269 -0.1477
   73TMC2    C6 1135   4.245   1.971  13.310  0.1328  0.2887  0.5260
   73TMC2     C 1136   4.237   1.785  12.981  0.0327 -0.3626 -0.4117
   73TMC2     O 1137   4.276   1.680  13.031 -0.4321 -0.1348 -0.0832
   73TMC2     H 1138   4.266   2.052  12.991 -1.6816 -0.4560 -2.0416
   73TMC2    H1 1139   4.087   1.702  13.163  0.3610  0.5132 -1.7576
   73TMC2    H2 1140   4.293   1.986  13.406 -2.8241 -0.8848  2.1987
   73TMC2    C7 1141   4.217   1.748  13.387 -0.0441 -0.4545 -0.5273
   73TMC2    C8 1142   4.345   2.148  13.194  0.0802  0.8744  0.0638
   73TMC2    O1 1143   4.212   1.779  13.507 -0.1131  0.0108  0.1287
   73TMC2    O2 1144   4.433   2.169  13.110 -0.2046  0.4666 -0.4269
   73TMC2    O5 1145   4.345   2.190  13.324 -0.0006  0.3228 -0.1739
   73TMC2    H5 1146   4.265   2.176  13.379  1.0548 -1.3984  0.9132
   74MPD2     C 1147   4.610   1.738  12.626 -0.9260 -0.4485 -0.1856
   74MPD2    C1 1148   4.577   1.652  12.729 -0.0548 -0.1233  0.0383
   74MPD2    C2 1149   4.477   1.697  12.818  0.2226 -0.0612  0.0668
   74MPD2    C3 1150   4.412   1.816  12.796  0.3295 -0.7245 -0.7214
   74MPD2    C4 1151   4.452   1.897  12.691  0.1934  0.4251 -0.4376
   74MPD2    C5 1152   4.552   1.862  12.611 -0.2026  0.0689 -0.2555
   74MPD2     H 1153   4.439   1.627  12.892  1.5166  3.3187  3.9041
   74MPD2    H1 1154   4.395   1.985  12.661 -0.1452 -0.8847 -3.7215
   74MPD2    H2 1155   4.699   1.719  12.567  0.2679 -0.5746  1.6386
   74MPD2    H3 1156   4.584   1.936  12.539 -0.4296  0.1337 -0.2901
   74MPD2     N 1157   4.294   1.853  12.869  0.5939  0.0356  0.5475
   74MPD2    H5 1158   4.256   1.944  12.846  2.1441  0.7212  0.6763
   74MPD2    N1 1159   4.664   1.541  12.759 -0.6411 -0.2345 -0.1577
   74MPD2    H7 1160   0.007   1.525  12.698 -0.8288 -4.9741  0.8451
   75TMC2    C1 1161   0.134   2.217  13.894  0.3504  0.5088  0.5894
   75TMC2    C2 1162   0.108   2.319  13.980  0.2452 -0.1022  0.2679
   75TMC2    C3 1163   0.001   2.394  13.948  0.1032  0.0174  0.3683
   75TMC2    C4 1164   0.060   2.209  13.777  0.0809  0.2009  0.2943
   75TMC2    C5 1165   4.716   2.305  13.736 -0.3951  0.0027  0.0617
   75TMC2    C6 1166   4.675   2.398  13.826 -0.2083 -0.1467 -0.2738
   75TMC2     C 1167   0.261   2.149  13.911  0.0394 -0.3588 -1.0241
   75TMC2     O 1168   0.332   2.201  13.995  0.5455 -0.0293  0.1276
   75TMC2     H 1169   0.163   2.339  14.071  1.8955 -2.0281 -0.3014
   75TMC2    H1 1170   0.089   2.137  13.701  0.2412 -0.6479  1.1551
   75TMC2    H2 1171   4.604   2.472  13.792 -2.2303 -2.5973 -1.3372
   75TMC2    C7 1172   4.681   2.321  13.592  0.0465  0.2885 -0.5934
   75TMC2    C8 1173   4.731   2.512  14.029  0.4838 -0.3636 -0.3685
   75TMC2    O1 1174   4.703   2.231  13.512  0.3225 -0.0150  0.2211
   75TMC2    O2 1175   0.044   2.612  13.974  0.3179  0.4370 -0.2947
   75TMC2    O5 1176   4.600   2.503  14.070  0.2111 -0.3291  0.1392
   75TMC2    H5 1177   4.599   2.410  14.099  0.7558 -0.6708 -0.9345
   76TMC2    C1 1178   3.265   2.869  11.597  0.0362 -0.3161  0.0957
   76TMC2    C2 1179   3.135   2.925  11.585  0.6018  0.1606 -0.3621
   76TMC2    C3 1180   3.048   2.917  11.686 -0.0329  0.6066  0.0458
   76TMC2    C4 1181   3.302   2.810  11.716  0.5649 -0.0416 -0.0493
   76TMC2    C5 1182   3.215   2.827  11.820  0.4854  0.1477  0.5747
   76TMC2    C6 1183   3.093   2.885  11.809 -0.6418  0.1477 -0.0789
   76TMC2     C 1184   3.356   2.906  11.488  0.2862 -0.0886 -0.2331
   76TMC2     O 1185   3.326   3.006  11.424  0.7719  0.1222  0.6101
   76TMC2     H 1186   3.112   2.982  11.496 -2.0803 -2.3984 -1.3076
   76TMC2    H1 1187   3.402   2.771  11.731  0.1681 -1.2591 -0.5469
   76TMC2    H2 1188   3.030   2.900  11.896  0.1077  0.9974  0.3219
   76TMC2    C7 1189   3.257   2.811  11.958 -0.1550 -0.0889 -0.3243
   76TMC2    C8 1190   2.942   3.010  11.683 -0.2125 -0.4821  1.0239
   76TMC2    O1 1191   3.175   2.826  12.049  0.6758  0.2478  0.1388
   76TMC2    O2 1192   2.946   3.107  11.605  0.3641 -0.8878  0.3044
   76TMC2    O5 1193   2.844   2.972  11.754 -0.6472  0.3112  0.3806
   76TMC2    H5 1194   2.849   2.880  11.788 -0.0585 -1.1425 -3.6545
   77MPD2     C 1195   3.789   2.816  11.233  0.6777  0.8122 -0.0509
   77MPD2    C1 1196   3.718   2.935  11.248  0.3185  0.0376  0.2122
   77MPD2    C2 1197   3.600   2.925  11.309  0.2464 -0.6754  0.3284
   77MPD2    C3 1198   3.557   2.811  11.374 -0.0250 -0.1894  0.0245
   77MPD2    C4 1199   3.631   2.695  11.363 -0.1477 -0.2719 -0.2154
   77MPD2    C5 1200   3.744   2.700  11.288 -0.0107 -0.0430 -0.1645
   77MPD2     H 1201   3.548   3.020  11.315  0.6645 -0.3656 -0.7928
   77MPD2    H1 1202   3.596   2.599  11.397  2.2877  0.3848  4.1624
   77MPD2    H2 1203   3.877   2.818  11.169 -0.1996  3.3215 -1.2093
   77MPD2    H3 1204   3.808   2.613  11.275  0.6214  0.3486  0.3735
   77MPD2     N 1205   3.451   2.807  11.468 -0.2162 -0.2970  0.3782
   77MPD2    H5 1206   3.431   2.716  11.508  0.3679 -0.7249 -0.3194
   77MPD2    N1 1207   3.767   3.068  11.200  0.0020  0.2098 -0.5382
   77MPD2    H7 1208   3.714   3.152  11.221 -0.1238 -0.0362  0.1159
   78TMC2    C1 1209   1.279   3.157   1.096 -0.1242  0.3657 -0.2241
   78TMC2    C2 1210   1.288   3.081   1.211 -0.2072 -0.0148  0.2938
   78TMC2    C3 1211   1.366   3.126   1.314  0.8381  0.3911 -0.3887
   78TMC2    C4 1212   1.346   3.278   1.085  0.4045  0.0882  0.5199
   78TMC2    C5 1213   1.419   3.325   1.195  0.1778  0.0735 -0.1683
   78TMC2    C6 1214   1.429   3.248   1.310  0.4591  0.4998  0.3122
   78TMC2     C 1215   1.175   3.123   0.999  0.5156 -0.4092  1.0380
   78TMC2     O 1216   1.071   3.072   1.035  0.5567 -0.1295  0.1944
   78TMC2     H 1217   1.239   2.985   1.223  0.7715 -0.4912  0.5257
   78TMC2    H1 1218   1.335   3.340   0.997  0.2871 -0.4357  0.1668
   78TMC2    H2 1219   1.505   3.272   1.384  1.5727 -0.0302 -0.6428
   78TMC2    C7 1220   1.511   3.435   1.170 -0.7480  0.5938  0.5585
   78TMC2    C8 1221   1.427   3.027   1.399 -0.1167 -0.9331  0.7059
   78TMC2    O1 1222   1.568   3.437   1.057 -0.6729 -0.4255  0.1200
   78TMC2    O2 1223   1.460   3.045   1.516 -0.0340 -0.1471  0.6693
   78TMC2    O5 1224   1.493   2.937   1.319 -0.3976  0.3629 -0.1305
   78TMC2    H5 1225   1.487   2.952   1.222 -3.2924 -1.0745 -0.1994
   79MPD1     C 1226   0.951   3.238   0.550  0.6382  1.6709  0.1574
   79MPD1    C1 1227   0.892   3.187   0.664 -0.1069  0.4118  0.8392
   79MPD1    C2 1228   0.974   3.174   0.776  0.4904 -0.4571  0.0276
   79MPD1    C3 1229   1.115   3.187   0.766 -0.0342  0.3565  0.1643
   79MPD1    C4 1230   1.168   3.228   0.647 -0.0559  1.0026  0.3880
   79MPD1    C5 1231   1.088   3.260   0.541 -0.4463 -0.6362  0.0591
   79MPD1     H 1232   0.918   3.149   0.866 -2.5713  3.9034 -0.6356
   79MPD1    H1 1233   1.276   3.232   0.639 -0.0319 -2.5544 -1.1687
   79MPD1    H2 1234   0.897   3.251   0.457  0.5383 -0.3040 -0.0494
   79MPD1    H3 1235   1.127   3.276   0.441 -0.5018  0.6280  0.2352
   79MPD1     N 1236   1.208   3.173   0.875 -0.1082 -0.3389 -0.2216
   79MPD1    H5 1237   1.303   3.207   0.862 -0.3744  0.5601  0.1497
   79MPD1    N1 1238   0.753   3.185   0.680 -0.4338 -0.1838 -0.3387
   79MPD1    H6 1239   0.697   3.162   0.598  1.0613 -0.9580 -1.1410
   79MPD1    H7 1240   0.714   3.140   0.762  1.7029 -0.0878  0.7142
   80TMC2    C1 1241   3.061   2.215  11.428  0.1148  0.0774  0.6482
   80TMC2    C2 1242   3.148   2.162  11.335  0.0293  0.7627  1.3151
   80TMC2    C3 1243   3.103   2.061  11.257  1.1058 -0.3140  0.1485
   80TMC2    C4 1244   2.937   2.147  11.456  0.4480 -0.6394  0.5266
   80TMC2    C5 1245   2.903   2.040  11.377  0.6216 -0.2216 -0.0676
   80TMC2    C6 1246   2.988   1.995  11.285 -0.0616  0.2096 -0.0655
   80TMC2     C 1247   3.128   2.287  11.542  0.2330  0.0850  0.1799
   80TMC2     O 1248   3.251   2.291  11.543  0.0502  0.5786  0.1565
   80TMC2     H 1249   3.252   2.192  11.336  0.3789 -0.4392  0.8773
   80TMC2    H1 1250   2.876   2.181  11.539  0.8342  1.2843  0.0411
   80TMC2    H2 1251   2.955   1.917  11.217 -0.0189  0.0506  0.0964
   80TMC2    C7 1252   2.802   1.947  11.420  0.4241  0.8258 -0.0168
   80TMC2    C8 1253   3.205   1.973  11.221  0.2055 -0.6431 -0.3079
   80TMC2    O1 1254   2.786   1.863  11.330  0.0354  0.5568 -0.2141
   80TMC2    O2 1255   3.311   1.964  11.280  0.6184 -0.2510 -0.1040
   80TMC2    O5 1256   3.168   1.915  11.107 -0.1188  0.0633 -0.2771
   80TMC2    H5 1257   3.075   1.935  11.083 -0.0860  2.1704  1.3645
   81MPD2     C 1258   3.212   2.405  11.802  0.8090 -0.1613 -0.3741
   81MPD2    C1 1259   3.089   2.421  11.750 -0.5732 -0.0753  0.3081
   81MPD2    C2 1260   2.998   2.495  11.825 -0.4346 -0.4945 -0.0045
   81MPD2    C3 1261   3.019   2.534  11.957 -0.6236  0.1272 -0.1440
   81MPD2    C4 1262   3.138   2.499  12.008  1.8365  0.0255 -0.4159
   81MPD2    C5 1263   3.231   2.437  11.934 -0.3688 -0.1911 -0.8100
   81MPD2     H 1264   2.902   2.513  11.779  0.6771  0.6825 -1.9019
   81MPD2    H1 1265   3.158   2.524  12.112 -2.5621 -2.0343  0.9571
   81MPD2    H2 1266   3.302   2.373  11.750  1.0255 -1.4012  0.7541
   81MPD2    H3 1267   3.330   2.418  11.974 -0.6320  2.1291  0.9366
   81MPD2     N 1268   2.924   2.609  12.033 -0.6279  0.1745  0.0862
   81MPD2    H5 1269   2.932   2.600  12.134  2.7336 -1.4814 -0.3119
   81MPD2    N1 1270   3.049   2.355  11.628 -0.0624 -0.3065 -0.2338
   81MPD2    H7 1271   2.951   2.363  11.603 -0.5384 -3.1023  0.6252
   82TMC2    C1 1272   1.072   2.106  10.958  0.1625 -0.2802  0.3241
   82TMC2    C2 1273   1.142   2.195  11.042  0.1784  0.3710 -0.9434
   82TMC2    C3 1274   1.179   2.141  11.164 -0.3584 -0.4024  0.1548
   82TMC2    C4 1275   1.018   1.992  10.999 -0.2660  0.1215  0.7044
   82TMC2    C5 1276   1.051   1.949  11.126  0.2658 -0.2931  0.5588
   82TMC2    C6 1277   1.126   2.027  11.207  1.0184 -1.2396  0.0785
   82TMC2     C 1278   1.047   2.141  10.821 -0.6361 -0.7287  0.2325
   82TMC2     O 1279   0.951   2.096  10.763  0.2451  0.3117  0.2267
   82TMC2     H 1280   1.167   2.295  11.009 -0.5336  1.2522  1.2139
   82TMC2    H1 1281   0.961   1.928  10.933  1.1742  0.3421 -0.7520
   82TMC2    H2 1282   1.153   1.999  11.308 -0.8053 -1.9151  0.3862
   82TMC2    C7 1283   0.993   1.839  11.195 -0.4642 -0.8578 -0.2994
   82TMC2    C8 1284   1.262   2.218  11.248 -0.0151  0.3996 -0.0152
   82TMC2    O1 1285   1.014   1.828  11.315 -0.0333  0.3029  0.5742
   82TMC2    O2 1286   1.269   2.200  11.372 -0.4966 -0.2471  0.1029
   82TMC2    O5 1287   1.360   2.261  11.167 -0.3433 -0.0798 -0.1271
   82TMC2    H5 1288   1.343   2.257  11.070  1.2319  1.8677 -0.5012
   83MPD2     C 1289   1.067   2.509  10.460 -0.6682 -0.3284  0.0815
   83MPD2    C1 1290   0.956   2.448  10.515 -0.2928 -0.1936  0.9631
   83MPD2    C2 1291   0.971   2.351  10.615 -0.0716 -0.2030 -0.7295
   83MPD2    C3 1292   1.100   2.332  10.671  0.4816 -0.2790 -0.8101
   83MPD2    C4 1293   1.209   2.396  10.610 -0.7210 -0.2761  0.9419
   83MPD2    C5 1294   1.191   2.481  10.502  0.3826  0.5141  0.1883
   83MPD2     H 1295   0.884   2.311  10.666 -0.3196  2.6211  1.0493
   83MPD2    H1 1296   1.310   2.374  10.642 -1.4791  1.0944  4.2879
   83MPD2    H2 1297   1.046   2.582  10.382 -3.2392 -2.2103 -0.9962
   83MPD2    H3 1298   1.281   2.531  10.467  0.2105  1.2439  0.8014
   83MPD2     N 1299   1.125   2.251  10.783 -0.7053 -0.4167 -0.1630
   83MPD2    H5 1300   1.219   2.251  10.822 -0.7263  1.0360 -0.1074
   83MPD2    N1 1301   0.833   2.486  10.462  0.2117  0.4559 -0.3383
   83MPD2    H7 1302   0.845   2.539  10.376  0.9023 -0.4450 -0.7992
   84TMC2    C1 1303   2.048   1.164  11.239 -0.5016  0.2566  0.0282
   84TMC2    C2 1304   2.079   1.084  11.351  0.6190 -0.9903 -0.2675
   84TMC2    C3 1305   2.175   0.982  11.339 -0.0504 -1.3006  0.3846
   84TMC2    C4 1306   2.121   1.150  11.127 -0.4426  0.3749 -0.1275
   84TMC2    C5 1307   2.217   1.045  11.119 -1.1223  0.4883 -0.3860
   84TMC2    C6 1308   2.237   0.955  11.221 -0.4815 -0.0099 -0.2702
   84TMC2     C 1309   1.951   1.275  11.261  0.0515 -0.1150  0.6728
   84TMC2     O 1310   1.928   1.299  11.376  0.0997  0.1934  0.7766
   84TMC2     H 1311   2.036   1.112  11.446  0.5395  0.3554 -0.7038
   84TMC2    H1 1312   2.118   1.222  11.046 -1.9413  0.7830  0.2950
   84TMC2    H2 1313   2.302   0.870  11.207 -1.2765 -0.2974 -2.2297
   84TMC2    C7 1314   2.307   1.054  11.005 -0.0343  0.0019 -0.1534
   84TMC2    C8 1315   2.225   0.906  11.454 -0.2091  0.7500  0.0046
   84TMC2    O1 1316   2.298   1.143  10.923 -0.4291  0.1193  0.0217
   84TMC2    O2 1317   2.338   0.858  11.466 -0.4642  0.1954  0.0885
   84TMC2    O5 1318   2.148   0.944  11.558  0.0148  0.0241 -0.6256
   84TMC2    H5 1319   2.057   0.933  11.521  0.0801  1.1187 -1.1317
   85TMC2    C1 1320   3.278   4.128  15.951 -0.6646 -0.3588  0.1899
   85TMC2    C2 1321   3.168   4.132  15.861 -0.5659 -0.2394 -0.4319
   85TMC2    C3 1322   3.128   4.254  15.810  0.4373  0.4947 -0.2110
   85TMC2    C4 1323   3.325   4.245  16.005 -0.6348  0.0354  0.2180
   85TMC2    C5 1324   3.250   4.360  15.975  0.8749  0.7682 -0.2095
   85TMC2    C6 1325   3.160   4.373  15.872 -0.2924 -0.3835  0.5912
   85TMC2     C 1326   3.300   4.006  16.025 -0.1080 -0.0972  0.2748
   85TMC2     O 1327   3.388   4.006  16.111  0.3919 -0.3517 -0.9136
   85TMC2     H 1328   3.147   4.040  15.807  1.1796 -0.8400 -0.0940
   85TMC2    H1 1329   3.403   4.246  16.080  0.7335  0.8064 -1.2244
   85TMC2    H2 1330   3.108   4.467  15.852 -1.1868 -1.2531 -1.1506
   85TMC2    C7 1331   3.310   4.480  16.022 -0.0155  0.3407 -0.3331
   85TMC2    C8 1332   3.003   4.255  15.731  0.0842 -0.3936  0.1805
   85TMC2    O1 1333   3.419   4.471  16.075  0.2038 -0.3651 -0.0112
   85TMC2    O2 1334   2.913   4.334  15.746 -0.0527 -0.4731 -0.1179
   85TMC2    O5 1335   3.008   4.160  15.644  0.6197 -0.1320  0.0372
   85TMC2    H5 1336   3.100   4.133  15.625 -0.1791 -1.5980 -1.6863
   86MPD2     C 1337   3.083   3.590  16.239 -0.7128  0.4480  0.3754
   86MPD2    C1 1338   3.003   3.630  16.136  0.5676 -0.4788  0.1408
   86MPD2    C2 1339   3.049   3.744  16.068  0.1780 -0.1309 -0.3882
   86MPD2    C3 1340   3.170   3.806  16.100  0.7304 -0.6927 -0.1927
   86MPD2    C4 1341   3.247   3.757  16.200  0.2522  0.0790  0.8373
   86MPD2    C5 1342   3.206   3.650  16.269 -0.1701 -0.2380 -0.4793
   86MPD2     H 1343   2.999   3.772  15.975 -1.5787  4.1868  1.8436
   86MPD2    H1 1344   3.332   3.809  16.242  1.4629 -1.1657 -0.0547
   86MPD2    H2 1345   3.061   3.512  16.311  0.2711  0.1955  0.3955
   86MPD2    H3 1346   3.254   3.623  16.362 -1.9024  0.6893  0.6885
   86MPD2     N 1347   3.196   3.921  16.018 -0.3384 -0.0435  0.0716
   86MPD2    H5 1348   3.113   3.947  15.966 -0.6866  1.0869  1.1749
   86MPD2    N1 1349   2.892   3.558  16.104 -0.5225 -1.1862 -0.0478
   86MPD2    H7 1350   2.844   3.586  16.020 -1.0163 -0.3919  0.4917
   87TMC2    C1 1351   0.985   2.230   1.022 -0.3547  0.0964 -0.5144
   87TMC2    C2 1352   1.112   2.168   1.036  0.2939  0.6923  1.1189
   87TMC2    C3 1353   1.197   2.198   1.128  0.0735 -0.3221  0.4519
   87TMC2    C4 1354   0.950   2.324   1.109  0.1267  0.2501 -0.0063
   87TMC2    C5 1355   1.049   2.372   1.196 -0.3359 -0.3072  0.1669
   87TMC2    C6 1356   1.169   2.308   1.211 -0.6017 -0.7085  0.6532
   87TMC2     C 1357   0.931   2.225   0.896  0.4742  0.4736 -0.2004
   87TMC2     O 1358   0.989   2.155   0.816 -0.2985  0.1421 -0.0360
   87TMC2     H 1359   1.132   2.086   0.967 -2.2588  0.8554  0.1936
   87TMC2    H1 1360   0.851   2.369   1.102 -0.2718 -0.5653  0.3932
   87TMC2    H2 1361   1.251   2.346   1.271  0.2982 -0.6007 -0.6305
   87TMC2    C7 1362   1.014   2.478   1.279  0.3239  0.0709 -0.4844
   87TMC2    C8 1363   1.330   2.142   1.120  0.8510  0.3867  0.8302
   87TMC2    O1 1364   0.912   2.536   1.242  0.0746  0.1037 -0.0678
   87TMC2    O2 1365   1.363   2.072   1.022 -0.2783  0.4485  0.1406
   87TMC2    O5 1366   1.390   2.147   1.236 -0.2439 -0.0936  0.0613
   87TMC2    H5 1367   1.358   2.209   1.305  1.6859  2.5228 -1.3630
   88MPD2     C 1368   1.210   2.677   1.516 -0.4293 -0.3659 -0.0793
   88MPD2    C1 1369   1.116   2.653   1.418  0.4076 -0.3346 -0.4341
   88MPD2    C2 1370   1.040   2.757   1.363  0.3749 -0.3782 -0.6035
   88MPD2    C3 1371   1.050   2.882   1.411  0.3762 -0.4449 -0.2797
   88MPD2    C4 1372   1.140   2.908   1.512 -0.7737  0.3524  1.2672
   88MPD2    C5 1373   1.213   2.804   1.565  0.5663 -0.3630 -0.1244
   88MPD2     H 1374   0.973   2.748   1.278 -1.1622  1.3589  0.4292
   88MPD2    H1 1375   1.157   3.006   1.553 -1.0728  1.0220 -0.2049
   88MPD2    H2 1376   1.271   2.594   1.550 -0.2348 -1.3432 -2.8018
   88MPD2    H3 1377   1.294   2.828   1.634  0.0126  2.3668 -0.4381
   88MPD2     N 1378   0.963   2.980   1.354  0.2361 -0.0615 -0.5285
   88MPD2    H5 1379   0.894   2.937   1.293 -0.2624  0.6922 -0.4877
   88MPD2    N1 1380   1.107   2.521   1.367 -0.5199 -0.7323 -0.0107
   88MPD2    H7 1381   1.172   2.458   1.412  1.1879  1.0704  0.0156
   89TMC2    C1 1382   1.576   1.207   1.661  0.3376  0.1949 -0.2726
   89TMC2    C2 1383   1.443   1.214   1.689 -0.5380  0.5304 -0.6536
   89TMC2    C3 1384   1.392   1.333   1.730  0.3634 -0.1469  0.3832
   89TMC2    C4 1385   1.654   1.318   1.662 -0.6243  0.2484  0.6480
   89TMC2    C5 1386   1.598   1.436   1.703  0.0575 -0.0080 -1.0809
   89TMC2    C6 1387   1.461   1.450   1.731 -0.3692 -0.1767 -0.1204
   89TMC2     C 1388   1.632   1.071   1.649  0.0985  0.4608 -0.5418
   89TMC2     O 1389   1.749   1.064   1.612 -0.1088  0.2937  0.0767
   89TMC2     H 1390   1.372   1.135   1.667  0.1218  0.0346 -1.0056
   89TMC2    H1 1391   1.760   1.304   1.678 -0.7268  0.1372  1.2005
   89TMC2    H2 1392   1.418   1.529   1.792 -1.5023 -1.6574  1.0194
   89TMC2    C7 1393   1.672   1.561   1.707 -0.3386  0.0062  0.8156
   89TMC2    C8 1394   1.251   1.335   1.783 -0.1775  0.2462  0.7495
   89TMC2    O1 1395   1.622   1.653   1.767 -0.5125 -0.1610 -0.1505
   89TMC2    O2 1396   1.153   1.400   1.740 -0.0383 -0.1009  0.3310
   89TMC2    O5 1397   1.232   1.223   1.851 -0.2731 -0.1690  0.0862
   89TMC2    H5 1398   1.319   1.182   1.868  0.5089  1.4278 -0.0106
   90MPD2     C 1399   1.647   0.583   1.805  0.1843  0.7339  0.3110
   90MPD2    C1 1400   1.523   0.628   1.823  0.9039  0.0449  0.1096
   90MPD2    C2 1401   1.491   0.759   1.788  0.6588  0.5484  0.9231
   90MPD2    C3 1402   1.589   0.839   1.732 -0.1791 -0.3934 -0.3037
   90MPD2    C4 1403   1.709   0.787   1.700  0.0801  0.0357  0.0975
   90MPD2    C5 1404   1.743   0.659   1.738 -0.4166  0.9831  0.2892
   90MPD2     H 1405   1.391   0.792   1.814 -1.4566 -2.5636 -3.3813
   90MPD2    H1 1406   1.775   0.845   1.638 -1.5012  0.8611 -0.8218
   90MPD2    H2 1407   1.681   0.482   1.827 -1.6935 -0.2918 -1.4644
   90MPD2    H3 1408   1.839   0.622   1.703 -1.4801 -1.8913  0.3496
   90MPD2     N 1409   1.550   0.972   1.690  0.3113  0.4651  0.4146
   90MPD2    H5 1410   1.453   0.990   1.714  0.8253  2.0256  1.3212
   90MPD2    N1 1411   1.421   0.563   1.894 -0.2997  0.1171  0.2260
   90MPD2    H7 1412   1.332   0.610   1.903 -0.2161  0.2807  0.1976
   91TMC2    C1 1413   2.719   4.505  16.395  0.7596  0.1288 -0.8365
   91TMC2    C2 1414   2.777   4.416  16.488  0.1333  0.4873  0.1820
   91TMC2    C3 1415   2.711   4.300  16.523 -0.6348 -0.1885  0.0935
   91TMC2    C4 1416   2.609   4.463  16.328  0.0147 -0.4182 -0.3554
   91TMC2    C5 1417   2.557   4.333  16.353 -0.0965  0.7131 -0.0285
   91TMC2    C6 1418   2.606   4.257  16.451  0.5201  0.1111 -0.7143
   91TMC2     C 1419   2.751   4.647  16.401  0.6577  0.0006 -0.6452
   91TMC2     O 1420   2.663   4.723  16.366  0.3962  0.4851  0.3383
   91TMC2     H 1421   2.854   4.463  16.549  1.9301 -1.0716 -0.8912
   91TMC2    H1 1422   2.558   4.530  16.261  0.2072  1.4214  1.3354
   91TMC2    H2 1423   2.556   4.165  16.481  0.1605  0.2244 -0.9663
   91TMC2    C7 1424   2.484   4.258  16.261  0.1743  0.5977 -0.5014
   91TMC2    C8 1425   2.762   4.224  16.637  0.0523  0.5022  0.2912
   91TMC2    O1 1426   2.484   4.134  16.261 -0.6663  0.3248  0.2683
   91TMC2    O2 1427   2.698   4.132  16.691 -0.1258  0.4991  0.1514
   91TMC2    O5 1428   2.898   4.230  16.629 -0.9911  0.6722 -0.0914
   91TMC2    H5 1429   2.934   4.300  16.571  1.7167 -1.6585 -1.2016
   92MPD2     C 1430   2.884   0.168  16.420 -0.3247 -0.0784  0.2376
   92MPD2    C1 1431   2.955   0.054  16.429 -0.1716 -0.5501  0.4152
   92MPD2    C2 1432   3.087   0.062  16.444 -0.1582 -0.1280 -1.2415
   92MPD2    C3 1433   3.164   0.172  16.439 -0.2098 -0.6778 -0.0777
   92MPD2    C4 1434   3.091   0.288  16.421 -0.3239  0.4283 -0.6755
   92MPD2    C5 1435   2.950   0.285  16.420  0.3994  0.1426 -0.3096
   92MPD2     H 1436   3.135   4.702  16.459 -2.3709 -1.2026 -0.9513
   92MPD2    H1 1437   3.131   0.389  16.420 -1.0378  0.7486  2.0995
   92MPD2    H2 1438   2.776   0.162  16.430 -0.3656  1.6348  0.7199
   92MPD2    H3 1439   2.896   0.379  16.429  0.3352 -0.0529  1.4340
   92MPD2     N 1440   3.305   0.162  16.447 -0.2775 -0.4418  0.5314
   92MPD2    H5 1441   3.344   0.071  16.468 -0.5138 -0.6251  0.1742
   92MPD2    N1 1442   2.888   4.667  16.427  0.1514 -0.1213 -0.3420
   92MPD2    H7 1443   2.949   4.587  16.441 -1.1061 -0.5546  2.6779
   93TMC2    C1 1444   0.265   0.087  14.178  0.1262  0.4453  0.4190
   93TMC2    C2 1445   0.212   0.063  14.299  0.1021 -0.5963  0.5617
   93TMC2    C3 1446   0.285   0.072  14.413 -0.5045  0.4610 -0.0235
   93TMC2    C4 1447   0.401   0.109  14.165  0.5865 -0.6502 -0.3515
   93TMC2    C5 1448   0.476   0.125  14.277 -0.0543 -0.1964  0.2943
   93TMC2    C6 1449   0.418   0.100  14.400 -0.1809 -0.1813  0.2976
   93TMC2     C 1450   0.191   0.147  14.068 -0.4577 -0.1840  0.4646
   93TMC2     O 1451   0.236   0.143  13.957  0.4677 -0.3333 -0.0098
   93TMC2     H 1452   0.110   0.025  14.301  0.5123 -1.8663 -1.8822
   93TMC2    H1 1453   0.450   0.145  14.075  1.2466  2.2698  1.1450
   93TMC2    H2 1454   0.470   0.110  14.495 -0.0222  4.4040 -0.2569
   93TMC2    C7 1455   0.583   0.217  14.277 -0.0152  0.3418 -0.5298
   93TMC2    C8 1456   0.237   0.031  14.539 -0.3617  0.1533 -0.5655
   93TMC2    O1 1457   0.623   0.247  14.391 -0.2527 -0.0295  0.1319
   93TMC2    O2 1458   0.307   4.715  14.623 -0.2980 -0.1620 -0.7576
   93TMC2    O5 1459   0.138   0.119  14.569 -0.5411 -0.6063 -0.2030
   93TMC2    H5 1460   0.133   0.192  14.503  1.0696  0.3778  0.7698
   94MPD2     C 1461   4.736   0.299  13.893  1.0677  0.0629 -0.3938
   94MPD2    C1 1462   4.718   0.278  14.033  0.3566  0.6316 -0.2145
   94MPD2    C2 1463   4.609   0.315  14.099  0.1674  0.0609 -0.5981
   94MPD2    C3 1464   4.510   0.371  14.021  1.5597 -0.5245 -0.3950
   94MPD2    C4 1465   4.522   0.392  13.886  0.0204 -0.0460  0.5880
   94MPD2    C5 1466   4.632   0.356  13.824  0.3107  0.2331 -0.2593
   94MPD2     H 1467   4.610   0.304  14.207 -1.0047 -0.6100 -0.6508
   94MPD2    H1 1468   4.447   0.447  13.831  0.4388  2.5072  2.5802
   94MPD2    H2 1469   0.090   0.282  13.835 -0.5931  1.9741 -3.5446
   94MPD2    H3 1470   4.637   0.385  13.720 -2.1638  2.3016  0.1820
   94MPD2     N 1471   4.381   0.406  14.073 -0.5270  0.4972  0.0775
   94MPD2    H5 1472   4.317   0.445  14.005 -1.6423 -0.3343  0.6546
   94MPD2    N1 1473   0.081   0.215  14.115  0.3910  0.6404  0.4364
   94MPD2    H7 1474   0.058   0.207  14.214 -3.5459  0.6159 -0.4850
   95TMC2    C1 1475   0.074   1.712  15.948  0.0704  0.3594  0.4050
   95TMC2    C2 1476   0.037   1.588  15.900  0.3858  0.4481  0.2529
   95TMC2    C3 1477   0.047   1.485  15.983  0.0461 -0.0292  0.0561
   95TMC2    C4 1478   0.100   1.736  16.077  0.2704 -0.0621 -0.3769
   95TMC2    C5 1479   0.083   1.632  16.157 -0.3104 -0.6846  0.6798
   95TMC2    C6 1480   0.062   1.504  16.118 -1.2021 -0.6574  0.4626
   95TMC2     C 1481   0.120   1.805  15.846 -0.5466 -0.3564 -0.2760
   95TMC2     O 1482   0.214   1.876  15.862 -0.2952 -1.0097  0.0692
   95TMC2     H 1483   0.025   1.570  15.794 -0.1702 -0.6282  0.5016
   95TMC2    H1 1484   0.117   1.836  16.114 -0.4765  0.8399 -2.4687
   95TMC2    H2 1485   0.031   1.423  16.184 -4.1710  1.2029  1.3393
   95TMC2    C7 1486   0.058   1.666  16.299  0.7686  0.0966  0.4973
   95TMC2    C8 1487   0.068   1.353  15.924  0.2974 -0.2423  0.4846
   95TMC2    O1 1488   0.024   1.782  16.315 -0.2423  0.2414  0.1339
   95TMC2    O2 1489   4.726   1.289  15.852 -0.4878 -0.1104 -0.1775
   95TMC2    O5 1490   0.175   1.307  15.992 -0.4831 -0.0308 -0.0765
   95TMC2    H5 1491   0.228   1.377  16.036 -0.6429 -0.9197  1.5288
   96MPD2     C 1492   0.079   2.022  15.392 -0.2120  0.7062  0.4837
   96MPD2    C1 1493   0.173   2.053  15.478  0.1651 -1.5995 -0.0898
   96MPD2    C2 1494   0.160   1.986  15.601  0.0325 -0.7089  0.0677
   96MPD2    C3 1495   0.070   1.874  15.618  0.7302  0.5430  0.0699
   96MPD2    C4 1496   4.722   1.842  15.512 -0.8028 -0.2778 -0.5697
   96MPD2    C5 1497   4.723   1.925  15.405 -0.1951  0.0943  0.6604
   96MPD2     H 1498   0.221   2.022  15.683  0.1582 -4.9926  1.8769
   96MPD2    H1 1499   4.644   1.767  15.520 -0.6992 -0.4864 -1.4682
   96MPD2    H2 1500   0.082   2.066  15.293  1.8833 -2.1219 -0.7070
   96MPD2    H3 1501   4.654   1.900  15.326  0.1782 -0.6245  0.5659
   96MPD2     N 1502   0.046   1.806  15.737 -0.0060  0.5086 -0.7445
   96MPD2    H5 1503   4.697   1.752  15.738  0.5898 -0.3184  3.5876
   96MPD2    N1 1504   0.272   2.143  15.442 -0.4304 -0.9134 -0.3725
   96MPD2    H7 1505   0.280   2.183  15.349 -0.8417  1.0903  0.4469
   97TMC2    C1 1506   2.987   0.138   0.245  0.0823  0.3336 -0.4514
   97TMC2    C2 1507   2.939   0.122   0.119  0.4140  0.0831  0.2953
   97TMC2    C3 1508   2.961   0.221   0.031  0.0261 -0.7600 -0.0974
   97TMC2    C4 1509   3.028   0.255   0.298 -0.9665  0.4372  0.0672
   97TMC2    C5 1510   3.030   0.357   0.210 -0.0775  0.4685 -0.6208
   97TMC2    C6 1511   3.009   0.337   0.073  0.3693  0.3652 -0.2458
   97TMC2     C 1512   2.964   0.025   0.336  0.8050 -0.5872  0.6584
   97TMC2     O 1513   2.897   4.665   0.299  0.0988 -0.4598  0.1821
   97TMC2     H 1514   2.908   0.021   0.094 -0.8724  0.8205 -1.0821
   97TMC2    H1 1515   3.024   0.280   0.404 -1.4534 -1.4786  0.5075
   97TMC2    H2 1516   3.026   0.417   0.000  0.8505  1.3714  0.9653
   97TMC2    C7 1517   3.079   0.483   0.257  0.1113 -0.9498 -0.3465
   97TMC2    C8 1518   2.950   0.195  17.627 -0.3186  0.3314 -0.2832
   97TMC2    O1 1519   3.126   0.490   0.369 -0.8605 -0.6179 -0.1063
   97TMC2    O2 1520   3.045   0.213  17.554 -0.3572 -0.2614  0.4374
   97TMC2    O5 1521   2.873   0.085  17.623 -0.3835  0.3441 -0.0804
   97TMC2    H5 1522   2.802   0.086  17.691 -2.2782  0.5946 -2.0612
   98MPD2     C 1523   3.129   4.473   0.729 -0.3439 -0.0662  0.4328
   98MPD2    C1 1524   3.035   4.446   0.631 -0.4436  0.6843 -0.1888
   98MPD2    C2 1525   3.015   4.536   0.527  0.7654  0.3014 -0.6134
   98MPD2    C3 1526   3.082   4.660   0.527 -0.9224 -0.5927 -0.3189
   98MPD2    C4 1527   3.167   4.689   0.629  0.0974  0.4908 -0.0896
   98MPD2    C5 1528   3.201   4.592   0.725 -0.8498 -0.7215  0.3823
   98MPD2     H 1529   2.933   4.515   0.458  0.5508 -4.9388  1.2201
   98MPD2    H1 1530   3.214   0.050   0.635 -0.8911  0.8487  2.1525
   98MPD2    H2 1531   3.152   4.403   0.809 -1.8625 -0.5705  0.4399
   98MPD2    H3 1532   3.269   4.620   0.804  1.5008 -0.7818 -1.5850
   98MPD2     N 1533   3.053   0.032   0.439 -0.2449 -0.6600  0.1102
   98MPD2    H5 1534   3.112   0.114   0.447 -1.9107  0.7418 -2.2743
   98MPD2    N1 1535   2.971   4.321   0.628 -0.0555  0.3310 -0.8442
   98MPD2    H7 1536   2.954   4.267   0.713 -1.5525 -0.2591 -1.5233
   99TMC2    C1 1537   1.807   0.929   1.315 -0.6987  0.9201  0.1851
   99TMC2    C2 1538   1.935   0.940   1.363  0.2623  0.0155  0.0872
   99TMC2    C3 1539   1.996   1.060   1.367 -0.3202 -0.6566  0.0181
   99TMC2    C4 1540   1.739   1.046   1.275 -0.1561 -0.0039  0.2843
   99TMC2    C5 1541   1.801   1.171   1.291 -0.4369 -0.3347  0.1580
   99TMC2    C6 1542   1.927   1.179   1.340 -0.6241  0.2469 -0.7157
   99TMC2     C 1543   1.745   0.799   1.313  0.2399 -0.3436 -1.3864
   99TMC2     O 1544   1.800   0.708   1.370  0.2378  0.0485  0.1226
   99TMC2     H 1545   1.978   0.850   1.406  2.0044 -0.1244 -1.9379
   99TMC2    H1 1546   1.631   1.033   1.265 -0.1472 -0.9012  1.3722
   99TMC2    H2 1547   1.975   1.270   1.374  2.3381 -0.1027 -4.0035
   99TMC2    C7 1548   1.728   1.296   1.288  0.6421 -0.1931  0.2612
   99TMC2    C8 1549   2.091   1.080   1.468 -0.0087 -0.4178 -0.3102
   99TMC2    O1 1550   1.791   1.397   1.313 -0.2506  0.3480 -0.1350
   99TMC2    O2 1551   2.204   1.124   1.441 -0.1488 -0.1339 -0.2818
   99TMC2    O5 1552   2.017   1.129   1.575  0.0334 -0.3521  0.0471
   99TMC2    H5 1553   1.927   1.092   1.561 -0.1903  0.5882 -1.0213
  100MPD2     C 1554   1.532   0.584   1.300  0.6994 -0.1275  0.1800
  100MPD2    C1 1555   1.542   0.689   1.212  0.3348 -0.6058 -0.3558
  100MPD2    C2 1556   1.463   0.680   1.102  0.1334  0.2882  0.7237
  100MPD2    C3 1557   1.377   0.575   1.075  0.3576 -0.0973 -0.5088
  100MPD2    C4 1558   1.363   0.481   1.173  0.2910 -0.0722 -0.3827
  100MPD2    C5 1559   1.434   0.487   1.283  0.4404  0.0419  0.4204
  100MPD2     H 1560   1.466   0.766   1.036 -0.9166 -1.2228 -1.2972
  100MPD2    H1 1561   1.288   0.403   1.169  0.9661 -0.6917 -0.9727
  100MPD2    H2 1562   1.587   0.587   1.394  0.3600 -2.1428  0.4429
  100MPD2    H3 1563   1.420   0.405   1.353  1.2314  0.7021  1.3420
  100MPD2     N 1564   1.306   0.582   0.951 -0.1464 -0.7531 -0.4393
  100MPD2    H5 1565   1.334   0.651   0.881  3.0642 -0.6127  0.9886
  100MPD2    N1 1566   1.631   0.797   1.230 -0.0412 -0.2340  0.1551
  100MPD2    H7 1567   1.604   0.880   1.178  1.7361  1.4339  1.8754
  101TMC2    C1 1568   2.319   2.861  13.177  0.1372 -0.5078 -0.2855
  101TMC2    C2 1569   2.384   2.849  13.296  0.2591  0.5263  0.0012
  101TMC2    C3 1570   2.494   2.926  13.304 -0.0179 -0.1209 -0.1941
  101TMC2    C4 1571   2.366   2.931  13.072 -0.3727  0.1998  0.1792
  101TMC2    C5 1572   2.478   3.010  13.087 -0.6911  0.0166 -0.2860
  101TMC2    C6 1573   2.549   2.998  13.202 -0.1207 -0.5150  0.4002
  101TMC2     C 1574   2.205   2.778  13.156  0.3458  0.0537 -0.1591
  101TMC2     O 1575   2.141   2.737  13.253  0.1988 -0.7088  0.0082
  101TMC2     H 1576   2.335   2.799  13.380  1.0590 -1.2871 -0.6053
  101TMC2    H1 1577   2.301   2.959  12.990 -0.9852 -1.5729  0.0555
  101TMC2    H2 1578   2.652   3.023  13.225  0.3602 -0.9823 -1.1949
  101TMC2    C7 1579   2.545   3.077  12.977 -0.6432  0.5436  0.4163
  101TMC2    C8 1580   2.547   2.945  13.442  0.5647 -0.0232  0.1392
  101TMC2    O1 1581   2.500   3.054  12.866 -0.0386 -0.5164 -0.2636
  101TMC2    O2 1582   2.523   2.866  13.532 -0.8943  0.4618 -0.6661
  101TMC2    O5 1583   2.571   3.076  13.450  0.2271 -1.0732 -0.1126
  101TMC2    H5 1584   2.567   3.132  13.370 -1.2668  1.2174  1.5946
  102MPD2     C 1585   2.150   2.597  12.838 -0.2118  0.2323  0.1143
  102MPD2    C1 1586   2.128   2.640  12.971 -0.5119 -0.5996 -0.1684
  102MPD2    C2 1587   2.014   2.582  13.035  0.1249 -0.2116 -0.7272
  102MPD2    C3 1588   1.933   2.490  12.975 -0.6444 -0.2745 -0.3011
  102MPD2    C4 1589   1.961   2.446  12.854  0.6490 -0.0774  0.2930
  102MPD2    C5 1590   2.065   2.498  12.790 -0.2071 -0.0385  0.7089
  102MPD2     H 1591   1.983   2.612  13.134  2.2243  2.2493 -0.8043
  102MPD2    H1 1592   1.902   2.370  12.803 -0.0852 -0.3788  1.5894
  102MPD2    H2 1593   2.231   2.639  12.781  1.7365 -0.4260  2.4005
  102MPD2    H3 1594   2.080   2.459  12.690  0.5313 -0.7945  1.1196
  102MPD2     N 1595   1.818   2.446  13.037  0.0275 -0.4932  0.4204
  102MPD2    H5 1596   1.821   2.457  13.138  0.0758  1.7494  0.1748
  102MPD2    N1 1597   2.211   2.738  13.024 -0.8042 -0.4969  0.2396
  102MPD2    H7 1598   2.283   2.775  12.962 -0.8786  0.1038  0.5142
  103TMC2    C1 1599   4.003   2.537  12.178 -0.1950 -0.1356 -0.1049
  103TMC2    C2 1600   4.103   2.506  12.094 -0.3534 -0.2305 -0.2075
  103TMC2    C3 1601   4.230   2.478  12.144  0.4428 -0.0385 -0.2914
  103TMC2    C4 1602   4.037   2.562  12.313  0.1468  0.3914  0.8075
  103TMC2    C5 1603   4.169   2.535  12.357 -0.1137 -0.3120 -0.4689
  103TMC2    C6 1604   4.264   2.487  12.273 -0.2043  0.3008  0.5634
  103TMC2     C 1605   3.874   2.584  12.124  0.2568  0.4254  0.2002
  103TMC2     O 1606   3.849   2.564  12.005  0.2355  0.3203 -0.3053
  103TMC2     H 1607   4.073   2.487  11.992 -1.7211  0.0613  0.1516
  103TMC2    H1 1608   3.968   2.610  12.382 -0.2687  0.5207  0.2972
  103TMC2    H2 1609   4.362   2.459  12.311 -0.2779 -1.0300 -0.2100
  103TMC2    C7 1610   4.204   2.584  12.483 -0.0733 -0.5236 -0.8924
  103TMC2    C8 1611   4.322   2.409  12.058 -0.2364  0.0774  0.0796
  103TMC2    O1 1612   4.123   2.581  12.574  0.1566 -0.7518 -0.3367
  103TMC2    O2 1613   4.419   2.346  12.102  0.4930 -0.6250 -0.2688
  103TMC2    O5 1614   4.299   2.439  11.930 -0.4683  0.3691 -0.3633
  103TMC2    H5 1615   4.221   2.496  11.911 -2.2781 -2.2487 -0.8550
  104MPD2     C 1616   3.580   2.659  12.323 -0.5444 -0.3470  0.3404
  104MPD2    C1 1617   3.653   2.650  12.206  0.1915 -0.1241  0.4326
  104MPD2    C2 1618   3.583   2.690  12.093  0.2214  0.5755 -0.0628
  104MPD2    C3 1619   3.453   2.723  12.093  0.0929 -0.4142  0.1428
  104MPD2    C4 1620   3.374   2.709  12.204  0.4374  0.3428 -0.1920
  104MPD2    C5 1621   3.439   2.681  12.318 -0.2370 -0.3294 -0.2353
  104MPD2     H 1622   3.637   2.697  11.999 -0.3476 -1.3844 -0.5294
  104MPD2    H1 1623   3.268   2.717  12.221  0.3780 -0.3747 -0.2299
  104MPD2    H2 1624   3.624   2.637  12.419 -3.8361 -0.4019  1.8331
  104MPD2    H3 1625   3.384   2.659  12.409 -0.7077 -0.6662 -0.6080
  104MPD2     N 1626   3.389   2.759  11.971  0.8892  0.2579  0.3148
  104MPD2    H5 1627   3.452   2.754  11.892  1.9090 -0.5166  1.1642
  104MPD2    N1 1628   3.780   2.605  12.225 -0.0277  0.0787 -0.2538
  104MPD2    H7 1629   3.807   2.570  12.316  0.2943 -0.7392 -0.6585
  105TMC2    C1 1630   0.887   2.193   0.016 -0.0580 -0.0267 -0.3378
  105TMC2    C2 1631   0.922   2.314  17.703 -0.0735  0.2803 -0.4131
  105TMC2    C3 1632   0.875   2.426   0.021 -0.8324 -0.6054 -0.5644
  105TMC2    C4 1633   0.822   2.186   0.138  0.4049 -0.3146 -0.3140
  105TMC2    C5 1634   0.776   2.302   0.194  0.2947  0.3950 -0.1492
  105TMC2    C6 1635   0.791   2.425   0.128 -0.0351 -0.3441 -0.0086
  105TMC2     C 1636   0.933   2.061  17.716 -0.7138 -0.7942  0.0437
  105TMC2     O 1637   0.897   1.970   0.040  1.1380 -0.4318  0.3043
  105TMC2     H 1638   0.981   2.328  17.613 -0.4647 -0.1944 -0.7390
  105TMC2    H1 1639   0.807   2.091   0.188  0.4543  0.4084  1.0859
  105TMC2    H2 1640   0.732   2.509   0.163 -1.4341 -1.1732 -0.3666
  105TMC2    C7 1641   0.674   2.297   0.303  0.0463 -0.4230  0.4706
  105TMC2    C8 1642   0.938   2.547  17.718  0.1540  0.8052  0.1460
  105TMC2    O1 1643   0.578   2.372   0.291  0.3162 -0.2872  0.0615
  105TMC2    O2 1644   1.031   2.550  17.635  1.0037 -0.2483  0.8119
  105TMC2    O5 1645   0.914   2.653   0.051  0.4098  0.2804 -0.5237
  105TMC2    H5 1646   0.856   2.626   0.125 -1.8197  1.6898 -1.7541
  106MPD2     C 1647   1.293   1.788  17.467  0.3045  0.0429  0.8180
  106MPD2    C1 1648   1.301   1.922  17.432 -0.0821 -0.2224 -0.6976
  106MPD2    C2 1649   1.216   2.013  17.485 -0.0051 -0.1883 -0.2715
  106MPD2    C3 1650   1.119   1.970  17.570  0.2474  0.6125  0.4501
  106MPD2    C4 1651   1.112   1.837  17.619 -0.9770 -0.1310 -0.1802
  106MPD2    C5 1652   1.212   1.747  17.572  0.4533 -0.2368 -0.4044
  106MPD2     H 1653   1.217   2.118  17.456  1.0234  0.2750  1.4153
  106MPD2    H1 1654   1.038   1.800  17.689 -0.3313 -0.1456  0.4930
  106MPD2    H2 1655   1.363   1.713  17.433 -0.8197 -0.9021  0.5699
  106MPD2    H3 1656   1.223   1.642  17.597 -0.7094 -0.1899  0.3168
  106MPD2     N 1657   1.034   2.070  17.618  0.4752 -0.2642 -0.0626
  106MPD2    H5 1658   1.046   2.163  17.581  0.8461  0.5230  2.0932
  106MPD2    N1 1659   1.387   1.967  17.327 -0.5871 -0.2162  0.2647
  106MPD2    H7 1660   1.372   2.058  17.285  0.1007  0.8175  2.3052
  107TMC2    C1 1661   1.925   2.026  11.639 -0.1197  0.4354 -0.0623
  107TMC2    C2 1662   1.985   2.152  11.631  0.0123  0.0997 -0.0132
  107TMC2    C3 1663   2.026   2.197  11.507 -0.1158 -0.1980 -0.2426
  107TMC2    C4 1664   1.900   1.951  11.528  0.6307  0.3753 -0.6585
  107TMC2    C5 1665   1.937   2.002  11.406  0.7060  0.3924  0.6101
  107TMC2    C6 1666   1.995   2.128  11.394 -0.1297  0.7701  0.8242
  107TMC2     C 1667   1.882   1.974  11.767 -0.0161  0.1173  0.2134
  107TMC2     O 1668   1.800   1.890  11.769 -0.3285  0.3952 -0.3417
  107TMC2     H 1669   2.019   2.207  11.718 -0.3100  0.0081  0.1716
  107TMC2    H1 1670   1.846   1.858  11.538  0.0597  0.9883  1.9883
  107TMC2    H2 1671   2.021   2.165  11.295  1.5182 -2.6287 -0.0416
  107TMC2    C7 1672   1.930   1.930  11.283 -0.2791  0.2672 -0.5188
  107TMC2    C8 1673   2.103   2.318  11.508 -0.0994  0.0033  0.0572
  107TMC2    O1 1674   1.963   1.984  11.176  0.5251 -0.3960  0.5024
  107TMC2    O2 1675   2.116   2.396  11.602  0.1402 -0.5248 -0.3716
  107TMC2    O5 1676   2.091   2.369  11.387 -0.0118  0.1499  0.0934
  107TMC2    H5 1677   2.050   2.314  11.317  2.3329 -1.4439 -0.0261
  108MPD2     C 1678   2.064   2.031  12.079  0.6517 -0.1249  0.2665
  108MPD2    C1 1679   1.951   2.001  12.003  0.4468  0.1602 -0.4123
  108MPD2    C2 1680   1.834   1.946  12.060 -0.1500 -0.2056  0.4174
  108MPD2    C3 1681   1.845   1.890  12.183 -0.7238  0.4437  0.2261
  108MPD2    C4 1682   1.954   1.921  12.258  0.1616  0.0495 -0.0875
  108MPD2    C5 1683   2.056   1.994  12.212  0.3312 -0.8328 -0.3541
  108MPD2     H 1684   1.746   1.954  11.999  1.1602  1.9374 -1.1930
  108MPD2    H1 1685   1.962   1.884  12.360 -0.7875  0.4050  0.1117
  108MPD2    H2 1686   2.149   2.086  12.039  0.3436  0.0786 -0.1072
  108MPD2    H3 1687   2.135   2.014  12.284  0.3371 -0.6015 -0.4229
  108MPD2     N 1688   1.740   1.833  12.256 -0.3430 -0.0902  0.0426
  108MPD2    H5 1689   1.754   1.820  12.356  1.6023  1.6075 -0.0068
  108MPD2    N1 1690   1.955   2.033  11.865 -0.2238  0.5984 -0.0939
  108MPD2    H7 1691   2.042   2.081  11.843 -0.2230  0.2555 -0.8282
  109TMC2    C1 1692   2.088   3.335   0.085  0.4621  0.3704 -0.2224
  109TMC2    C2 1693   2.100   3.274  17.709  0.4847  0.1472 -0.3636
  109TMC2    C3 1694   2.232   3.276  17.662  0.5443 -0.2074  0.5430
  109TMC2    C4 1695   2.192   3.404   0.154  0.3300 -0.0879 -0.2845
  109TMC2    C5 1696   2.318   3.400   0.095  0.5966  0.0394 -0.7418
  109TMC2    C6 1697   2.341   3.331  17.725  0.2378  0.2275 -0.2448
  109TMC2     C 1698   1.951   3.333   0.126  0.1926  0.1456  0.5355
  109TMC2     O 1699   1.863   3.300   0.050  0.5704  0.4334  0.2536
  109TMC2     H 1700   2.026   3.218  17.653 -0.0851 -0.3588  0.9050
  109TMC2    H1 1701   2.177   3.475   0.234  0.8139  2.3915 -2.4071
  109TMC2    H2 1702   2.428   3.354  17.666  2.1712  1.7100  3.1796
  109TMC2    C7 1703   2.420   3.483   0.162 -0.3321  0.1727 -0.7445
  109TMC2    C8 1704   2.248   3.216  17.530  0.0144  0.5542  0.0445
  109TMC2    O1 1705   2.375   3.589   0.205  0.3234 -0.2002 -0.0965
  109TMC2    O2 1706   2.355   3.175  17.487  0.3371 -0.4810 -0.1411
  109TMC2    O5 1707   2.164   3.279  17.448  0.6399  0.4638 -0.5131
  109TMC2    H5 1708   2.105   3.341  17.496  0.1855  0.3709 -0.9610
  110MPD2     C 1709   1.598   3.666   0.342 -0.5215 -0.7162 -0.6122
  110MPD2    C1 1710   1.730   3.694   0.395 -0.4447 -0.4950 -0.4260
  110MPD2    C2 1711   1.833   3.605   0.361 -0.4856 -0.2054 -0.2518
  110MPD2    C3 1712   1.817   3.500   0.271 -0.3501  0.5459 -0.1063
  110MPD2    C4 1713   1.687   3.475   0.229 -0.5866 -0.3304 -0.2440
  110MPD2    C5 1714   1.577   3.552   0.261 -0.4547 -0.6511 -0.4104
  110MPD2     H 1715   1.933   3.622   0.398  0.1534 -0.2510 -1.9895
  110MPD2    H1 1716   1.663   3.402   0.153 -2.6105  0.9475 -0.8561
  110MPD2    H2 1717   1.515   3.733   0.362 -0.2384 -1.0994  1.8212
  110MPD2    H3 1718   1.475   3.538   0.227 -1.8894  2.4769  2.5820
  110MPD2     N 1719   1.932   3.418   0.232  0.1005 -0.3538  0.1874
  110MPD2    H5 1720   2.018   3.431   0.285  1.0667  1.3832 -1.7953
  110MPD2    N1 1721   1.742   3.801   0.489  0.1451  0.4016 -0.2664
  110MPD2    H7 1722   1.660   3.854   0.514 -1.0203 -0.8113 -1.5075
  111TMC2    C1 1723   1.834   3.802  11.772  0.0302 -0.1694  0.7509
  111TMC2    C2 1724   1.740   3.791  11.868  0.1980  0.5291  0.7576
  111TMC2    C3 1725   1.780   3.788  11.998  0.3963 -0.2036 -0.3992
  111TMC2    C4 1726   1.963   3.808  11.800  0.1578  0.8146 -0.2192
  111TMC2    C5 1727   2.000   3.808  11.924  0.7458 -0.0109  0.2922
  111TMC2    C6 1728   1.910   3.797  12.035  0.0505 -0.2729  0.6088
  111TMC2     C 1729   1.799   3.763  11.630 -0.5817 -0.9651 -0.2784
  111TMC2     O 1730   1.876   3.801  11.538 -0.1015  0.4802  0.1981
  111TMC2     H 1731   1.635   3.799  11.843  0.6562  1.7859 -0.7426
  111TMC2    H1 1732   2.035   3.796  11.719  0.0334  0.8892 -0.3397
  111TMC2    H2 1733   1.941   3.772  12.135 -1.5019  2.8024  1.8477
  111TMC2    C7 1734   2.134   3.753  11.948 -0.7251 -0.4816  0.0625
  111TMC2    C8 1735   1.691   3.766  12.108 -0.0319 -0.2582  0.1081
  111TMC2    O1 1736   2.154   3.689  12.048  0.3556  0.2238  0.4950
  111TMC2    O2 1737   1.721   3.826  12.213  0.2569  0.1948  0.1257
  111TMC2    O5 1738   1.562   3.747  12.057  0.5351 -0.7800 -0.1032
  111TMC2    H5 1739   1.567   3.689  11.978 -0.7674 -1.7395  0.5398
  112MPD2     C 1740   1.531   3.481  11.303 -0.3593  0.6474  0.2268
  112MPD2    C1 1741   1.607   3.593  11.274 -0.2419 -0.3536  0.2668
  112MPD2    C2 1742   1.669   3.665  11.378 -0.2068  0.0806  0.0840
  112MPD2    C3 1743   1.646   3.611  11.505  0.0300 -0.5293  0.0187
  112MPD2    C4 1744   1.579   3.490  11.527  0.1466  0.0123 -0.2405
  112MPD2    C5 1745   1.529   3.422  11.423  0.0498  0.7426  0.2213
  112MPD2     H 1746   1.746   3.741  11.369  0.2117 -0.1274  1.8281
  112MPD2    H1 1747   1.579   3.443  11.624  0.5646 -1.7274 -1.0909
  112MPD2    H2 1748   1.483   3.418  11.229 -1.4483  1.3275  0.3546
  112MPD2    H3 1749   1.479   3.327  11.439  0.2238  0.5283 -0.5134
  112MPD2     N 1750   1.700   3.669  11.624 -0.0671  0.3609  0.2395
  112MPD2    H5 1751   1.670   3.631  11.714  1.4282  2.4203  1.5838
  112MPD2    N1 1752   1.633   3.636  11.144  0.0447 -0.4735 -0.0940
  112MPD2    H7 1753   1.709   3.697  11.115  0.6980 -0.0179  2.6005
  113TMC2    C1 1754   0.483   0.880   0.934 -0.7736 -0.0442  0.2117
  113TMC2    C2 1755   0.374   0.958   0.919  0.0022  0.1368  0.6248
  113TMC2    C3 1756   0.257   0.910   0.959 -0.0650  0.6422  0.7335
  113TMC2    C4 1757   0.470   0.757   0.999 -0.3777  0.1946 -0.3636
  113TMC2    C5 1758   0.350   0.715   1.038 -0.7307  0.4058  0.4608
  113TMC2    C6 1759   0.236   0.785   1.016  0.0609 -0.6346  0.4856
  113TMC2     C 1760   0.613   0.948   0.933 -0.0087  0.1015 -0.2993
  113TMC2     O 1761   0.614   1.069   0.912  0.0904  0.0387  0.3648
  113TMC2     H 1762   0.384   1.050   0.862 -0.7715 -0.1681  0.0011
  113TMC2    H1 1763   0.558   0.709   1.042  0.5689  2.2925  0.0590
  113TMC2    H2 1764   0.141   0.734   1.022  0.1479 -1.2794 -4.3406
  113TMC2    C7 1765   0.345   0.570   1.061 -0.6632  0.2165  0.1733
  113TMC2    C8 1766   0.144   0.987   0.924 -0.1618 -0.2837  0.1567
  113TMC2    O1 1767   0.438   0.497   1.024 -0.0468  0.0621  0.4245
  113TMC2    O2 1768   0.153   1.077   0.842 -0.1334  0.5037 -0.7121
  113TMC2    O5 1769   0.037   0.934   0.983 -0.2578  0.1276  0.3177
  113TMC2    H5 1770   0.072   0.881   1.058 -0.5799 -1.4840 -0.6959
  114MPD2     C 1771   1.119   0.994   1.056 -0.1002 -0.1772  0.1765
  114MPD2    C1 1772   1.029   1.091   1.013 -0.4811 -0.0125  0.4560
  114MPD2    C2 1773   0.899   1.051   0.983 -0.7268 -0.0259  0.2635
  114MPD2    C3 1774   0.850   0.923   1.001  0.0340 -0.3133 -0.2477
  114MPD2    C4 1775   0.948   0.827   1.031  0.2750  0.6247  0.9213
  114MPD2    C5 1776   1.081   0.863   1.048  0.2833  0.7523  0.4709
  114MPD2     H 1777   0.833   1.129   0.947 -2.5914 -2.2272 -1.1229
  114MPD2    H1 1778   0.926   0.722   1.046  0.6001  0.7819  2.4955
  114MPD2    H2 1779   1.219   1.024   1.084  0.9088 -3.0028 -0.4019
  114MPD2    H3 1780   1.159   0.790   1.067 -0.9062 -1.2424 -2.3628
  114MPD2     N 1781   0.720   0.875   0.975  0.3207  0.0427 -0.2826
  114MPD2    H5 1782   0.709   0.775   0.987 -2.5008  0.4287  0.1376
  114MPD2    N1 1783   1.057   1.232   0.991  0.5376 -0.5572 -0.2521
  114MPD2    H7 1784   0.973   1.282   0.963  0.9298  0.1300 -0.2036
  115TMC2    C1 1785   1.081   3.966  17.468  0.5049  0.1333  0.1970
  115TMC2    C2 1786   1.217   3.948  17.465 -0.7700 -0.5228  0.2573
  115TMC2    C3 1787   1.305   4.046  17.494  0.5971 -0.3563  0.4299
  115TMC2    C4 1788   1.030   4.091  17.502 -0.3790 -0.0966  0.3937
  115TMC2    C5 1789   1.123   4.190  17.537 -0.6879  0.7051  0.0004
  115TMC2    C6 1790   1.259   4.165  17.540 -0.7012  0.5814  0.4815
  115TMC2     C 1791   0.992   3.866  17.411  0.1859  0.1249  0.1472
  115TMC2     O 1792   1.044   3.765  17.374  0.3808  0.1054  0.0163
  115TMC2     H 1793   1.254   3.847  17.448  0.5539 -0.3705  2.2255
  115TMC2    H1 1794   0.927   4.125  17.494 -0.2673 -0.1016 -0.9397
  115TMC2    H2 1795   1.321   4.243  17.583 -1.4450  0.2847  2.0666
  115TMC2    C7 1796   1.062   4.324  17.553  0.3859  0.4980  0.9112
  115TMC2    C8 1797   1.443   4.017  17.492 -0.3691  0.3249 -0.4955
  115TMC2    O1 1798   0.948   4.331  17.595 -0.2824  0.1039  0.7083
  115TMC2    O2 1799   1.495   3.908  17.494  0.0222 -0.0432 -0.2869
  115TMC2    O5 1800   1.516   4.131  17.491 -0.3171 -0.0039 -0.2254
  115TMC2    H5 1801   1.465   4.215  17.483  0.9583  0.9646  1.7917
  116MPD2     C 1802   0.527   3.701  17.303  0.0966  0.0846  0.5731
  116MPD2    C1 1803   0.647   3.648  17.268 -0.7017 -0.3139  0.5025
  116MPD2    C2 1804   0.762   3.709  17.313 -0.0939 -0.8367  0.6698
  116MPD2    C3 1805   0.751   3.818  17.396 -0.3344  0.3734 -0.0199
  116MPD2    C4 1806   0.627   3.860  17.442 -0.0467 -0.3211 -0.0867
  116MPD2    C5 1807   0.516   3.796  17.395  0.0002  0.1618 -0.0864
  116MPD2     H 1808   0.856   3.671  17.277 -0.3483  1.7873 -2.8133
  116MPD2    H1 1809   0.614   3.943  17.510 -0.2136 -1.5784  1.4115
  116MPD2    H2 1810   0.436   3.654  17.269  0.4781 -1.2768  1.4302
  116MPD2    H3 1811   0.415   3.815  17.429 -0.2028  1.0841 -1.2068
  116MPD2     N 1812   0.862   3.895  17.430  1.0887 -0.2321  0.1229
  116MPD2    H5 1813   0.841   3.968  17.498  0.8333  0.9442 -1.2155
  116MPD2    N1 1814   0.646   3.542  17.179  0.8078 -0.1641  0.1638
  116MPD2    H7 1815   0.560   3.519  17.130  2.6307 -2.6877 -1.8926
  117TMC2    C1 1816   4.499   0.844  14.178 -0.0416 -0.9064  0.3517
  117TMC2    C2 1817   4.579   0.738  14.175 -0.8265  0.3769 -0.0464
  117TMC2    C3 1818   4.714   0.760  14.149  0.1609 -0.3555 -0.6740
  117TMC2    C4 1819   4.533   0.960  14.124  0.3716  0.2129  0.4945
  117TMC2    C5 1820   4.664   0.975  14.088 -1.3038 -0.5195  0.2763
  117TMC2    C6 1821   0.026   0.877  14.103  0.4348  0.0266 -0.1587
  117TMC2     C 1822   4.361   0.820  14.221 -0.0302 -0.4783 -0.0668
  117TMC2     O 1823   4.329   0.701  14.226 -0.8016 -0.0861  0.2534
  117TMC2     H 1824   4.550   0.645  14.220 -1.4629  0.8701  0.5578
  117TMC2    H1 1825   4.462   1.032  14.083  2.2209  1.2347 -0.9108
  117TMC2    H2 1826   0.129   0.894  14.072  0.3675  0.7459  0.0112
  117TMC2    C7 1827   4.705   1.094  14.019 -0.7882  0.8047 -0.4827
  117TMC2    C8 1828   0.067   0.657  14.166  0.5773  0.0658 -0.4371
  117TMC2    O1 1829   0.037   1.092  13.917  0.5421 -0.3943  0.0372
  117TMC2    O2 1830   0.057   0.567  14.244 -0.2708  0.7332 -0.1563
  117TMC2    O5 1831   0.137   0.641  14.049  0.1361 -0.0780  0.3948
  117TMC2    H5 1832   0.113   0.690  13.967 -0.3894  0.0298  0.6162
  118MPD2     C 1833   4.587   1.435  14.091  0.1847 -0.2146  0.1997
  118MPD2    C1 1834   4.641   1.336  14.015  0.6724 -0.2052  0.6227
  118MPD2    C2 1835   4.692   1.366  13.884  0.5329  0.3035  0.5365
  118MPD2    C3 1836   4.697   1.497  13.846  0.3487  0.5281  0.2284
  118MPD2    C4 1837   4.634   1.596  13.918 -0.2782 -0.3386 -0.2031
  118MPD2    C5 1838   4.588   1.565  14.042  1.2645 -0.3642 -0.8060
  118MPD2     H 1839   4.730   1.286  13.821 -1.9517  0.8078 -1.6381
  118MPD2    H1 1840   4.634   1.698  13.881 -0.8801  0.1079  1.0425
  118MPD2    H2 1841   4.562   1.410  14.194  1.2287 -0.1569  0.4634
  118MPD2    H3 1842   4.547   1.638  14.111 -0.2565 -0.7739 -1.2685
  118MPD2     N 1843   0.022   1.542  13.727 -0.0308 -0.3046 -0.7360
  118MPD2    H5 1844   0.023   1.641  13.707  1.6652 -0.3434 -0.8329
  118MPD2    N1 1845   4.640   1.207  14.071  0.4195 -0.2534  0.4224
  118MPD2    H7 1846   4.589   1.203  14.158  0.6232  2.2615  0.6587
  119TMC2    C1 1847   2.104   2.180  13.651 -0.5089 -0.3360 -0.3081
  119TMC2    C2 1848   2.113   2.230  13.523 -0.3257 -0.2506 -0.4947
  119TMC2    C3 1849   1.996   2.227  13.454  0.9310 -0.6177  0.2088
  119TMC2    C4 1850   1.993   2.127  13.709 -0.1613 -0.7442  0.4380
  119TMC2    C5 1851   1.877   2.133  13.634 -0.3424  0.5690 -0.8601
  119TMC2    C6 1852   1.887   2.178  13.503  0.3681  0.4010  0.1154
  119TMC2     C 1853   2.202   2.230  13.748  0.7145  0.8253  0.2400
  119TMC2     O 1854   2.160   2.251  13.860  0.5179  0.7820 -0.2998
  119TMC2     H 1855   2.208   2.265  13.483 -0.0916 -0.0938  0.1998
  119TMC2    H1 1856   1.997   2.079  13.806  1.3216 -2.4543 -0.4652
  119TMC2    H2 1857   1.806   2.168  13.433 -0.2385  0.1082  0.8573
  119TMC2    C7 1858   1.762   2.056  13.668  0.5349  0.3577  0.3028
  119TMC2    C8 1859   1.994   2.286  13.324 -0.4160  0.5974 -0.1849
  119TMC2    O1 1860   1.673   2.047  13.580  0.2023  0.0453  0.1228
  119TMC2    O2 1861   2.051   2.238  13.226 -0.1391  0.4711  0.3508
  119TMC2    O5 1862   1.947   2.412  13.333  0.1780  0.1680 -0.2445
  119TMC2    H5 1863   1.924   2.424  13.427 -1.8581  2.0487 -0.9688
  120MPD2     C 1864   2.626   2.428  13.932 -0.6284 -0.1708  0.4196
  120MPD2    C1 1865   2.497   2.454  13.960  0.3702 -0.6196 -0.0047
  120MPD2    C2 1866   2.399   2.404  13.872 -0.0455 -0.7758  0.3010
  120MPD2    C3 1867   2.434   2.316  13.771  0.1012 -0.6976 -0.3078
  120MPD2    C4 1868   2.562   2.295  13.749  0.2706  0.4873 -0.7464
  120MPD2    C5 1869   2.658   2.358  13.827  0.0188 -0.1539 -0.5323
  120MPD2     H 1870   2.295   2.432  13.881 -0.2845 -1.8091  0.7123
  120MPD2    H1 1871   2.591   2.236  13.663 -0.9203 -0.6846 -0.3425
  120MPD2    H2 1872   2.706   2.463  13.998  0.1985  1.3629 -1.4017
  120MPD2    H3 1873   2.764   2.352  13.804  0.0230 -1.2274 -0.2413
  120MPD2     N 1874   2.328   2.242  13.704 -0.5004  0.2435  0.3109
  120MPD2    H5 1875   2.362   2.191  13.622 -0.9709 -0.9263  0.8409
  120MPD2    N1 1876   2.471   2.507  14.088 -0.2154  0.1098 -0.2621
  120MPD2    H7 1877   2.546   2.510  14.157  1.1961 -1.4096 -1.7278
  121TMC2    C1 1878   3.666   3.739  14.354  0.3740  0.4627  0.3478
  121TMC2    C2 1879   3.605   3.630  14.413 -0.5183 -0.7245 -0.2214
  121TMC2    C3 1880   3.471   3.612  14.380  0.9265 -0.2711 -0.5587
  121TMC2    C4 1881   3.590   3.834  14.288  0.9358 -0.4157  0.0455
  121TMC2    C5 1882   3.452   3.816  14.270 -0.2951  0.4230 -0.6667
  121TMC2    C6 1883   3.392   3.698  14.311  0.1246 -0.4206 -0.1442
  121TMC2     C 1884   3.790   3.776  14.415 -0.0446 -0.3215 -0.4566
  121TMC2     O 1885   3.810   3.739  14.527  0.4804  1.0820 -0.5321
  121TMC2     H 1886   3.646   3.551  14.475 -1.6276 -0.4339  0.8803
  121TMC2    H1 1887   3.632   3.920  14.237  1.8293 -0.3243  0.9350
  121TMC2    H2 1888   3.293   3.672  14.274  0.0005 -0.0349 -0.0823
  121TMC2    C7 1889   3.380   3.909  14.187  0.7418  0.1757 -0.2992
  121TMC2    C8 1890   3.405   3.489  14.397 -0.7331  0.1747 -0.1288
  121TMC2    O1 1891   3.449   4.008  14.153 -0.0540  0.2373 -0.8821
  121TMC2    O2 1892   3.282   3.477  14.405 -0.2265  0.5895  0.0722
  121TMC2    O5 1893   3.488   3.403  14.338  0.1002 -0.3645  0.7603
  121TMC2    H5 1894   3.582   3.431  14.328 -0.0861  0.2150  0.6383
  122MPD2     C 1895   4.027   3.945  14.467 -0.5516  0.1428  0.2509
  122MPD2    C1 1896   3.973   3.924  14.342 -0.0022  0.2947 -0.0918
  122MPD2    C2 1897   4.035   3.973  14.229 -0.3500  0.2000  0.2362
  122MPD2    C3 1898   4.160   4.024  14.241  0.1801 -0.1628 -0.0846
  122MPD2    C4 1899   4.214   4.047  14.369  0.1474  0.6460  0.6816
  122MPD2    C5 1900   4.146   4.006  14.479  0.1941  0.1462  0.3392
  122MPD2     H 1901   3.988   3.972  14.131 -3.4302 -0.9891  1.7169
  122MPD2    H1 1902   4.320   4.067  14.382  0.4998 -1.7573  1.4380
  122MPD2    H2 1903   3.975   3.915  14.557  2.5399  0.7674  2.2526
  122MPD2    H3 1904   4.191   4.005  14.578 -0.7538 -0.1745  0.7607
  122MPD2     N 1905   4.239   4.059  14.134  0.1693  0.1220 -0.1199
  122MPD2    H5 1906   4.330   4.099  14.154 -0.4023  1.3178  0.0983
  122MPD2    N1 1907   3.852   3.855  14.327 -0.3483 -0.5821  0.8955
  122MPD2    H7 1908   3.812   3.868  14.235  0.2249 -3.9356  0.1572
  123TMC2    C1 1909   2.996   2.459  10.049  0.1021  0.2377 -0.6871
  123TMC2    C2 1910   3.093   2.549  10.033  0.6244 -0.0513 -0.2855
  123TMC2    C3 1911   3.210   2.509   9.972 -0.3914 -0.2055 -1.4309
  123TMC2    C4 1912   3.005   2.328  10.010 -0.2034  0.2467  0.2383
  123TMC2    C5 1913   3.125   2.296   9.954  0.0144  0.7320  0.3390
  123TMC2    C6 1914   3.225   2.385   9.918  0.2628  0.3536  0.8964
  123TMC2     C 1915   2.891   2.501  10.142  0.4163  0.8435  0.3434
  123TMC2     O 1916   2.900   2.612  10.185 -0.2579 -0.1335 -0.7957
  123TMC2     H 1917   3.084   2.650  10.069  1.4107 -0.2239  0.4005
  123TMC2    H1 1918   2.927   2.257  10.036 -0.0921  0.2806  0.6799
  123TMC2    H2 1919   3.323   2.341   9.905  0.2045  0.3498  0.4941
  123TMC2    C7 1920   3.158   2.159   9.961 -0.1444  0.2109 -0.3050
  123TMC2    C8 1921   3.322   2.605   9.964 -0.3345  0.5517  0.6927
  123TMC2    O1 1922   3.257   2.137  10.031  0.3258  0.1742  0.4472
  123TMC2    O2 1923   3.406   2.602   9.878 -0.8009  0.1641  0.0863
  123TMC2    O5 1924   3.334   2.646  10.095 -0.1494 -0.2678 -0.1836
  123TMC2    H5 1925   3.276   2.597  10.157  0.0626 -0.2019  0.0685
  124MPD2     C 1926   2.427   2.519  10.354 -0.5590 -0.4506 -0.5457
  124MPD2    C1 1927   2.436   2.400  10.289 -0.2531 -0.2610  0.0968
  124MPD2    C2 1928   2.556   2.366  10.228 -0.7951  0.0445  0.1408
  124MPD2    C3 1929   2.671   2.445  10.247  0.6813 -0.8650 -0.4795
  124MPD2    C4 1930   2.664   2.541  10.341  0.0241  0.3642  0.3150
  124MPD2    C5 1931   2.542   2.578  10.387 -0.7824  0.0924  0.0446
  124MPD2     H 1932   2.550   2.296  10.145 -4.1899  1.3185 -0.6675
  124MPD2    H1 1933   2.755   2.596  10.361 -0.0985  0.3213  0.9918
  124MPD2    H2 1934   2.334   2.560  10.392 -0.7268 -2.9457  1.7090
  124MPD2    H3 1935   2.540   2.669  10.446  1.3304 -0.6832  1.3253
  124MPD2     N 1936   2.784   2.416  10.164  0.5500 -0.4533 -0.4994
  124MPD2    H5 1937   2.778   2.337  10.100  5.1388 -0.2121 -1.2549
  124MPD2    N1 1938   2.317   2.332  10.278  0.3097 -0.0829  0.2799
  124MPD2    H7 1939   2.233   2.374  10.317  0.0907 -0.9739  0.7951
  125TMC2    C1 1940   3.829   3.364   8.459  0.4572  0.7736  0.0350
  125TMC2    C2 1941   3.803   3.253   8.382  0.5600  0.8459 -0.5204
  125TMC2    C3 1942   3.892   3.151   8.389  0.1166 -0.4897 -1.0570
  125TMC2    C4 1943   3.949   3.383   8.519  0.4525  0.2435 -0.2292
  125TMC2    C5 1944   4.033   3.275   8.520 -0.6893 -0.8064 -0.7641
  125TMC2    C6 1945   4.009   3.160   8.459 -0.5582 -0.3945  0.0969
  125TMC2     C 1946   3.758   3.492   8.465  0.3166  0.1243 -0.0207
  125TMC2     O 1947   3.826   3.594   8.474  0.0212 -0.2575  0.1072
  125TMC2     H 1948   3.718   3.243   8.316  1.9272 -0.6969 -2.0614
  125TMC2    H1 1949   3.963   3.460   8.593 -0.0813  0.6657 -0.5665
  125TMC2    H2 1950   4.086   3.085   8.445 -1.0156 -0.5439 -1.6393
  125TMC2    C7 1951   4.172   3.284   8.576 -0.2211  0.0478  0.3788
  125TMC2    C8 1952   3.878   3.060   8.280 -0.2167  0.4543  0.3714
  125TMC2    O1 1953   4.238   3.183   8.583 -0.3569  0.0804 -0.2064
  125TMC2    O2 1954   3.812   3.083   8.178 -0.0333  0.1421  0.0309
  125TMC2    O5 1955   3.902   2.936   8.324 -0.0325 -0.0719  0.2994
  125TMC2    H5 1956   3.936   2.950   8.415  0.1275 -2.6993  0.6523
  126MPD1     C 1957   3.320   3.733   8.413  0.3992 -0.7414  1.0089
  126MPD1    C1 1958   3.294   3.603   8.421  0.5228  0.6706  0.5771
  126MPD1    C2 1959   3.400   3.517   8.425  0.0553  0.9406 -0.0761
  126MPD1    C3 1960   3.526   3.569   8.448  0.4274  0.2447 -0.2856
  126MPD1    C4 1961   3.554   3.704   8.460  0.4856  0.2592  0.4416
  126MPD1    C5 1962   3.442   3.783   8.456  0.5733  0.4970  0.4092
  126MPD1     H 1963   3.382   3.410   8.414 -1.4229  1.0659  1.1980
  126MPD1    H1 1964   3.653   3.747   8.473  0.9104 -0.4787 -0.3308
  126MPD1    H2 1965   3.233   3.796   8.396  2.2157  0.9890 -1.7930
  126MPD1    H3 1966   3.448   3.891   8.465 -0.4405  0.5234  0.7579
  126MPD1     N 1967   3.628   3.474   8.437 -0.4874 -0.4329  0.6750
  126MPD1    H5 1968   3.599   3.380   8.411  1.2897 -1.0578  0.9606
  126MPD1    N1 1969   3.165   3.556   8.392 -0.7302 -0.4829  0.5240
  126MPD1    H6 1970   3.104   3.622   8.439  2.4067  1.0151  2.4712
  126MPD1    H7 1971   3.150   3.471   8.446  0.6543  0.7567  2.8461
  127TMC2    C1 1972   4.290   2.752  10.060  0.3982 -0.4757 -0.1267
  127TMC2    C2 1973   4.226   2.833  10.152  1.1214  0.0772 -0.0294
  127TMC2    C3 1974   4.113   2.787  10.210  0.0760 -0.2995 -0.6193
  127TMC2    C4 1975   4.255   2.622  10.037 -0.3569 -0.7094 -1.6567
  127TMC2    C5 1976   4.156   2.577  10.114  0.6181 -0.8261  0.0010
  127TMC2    C6 1977   4.089   2.651  10.201  0.0680  0.5123 -0.0535
  127TMC2     C 1978   4.395   2.815   9.979  0.0181 -0.7452  0.1538
  127TMC2     O 1979   4.423   2.934  10.006  0.6745  0.0454 -0.2809
  127TMC2     H 1980   4.248   2.939  10.163 -0.5295  0.1930  2.1381
  127TMC2    H1 1981   4.296   2.555   9.963 -2.2891 -2.9897 -0.6933
  127TMC2    H2 1982   4.002   2.607  10.250  0.4530 -0.9717 -0.7017
  127TMC2    C7 1983   4.101   2.445  10.070  0.0815  0.1094  0.5099
  127TMC2    C8 1984   4.090   2.852  10.341  0.0439 -0.4779 -1.0005
  127TMC2    O1 1985   4.111   2.416   9.953  0.5585  0.0699  0.1470
  127TMC2    O2 1986   4.189   2.865  10.412  0.3913  0.4175 -0.5588
  127TMC2    O5 1987   3.969   2.799  10.381  0.3122  0.2607  0.0447
  127TMC2    H5 1988   3.910   2.808  10.303  0.3124  3.0097  0.3580
  128MPD2     C 1989   4.569   2.735   9.658  0.1302 -0.2292 -0.6466
  128MPD2    C1 1990   4.552   2.792   9.782  0.1812 -0.3033 -0.3964
  128MPD2    C2 1991   4.629   2.904   9.797  0.0063 -1.0915  0.8818
  128MPD2    C3 1992   4.713   2.964   9.701 -0.1179 -0.2133  0.1548
  128MPD2    C4 1993   4.711   2.907   9.573 -0.3085 -0.1029 -0.6398
  128MPD2    C5 1994   4.645   2.796   9.558  0.2054 -0.5147 -0.8789
  128MPD2     H 1995   4.636   2.948   9.896  0.0309  0.8720  0.0019
  128MPD2    H1 1996   0.031   2.940   9.487  2.0555  2.4072  1.8785
  128MPD2    H2 1997   4.524   2.645   9.619  0.5529 -1.1873  1.0932
  128MPD2    H3 1998   4.638   2.749   9.460 -0.3071 -1.1075 -0.5579
  128MPD2     N 1999   0.053   3.075   9.736 -0.0564 -0.0203 -0.2706
  128MPD2    H5 2000   0.055   3.089   9.837  0.4388  2.1453 -0.5922
  128MPD2    N1 2001   4.460   2.742   9.880 -0.2410 -0.8850 -0.3478
  128MPD2    H7 2002   4.425   2.649   9.855  1.9997 -1.6506 -0.6382
  129TMC2    C1 2003   3.742   3.201   1.388 -0.8949 -0.4810 -0.0746
  129TMC2    C2 2004   3.686   3.293   1.473  0.3440  0.0269  0.0732
  129TMC2    C3 2005   3.557   3.277   1.500 -0.1026 -0.0519  0.2375
  129TMC2    C4 2006   3.668   3.109   1.325  0.0218 -0.1147 -0.2597
  129TMC2    C5 2007   3.536   3.114   1.343  0.1917 -1.0460  0.5689
  129TMC2    C6 2008   3.475   3.189   1.431  0.2738  0.3082 -0.3276
  129TMC2     C 2009   3.878   3.226   1.339  0.9756 -0.7974 -0.4887
  129TMC2     O 2010   3.934   3.142   1.271  0.3672  0.2167  0.7889
  129TMC2     H 2011   3.745   3.367   1.525 -0.6886  0.7415  0.2290
  129TMC2    H1 2012   3.722   3.039   1.262  0.2894  0.8760 -1.1237
  129TMC2    H2 2013   3.367   3.187   1.443  0.3467 -0.6996  0.1248
  129TMC2    C7 2014   3.451   3.038   1.259 -0.1983 -0.1517 -0.1286
  129TMC2    C8 2015   3.501   3.383   1.588  0.2486 -0.1974 -0.1311
  129TMC2    O1 2016   3.333   3.053   1.290 -0.2130  0.3722  0.2912
  129TMC2    O2 2017   3.565   3.486   1.621 -0.5428  0.9105 -0.5697
  129TMC2    O5 2018   3.405   3.328   1.658 -0.0530 -0.3606  0.5401
  129TMC2    H5 2019   3.384   3.239   1.622  2.5068 -0.4080 -0.8258
  130MPD2     C 2020   4.086   3.371   1.195 -0.0817 -0.0639 -0.2571
  130MPD2    C1 2021   3.998   3.434   1.279  0.5028 -0.1021  0.8548
  130MPD2    C2 2022   3.976   3.572   1.271  0.3804  0.4543 -0.1603
  130MPD2    C3 2023   4.034   3.648   1.167 -0.2996  0.4625  0.2072
  130MPD2    C4 2024   4.128   3.582   1.091  0.3762  0.3274 -0.2700
  130MPD2    C5 2025   4.152   3.453   1.111  0.3190  0.4512 -0.1366
  130MPD2     H 2026   3.908   3.615   1.343  0.9817 -1.4053  1.5266
  130MPD2    H1 2027   4.184   3.633   1.013  0.1359  0.8532 -0.0972
  130MPD2    H2 2028   4.106   3.266   1.212 -2.9242 -0.4581  0.7139
  130MPD2    H3 2029   4.224   3.407   1.044  1.3349 -0.2262  1.4087
  130MPD2     N 2030   3.986   3.774   1.145  0.0830  0.0400 -0.2679
  130MPD2    H5 2031   3.905   3.813   1.193  1.9646  2.2913  1.1245
  130MPD2    N1 2032   3.908   3.363   1.355  0.0204  0.0926 -0.0198
  130MPD2    H7 2033   3.845   3.414   1.416  0.0246  2.6358 -2.1716
  131TMC2    C1 2034   2.045   3.030  10.035 -1.0181  0.0385 -0.1187
  131TMC2    C2 2035   1.966   3.122   9.974 -0.0873  0.3365  0.6523
  131TMC2    C3 2036   2.009   3.252   9.980 -0.0464 -0.6030  0.0355
  131TMC2    C4 2037   2.164   3.058  10.098  0.2305  0.3229 -0.2636
  131TMC2    C5 2038   2.201   3.193  10.107 -0.2149 -0.4591  0.2965
  131TMC2    C6 2039   2.120   3.292  10.052 -0.3344 -0.4404 -0.6750
  131TMC2     C 2040   2.006   2.891  10.046 -0.3332  0.6858  0.6219
  131TMC2     O 2041   2.056   2.827  10.138 -0.2058 -0.7932  0.3589
  131TMC2     H 2042   1.875   3.099   9.919 -0.1171  0.1759  0.7666
  131TMC2    H1 2043   2.216   2.983  10.158 -0.0946 -0.1108 -0.5229
  131TMC2    H2 2044   2.155   3.395  10.056  0.1100 -0.5637 -1.5307
  131TMC2    C7 2045   2.314   3.226  10.186  0.6041  0.4248 -0.4655
  131TMC2    C8 2046   1.905   3.354   9.956  0.0333  0.2951 -0.0435
  131TMC2    O1 2047   2.352   3.148  10.273  0.0917  0.4919  0.0191
  131TMC2    O2 2048   1.786   3.325   9.955 -0.1572  0.7866  0.9513
  131TMC2    O5 2049   1.958   3.476   9.921  0.3274  0.0413 -0.5011
  131TMC2    H5 2050   2.055   3.464   9.916  0.0433 -1.7328 -1.6473
  132MPD2     C 2051   1.742   2.707   9.868  0.5139  0.3865  1.2706
  132MPD2    C1 2052   1.847   2.723   9.956  0.1915  0.0331  0.3693
  132MPD2    C2 2053   1.875   2.619  10.042  0.5924 -0.1771 -0.1298
  132MPD2    C3 2054   1.815   2.495  10.038  0.3965 -0.4001 -0.7718
  132MPD2    C4 2055   1.719   2.477   9.937 -0.0736  0.6408  0.0877
  132MPD2    C5 2056   1.679   2.583   9.859  0.2279  0.7281 -0.6881
  132MPD2     H 2057   1.958   2.625  10.112  0.4970 -0.6375  0.0206
  132MPD2    H1 2058   1.659   2.387   9.940  2.4689 -1.0592  0.4103
  132MPD2    H2 2059   1.717   2.789   9.802  1.1833  0.1311  0.6936
  132MPD2    H3 2060   1.602   2.559   9.787 -1.0720 -1.2722  1.3625
  132MPD2     N 2061   1.866   2.394  10.123  0.6908  0.5925  0.5253
  132MPD2    H5 2062   1.934   2.421  10.194 -0.1974  0.2820  1.5029
  132MPD2    N1 2063   1.909   2.852   9.964 -0.2691  0.0034  0.1301
  132MPD2    H7 2064   1.884   2.912   9.885 -1.4813  1.5618  1.6772
  133TMC2    C1 2065   2.019   4.075   9.797  0.2634  0.0643  0.2901
  133TMC2    C2 2066   2.016   4.193   9.725  0.5743  0.6197  0.3323
  133TMC2    C3 2067   2.099   4.297   9.762 -0.5409  0.3903  1.1343
  133TMC2    C4 2068   2.108   4.057   9.905  0.5664  0.1524 -0.2668
  133TMC2    C5 2069   2.178   4.169   9.946 -0.1700  0.3406  0.3770
  133TMC2    C6 2070   2.176   4.291   9.877 -0.3521  0.2538 -0.6514
  133TMC2     C 2071   1.947   3.961   9.749 -0.8440  0.7284 -0.2347
  133TMC2     O 2072   1.994   3.847   9.757  0.0147  0.0942 -0.1856
  133TMC2     H 2073   1.969   4.212   9.629  1.5515  1.5098  0.0361
  133TMC2    H1 2074   2.129   3.961   9.951 -3.3060  0.6622  2.5003
  133TMC2    H2 2075   2.227   4.384   9.898  0.6665 -0.0139 -1.9402
  133TMC2    C7 2076   2.255   4.158  10.067 -0.5166 -0.0148 -0.8269
  133TMC2    C8 2077   2.124   4.407   9.678 -0.3217 -0.5924  0.1672
  133TMC2    O1 2078   2.220   4.066  10.135 -0.0128 -0.2793  0.4766
  133TMC2    O2 2079   2.237   4.425   9.632 -0.0252  0.8854 -0.1918
  133TMC2    O5 2080   2.006   4.431   9.620  0.2792  0.5483 -0.1775
  133TMC2    H5 2081   1.929   4.396   9.671  1.3038 -1.3383  0.0639
  134MPD2     C 2082   1.616   3.980   9.585 -0.0766  0.2112  0.2832
  134MPD2    C1 2083   1.723   3.918   9.643  0.0107 -0.6713 -0.2952
  134MPD2    C2 2084   1.732   3.780   9.632 -0.6678  0.3540 -0.5671
  134MPD2    C3 2085   1.624   3.704   9.583 -0.7837 -0.7402 -0.1464
  134MPD2    C4 2086   1.520   3.772   9.517  0.1404 -0.0920  0.6108
  134MPD2    C5 2087   1.517   3.906   9.522 -0.2423  0.7756 -0.1309
  134MPD2     H 2088   1.822   3.738   9.674  0.7175  2.7363 -1.1713
  134MPD2    H1 2089   1.438   3.715   9.474  0.7445 -0.8968  0.5335
  134MPD2    H2 2090   1.607   4.088   9.578  0.3102  0.0905 -1.9445
  134MPD2    H3 2091   1.439   3.960   9.469 -0.1422  1.2416  0.1955
  134MPD2     N 2092   1.619   3.560   9.564 -0.3186  0.0527 -0.0009
  134MPD2    H5 2093   1.530   3.530   9.526 -0.3022  1.2775 -0.9893
  134MPD2    N1 2094   1.827   4.002   9.699  0.2345 -0.2617 -0.1604
  134MPD2    H7 2095   1.814   4.101   9.717  0.7840 -0.4713  1.4119
  135TMC2    C1 2096   4.003   4.644   9.134  0.4283 -0.0673  0.1040
  135TMC2    C2 2097   3.969   0.022   9.207 -0.0612 -0.4550 -0.1179
  135TMC2    C3 2098   3.994   0.017   9.337  0.3287  0.8069 -0.2379
  135TMC2    C4 2099   4.036   4.528   9.198  0.1763 -1.1381  0.1320
  135TMC2    C5 2100   4.059   4.532   9.329  0.7336  0.6366 -0.7161
  135TMC2    C6 2101   4.037   4.641   9.404 -0.2422 -0.0097 -0.7796
  135TMC2     C 2102   3.980   4.638   8.993  0.8324 -0.1882 -0.4251
  135TMC2     O 2103   3.911   4.725   8.948  0.0040 -0.3765 -0.2027
  135TMC2     H 2104   3.919   0.110   9.169 -0.6362 -1.0427 -0.7320
  135TMC2    H1 2105   4.073   4.443   9.141  0.7567  0.2321 -1.5405
  135TMC2    H2 2106   4.050   4.635   9.511  0.4481 -1.2958 -0.9314
  135TMC2    C7 2107   4.155   4.433   9.385 -0.3169  0.3630  0.4371
  135TMC2    C8 2108   3.928   0.120   9.410  0.0823  0.2327  1.1557
  135TMC2    O1 2109   4.265   4.465   9.435  0.3583 -0.2709 -0.1342
  135TMC2    O2 2110   3.853   0.206   9.360  0.4330 -0.2301 -0.1762
  135TMC2    O5 2111   3.972   0.129   9.537 -0.0628  0.1088  0.1318
  135TMC2    H5 2112   4.051   0.076   9.560 -0.6386  0.3046  2.5533
  136MPD2     C 2113   3.934   4.536   8.716 -0.0253  0.1223  0.3337
  136MPD2    C1 2114   4.034   4.497   8.801 -0.1697  0.4619  0.3011
  136MPD2    C2 2115   4.113   4.396   8.749 -0.5380  0.4053  0.0913
  136MPD2    C3 2116   4.093   4.340   8.625 -0.2783  0.1569 -0.1594
  136MPD2    C4 2117   3.994   4.392   8.546  0.3155  1.0500  0.0642
  136MPD2    C5 2118   3.919   4.491   8.589 -0.4982  0.1199  0.6366
  136MPD2     H 2119   4.201   4.375   8.810 -1.6775  0.7381  1.8446
  136MPD2    H1 2120   3.974   4.355   8.446  0.1442 -0.7008  0.7533
  136MPD2    H2 2121   3.873   4.617   8.753  0.2520  0.9067 -0.9279
  136MPD2    H3 2122   3.843   4.530   8.522 -0.5772 -1.9866 -0.4963
  136MPD2     N 2123   4.177   4.243   8.572  0.2124 -0.1038 -0.1581
  136MPD2    H5 2124   4.156   4.208   8.479  0.1358 -0.0451 -0.1631
  136MPD2    N1 2125   4.055   4.545   8.930  0.0602  0.7295  0.5035
  136MPD2    H7 2126   4.129   4.505   8.987 -1.2981  0.3786  2.0186
  137TMC2    C1 2127   3.430   3.536   8.814 -0.2783 -0.1388 -0.1839
  137TMC2    C2 2128   3.407   3.670   8.785 -0.3152 -0.6227  0.5457
  137TMC2    C3 2129   3.276   3.715   8.800  0.4417 -0.7080  0.3770
  137TMC2    C4 2130   3.337   3.450   8.861 -0.4457  0.4766 -0.2662
  137TMC2    C5 2131   3.219   3.505   8.897  0.3166  0.1165 -0.3385
  137TMC2    C6 2132   3.183   3.635   8.865 -0.2358  0.1434  0.1327
  137TMC2     C 2133   3.572   3.479   8.807  0.5889 -1.0294  0.7318
  137TMC2     O 2134   3.587   3.360   8.796 -0.4034 -0.7937  0.7037
  137TMC2     H 2135   3.484   3.730   8.737 -0.9411 -0.2542  0.0002
  137TMC2    H1 2136   3.358   3.349   8.896 -1.8794 -0.6111 -2.5669
  137TMC2    H2 2137   3.080   3.665   8.879  0.1380  1.3635  0.2261
  137TMC2    C7 2138   3.139   3.427   8.997  0.0444  0.1772 -0.2980
  137TMC2    C8 2139   3.257   3.851   8.800 -0.1344  0.4086 -1.1570
  137TMC2    O1 2140   3.133   3.306   8.988  0.0980  0.2015  0.1986
  137TMC2    O2 2141   3.347   3.930   8.783 -0.1782 -0.4216 -0.2717
  137TMC2    O5 2142   3.124   3.871   8.791  0.4934  0.0258  0.5322
  137TMC2    H5 2143   3.074   3.801   8.743 -0.2301  2.0632 -1.6567
  138MPD2     C 2144   3.898   3.667   8.861 -0.5247  0.4903  0.3956
  138MPD2    C1 2145   3.812   3.559   8.852  0.2276  0.2824 -0.0348
  138MPD2    C2 2146   3.871   3.436   8.879  0.9301  0.0950 -0.1429
  138MPD2    C3 2147   4.004   3.425   8.916 -0.9368  0.4515 -0.4812
  138MPD2    C4 2148   4.078   3.544   8.941 -0.3571 -0.3821 -0.8213
  138MPD2    C5 2149   4.020   3.661   8.919  0.1069  0.5680 -0.4058
  138MPD2     H 2150   3.819   3.344   8.853 -0.7906  1.4661 -1.6011
  138MPD2    H1 2151   4.176   3.537   8.987 -1.3216  1.8285  1.6136
  138MPD2    H2 2152   3.853   3.765   8.864  0.2949  0.8767  0.0764
  138MPD2    H3 2153   4.080   3.750   8.936 -0.5134  1.1319 -1.1177
  138MPD2     N 2154   4.060   3.296   8.929 -0.5024 -0.1822 -0.8029
  138MPD2    H5 2155   3.996   3.217   8.921  1.5742 -1.9999  0.5676
  138MPD2    N1 2156   3.672   3.576   8.814  0.0942  0.2626  0.0436
  138MPD2    H7 2157   3.636   3.670   8.801 -0.3289  0.2731  1.2687
  139TMC2    C1 2158   3.819   1.794  13.343 -0.2468 -0.0664  0.4069
  139TMC2    C2 2159   3.815   1.820  13.207  0.0125 -0.0330  0.6633
  139TMC2    C3 2160   3.762   1.937  13.180  0.0175 -0.1187  0.4312
  139TMC2    C4 2161   3.767   1.871  13.439  0.0229 -0.2925  0.2532
  139TMC2    C5 2162   3.717   1.992  13.397  0.1604  0.1830  0.6099
  139TMC2    C6 2163   3.709   2.024  13.262  0.0875 -0.0280  0.8808
  139TMC2     C 2164   3.866   1.665  13.374 -1.0575 -0.1395 -0.4232
  139TMC2     O 2165   3.916   1.596  13.287  0.1625 -0.4965 -0.2475
  139TMC2     H 2166   3.869   1.764  13.131 -0.4260 -0.3669  0.6007
  139TMC2    H1 2167   3.784   1.843  13.542 -0.3462 -0.3903  0.2866
  139TMC2    H2 2168   3.657   2.114  13.231 -1.0181 -1.3047 -0.9348
  139TMC2    C7 2169   3.657   2.090  13.485 -0.5125 -1.3007 -0.1994
  139TMC2    C8 2170   3.808   1.990  13.050  0.5576  0.1320  0.2052
  139TMC2    O1 2171   3.579   2.168  13.435 -0.5094  0.1442 -0.2467
  139TMC2    O2 2172   3.840   1.920  12.955  0.6792  0.9287  0.0842
  139TMC2    O5 2173   3.865   2.108  13.080  0.0736 -0.0412 -0.4248
  139TMC2    H5 2174   3.880   2.125  13.175  2.9584 -0.2313 -0.8551
  140MPD2     C 2175   3.926   1.527  13.705  0.1583 -0.1659  0.2976
  140MPD2    C1 2176   3.950   1.543  13.569  0.0124  0.0310 -0.0883
  140MPD2    C2 2177   4.045   1.467  13.501 -0.8281 -0.2571 -0.5402
  140MPD2    C3 2178   4.101   1.359  13.568  0.2652  0.2937  0.5346
  140MPD2    C4 2179   4.079   1.343  13.707  0.3060 -0.7241  0.2034
  140MPD2    C5 2180   3.999   1.434  13.775  0.3264  0.5566 -0.4449
  140MPD2     H 2181   4.068   1.466  13.395  0.8059 -2.7834 -0.1751
  140MPD2    H1 2182   4.126   1.267  13.768 -0.5717 -1.1774  0.3171
  140MPD2    H2 2183   3.861   1.593  13.760  0.3783  1.4078 -1.3327
  140MPD2    H3 2184   3.975   1.429  13.881  0.4563  0.7197 -0.4080
  140MPD2     N 2185   4.186   1.274  13.490  0.1621 -0.3988  0.2186
  140MPD2    H5 2186   4.190   1.285  13.389  0.0289 -0.3355  0.2195
  140MPD2    N1 2187   3.874   1.644  13.511 -0.0728 -0.3365  0.2849
  140MPD2    H7 2188   3.827   1.702  13.580  0.5689  1.1815 -0.5447
  141TMC2    C1 2189   4.148   3.285  14.188 -0.2818 -0.3318 -0.4218
  141TMC2    C2 2190   4.010   3.300  14.197 -0.4620  0.1475 -0.1124
  141TMC2    C3 2191   3.965   3.343  14.316 -0.2652 -0.0963 -0.2260
  141TMC2    C4 2192   4.230   3.314  14.292 -0.0448  0.1197 -0.5029
  141TMC2    C5 2193   4.174   3.339  14.415 -0.8479 -0.5296  0.2258
  141TMC2    C6 2194   4.041   3.360  14.428 -0.3630  0.1132  0.9429
  141TMC2     C 2195   4.199   3.268  14.053 -0.5130  0.3805 -0.5037
  141TMC2     O 2196   4.121   3.293  13.965 -0.0362  0.1719 -0.0349
  141TMC2     H 2197   3.941   3.279  14.116  0.6012  4.3194 -2.1104
  141TMC2    H1 2198   4.337   3.324  14.278  0.0688 -1.0587 -0.5158
  141TMC2    H2 2199   3.999   3.386  14.524  1.4524 -0.1592  1.8098
  141TMC2    C7 2200   4.257   3.411  14.505 -0.5759 -0.6231 -0.2651
  141TMC2    C8 2201   3.823   3.337  14.337 -0.8244 -0.5537 -0.0514
  141TMC2    O1 2202   4.204   3.492  14.578 -0.0225  0.3209 -0.4288
  141TMC2    O2 2203   3.790   3.306  14.453 -0.3988 -0.0739  0.0362
  141TMC2    O5 2204   3.754   3.419  14.253  0.9214 -0.4704 -0.3314
  141TMC2    H5 2205   3.800   3.451  14.172  1.0596 -0.1883 -0.1400
  142TMC2    C1 2206   3.125   1.509  10.538 -0.5231  0.0202 -0.1571
  142TMC2    C2 2207   3.173   1.584  10.643  0.1429  0.2791  0.0212
  142TMC2    C3 2208   3.254   1.697  10.617 -0.1135 -0.9079 -0.7132
  142TMC2    C4 2209   3.148   1.555  10.409 -0.1310  0.6315  0.0852
  142TMC2    C5 2210   3.230   1.661  10.389 -0.7361 -0.5381  0.2027
  142TMC2    C6 2211   3.280   1.738  10.490  0.0381  0.2068 -0.1611
  142TMC2     C 2212   3.001   1.437  10.565  0.5003  0.5175 -0.3179
  142TMC2     O 2213   2.927   1.420  10.469 -0.3807 -0.1680  0.2612
  142TMC2     H 2214   3.157   1.555  10.746  0.4492 -2.0365 -0.5902
  142TMC2    H1 2215   3.112   1.496  10.325  1.2492  1.2363 -0.9322
  142TMC2    H2 2216   3.338   1.828  10.470 -1.6163  1.3504  0.1950
  142TMC2    C7 2217   3.208   1.742  10.269  0.1376 -0.5791  0.1574
  142TMC2    C8 2218   3.326   1.782  10.720 -0.9941 -0.6202  0.0568
  142TMC2    O1 2219   3.293   1.824  10.245  0.0787  0.1158  0.1258
  142TMC2    O2 2220   3.402   1.864  10.678 -0.7174 -0.9099  0.0804
  142TMC2    O5 2221   3.345   1.718  10.836 -0.7275  0.1958 -0.2429
  142TMC2    H5 2222   3.269   1.662  10.863 -0.8049  1.4646  2.1568
  143MPD2     C 2223   2.631   1.304  10.891 -0.0587 -0.1394 -0.4607
  143MPD2    C1 2224   2.618   1.337  10.758 -0.4113  0.5505 -0.6860
  143MPD2    C2 2225   2.743   1.378  10.703 -0.2391  0.1643 -0.0572
  143MPD2    C3 2226   2.859   1.363  10.768  0.4577  0.4609 -0.0007
  143MPD2    C4 2227   2.867   1.320  10.897 -0.1076 -0.2168 -1.0225
  143MPD2    C5 2228   2.750   1.296  10.952  0.4467 -0.2169  0.1799
  143MPD2     H 2229   2.742   1.422  10.604  0.7973 -1.8750 -0.9811
  143MPD2    H1 2230   2.955   1.307  10.958 -1.2266 -1.7830  0.2760
  143MPD2    H2 2231   2.551   1.250  10.940 -0.7019  0.4154 -0.8898
  143MPD2    H3 2232   2.740   1.256  11.052 -0.2395  2.9154  1.3586
  143MPD2     N 2233   2.980   1.404  10.701  0.5338 -0.4306  0.6194
  143MPD2    H5 2234   3.065   1.411  10.756 -0.1137 -0.7162  1.6505
  143MPD2    N1 2235   2.490   1.340  10.696 -0.0034  0.6597  0.3648
  143MPD2    H7 2236   2.411   1.302  10.747 -0.9117 -1.2190 -2.4447
  144TMC2    C1 2237   0.503   0.156   0.899  0.3740 -0.1396  0.7094
  144TMC2    C2 2238   0.499   0.022   0.899 -0.0864  0.4820  0.0978
  144TMC2    C3 2239   0.575   4.686   0.992 -0.5695 -0.3090  0.1947
  144TMC2    C4 2240   0.576   0.222   0.986 -0.6570 -0.3210 -0.0839
  144TMC2    C5 2241   0.655   0.154   1.072 -0.2066  0.4035 -0.6359
  144TMC2    C6 2242   0.652   0.018   1.081 -0.2870 -0.4396  0.0111
  144TMC2     C 2243   0.459   0.210   0.777 -0.2879 -0.7671 -0.2222
  144TMC2     O 2244   0.420   0.136   0.686  0.0040  0.1252 -0.1248
  144TMC2     H 2245   0.438   4.711   0.823 -1.0888  3.1378 -0.7196
  144TMC2    H1 2246   0.585   0.330   0.983 -0.2338 -0.3542  0.0470
  144TMC2    H2 2247   0.721   4.705   1.149 -1.7062  1.9403  3.1613
  144TMC2    C7 2248   0.748   0.220   1.162 -0.2935  0.2768 -0.3604
  144TMC2    C8 2249   0.520   4.564   1.038 -0.4240  0.1633  0.6053
  144TMC2    O1 2250   0.838   0.152   1.213 -0.2271 -0.0663 -0.1586
  144TMC2    O2 2251   0.492   4.541   1.156 -0.3901 -0.2146  0.4210
  144TMC2    O5 2252   0.447   4.517   0.938  0.0988 -0.0340 -0.3535
  144TMC2    H5 2253   0.497   4.518   0.854  1.2211  0.9232  0.3274
  145MPD2     C 2254   0.344   0.595   0.457  0.0013  0.4765  0.4181
  145MPD2    C1 2255   0.359   0.463   0.436 -0.1274  0.2090  0.2275
  145MPD2    C2 2256   0.403   0.383   0.540  0.0957  0.4024  0.7153
  145MPD2    C3 2257   0.422   0.431   0.671  0.1345  0.2591 -0.0618
  145MPD2    C4 2258   0.399   0.561   0.687 -0.3939  0.1026  0.1731
  145MPD2    C5 2259   0.367   0.646   0.581  0.1056  0.8155 -0.2454
  145MPD2     H 2260   0.409   0.278   0.514  1.3325  0.5829  0.2510
  145MPD2    H1 2261   0.428   0.608   0.780  0.6866  0.1740 -0.1993
  145MPD2    H2 2262   0.323   0.669   0.381 -3.5235  0.9380  1.8529
  145MPD2    H3 2263   0.369   0.753   0.601 -3.5125  0.6194  1.2491
  145MPD2     N 2264   0.456   0.348   0.781 -0.6904  0.1753 -0.4161
  145MPD2    H5 2265   0.472   0.401   0.867  1.6660 -3.0180  1.0738
  145MPD2    N1 2266   0.327   0.393   0.313 -1.1278  0.2159  0.4758
  145MPD2    H7 2267   0.317   0.292   0.321 -1.3686  0.2320  0.3873
  146TMC2    C1 2268   1.079   3.735  12.657  0.2542  0.3997 -0.1704
  146TMC2    C2 2269   0.966   3.735  12.584  0.0736 -0.0276  0.2934
  146TMC2    C3 2270   0.971   3.682  12.456  0.2533 -1.3048 -0.1947
  146TMC2    C4 2271   1.204   3.688  12.609  0.4108  0.2077  0.2268
  146TMC2    C5 2272   1.206   3.637  12.488  0.0627 -0.5078  0.1183
  146TMC2    C6 2273   1.091   3.636  12.405 -0.4663  0.4332  0.1141
  146TMC2     C 2274   1.067   3.782  12.789 -0.1011 -0.3523  0.3877
  146TMC2     O 2275   0.960   3.833  12.818  0.5712  0.0667 -0.7058
  146TMC2     H 2276   0.867   3.763  12.620 -0.4727 -0.8531 -0.5828
  146TMC2    H1 2277   1.292   3.697  12.671 -0.1413  0.1211  1.0285
  146TMC2    H2 2278   1.106   3.606  12.302  0.8549 -2.2338  1.0857
  146TMC2    C7 2279   1.331   3.624  12.418  0.0822  0.1915  0.5172
  146TMC2    C8 2280   0.852   3.685  12.374 -0.0041 -0.1284 -0.3128
  146TMC2    O1 2281   1.339   3.666  12.302  0.2840  0.5667  0.2486
  146TMC2    O2 2282   0.762   3.763  12.396 -0.3256 -0.0055 -0.1367
  146TMC2    O5 2283   0.832   3.558  12.344  0.1094  0.2230  0.5436
  146TMC2    H5 2284   0.905   3.496  12.365  0.6217  0.5004 -0.3901
  147MPD2     C 2285   1.809   3.431  12.399  0.2447 -0.4402  0.6751
  147MPD2    C1 2286   1.772   3.438  12.532  0.0154 -0.7364 -0.2393
  147MPD2    C2 2287   1.645   3.480  12.564 -0.3822 -0.8709 -0.8305
  147MPD2    C3 2288   1.562   3.524  12.466  0.4811 -0.1292  0.2401
  147MPD2    C4 2289   1.598   3.520  12.334  0.2589 -0.4058 -0.3079
  147MPD2    C5 2290   1.721   3.469  12.304  0.4646 -0.5129  0.5072
  147MPD2     H 2291   1.602   3.462  12.662  1.1440 -0.3482 -0.0502
  147MPD2    H1 2292   1.535   3.563  12.257 -0.9045  1.6495  1.7803
  147MPD2    H2 2293   1.909   3.406  12.368 -0.1373 -1.5281  0.2896
  147MPD2    H3 2294   1.754   3.478  12.201  1.2152 -0.5632  0.7457
  147MPD2     N 2295   1.428   3.566  12.502 -0.1500 -0.4589  0.0912
  147MPD2    H5 2296   1.402   3.552  12.599 -1.7713 -1.2222 -0.4471
  147MPD2    N1 2297   1.874   3.419  12.626  0.7444  0.7495  0.1203
  147MPD2    H7 2298   1.967   3.397  12.593 -0.1854  0.4257 -2.2456
  148TMC2    C1 2299   1.600   3.141  10.734 -0.6031  0.5323 -0.8355
  148TMC2    C2 2300   1.632   3.210  10.850  0.7173  0.1166 -0.0997
  148TMC2    C3 2301   1.745   3.164  10.922  0.0220 -0.3552 -0.5546
  148TMC2    C4 2302   1.672   3.030  10.697 -0.2683  0.0739  0.5924
  148TMC2    C5 2303   1.783   2.995  10.778  0.8229 -0.1173 -0.0872
  148TMC2    C6 2304   1.820   3.063  10.884  0.1459  0.4269  0.1776
  148TMC2     C 2305   1.533   3.209  10.628 -0.1152 -1.0299  0.1524
  148TMC2     O 2306   1.533   3.332  10.642  0.2751 -0.0584  0.0648
  148TMC2     H 2307   1.577   3.301  10.871 -0.7540 -0.4714 -1.3399
  148TMC2    H1 2308   1.650   2.974  10.607  0.1413  1.4451 -0.3748
  148TMC2    H2 2309   1.895   3.023  10.952  1.7637  0.8175 -1.3724
  148TMC2    C7 2310   1.845   2.873  10.745 -0.6562 -0.0443  0.1652
  148TMC2    C8 2311   1.774   3.210  11.051  1.4788  0.9329 -0.4776
  148TMC2    O1 2312   1.782   2.791  10.684 -0.3233 -0.6541  0.0747
  148TMC2    O2 2313   1.883   3.241  11.102  0.4084 -0.2643 -0.1018
  148TMC2    O5 2314   1.648   3.248  11.090  0.0321 -0.4280  0.1124
  148TMC2    H5 2315   1.581   3.191  11.046  1.0420 -0.4989 -1.3081
  149MPD2     C 2316   1.395   3.309  10.399  0.4505 -0.5628  0.0192
  149MPD2    C1 2317   1.395   3.177  10.434 -0.5599 -0.1032  0.3440
  149MPD2    C2 2318   1.320   3.089  10.359 -0.5433  0.5150  0.1512
  149MPD2    C3 2319   1.251   3.127  10.243  0.0086 -0.4312  0.1687
  149MPD2    C4 2320   1.263   3.266  10.207  0.6328  1.3180  0.1711
  149MPD2    C5 2321   1.335   3.353  10.286 -0.2311  0.1384 -0.8460
  149MPD2     H 2322   1.323   2.988  10.398 -0.7512 -0.0389 -1.2837
  149MPD2    H1 2323   1.231   3.299  10.109  0.3185 -0.3861 -0.2998
  149MPD2    H2 2324   1.447   3.384  10.458  1.0499 -1.5821  0.7849
  149MPD2    H3 2325   1.331   3.459  10.266 -0.6386 -0.1818 -2.4276
  149MPD2     N 2326   1.175   3.042  10.154 -0.3464  0.0511  0.1950
  149MPD2    H5 2327   1.139   3.080  10.067 -1.6314 -0.2264  0.6074
  149MPD2    N1 2328   1.464   3.129  10.542 -0.0424  0.5758  0.2383
  149MPD2    H7 2329   1.466   3.030  10.560  0.0690  0.7163  0.9968
  150TMC2    C1 2330   3.472   2.009  12.252 -0.0230  0.0882 -0.3094
  150TMC2    C2 2331   3.371   2.095  12.291  0.6377  0.2973  0.2749
  150TMC2    C3 2332   3.409   2.221  12.317  0.4971 -0.5260 -0.0236
  150TMC2    C4 2333   3.599   2.042  12.246  0.7026 -0.5138 -0.2079
  150TMC2    C5 2334   3.633   2.171  12.284  0.2817  0.3319 -0.3080
  150TMC2    C6 2335   3.539   2.263  12.317 -0.6205 -0.5679  0.2094
  150TMC2     C 2336   3.435   1.868  12.220 -0.8587 -0.6543  0.1591
  150TMC2     O 2337   3.527   1.787  12.211  0.0723 -0.6025  0.1853
  150TMC2     H 2338   3.273   2.058  12.319  1.1027 -1.2798 -0.2065
  150TMC2    H1 2339   3.673   1.976  12.204  0.5189 -0.4245 -0.6670
  150TMC2    H2 2340   3.574   2.365  12.330  0.6073 -1.0119  0.4831
  150TMC2    C7 2341   3.773   2.199  12.303  0.0189  0.1767  0.2420
  150TMC2    C8 2342   3.307   2.325  12.329  0.2447 -0.5764  0.0867
  150TMC2    O1 2343   3.809   2.315  12.292 -0.1494  0.0103  0.2480
  150TMC2    O2 2344   3.301   2.417  12.402 -0.2062  0.4625 -0.1110
  150TMC2    O5 2345   3.215   2.287  12.243 -0.0289  0.2784  0.5982
  150TMC2    H5 2346   3.231   2.220  12.174 -4.0957 -0.8817  0.8073
  151MPD2     C 2347   3.149   1.449  12.200  0.3683 -0.0175 -0.9387
  151MPD2    C1 2348   3.088   1.552  12.136  0.0013  0.2225 -0.3587
  151MPD2    C2 2349   3.136   1.679  12.134 -0.4677  0.0864  0.3859
  151MPD2    C3 2350   3.250   1.707  12.205 -0.3617  0.5616 -0.5478
  151MPD2    C4 2351   3.311   1.602  12.269  0.5894 -0.3353 -0.3210
  151MPD2    C5 2352   3.261   1.475  12.270 -0.0720  0.2079  0.6764
  151MPD2     H 2353   3.083   1.767  12.101  0.9506  0.4546 -0.8752
  151MPD2    H1 2354   3.402   1.620  12.325  0.8000 -1.0542 -0.4370
  151MPD2    H2 2355   3.126   1.345  12.182 -0.8117  0.4591 -2.1519
  151MPD2    H3 2356   3.311   1.394  12.321  1.1302  0.5149 -0.0067
  151MPD2     N 2357   3.303   1.842  12.198 -0.0206 -0.2726 -0.5765
  151MPD2    H5 2358   3.257   1.909  12.138 -0.9198 -1.5706 -1.3438
  151MPD2    N1 2359   2.973   1.535  12.053 -0.8301  0.2488 -1.0008
  151MPD2    H7 2360   2.934   1.619  12.011 -2.3405 -1.0828 -2.2652
  152TMC2    C1 2361   3.378   1.675  12.660 -0.4732  0.7436 -0.5963
  152TMC2    C2 2362   3.435   1.598  12.761  0.3552 -0.6255 -0.0641
  152TMC2    C3 2363   3.539   1.655  12.833 -0.6159 -0.5107 -0.6199
  152TMC2    C4 2364   3.412   1.805  12.637 -0.4915 -0.2997  0.2938
  152TMC2    C5 2365   3.508   1.851  12.716 -0.4226 -0.0114  0.1443
  152TMC2    C6 2366   3.573   1.782  12.817  0.4221 -0.1273 -0.1763
  152TMC2     C 2367   3.247   1.643  12.612  0.4440  0.8459  0.1777
  152TMC2     O 2368   3.188   1.739  12.565 -0.8302 -0.9072  0.0902
  152TMC2     H 2369   3.390   1.506  12.795 -2.0711  1.2616  1.8290
  152TMC2    H1 2370   3.375   1.858  12.550  0.3421 -1.1870 -0.5993
  152TMC2    H2 2371   3.636   1.826  12.893  1.7442  0.1359 -1.4257
  152TMC2    C7 2372   3.536   1.994  12.704  0.2167  0.7728  0.1455
  152TMC2    C8 2373   3.627   1.563  12.904 -0.3354  0.5392  0.3427
  152TMC2    O1 2374   3.440   2.061  12.667 -0.6874 -0.0987  0.2495
  152TMC2    O2 2375   3.586   1.474  12.980 -0.6970  0.0273 -0.9504
  152TMC2    O5 2376   3.752   1.612  12.894  0.0052 -0.5108  0.0661
  152TMC2    H5 2377   3.759   1.672  12.817 -1.4721 -1.6998 -1.0124
  153MPD2     C 2378   3.095   1.314  12.545  0.1397 -0.0454 -0.0560
  153MPD2    C1 2379   3.103   1.450  12.548  0.6846  0.4256  0.5925
  153MPD2    C2 2380   3.000   1.530  12.517  0.2238  0.4573  0.6114
  153MPD2    C3 2381   2.893   1.471  12.457  0.7356  0.0116 -0.6755
  153MPD2    C4 2382   2.886   1.332  12.441 -0.0874 -0.1536  0.0465
  153MPD2    C5 2383   2.984   1.254  12.492 -0.4526 -0.0063 -0.4050
  153MPD2     H 2384   2.985   1.637  12.526  0.5136  0.4500  1.1544
  153MPD2    H1 2385   2.806   1.272  12.398 -0.2396 -0.8278  1.2701
  153MPD2    H2 2386   3.168   1.253  12.597 -1.4315 -0.4768  1.6102
  153MPD2    H3 2387   2.974   1.146  12.485  0.4622 -0.1043 -0.2845
  153MPD2     N 2388   2.791   1.560  12.415  0.0067 -0.1333 -0.2238
  153MPD2    H5 2389   2.808   1.659  12.424 -0.1113 -0.1641  0.3323
  153MPD2    N1 2390   3.227   1.509  12.596 -0.2302  0.2551 -0.2992
  153MPD2    H7 2391   3.297   1.439  12.615 -2.2167 -1.6044  0.1417
  154TMC2    C1 2392   0.836   1.811   0.471 -0.5679  0.4085 -0.0314
  154TMC2    C2 2393   0.849   1.693   0.406 -0.1497  0.0888 -0.1811
  154TMC2    C3 2394   0.940   1.693   0.308  0.6497 -0.1586  0.1788
  154TMC2    C4 2395   0.905   1.920   0.448  0.0702  0.2111 -0.6732
  154TMC2    C5 2396   1.000   1.914   0.354  0.0094 -0.3532 -0.2605
  154TMC2    C6 2397   1.023   1.800   0.281  0.9281 -0.1095  0.1922
  154TMC2     C 2398   0.732   1.831   0.572 -0.5548  1.0746  0.1511
  154TMC2     O 2399   0.750   1.921   0.653  0.2441  0.2907  0.1967
  154TMC2     H 2400   0.789   1.605   0.429 -1.4252  0.7809 -0.8958
  154TMC2    H1 2401   0.916   2.004   0.516  1.9320 -0.9323  0.4628
  154TMC2    H2 2402   1.097   1.792   0.201  1.2063  2.2830  0.2164
  154TMC2    C7 2403   1.060   2.049   0.337 -0.0907  0.0438 -0.2988
  154TMC2    C8 2404   0.974   1.574   0.248  0.6364  0.3327  0.2259
  154TMC2    O1 2405   0.992   2.148   0.378  0.3448 -0.0764 -0.9167
  154TMC2    O2 2406   1.088   1.533   0.229  0.6825 -0.9489 -0.0038
  154TMC2    O5 2407   0.860   1.496   0.218  0.0551  0.5851  0.1283
  154TMC2    H5 2408   0.786   1.560   0.207  0.0227  0.5837  0.3359
  155MPD2     C 2409   0.399   1.689   0.612 -0.4363 -0.3899  0.3348
  155MPD2    C1 2410   0.511   1.756   0.646  0.6971 -0.2010 -0.3997
  155MPD2    C2 2411   0.499   1.845   0.757  0.2305 -0.6470  0.5093
  155MPD2    C3 2412   0.382   1.862   0.835  0.3690 -0.4217 -0.6026
  155MPD2    C4 2413   0.270   1.800   0.785 -0.2566 -0.5277  0.3778
  155MPD2    C5 2414   0.283   1.717   0.675  1.4513  1.0619 -0.6996
  155MPD2     H 2415   0.587   1.897   0.790  0.7482 -1.1292 -0.1106
  155MPD2    H1 2416   0.169   1.805   0.825 -1.5118 -2.4207 -2.5128
  155MPD2    H2 2417   0.408   1.618   0.531 -0.2221  0.4347 -0.3551
  155MPD2    H3 2418   0.202   1.651   0.650  1.3360  0.5260  1.0645
  155MPD2     N 2419   0.380   1.944   0.952 -0.6400 -0.4838 -0.0939
  155MPD2    H5 2420   0.466   1.984   0.989 -0.5393 -2.4648  1.8384
  155MPD2    N1 2421   0.632   1.740   0.565  0.6113  0.0739 -0.3952
  155MPD2    H7 2422   0.632   1.673   0.489 -3.0691 -0.8904  0.4311
  156TMC2    C1 2423   3.138   4.252  11.994 -0.2823  0.8907 -0.4311
  156TMC2    C2 2424   3.010   4.216  12.007  0.2282  0.1660  0.2234
  156TMC2    C3 2425   2.921   4.251  11.915  0.5447  0.9443  0.5519
  156TMC2    C4 2426   3.179   4.332  11.896 -0.0702  0.1235  0.5331
  156TMC2    C5 2427   3.087   4.359  11.791 -0.5271 -0.8408 -0.6328
  156TMC2    C6 2428   2.958   4.320  11.798 -0.1116 -0.0040  0.8448
  156TMC2     C 2429   3.238   4.208  12.085 -0.2927 -0.4848  0.2332
  156TMC2     O 2430   3.341   4.268  12.087  0.4170  0.5390  0.0109
  156TMC2     H 2431   2.978   4.130  12.065  3.3485 -1.5558 -0.5885
  156TMC2    H1 2432   3.285   4.351  11.878  0.1555 -0.1147  1.6098
  156TMC2    H2 2433   2.882   4.344  11.725  0.9370 -0.1578 -0.2865
  156TMC2    C7 2434   3.149   4.398  11.664 -0.1128  0.5019 -0.3503
  156TMC2    C8 2435   2.810   4.155  11.890 -0.3636 -0.0377 -0.4099
  156TMC2    O1 2436   3.263   4.446  11.674  0.3010 -0.0564  0.6501
  156TMC2    O2 2437   2.694   4.158  11.926 -0.2477  0.1087  0.2612
  156TMC2    O5 2438   2.865   4.045  11.839 -0.2269  0.1662 -0.3682
  156TMC2    H5 2439   2.959   4.057  11.812  0.5485 -0.1865  2.2083
  157MPD2     C 2440   3.238   3.921  12.312 -0.7719 -0.2215  0.5113
  157MPD2    C1 2441   3.278   4.042  12.263  0.5159  0.6053  0.5683
  157MPD2    C2 2442   3.383   4.113  12.322 -0.0407 -0.6460 -0.5585
  157MPD2    C3 2443   3.440   4.065  12.443 -0.0961 -0.4753 -0.0041
  157MPD2    C4 2444   3.397   3.940  12.498 -0.0428 -0.6618 -0.1738
  157MPD2    C5 2445   3.301   3.874  12.425 -0.2904  0.1737 -0.0186
  157MPD2     H 2446   3.430   4.201  12.279  0.8651  0.3428  2.4934
  157MPD2    H1 2447   3.437   3.893  12.587 -0.4734  0.5688  0.6747
  157MPD2    H2 2448   3.156   3.857  12.283  0.0736 -1.0403 -0.0900
  157MPD2    H3 2449   3.278   3.772  12.451 -0.8838  0.0301 -1.0888
  157MPD2     N 2450   3.548   4.133  12.497  0.3677  0.5347  0.3951
  157MPD2    H5 2451   3.578   4.222  12.459 -0.4164  0.7002  0.1492
  157MPD2    N1 2452   3.203   4.099  12.156  0.1204  0.2475 -0.4476
  157MPD2    H7 2453   3.119   4.053  12.122 -0.0340 -0.2204  0.5942
  158TMC2    C1 2454   3.875   3.020  12.886  0.5259 -0.5143  0.9602
  158TMC2    C2 2455   3.918   3.098  12.780 -0.0794 -0.6275 -0.0646
  158TMC2    C3 2456   3.821   3.162  12.712 -1.1106 -0.2697 -0.9772
  158TMC2    C4 2457   3.752   3.016  12.934  0.1051 -0.9322  0.2449
  158TMC2    C5 2458   3.663   3.098  12.871 -0.0865  0.1512  0.3993
  158TMC2    C6 2459   3.691   3.163  12.752 -0.7884 -0.0656  0.7018
  158TMC2     C 2460   3.984   2.936  12.938 -0.5675  0.2295  0.9210
  158TMC2     O 2461   4.082   2.917  12.860  0.1497  0.5477 -0.0119
  158TMC2     H 2462   4.019   3.105  12.744 -0.8526  1.7310 -1.7669
  158TMC2    H1 2463   3.728   2.957  13.023 -1.4083 -1.7720 -0.7201
  158TMC2    H2 2464   3.616   3.219  12.697 -1.1951  0.3171  1.6383
  158TMC2    C7 2465   3.517   3.106  12.907 -0.4025 -0.6236 -0.2635
  158TMC2    C8 2466   3.858   3.207  12.578  0.0913  0.5665  0.3729
  158TMC2    O1 2467   3.436   3.135  12.821  0.9016  0.6155 -0.1294
  158TMC2    O2 2468   3.949   3.157  12.515  0.4543  0.1691 -0.3388
  158TMC2    O5 2469   3.774   3.304  12.535  0.2408  0.0794  0.1987
  158TMC2    H5 2470   3.714   3.345  12.601 -0.3633  0.2131 -0.4443
  159MPD2     C 2471   4.218   2.702  13.322  0.4445 -1.0087 -0.0633
  159MPD2    C1 2472   4.137   2.799  13.372 -0.2937 -0.0974  0.2593
  159MPD2    C2 2473   4.052   2.865  13.292 -0.0430  0.4724  0.2607
  159MPD2    C3 2474   4.057   2.840  13.153  0.1649  0.4213 -0.7199
  159MPD2    C4 2475   4.134   2.740  13.107  0.2880  0.1004  0.4621
  159MPD2    C5 2476   4.213   2.668  13.190 -0.6720  0.1901  1.0284
  159MPD2     H 2477   3.979   2.934  13.334  0.2569 -0.9552  3.1334
  159MPD2    H1 2478   4.133   2.714  13.002  1.6355  0.5193  0.3392
  159MPD2    H2 2479   4.272   2.646  13.397 -1.5519 -1.8388  0.7545
  159MPD2    H3 2480   4.277   2.586  13.158 -0.7273  0.1697  0.9686
  159MPD2     N 2481   3.977   2.926  13.075 -0.6782 -0.3115  0.9967
  159MPD2    H5 2482   3.910   2.984  13.124  0.0139  2.9216 -1.8701
  159MPD2    N1 2483   4.149   2.831  13.506 -0.3888  0.4301  1.2284
  159MPD2    H7 2484   4.194   2.764  13.567 -1.4659 -1.1085  0.3234
  160TMC2    C1 2485   3.744   1.017   1.536  0.1394 -0.0497  0.1575
  160TMC2    C2 2486   3.722   1.148   1.572  0.2723 -0.1808 -0.3996
  160TMC2    C3 2487   3.832   1.228   1.581 -0.0790  0.1384  0.4513
  160TMC2    C4 2488   3.872   0.978   1.512 -0.1565  0.0373 -0.0846
  160TMC2    C5 2489   3.983   1.054   1.530 -0.2796  0.1934  0.1826
  160TMC2    C6 2490   3.960   1.184   1.568  0.2032  0.0583  0.2368
  160TMC2     C 2491   3.643   0.955   1.458  0.1880  0.0276 -0.3566
  160TMC2     O 2492   3.620   0.831   1.476 -0.3269  0.1790 -0.6079
  160TMC2     H 2493   3.620   1.182   1.583  0.2597  0.3682 -2.1440
  160TMC2    H1 2494   3.892   0.876   1.480 -0.4343 -0.1966  0.4887
  160TMC2    H2 2495   4.046   1.250   1.574 -0.8005  1.3217  1.0279
  160TMC2    C7 2496   4.095   1.012   1.457 -0.5113  0.5795 -0.3549
  160TMC2    C8 2497   3.821   1.363   1.638  0.2226 -0.2988  0.8129
  160TMC2    O1 2498   4.105   0.896   1.422 -0.2962 -0.3638  0.5153
  160TMC2    O2 2499   3.918   1.414   1.691  0.6613 -0.5972 -0.0027
  160TMC2    O5 2500   3.735   1.436   1.569 -0.3929 -0.2607  0.5433
  160TMC2    H5 2501   3.675   1.384   1.512  1.6943 -0.7024 -1.2452
  161MPD2     C 2502   3.414   0.910   1.262  0.4343 -0.2710  0.3665
  161MPD2    C1 2503   3.500   1.017   1.259  0.2694  0.2988  0.0153
  161MPD2    C2 2504   3.494   1.105   1.157 -0.1001 -0.0896 -0.6351
  161MPD2    C3 2505   3.393   1.097   1.058  0.5115 -0.4097  0.0158
  161MPD2    C4 2506   3.305   0.984   1.066 -0.3703  0.4575 -0.1960
  161MPD2    C5 2507   3.316   0.895   1.170  0.4601  0.4193  0.2658
  161MPD2     H 2508   3.563   1.189   1.157 -1.2744  0.8549  1.1582
  161MPD2    H1 2509   3.224   0.975   0.994  1.5609  1.7772 -2.5324
  161MPD2    H2 2510   3.426   0.840   1.344  1.4149  1.5751  1.8005
  161MPD2    H3 2511   3.249   0.810   1.179  0.6615  0.3152  0.7206
  161MPD2     N 2512   3.377   1.186   0.951  0.2633  0.5545  0.0795
  161MPD2    H5 2513   3.286   1.182   0.907  1.0311  2.6903 -1.7217
  161MPD2    N1 2514   3.594   1.039   1.362 -0.3424 -1.0555  0.3527
  161MPD2    H7 2515   3.654   1.121   1.362 -0.0647 -1.2439  2.3165
  162TMC2    C1 2516   2.023   3.606   0.900  0.2336 -0.6150 -0.5553
  162TMC2    C2 2517   1.954   3.653   1.006  0.2429 -0.6760  0.2194
  162TMC2    C3 2518   2.014   3.686   1.121 -0.3914 -0.6644 -0.3471
  162TMC2    C4 2519   2.164   3.595   0.906  0.5264 -0.2747  0.4551
  162TMC2    C5 2520   2.224   3.632   1.027  0.2548 -0.1744  0.1999
  162TMC2    C6 2521   2.148   3.673   1.135  0.2256 -0.1568  0.2202
  162TMC2     C 2522   1.972   3.532   0.787  0.4328 -1.1950 -0.2488
  162TMC2     O 2523   2.047   3.463   0.718  0.2995  0.0868 -0.2273
  162TMC2     H 2524   1.847   3.636   1.017 -0.2071  1.2047 -1.2583
  162TMC2    H1 2525   2.224   3.565   0.821 -0.2397 -0.2277 -0.1023
  162TMC2    H2 2526   2.190   3.704   1.230 -1.0396  0.4286  0.5813
  162TMC2    C7 2527   2.369   3.625   1.037 -0.9027 -0.4102  0.3977
  162TMC2    C8 2528   1.950   3.656   1.242  0.0021 -0.4559 -0.5531
  162TMC2    O1 2529   2.416   3.701   1.121 -0.2875 -0.3330 -0.4435
  162TMC2    O2 2530   1.904   3.544   1.253 -0.6330  0.0166  0.0701
  162TMC2    O5 2531   1.963   3.749   1.333  0.1710  0.2855 -0.5638
  162TMC2    H5 2532   1.997   3.833   1.297  0.6325  1.1237  1.7807
  163MPD2     C 2533   1.560   3.350   0.543  0.3792  1.1439 -0.4198
  163MPD2    C1 2534   1.683   3.287   0.555  0.7677  1.0533  0.2603
  163MPD2    C2 2535   1.781   3.345   0.634  0.7707  0.2046 -0.7191
  163MPD2    C3 2536   1.750   3.469   0.691 -0.1268  0.1111  0.0268
  163MPD2    C4 2537   1.622   3.515   0.691  0.2160 -0.5141  0.3579
  163MPD2    C5 2538   1.535   3.462   0.614 -0.4679 -0.0528  0.6864
  163MPD2     H 2539   1.877   3.296   0.647 -0.0099 -1.0261  0.4161
  163MPD2    H1 2540   1.605   3.603   0.752 -0.5407 -0.7741  0.5266
  163MPD2    H2 2541   1.474   3.310   0.491 -0.1661  1.5195  0.1929
  163MPD2    H3 2542   1.433   3.497   0.611  0.1095  1.3141 -3.3325
  163MPD2     N 2543   1.838   3.547   0.772  0.7291 -1.0022  0.4444
  163MPD2    H5 2544   1.792   3.633   0.802  2.6179 -0.1854  0.9584
  163MPD2    N1 2545   1.695   3.159   0.499 -0.5597  0.1603 -0.2201
  163MPD2    H7 2546   1.633   3.125   0.426 -1.8867  1.9480  0.0601
  164TMC2    C1 2547   2.205   2.697  11.064  0.3496 -0.1145 -0.3315
  164TMC2    C2 2548   2.312   2.761  11.112  0.1782  0.5754 -0.8812
  164TMC2    C3 2549   2.285   2.877  11.183  0.7719 -0.1542 -0.5173
  164TMC2    C4 2550   2.079   2.741  11.070  0.1531 -0.2558 -0.5197
  164TMC2    C5 2551   2.055   2.860  11.132 -0.1910  0.4073 -0.7938
  164TMC2    C6 2552   2.159   2.930  11.187 -1.0662 -0.1590  0.7175
  164TMC2     C 2553   2.212   2.557  11.038  0.1619  0.1252  0.1176
  164TMC2     O 2554   2.117   2.488  11.074 -0.0451 -0.3509  0.5085
  164TMC2     H 2555   2.407   2.710  11.112  0.4549  1.0816  0.1098
  164TMC2    H1 2556   2.000   2.675  11.035 -0.7554 -0.1802  1.3744
  164TMC2    H2 2557   2.134   3.024  11.234 -0.8767 -1.2682  3.0072
  164TMC2    C7 2558   1.918   2.876  11.171 -0.2881 -0.4704  0.3207
  164TMC2    C8 2559   2.398   2.960  11.232  0.3702 -0.8049  0.2995
  164TMC2    O1 2560   1.828   2.827  11.100 -0.3217  0.0594  0.0473
  164TMC2    O2 2561   2.509   2.960  11.180 -0.1803  0.8244 -0.0218
  164TMC2    O5 2562   2.360   3.046  11.324 -0.6120 -0.0357 -0.2042
  164TMC2    H5 2563   2.275   3.016  11.362 -1.8455  1.2225 -1.9112
  165TMC2    C1 2564   3.643   0.631   0.480  0.0014 -0.5657  0.4576
  165TMC2    C2 2565   3.739   0.682   0.389 -0.4122  0.2441  0.7288
  165TMC2    C3 2566   3.870   0.669   0.427 -0.6290 -0.5289 -0.1427
  165TMC2    C4 2567   3.677   0.579   0.598  0.9121 -0.4476 -0.2712
  165TMC2    C5 2568   3.807   0.559   0.622  0.4800 -0.2017  0.0638
  165TMC2    C6 2569   3.911   0.599   0.538  0.3320  0.2354  0.2233
  165TMC2     C 2570   3.525   0.562   0.433 -0.4211  0.0255 -0.2912
  165TMC2     O 2571   3.482   0.472   0.509  0.0566  0.1803 -0.1513
  165TMC2     H 2572   3.716   0.717   0.288  0.4209  2.5369  1.3399
  165TMC2    H1 2573   3.603   0.568   0.676  0.1989  1.9425 -0.6012
  165TMC2    H2 2574   4.017   0.589   0.557  0.0708  1.5773  2.3633
  165TMC2    C7 2575   3.852   0.495   0.748  0.1368  0.1906 -0.4559
  165TMC2    C8 2576   3.969   0.700   0.333  0.2452  0.3223 -0.3352
  165TMC2    O1 2577   3.961   0.522   0.796 -0.5411  0.4074 -0.0685
  165TMC2    O2 2578   4.082   0.659   0.341 -0.1974  0.6537 -0.8350
  165TMC2    O5 2579   3.930   0.801   0.251  0.6567 -0.1716  0.2159
  165TMC2    H5 2580   3.847   0.846   0.280  0.1223 -0.4312 -0.8985
  166MPD2     C 2581   3.322   0.339   0.010 -0.1739  0.2594  0.3268
  166MPD2    C1 2582   3.365   0.289   0.130  0.4656 -0.2265  0.2172
  166MPD2    C2 2583   3.417   0.378   0.228  0.4387 -0.6200 -0.2129
  166MPD2    C3 2584   3.428   0.513   0.206  0.3413  1.1508  0.8056
  166MPD2    C4 2585   3.397   0.559   0.083  0.0157 -0.1488 -0.3342
  166MPD2    C5 2586   3.348   0.475  17.731  0.3613 -0.0279 -0.2507
  166MPD2     H 2587   3.453   0.336   0.321  1.4965  2.7688  0.9069
  166MPD2    H1 2588   3.417   0.660   0.049  0.7690 -0.7050 -1.5201
  166MPD2    H2 2589   3.274   0.281  17.675 -0.3964  1.3207 -0.3362
  166MPD2    H3 2590   3.325   0.523  17.636  1.4695  1.0712  0.0440
  166MPD2     N 2591   3.490   0.593   0.303 -0.0830  0.3201 -0.6835
  166MPD2    H5 2592   3.512   0.684   0.265  0.2193  0.7837  0.6018
  166MPD2    N1 2593   3.348   0.151   0.151  0.2527 -0.2814 -0.1963
  166MPD2    H7 2594   3.310   0.099   0.073 -1.2599 -0.1563  0.4465
  167TMC2    C1 2595   1.824   2.886  13.094 -0.8308 -0.6407 -0.6871
  167TMC2    C2 2596   1.880   2.861  13.214 -0.2034  0.4715  0.0923
  167TMC2    C3 2597   1.817   2.772  13.298  0.2399  0.4636  0.0756
  167TMC2    C4 2598   1.704   2.833  13.052  0.2634  0.6478 -0.0536
  167TMC2    C5 2599   1.639   2.757  13.141 -0.1885 -0.3005  0.5466
  167TMC2    C6 2600   1.689   2.731  13.268 -0.5068 -0.1338  0.2798
  167TMC2     C 2601   1.909   2.947  12.995  0.1501  0.2147 -1.1679
  167TMC2     O 2602   2.010   2.999  13.038 -0.1537 -0.4649  0.3087
  167TMC2     H 2603   1.975   2.904  13.241 -0.0057 -1.0744  1.8312
  167TMC2    H1 2604   1.649   2.879  12.970 -1.0524 -1.0622 -0.1359
  167TMC2    H2 2605   1.628   2.687  13.346 -0.2662 -0.5428  0.2357
  167TMC2    C7 2606   1.505   2.696  13.113 -0.6541  0.1424 -0.6771
  167TMC2    C8 2607   1.848   2.791  13.440  0.0842  0.1875  0.5987
  167TMC2    O1 2608   1.439   2.661  13.210  0.1619  0.0259  0.0199
  167TMC2    O2 2609   1.756   2.815  13.517  0.6708 -0.4042  0.1236
  167TMC2    O5 2610   1.966   2.729  13.458  0.1671 -0.6266  0.3589
  167TMC2    H5 2611   2.013   2.708  13.374 -1.1186 -2.1345 -0.0010
  168MPD2     C 2612   2.040   3.047  12.743 -0.3867  0.3897  0.3632
  168MPD2    C1 2613   1.937   2.958  12.745  0.5455 -0.4693 -0.6164
  168MPD2    C2 2614   1.887   2.907  12.627 -0.0858 -0.2672  0.4046
  168MPD2    C3 2615   1.948   2.931  12.507 -0.6213 -0.8820  0.0603
  168MPD2    C4 2616   2.058   3.015  12.503  0.3607  0.5146 -0.2980
  168MPD2    C5 2617   2.090   3.085  12.619 -0.4107  0.8307  0.0686
  168MPD2     H 2618   1.799   2.845  12.640  0.1886 -1.1882 -2.0688
  168MPD2    H1 2619   2.112   3.057  12.418 -0.1209 -2.0717 -1.8751
  168MPD2    H2 2620   2.084   3.087  12.833  1.9869  0.3529 -0.8009
  168MPD2    H3 2621   2.160   3.167  12.608  0.8684 -0.5429 -1.9055
  168MPD2     N 2622   1.902   2.879  12.386  0.1841 -0.0784 -0.3751
  168MPD2    H5 2623   1.965   2.882  12.306  0.1119  2.3970 -0.3588
  168MPD2    N1 2624   1.872   2.920  12.870 -0.1131  0.2833  0.0436
  168MPD2    H7 2625   1.789   2.863  12.860 -0.7828  0.8285  2.3342
  169MPD1     C 2626   3.478   3.333   9.693 -0.4273  0.9334 -0.8979
  169MPD1    C1 2627   3.360   3.263   9.667  0.1746 -0.1072  0.0854
  169MPD1    C2 2628   3.370   3.128   9.648  0.6295 -0.1449  0.5941
  169MPD1    C3 2629   3.484   3.053   9.670  0.0552  0.4527  0.3639
  169MPD1    C4 2630   3.600   3.122   9.713 -0.3052  0.4549 -0.9754
  169MPD1    C5 2631   3.595   3.256   9.714 -0.5572  0.2598 -0.5930
  169MPD1     H 2632   3.288   3.068   9.611 -0.4924  0.6051  1.8667
  169MPD1    H1 2633   3.693   3.070   9.733 -1.3578 -0.5662  1.2473
  169MPD1    H2 2634   3.497   3.439   9.706 -2.1547  0.8184  2.4439
  169MPD1    H3 2635   3.683   3.318   9.723  1.0981 -2.5910  2.5249
  169MPD1     N 2636   3.481   2.912   9.634  0.2850 -0.2713 -0.7982
  169MPD1    H5 2637   3.389   2.880   9.607 -0.0569 -0.7854  1.0068
  169MPD1    N1 2638   3.242   3.328   9.628 -0.0897  0.2759 -0.0008
  169MPD1    H6 2639   3.167   3.261   9.645  1.7054 -2.0295 -1.1240
  169MPD1    H7 2640   3.240   3.410   9.689 -0.0936  0.9784 -0.9438
  170MPD1     C 2641   1.633   0.595  13.849  0.2939  0.3915  0.2179
  170MPD1    C1 2642   1.706   0.643  13.954  0.1414 -0.7900  0.0718
  170MPD1    C2 2643   1.848   0.640  13.950  0.7888 -0.1231 -0.3923
  170MPD1    C3 2644   1.910   0.582  13.842  0.3589  0.1547  0.1718
  170MPD1    C4 2645   1.833   0.531  13.739 -0.2449  0.7480 -0.0326
  170MPD1    C5 2646   1.702   0.534  13.748  0.0555  0.4277 -0.8820
  170MPD1     H 2647   1.912   0.685  14.025  1.1835  1.2465 -1.5450
  170MPD1    H1 2648   1.880   0.481  13.655 -0.0299  2.3475 -0.8641
  170MPD1    H2 2649   1.526   0.575  13.854  0.5615 -0.5460  2.0919
  170MPD1    H3 2650   1.642   0.500  13.665 -1.3931  1.4137 -0.2364
  170MPD1     N 2651   2.053   0.576  13.842  0.3132 -0.0039 -0.4254
  170MPD1    H5 2652   2.102   0.605  13.927  2.1812  1.6093 -2.0516
  170MPD1    N1 2653   1.633   0.682  14.067 -0.0668  0.0395  0.1036
  170MPD1    H6 2654   1.698   0.738  14.122  0.2607 -0.2490  0.0158
  170MPD1    H7 2655   1.547   0.732  14.049  0.3419  0.3737 -0.9407
  171MPD1     C 2656   0.697   0.756  15.092  0.7398  0.0834  0.8440
  171MPD1    C1 2657   0.662   0.829  15.197 -0.2879 -0.1805  0.4706
  171MPD1    C2 2658   0.733   0.817  15.317 -0.5600 -0.3463 -0.5064
  171MPD1    C3 2659   0.856   0.742  15.315  0.3775 -0.6975  0.1706
  171MPD1    C4 2660   0.888   0.671  15.202 -0.4457 -0.8056  0.5349
  171MPD1    C5 2661   0.810   0.680  15.091 -0.2652 -0.4938  0.5907
  171MPD1     H 2662   0.700   0.865  15.409 -1.1208 -1.9199  0.1172
  171MPD1    H1 2663   0.974   0.605  15.203  0.4660  0.3100 -2.4584
  171MPD1    H2 2664   0.630   0.759  15.006  4.0104 -3.7774 -1.8451
  171MPD1    H3 2665   0.841   0.616  15.009  1.4001 -0.3264  1.0845
  171MPD1     N 2666   0.944   0.716  15.425 -0.6908 -0.0543  0.4849
  171MPD1    H5 2667   1.027   0.660  15.410  0.0728  1.3412 -0.5740
  171MPD1    N1 2668   0.543   0.906  15.196  0.2158 -0.0540 -0.0840
  171MPD1    H6 2669   0.485   0.925  15.115  1.9383  0.5414 -1.1766
  171MPD1    H7 2670   0.552   0.992  15.250 -1.3192 -0.8755  1.4851
  172MPD1     C 2671   1.008   4.631   0.879  0.2225  0.3505 -0.6292
  172MPD1    C1 2672   0.995   0.017   0.940 -0.5372 -0.3413  0.2770
  172MPD1    C2 2673   0.933   0.122   0.869 -0.5217  0.0507 -0.8024
  172MPD1    C3 2674   0.869   0.091   0.754  0.2494  0.3074  0.5359
  172MPD1    C4 2675   0.854   4.695   0.710 -0.6830  0.1363  0.1923
  172MPD1    C5 2676   0.924   4.598   0.773  0.2694  0.0163 -0.5371
  172MPD1     H 2677   0.928   0.222   0.909 -1.0071  0.0160 -0.7708
  172MPD1    H1 2678   0.812   4.665   0.615 -1.3554  2.6944 -0.2927
  172MPD1    H2 2679   1.069   4.554   0.925  1.6538  1.4706 -0.6435
  172MPD1    H3 2680   0.935   4.499   0.730  1.4152  0.0408 -0.2869
  172MPD1     N 2681   0.807   0.184   0.668  0.0058  0.4590  0.3837
  172MPD1    H5 2682   0.754   0.134   0.597  2.8216  1.1982 -2.2443
  172MPD1    N1 2683   1.068   0.041   1.051  0.3469  0.0757 -0.4029
  172MPD1    H6 2684   1.038   0.127   1.095  0.6100 -0.5476  0.9897
  172MPD1    H7 2685   1.060   4.701   1.118 -1.4797  0.0447 -0.6418
  173MPD1     C 2686   2.001   0.838  14.347  0.4654 -0.5587 -0.9034
  173MPD1    C1 2687   1.879   0.775  14.347 -0.4794  0.3481 -0.0491
  173MPD1    C2 2688   1.868   0.642  14.376  0.7781  0.0831  0.5393
  173MPD1    C3 2689   1.970   0.573  14.432 -0.1318 -0.2107 -1.0219
  173MPD1    C4 2690   2.094   0.630  14.433 -0.0120 -0.0241  0.5149
  173MPD1    C5 2691   2.107   0.765  14.397 -0.5195 -0.2367  0.7055
  173MPD1     H 2692   1.772   0.593  14.381  1.0408 -0.4483  0.4446
  173MPD1    H1 2693   2.173   0.574  14.483  1.6520 -0.1577 -2.2597
  173MPD1    H2 2694   2.014   0.942  14.321 -0.6921  0.4017  2.3295
  173MPD1    H3 2695   2.201   0.814  14.420 -0.2637  0.2483 -1.4350
  173MPD1     N 2696   1.947   0.441  14.468 -0.3986  0.0712  0.6170
  173MPD1    H5 2697   1.853   0.405  14.479  0.4768 -2.0310  1.2669
  173MPD1    N1 2698   1.764   0.839  14.296 -0.2766  0.2786 -0.6645
  173MPD1    H6 2699   1.677   0.798  14.327  0.3818  1.0323  2.1961
  173MPD1    H7 2700   1.764   0.938  14.319 -1.3405  0.0722  0.2041
  174MPD1     C 2701   2.429   4.562  15.067  0.1703  0.0689 -0.0503
  174MPD1    C1 2702   2.301   4.505  15.053  0.0224  0.1832  0.3009
  174MPD1    C2 2703   2.216   4.546  14.947  0.5749 -0.3371  0.0832
  174MPD1    C3 2704   2.264   4.629  14.847  0.2858 -0.4042  0.7114
  174MPD1    C4 2705   2.397   4.675  14.852 -0.1506  0.3195 -0.3310
  174MPD1    C5 2706   2.474   4.633  14.962  0.2443 -0.4143  0.0887
  174MPD1     H 2707   2.117   4.505  14.935  0.3614  0.6092 -1.4234
  174MPD1    H1 2708   2.441   0.010  14.783 -1.3589  1.4544  0.0639
  174MPD1    H2 2709   2.508   4.525  15.130  1.0076 -0.9209 -1.6749
  174MPD1    H3 2710   2.572   4.677  14.968 -0.3148  1.3129 -3.2063
  174MPD1     N 2711   2.184   4.678  14.741 -0.1319  0.4302 -0.1950
  174MPD1    H5 2712   2.239   4.724  14.670 -1.7613  2.4170 -0.1689
  174MPD1    N1 2713   2.254   4.449  15.170  0.3198  0.6515 -0.3454
  174MPD1    H6 2714   2.327   4.388  15.206  0.8079  1.3363 -0.1884
  174MPD1    H7 2715   2.177   4.386  15.146  2.1142 -1.8749  0.5062
  175MPD1     C 2716   0.168   1.159  15.329 -0.0098 -0.0204  0.5426
  175MPD1    C1 2717   0.216   1.041  15.382  0.2674 -1.0011  0.1660
  175MPD1    C2 2718   0.185   1.006  15.510  0.6525  0.0354 -0.6532
  175MPD1    C3 2719   0.123   1.093  15.595 -0.2197  0.1931  0.3907
  175MPD1    C4 2720   0.088   1.220  15.544  0.4292 -0.1085  0.1193
  175MPD1    C5 2721   0.112   1.251  15.412  0.3317  0.3897 -0.0006
  175MPD1     H 2722   0.217   0.905  15.534  0.3829 -0.4313 -2.2616
  175MPD1    H1 2723   0.069   1.303  15.611 -1.9211 -1.2499  0.8800
  175MPD1    H2 2724   0.177   1.184  15.224  1.0461 -1.2638  0.3335
  175MPD1    H3 2725   0.075   1.350  15.388  2.1102  0.2493 -3.3119
  175MPD1     N 2726   0.108   1.068  15.732 -0.6260 -0.0690  0.9104
  175MPD1    H5 2727   0.063   1.143  15.784 -1.5133 -0.6248  0.9455
  175MPD1    N1 2728   0.254   0.943  15.292  0.6514 -0.2870 -0.7663
  175MPD1    H6 2729   0.301   0.974  15.208  1.3408  0.6583 -0.0294
  175MPD1    H7 2730   0.319   0.877  15.334  0.7901  0.2732 -0.1001
  176MPD1     C 2731   1.726   2.908  16.878  0.3836  0.0814  0.1815
  176MPD1    C1 2732   1.753   3.013  16.790  0.3809 -0.1092  0.0937
  176MPD1    C2 2733   1.791   3.135  16.845  0.2474 -0.1108  0.4338
  176MPD1    C3 2734   1.772   3.154  16.984 -0.2991 -0.1129 -0.2905
  176MPD1    C4 2735   1.747   3.048  17.060  0.0688 -0.4525 -0.7388
  176MPD1    C5 2736   1.724   2.925  17.014 -0.0310  0.1113  0.1383
  176MPD1     H 2737   1.833   3.216  16.787  0.9077 -1.0531 -0.4210
  176MPD1    H1 2738   1.754   3.060  17.168  0.6605  0.6900 -0.9118
  176MPD1    H2 2739   1.700   2.809  16.841  0.5497  0.7015 -1.5578
  176MPD1    H3 2740   1.702   2.834  17.069  1.1677  0.4752  1.2153
  176MPD1     N 2741   1.797   3.284  17.038 -0.4507 -0.7522  0.0139
  176MPD1    H5 2742   1.809   3.359  16.970  0.7625 -1.3638 -0.4410
  176MPD1    N1 2743   1.785   2.981  16.659  0.0771 -0.2361  0.7696
  176MPD1    H6 2744   1.729   2.902  16.630  0.9415  0.0310 -1.5754
  176MPD1    H7 2745   1.779   3.051  16.585 -1.4048 -0.1972  0.9397
  177MPD1     C 2746   0.278   3.147  10.512  0.2936 -0.7727  0.4785
  177MPD1    C1 2747   0.170   3.105  10.437  0.3280  0.5063 -1.3506
  177MPD1    C2 2748   0.172   3.114  10.296 -0.2530  0.9148 -0.5601
  177MPD1    C3 2749   0.270   3.193  10.235  0.0822  0.2964 -0.0051
  177MPD1    C4 2750   0.371   3.239  10.309  0.3608  0.0908  0.3284
  177MPD1    C5 2751   0.381   3.207  10.437 -0.6653 -0.0814  0.4208
  177MPD1     H 2752   0.087   3.065  10.250  0.8552 -1.0242 -0.5499
  177MPD1    H1 2753   0.462   3.279  10.267 -0.4564  0.5126 -1.0315
  177MPD1    H2 2754   0.284   3.132  10.619  0.3411 -1.4101  0.3869
  177MPD1    H3 2755   0.473   3.229  10.490  0.3247  0.2478 -1.4274
  177MPD1     N 2756   0.260   3.228  10.097 -0.4204  0.2631  0.1779
  177MPD1    H5 2757   0.181   3.190  10.046 -1.4681  1.1030  1.1760
  177MPD1    N1 2758   0.079   3.014  10.483  0.2240  0.1182  0.0661
  177MPD1    H6 2759   4.723   3.032  10.445 -0.0887 -2.2675 -0.3445
  177MPD1    H7 2760   0.079   3.021  10.585 -2.7701 -4.3357  0.3973
  178MPD1     C 2761   2.209   4.685   0.027  0.3709 -0.5335  0.5154
  178MPD1    C1 2762   2.119   4.607  17.702  0.3681 -0.5532 -0.2528
  178MPD1    C2 2763   2.150   4.475  17.665  0.0316  0.8038 -0.4617
  178MPD1    C3 2764   2.284   4.436  17.678  0.5854  0.1373 -0.0746
  178MPD1    C4 2765   2.382   4.525  17.725  0.8530 -0.1832  0.3610
  178MPD1    C5 2766   2.342   4.647   0.033 -0.6837 -0.6526 -0.0242
  178MPD1     H 2767   2.076   4.411  17.617 -0.9190  0.4102  1.5224
  178MPD1    H1 2768   2.481   4.487   0.001 -0.1487 -3.0249 -0.0231
  178MPD1    H2 2769   2.174   0.035   0.083 -1.4972 -0.0049 -1.4798
  178MPD1    H3 2770   2.410   4.703   0.095 -2.0716 -0.7332  1.5833
  178MPD1     N 2771   2.325   4.311  17.631  0.3452 -0.3466 -0.8943
  178MPD1    H5 2772   2.425   4.303  17.615  0.8049  1.5541  0.9921
  178MPD1    N1 2773   1.987   4.656  17.718 -0.7466 -0.3817  0.5689
  178MPD1    H6 2774   1.979   0.019  17.699  0.6561 -0.9167 -2.8454
  178MPD1    H7 2775   1.932   4.612  17.645 -0.2117  0.3788 -0.2962
  179MPD1     C 2776   1.734   3.061  16.005 -0.6299  0.6737  0.2012
  179MPD1    C1 2777   1.620   2.990  15.991  0.0899  0.0526  0.2221
  179MPD1    C2 2778   1.623   2.853  15.968  0.3044 -0.4407 -0.6453
  179MPD1    C3 2779   1.739   2.786  15.922  0.5300  0.1733  0.7375
  179MPD1    C4 2780   1.850   2.872  15.918 -0.0185 -0.6845  0.1287
  179MPD1    C5 2781   1.850   3.001  15.956 -0.4901 -0.2279 -0.0992
  179MPD1     H 2782   1.530   2.799  15.977 -0.0364  0.0191 -1.4907
  179MPD1    H1 2783   1.936   2.822  15.874  0.5005 -1.9966  2.6556
  179MPD1    H2 2784   1.744   3.164  16.038 -0.3723  0.7280 -0.0509
  179MPD1    H3 2785   1.944   3.056  15.955  0.3735 -1.7396 -0.8414
  179MPD1     N 2786   1.752   2.648  15.899 -1.0829  0.0789 -0.5528
  179MPD1    H5 2787   1.845   2.613  15.876 -0.4078  0.5847  1.4175
  179MPD1    N1 2788   1.503   3.048  16.020 -0.2707 -0.2820 -0.2619
  179MPD1    H6 2789   1.501   3.147  15.999 -0.5450 -0.1158  0.5297
  179MPD1    H7 2790   1.431   2.995  15.971 -1.4657  0.8834  0.2418
  180MPD1     C 2791   2.028   3.014  15.633  0.1904  0.7328  0.1946
  180MPD1    C1 2792   2.055   3.131  15.570  0.1678  0.8200 -0.7284
  180MPD1    C2 2793   2.010   3.141  15.442  0.4131  0.5564 -0.2662
  180MPD1    C3 2794   1.932   3.041  15.380  0.5370  0.2645 -0.4352
  180MPD1    C4 2795   1.917   2.920  15.450  0.0578 -0.3163  0.1489
  180MPD1    C5 2796   1.969   2.907  15.574  0.3508  0.2759 -0.5333
  180MPD1     H 2797   2.020   3.229  15.379  1.4393  0.6826  0.0684
  180MPD1    H1 2798   1.864   2.842  15.397  0.1105  0.1234 -0.5533
  180MPD1    H2 2799   2.052   2.992  15.736 -1.8789  0.9996  0.7398
  180MPD1    H3 2800   1.943   2.817  15.627 -1.0355  1.4085  0.7124
  180MPD1     N 2801   1.894   3.059  15.245  0.5794  0.0430 -0.0953
  180MPD1    H5 2802   1.908   3.151  15.204  0.1504 -0.2793 -0.9663
  180MPD1    N1 2803   2.111   3.246  15.633 -0.0010  0.4156 -0.1473
  180MPD1    H6 2804   2.174   3.218  15.707 -0.0636 -2.2547 -1.1052
  180MPD1    H7 2805   2.156   3.310  15.569  1.8310 -0.6928  0.0329
  181MPD1     C 2806   4.161   1.362   9.546  0.0399 -0.5217  0.6466
  181MPD1    C1 2807   4.221   1.257   9.493 -0.7777  0.0509  0.4361
  181MPD1    C2 2808   4.318   1.198   9.568 -0.2887  0.9067  0.6834
  181MPD1    C3 2809   4.340   1.229   9.698 -0.1571  0.7722  0.3748
  181MPD1    C4 2810   4.258   1.315   9.761 -0.1166 -0.0249  0.5295
  181MPD1    C5 2811   4.178   1.388   9.682  0.2479 -0.0460 -0.2097
  181MPD1     H 2812   4.365   1.119   9.510  1.3267  2.4599 -0.1343
  181MPD1    H1 2813   4.270   1.353   9.862  2.7450  0.4935 -0.0030
  181MPD1    H2 2814   4.110   1.436   9.484  0.5835 -0.6502  0.0473
  181MPD1    H3 2815   4.131   1.474   9.729 -1.9544 -0.0389 -2.4202
  181MPD1     N 2816   4.443   1.171   9.774  0.0014 -0.2223  0.3745
  181MPD1    H5 2817   4.445   1.202   9.871 -1.2986  0.6709  0.1286
  181MPD1    N1 2818   4.221   1.243   9.353  0.4192  1.0628  0.6069
  181MPD1    H6 2819   4.132   1.265   9.307  0.3298 -0.0324  0.2599
  181MPD1    H7 2820   4.246   1.149   9.324  0.8589  1.1245  0.7826
  182MPD1     C 2821   0.191   3.462   1.310 -0.3708  0.1126 -0.5876
  182MPD1    C1 2822   0.130   3.561   1.387 -0.3430  0.3783 -0.1059
  182MPD1    C2 2823   0.132   3.692   1.348  0.5660 -0.5605 -0.0957
  182MPD1    C3 2824   0.193   3.716   1.224 -0.1714 -0.1154 -0.2426
  182MPD1    C4 2825   0.241   3.624   1.143 -0.1886 -0.1492 -0.4491
  182MPD1    C5 2826   0.234   3.493   1.180 -0.5152  0.1750  0.0935
  182MPD1     H 2827   0.082   3.770   1.404  1.1385 -0.2786  0.0231
  182MPD1    H1 2828   0.279   3.656   1.047  1.4684 -1.2624 -0.1717
  182MPD1    H2 2829   0.210   3.363   1.349  1.5067 -0.0295 -1.8878
  182MPD1    H3 2830   0.280   3.419   1.115 -1.5342 -0.4922  0.1210
  182MPD1     N 2831   0.210   3.848   1.169 -1.2772  0.0995  0.3264
  182MPD1    H5 2832   0.246   3.858   1.075  0.5465  0.7949  1.1017
  182MPD1    N1 2833   0.105   3.526   1.525  0.0896 -0.2292  0.2559
  182MPD1    H6 2834   0.034   3.589   1.560  0.6418  0.8638 -0.5622
  182MPD1    H7 2835   0.068   3.433   1.543 -1.0897  0.3027  0.5866
  183MPD1     C 2836   4.540   0.054   8.542  0.6459 -0.0145  0.5507
  183MPD1    C1 2837   4.527   0.183   8.563  0.3668  0.5991  0.5351
  183MPD1    C2 2838   4.567   0.238   8.682 -0.0706 -0.0705  0.0444
  183MPD1    C3 2839   4.633   0.166   8.777  0.4413  0.5257 -0.1960
  183MPD1    C4 2840   4.667   0.031   8.748  0.2096 -0.5435  0.3656
  183MPD1    C5 2841   4.620   4.719   8.629 -1.1683 -0.0189 -0.4994
  183MPD1     H 2842   4.552   0.346   8.687  1.7600  0.2254 -0.8989
  183MPD1    H1 2843   4.725   4.698   8.808 -0.2272  0.1060  1.5453
  183MPD1    H2 2844   4.526   0.009   8.444  0.0561 -0.3374  0.7814
  183MPD1    H3 2845   4.646   4.616   8.608 -0.9536  0.3566 -2.0789
  183MPD1     N 2846   4.662   0.223   8.901  0.0423  0.6696 -0.0073
  183MPD1    H5 2847   4.628   0.317   8.916 -1.6559  0.2702 -1.3869
  183MPD1    N1 2848   4.472   0.261   8.464  0.1131  1.1682  0.2021
  183MPD1    H6 2849   4.501   0.358   8.477  1.0615  0.8396  0.5333
  183MPD1    H7 2850   4.491   0.232   8.368 -0.1794  2.5110 -0.2601
  184MPD1     C 2851   3.883   3.080  10.174 -0.0124 -0.2963 -0.5371
  184MPD1    C1 2852   3.859   2.964  10.111  0.4994 -0.9016 -0.0053
  184MPD1    C2 2853   3.928   2.937   9.994  0.0898  0.4596  0.2615
  184MPD1    C3 2854   4.026   3.033   9.954  0.0379 -0.2747 -0.4256
  184MPD1    C4 2855   4.048   3.144  10.030 -0.0989 -0.2461 -0.1730
  184MPD1    C5 2856   3.969   3.180  10.134 -0.1875  0.2932  0.6176
  184MPD1     H 2857   3.923   2.847   9.934 -0.8606 -0.2759  1.4380
  184MPD1    H1 2858   4.134   3.206  10.008 -0.2456 -0.1804 -0.5713
  184MPD1    H2 2859   3.834   3.097  10.269  0.7560 -1.6476  0.1088
  184MPD1    H3 2860   3.982   3.273  10.187  1.3397  1.3230 -1.5809
  184MPD1     N 2861   4.115   3.007   9.849 -0.1149  0.3277 -0.4590
  184MPD1    H5 2862   4.174   3.081   9.812  1.8319 -1.0718 -0.1353
  184MPD1    N1 2863   3.773   2.869  10.165 -0.6832 -0.8104  0.1267
  184MPD1    H6 2864   3.721   2.810  10.100  0.3949  0.2556 -1.7136
  184MPD1    H7 2865   3.705   2.901  10.233 -0.0671 -0.4472  0.5787
  185MPD1     C 2866   3.952   2.435   9.031 -0.5545 -0.3842 -0.5240
  185MPD1    C1 2867   4.094   2.449   9.031  0.4068 -0.2613 -0.7960
  185MPD1    C2 2868   4.154   2.523   9.134 -0.2082 -0.1959  0.8439
  185MPD1    C3 2869   4.078   2.586   9.230  0.8179  0.1723 -0.4309
  185MPD1    C4 2870   3.946   2.573   9.226 -0.4892 -0.4613 -0.7564
  185MPD1    C5 2871   3.884   2.502   9.126 -0.0279  0.0623  0.9741
  185MPD1     H 2872   4.261   2.520   9.151  0.1316  0.2163 -1.2523
  185MPD1    H1 2873   3.876   2.624   9.291  0.5803  0.6648 -0.5086
  185MPD1    H2 2874   3.891   2.379   8.962 -2.4678 -0.1450  0.9826
  185MPD1    H3 2875   3.778   2.501   9.147 -0.1395  0.7703  0.4325
  185MPD1     N 2876   4.134   2.654   9.343  0.8252 -0.5465  0.0239
  185MPD1    H5 2877   4.066   2.695   9.405  2.5595  2.3532 -0.0120
  185MPD1    N1 2878   4.176   2.375   8.952 -0.4192  0.2074  0.5549
  185MPD1    H6 2879   4.257   2.424   8.915  0.7801 -2.1836  0.0061
  185MPD1    H7 2880   4.135   2.324   8.873 -1.2804  0.0845  1.0860
  186MPD1     C 2881   2.392   1.906  15.676 -0.0986  0.7944  0.3687
  186MPD1    C1 2882   2.507   1.906  15.747 -0.0874 -0.5987  0.2423
  186MPD1    C2 2883   2.541   2.023  15.811  0.0725 -0.1142  0.0923
  186MPD1    C3 2884   2.450   2.127  15.824 -0.2193 -0.5554 -0.3628
  186MPD1    C4 2885   2.323   2.114  15.767 -0.4361  0.1550  0.0401
  186MPD1    C5 2886   2.295   2.005  15.691 -0.5237  0.5829  0.1818
  186MPD1     H 2887   2.637   2.023  15.862 -1.0248  0.1427  2.1594
  186MPD1    H1 2888   2.237   2.174  15.794 -0.2574  1.4772 -2.2666
  186MPD1    H2 2889   2.368   1.819  15.616  1.3692  2.0909 -2.1285
  186MPD1    H3 2890   2.194   1.992  15.653 -0.4894  0.4438  0.1399
  186MPD1     N 2891   2.483   2.252  15.885  0.1519  0.5520  0.6216
  186MPD1    H5 2892   2.406   2.313  15.909 -1.0017 -1.6033  2.4682
  186MPD1    N1 2893   2.601   1.808  15.728  0.1777 -0.3612  0.3761
  186MPD1    H6 2894   2.560   1.715  15.730 -0.7447 -0.0149 -2.2122
  186MPD1    H7 2895   2.686   1.809  15.784  2.3815  1.0139 -2.9212
  187MPD1     C 2896   2.663   4.609  17.398 -0.3087  0.6171  0.1281
  187MPD1    C1 2897   2.617   4.509  17.316  0.2306 -0.4261 -0.3794
  187MPD1    C2 2898   2.486   4.508  17.278  0.0280  0.2939  0.8720
  187MPD1    C3 2899   2.400   4.610  17.317 -0.3537 -0.2676  0.3896
  187MPD1    C4 2900   2.452   4.716  17.391  0.0323  0.3924 -0.2956
  187MPD1    C5 2901   2.587   4.718  17.423  0.4153  0.5628 -0.0428
  187MPD1     H 2902   2.452   4.417  17.230  1.1048  1.1341 -1.4835
  187MPD1    H1 2903   2.392   0.067  17.416 -2.2838 -1.2092 -0.1999
  187MPD1    H2 2904   2.768   4.612  17.425 -0.0470  2.3750 -1.0467
  187MPD1    H3 2905   2.621   0.072  17.473  1.2987  1.7104 -2.7085
  187MPD1     N 2906   2.258   4.621  17.289  0.1193  0.1923  0.2025
  187MPD1    H5 2907   2.207   4.702  17.323 -0.7418 -1.7421  3.6175
  187MPD1    N1 2908   2.709   4.399  17.298 -0.0852 -0.0333 -0.4562
  187MPD1    H6 2909   2.692   4.335  17.221  0.7018 -0.5097 -0.2369
  187MPD1    H7 2910   2.806   4.430  17.294 -0.5959  1.5970 -0.3741
  188MPD1     C 2911   2.156   4.624  10.152  0.1074  0.2926 -0.0550
  188MPD1    C1 2912   2.049   4.613  10.062  0.6722  0.7151 -0.1723
  188MPD1    C2 2913   1.968   4.502  10.057  0.5029  0.3394 -0.1108
  188MPD1    C3 2914   1.985   4.399  10.150  0.0245  0.2653 -0.1885
  188MPD1    C4 2915   2.084   4.414  10.245 -1.4426  0.3078 -0.1416
  188MPD1    C5 2916   2.163   4.530  10.248 -0.1105  0.0904  0.3931
  188MPD1     H 2917   1.906   4.482   9.971  2.7479 -1.4510 -1.2975
  188MPD1    H1 2918   2.088   4.342  10.326 -0.4473 -2.3200 -2.5205
  188MPD1    H2 2919   2.215   4.715  10.166  0.6970  0.1856 -1.8168
  188MPD1    H3 2920   2.225   4.554  10.332 -1.7312  0.5331  1.4626
  188MPD1     N 2921   1.919   4.279  10.147 -0.0302  0.2888  0.0030
  188MPD1    H5 2922   1.961   4.198  10.193  1.5838 -0.0691 -2.1021
  188MPD1    N1 2923   2.026   4.713   9.961 -0.6320  0.3748  0.6151
  188MPD1    H6 2924   2.022   0.072   9.999 -0.6176  1.0382 -1.0407
  188MPD1    H7 2925   1.943   4.690   9.906 -0.3091 -1.3356  0.8450
  189MPD1     C 2926   4.206   0.854   0.652 -0.3339  0.0706 -0.0764
  189MPD1    C1 2927   4.174   0.947   0.563 -0.3383  0.3563 -0.2575
  189MPD1    C2 2928   4.054   1.003   0.586  0.4946 -0.1127 -0.1613
  189MPD1    C3 2929   3.963   0.961   0.675  0.5090  0.3117 -0.6170
  189MPD1    C4 2930   3.990   0.849   0.749  0.0867 -1.1044  0.3249
  189MPD1    C5 2931   4.117   0.802   0.738  0.2181  0.0738 -0.7118
  189MPD1     H 2932   4.033   1.089   0.523  2.2553  0.3890 -0.0592
  189MPD1    H1 2933   3.918   0.797   0.811 -1.0164  0.8306  0.6628
  189MPD1    H2 2934   4.307   0.815   0.648  0.0735  1.2068 -0.8126
  189MPD1    H3 2935   4.148   0.724   0.806  0.1672 -0.5610 -1.4107
  189MPD1     N 2936   3.835   1.017   0.662 -0.0049 -0.1630 -1.0533
  189MPD1    H5 2937   3.827   1.096   0.598 -0.1072 -0.1331 -1.0036
  189MPD1    N1 2938   4.278   1.009   0.493 -0.3987 -0.5118 -0.0386
  189MPD1    H6 2939   4.315   0.929   0.443  2.0044  0.0359  0.9039
  189MPD1    H7 2940   4.220   1.058   0.424  0.7895  0.5273 -0.3126
  190MPD1     C 2941   2.493   4.286  15.461  0.3035  0.5220 -0.3159
  190MPD1    C1 2942   2.613   4.253  15.518 -0.4710  0.4186  0.3660
  190MPD1    C2 2943   2.631   4.114  15.522 -0.3721 -0.3096  0.1898
  190MPD1    C3 2944   2.537   4.016  15.488 -0.1073 -0.5837  0.5843
  190MPD1    C4 2945   2.411   4.058  15.448 -0.1550  0.5442 -0.8633
  190MPD1    C5 2946   2.388   4.191  15.432 -0.1491 -0.5184  0.0392
  190MPD1     H 2947   2.728   4.080  15.558  0.3831  1.9816  0.3380
  190MPD1    H1 2948   2.345   3.981  15.410  0.9179  0.1160 -1.8418
  190MPD1    H2 2949   2.470   4.386  15.426  2.2019  0.4769 -1.6677
  190MPD1    H3 2950   2.301   4.229  15.378  1.2308  0.1977 -1.6734
  190MPD1     N 2951   2.572   3.883  15.512  0.1878  0.0720 -0.3185
  190MPD1    H5 2952   2.670   3.869  15.535  0.3254 -0.6544 -1.3493
  190MPD1    N1 2953   2.710   4.349  15.538 -0.3148  0.1739  0.3499
  190MPD1    H6 2954   2.772   4.324  15.615  0.1223 -1.2008 -0.4487
  190MPD1    H7 2955   2.664   4.434  15.569  0.0153  0.3993  0.2109
  191MPD1     C 2956   2.257   1.772  12.496 -0.5440 -0.5040  0.2366
  191MPD1    C1 2957   2.197   1.661  12.530 -0.8068  0.1608  0.4927
  191MPD1    C2 2958   2.173   1.571  12.426 -0.2395  0.6919 -0.3571
  191MPD1    C3 2959   2.211   1.604  12.295  0.2703 -0.7246 -0.1349
  191MPD1    C4 2960   2.269   1.723  12.259 -0.6831 -0.2354 -0.2634
  191MPD1    C5 2961   2.277   1.811  12.363 -0.2273  0.3991 -0.0594
  191MPD1     H 2962   2.130   1.472  12.437  0.9201  0.4045  1.7496
  191MPD1    H1 2963   2.307   1.756  12.163 -0.7311 -1.1774 -0.6004
  191MPD1    H2 2964   2.279   1.841  12.576  0.1076  0.5836 -0.8900
  191MPD1    H3 2965   2.306   1.912  12.339 -0.1989  0.2464 -0.6497
  191MPD1     N 2966   2.182   1.507  12.195  0.6677 -0.1414 -0.2472
  191MPD1    H5 2967   2.116   1.432  12.210  0.2532  0.2314 -0.2109
  191MPD1    N1 2968   2.180   1.620  12.663  0.0272  0.3629  0.4485
  191MPD1    H6 2969   2.119   1.539  12.675  0.7002  0.1176  2.2875
  191MPD1    H7 2970   2.139   1.692  12.722 -0.1774  1.5816 -1.2077
  192MPD1     C 2971   2.408   1.347  11.188 -0.1303  0.5856  0.2918
  192MPD1    C1 2972   2.297   1.411  11.235 -0.0349  0.0595 -0.1772
  192MPD1    C2 2973   2.256   1.392  11.368 -0.8981 -0.5053 -0.0401
  192MPD1    C3 2974   2.329   1.301  11.448 -0.5256  0.2783 -0.7700
  192MPD1    C4 2975   2.437   1.241  11.395 -0.3539  0.3302  0.1496
  192MPD1    C5 2976   2.481   1.265  11.265 -0.0060  1.3184 -0.1602
  192MPD1     H 2977   2.183   1.465  11.401  1.1221  1.0065  1.0679
  192MPD1    H1 2978   2.496   1.175  11.458  1.6393  1.8128 -0.1637
  192MPD1    H2 2979   2.453   1.361  11.090  0.6552  0.8311  0.6800
  192MPD1    H3 2980   2.569   1.211  11.233  0.7239  2.6610 -0.4372
  192MPD1     N 2981   2.302   1.278  11.586  0.0050 -0.4596  0.2592
  192MPD1    H5 2982   2.366   1.219  11.639  1.0329 -0.4132 -0.9405
  192MPD1    N1 2983   2.251   1.515  11.156 -0.2830 -0.4024 -0.4108
  192MPD1    H6 2984   2.246   1.490  11.057  0.9750  0.6896 -0.7567
  192MPD1    H7 2985   2.156   1.540  11.185  0.2612  1.1806 -0.0113
  193MPD1     C 2986   0.801   0.898  15.945  0.1966 -0.6420 -0.1593
  193MPD1    C1 2987   0.859   1.017  15.908  0.8278  0.3130  0.7266
  193MPD1    C2 2988   0.931   1.093  15.999 -0.0655 -0.0418 -0.5299
  193MPD1    C3 2989   0.950   1.045  16.130 -0.2456 -0.8892  0.2921
  193MPD1    C4 2990   0.895   0.925  16.166  0.0480  0.1918  0.1263
  193MPD1    C5 2991   0.821   0.850  16.073 -0.1553  0.8487 -0.3808
  193MPD1     H 2992   0.972   1.184  15.959 -0.4087  0.4779  0.2899
  193MPD1    H1 2993   0.899   0.886  16.267  0.6236  0.4789  0.2167
  193MPD1    H2 2994   0.734   0.842  15.882  0.9389 -0.1260 -1.4158
  193MPD1    H3 2995   0.766   0.765  16.111 -1.8797  2.9802  1.9290
  193MPD1     N 2996   1.028   1.113  16.229 -0.7494  0.8457  0.1408
  193MPD1    H5 2997   1.036   1.064  16.317  0.9915  0.9954  0.0808
  193MPD1    N1 2998   0.828   1.076  15.779 -0.0148  0.0620  0.4289
  193MPD1    H6 2999   0.823   1.008  15.704  0.8164 -1.0587  1.3782
  193MPD1    H7 3000   0.893   1.148  15.749 -0.6457  0.5802  0.3249
  194MPD1     C 3001   3.698   3.079  16.624  0.1017 -0.2131 -0.2949
  194MPD1    C1 3002   3.761   3.150  16.727 -0.6453 -0.6434  0.5193
  194MPD1    C2 3003   3.855   3.082  16.796 -0.0194 -0.6727  0.6933
  194MPD1    C3 3004   3.920   2.970  16.738 -0.6698  0.0604 -0.7078
  194MPD1    C4 3005   3.864   2.909  16.629  0.2237 -0.6743 -0.4380
  194MPD1    C5 3006   3.747   2.961  16.577 -0.1507  0.6719  0.1213
  194MPD1     H 3007   3.906   3.127  16.880  0.6578 -1.3769  0.6671
  194MPD1    H1 3008   3.901   2.822  16.577  1.9689 -0.2506  0.1088
  194MPD1    H2 3009   3.611   3.129  16.586 -0.6241 -2.3733 -1.4631
  194MPD1    H3 3010   3.696   2.916  16.492 -1.5685  0.8487  0.8876
  194MPD1     N 3011   4.035   2.908  16.794  0.4264  0.4367  1.0792
  194MPD1    H5 3012   4.075   2.828  16.746 -0.7782 -0.7525  2.0397
  194MPD1    N1 3013   3.697   3.262  16.785  0.1030 -0.4606  0.5613
  194MPD1    H6 3014   3.643   3.308  16.712 -0.4239 -1.1710  0.5107
  194MPD1    H7 3015   3.755   3.332  16.831 -0.1339  0.9557 -1.3051
  195MPD1     C 3016   2.348   0.158   0.605 -0.1059 -0.4376  0.1222
  195MPD1    C1 3017   2.241   0.214   0.536 -0.5414 -0.0534 -0.5283
  195MPD1    C2 3018   2.149   0.136   0.474  0.0389 -0.1247 -0.2445
  195MPD1    C3 3019   2.165   0.000   0.477  0.2348 -0.7476  0.1988
  195MPD1    C4 3020   2.273   4.677   0.544  0.2968  0.7524 -1.2032
  195MPD1    C5 3021   2.364   0.023   0.608  0.1446 -0.4786 -0.2961
  195MPD1     H 3022   2.063   0.177   0.423  1.2505 -1.7129 -3.5781
  195MPD1    H1 3023   2.274   4.568   0.549  0.3693  0.8453  0.8394
  195MPD1    H2 3024   2.420   0.225   0.652  0.5037 -1.0318  0.0381
  195MPD1    H3 3025   2.454   4.715   0.648 -0.7325 -0.4821  1.6452
  195MPD1     N 3026   2.092   4.645   0.399 -0.5024 -0.4122 -0.0150
  195MPD1    H5 3027   2.115   4.548   0.420 -0.1631  0.0619  1.7660
  195MPD1    N1 3028   2.230   0.348   0.513 -0.1869  0.2862  1.2566
  195MPD1    H6 3029   2.276   0.402   0.586 -0.8505  1.3303  0.9035
  195MPD1    H7 3030   2.137   0.381   0.489  0.4646  0.9715 -0.3055
  196MPD1     C 3031   0.549   3.616   0.179  0.5694 -0.6020 -0.1861
  196MPD1    C1 3032   0.629   3.728   0.175  0.4884  0.0068  0.0231
  196MPD1    C2 3033   0.700   3.756   0.284  0.1122  0.6743 -0.5151
  196MPD1    C3 3034   0.686   3.684   0.404  0.4448  0.1989  0.9462
  196MPD1    C4 3035   0.603   3.574   0.404  0.1697  0.5781  0.2535
  196MPD1    C5 3036   0.530   3.540   0.290  0.1327 -0.0312  0.2863
  196MPD1     H 3037   0.774   3.834   0.275  0.5289  0.2795 -0.4579
  196MPD1    H1 3038   0.594   3.509   0.490 -1.1955  0.5227  0.0664
  196MPD1    H2 3039   0.491   3.590   0.091  0.7913 -1.8775  0.0497
  196MPD1    H3 3040   0.451   3.467   0.301  1.4269 -1.2573  1.4229
  196MPD1     N 3041   0.762   3.708   0.525  0.8499  0.4114  0.2791
  196MPD1    H5 3042   0.751   3.642   0.601 -3.1391  0.9333  0.1227
  196MPD1    N1 3043   0.682   3.772   0.049  0.1899 -0.2015 -0.6062
  196MPD1    H6 3044   0.616   3.773  17.716 -1.5719 -0.7998  0.9200
  196MPD1    H7 3045   0.732   3.861   0.047  0.6206 -0.3907  1.1833
  197MPD1     C 3046   0.276   1.704   0.267  1.2128  0.7366 -0.4622
  197MPD1    C1 3047   0.307   1.596   0.192  0.4957 -0.4508 -0.0511
  197MPD1    C2 3048   0.336   1.617   0.057  0.4638  0.6592 -0.6508
  197MPD1    C3 3049   0.317   1.739   0.005  0.1935  0.1691 -0.1759
  197MPD1    C4 3050   0.266   1.844   0.077 -0.4305  0.2134  0.9339
  197MPD1    C5 3051   0.250   1.828   0.210  0.8310 -0.1258 -0.2148
  197MPD1     H 3052   0.385   1.539  17.743  0.7269 -0.6809  1.3861
  197MPD1    H1 3053   0.246   1.940   0.032 -3.3060 -0.8951 -0.1634
  197MPD1    H2 3054   0.274   1.702   0.375 -2.6179  0.4618 -0.5388
  197MPD1    H3 3055   0.218   1.914   0.267 -1.7239 -2.8979  2.4883
  197MPD1     N 3056   0.333   1.769  17.610  0.0582 -0.1308  0.0706
  197MPD1    H5 3057   0.302   1.864  17.591 -0.3444 -0.1678  0.5406
  197MPD1    N1 3058   0.350   1.479   0.260 -0.3543 -0.0843  0.3538
  197MPD1    H6 3059   0.287   1.441   0.331 -1.6275  1.1339 -0.1124
  197MPD1    H7 3060   0.379   1.397   0.208  1.0001 -0.8485  2.3379
  198MPD1     C 3061   1.964   4.312  15.111  0.2642  0.7089  0.2380
  198MPD1    C1 3062   2.004   4.271  15.237 -0.0075 -0.3688  0.6222
  198MPD1    C2 3063   1.962   4.334  15.349  0.4023  0.1718 -0.0663
  198MPD1    C3 3064   1.866   4.434  15.337  0.4894  0.6838 -0.1698
  198MPD1    C4 3065   1.821   4.473  15.213 -0.0623  0.0084 -0.3999
  198MPD1    C5 3066   1.884   4.422  15.101 -0.2919 -0.3924  0.1619
  198MPD1     H 3067   1.994   4.299  15.446  2.2924 -1.7795 -1.4123
  198MPD1    H1 3068   1.750   4.553  15.196  1.9098  1.5716 -1.2698
  198MPD1    H2 3069   1.982   4.260  15.018 -0.6319  1.5173 -0.3943
  198MPD1    H3 3070   1.850   4.459  15.005 -1.9351 -0.4113  0.7486
  198MPD1     N 3071   1.814   4.483  15.457 -0.1353  0.1505 -0.2803
  198MPD1    H5 3072   1.853   4.444  15.542 -0.3207  0.1348 -0.2023
  198MPD1    N1 3073   2.079   4.155  15.247 -0.0007  0.1253 -0.0777
  198MPD1    H6 3074   2.136   4.151  15.331 -1.0224 -3.9727  0.4434
  198MPD1    H7 3075   2.134   4.137  15.163 -2.1129 -0.6443 -1.3000
  199MPD1     C 3076   3.879   1.249   9.978 -0.2033  0.1476  1.1288
  199MPD1    C1 3077   3.840   1.364  10.049  0.5170 -1.2283 -0.0306
  199MPD1    C2 3078   3.707   1.407  10.031 -0.3254 -0.1866 -1.0478
  199MPD1    C3 3079   3.623   1.350   9.934  0.5823  0.4429  0.2327
  199MPD1    C4 3080   3.677   1.243   9.864 -0.6984  0.9534  0.3647
  199MPD1    C5 3081   3.801   1.195   9.887  0.3539  0.1439  0.5374
  199MPD1     H 3082   3.674   1.482  10.101  2.5496 -0.9543  1.1509
  199MPD1    H1 3083   3.621   1.200   9.782  1.2280 -0.7596 -0.0519
  199MPD1    H2 3084   3.972   1.202  10.008 -0.4874 -0.3321  1.2621
  199MPD1    H3 3085   3.838   1.111   9.830  1.7571  1.0171  0.1613
  199MPD1     N 3086   3.498   1.409   9.895  0.8467 -0.1064 -0.5807
  199MPD1    H5 3087   3.460   1.372   9.809  0.4761 -0.2262 -0.3676
  199MPD1    N1 3088   3.917   1.411  10.154 -0.2152 -0.6350 -0.4164
  199MPD1    H6 3089   4.011   1.418  10.117  1.2055  1.2561  3.4964
  199MPD1    H7 3090   3.879   1.503  10.179  0.3987 -0.0943 -1.4784
  200MPD1     C 3091   3.278   0.991  15.190  1.4890 -0.1279 -0.2412
  200MPD1    C1 3092   3.168   0.980  15.107  0.1063 -0.4257 -0.3518
  200MPD1    C2 3093   3.189   1.015  14.975 -0.0837 -0.7146 -1.1265
  200MPD1    C3 3094   3.316   1.054  14.925  0.4151 -0.5718  0.3634
  200MPD1    C4 3095   3.418   1.057  15.011  0.0349  0.0433 -0.0585
  200MPD1    C5 3096   3.400   1.026  15.145 -0.4244 -0.3450 -0.2045
  200MPD1     H 3097   3.113   0.998  14.899  0.4627  0.2114 -1.8767
  200MPD1    H1 3098   3.519   1.086  14.982  0.9545 -1.6667  1.4173
  200MPD1    H2 3099   3.258   0.965  15.293 -1.8493 -1.4569 -1.2233
  200MPD1    H3 3100   3.480   1.031  15.218 -0.9123 -1.0371  0.3742
  200MPD1     N 3101   3.329   1.087  14.791  0.2778  0.0369  0.0052
  200MPD1    H5 3102   3.264   1.037  14.730  1.2883 -0.2939 -0.8168
  200MPD1    N1 3103   3.041   0.952  15.156 -0.1653 -0.6835  0.3266
  200MPD1    H6 3104   2.980   0.918  15.082 -2.3724  1.4167  1.1891
  200MPD1    H7 3105   3.038   0.898  15.243 -0.2522  0.0209  0.7561
  201MPD1     C 3106   0.413   4.443  12.672  0.0746  0.7044 -0.1209
  201MPD1    C1 3107   0.423   4.302  12.661 -0.0483 -0.0397  0.4284
  201MPD1    C2 3108   0.519   4.243  12.751 -0.8227 -0.2502  0.8931
  201MPD1    C3 3109   0.580   4.320  12.847 -0.5622  0.4933 -0.2678
  201MPD1    C4 3110   0.562   4.461  12.856 -0.3404 -0.3129 -0.7712
  201MPD1    C5 3111   0.490   4.522  12.758  0.4389 -0.3602 -0.2211
  201MPD1     H 3112   0.532   4.135  12.747  0.6787 -0.0524  0.5677
  201MPD1    H1 3113   0.612   4.515  12.936 -0.5926  1.2709 -1.6846
  201MPD1    H2 3114   0.351   4.509  12.613 -1.1043  0.8363  1.2861
  201MPD1    H3 3115   0.475   4.629  12.764  0.4037 -0.3670 -0.1915
  201MPD1     N 3116   0.650   4.241  12.943 -0.2549  0.5898 -0.6700
  201MPD1    H5 3117   0.651   4.140  12.933  1.0984  0.4564  0.8512
  201MPD1    N1 3118   0.367   4.232  12.552  0.3891 -0.2441 -0.2551
  201MPD1    H6 3119   0.343   4.137  12.580 -2.3086  0.4726 -0.1452
  201MPD1    H7 3120   0.286   4.288  12.525  0.1584 -1.1792 -1.5004
  202MPD1     C 3121   0.535   3.905   8.737  0.0904  0.6284  0.5853
  202MPD1    C1 3122   0.465   4.011   8.792 -0.1564  0.0922  0.4422
  202MPD1    C2 3123   0.539   4.076   8.896 -0.0505 -0.1617  0.4611
  202MPD1    C3 3124   0.635   4.016   8.968 -0.5404 -0.2980 -0.0317
  202MPD1    C4 3125   0.693   3.905   8.913  0.8291 -0.0986  0.1047
  202MPD1    C5 3126   0.645   3.847   8.795  0.0538  0.4854 -0.2294
  202MPD1     H 3127   0.494   4.170   8.926  0.1293  0.1551 -0.2688
  202MPD1    H1 3128   0.778   3.857   8.959  1.2041  0.0061 -0.4770
  202MPD1    H2 3129   0.501   3.862   8.644  2.8226  0.5173 -0.3409
  202MPD1    H3 3130   0.688   3.762   8.742  0.8894  0.3535  0.6538
  202MPD1     N 3131   0.689   4.070   9.092  0.2968  0.3429  0.6111
  202MPD1    H5 3132   0.762   4.015   9.135  0.2529  0.2157  0.5227
  202MPD1    N1 3133   0.391   4.085   8.703 -0.0565  0.2686  0.2467
  202MPD1    H6 3134   0.321   4.150   8.738  0.0420 -0.1253  1.1865
  202MPD1    H7 3135   0.339   4.023   8.642  0.1592  1.4232 -1.1082
  203MPD1     C 3136   4.052   0.658  13.294  0.2137 -0.2717  0.2658
  203MPD1    C1 3137   4.027   0.533  13.339 -0.2772 -0.5249 -0.1065
  203MPD1    C2 3138   4.076   0.426  13.262 -0.0941 -0.2793  0.1438
  203MPD1    C3 3139   4.168   0.436  13.157 -0.6215 -0.2665  0.0858
  203MPD1    C4 3140   4.196   0.570  13.122 -1.1735 -0.3404  0.1052
  203MPD1    C5 3141   4.134   0.674  13.188  0.5989 -0.5291 -0.6587
  203MPD1     H 3142   4.040   0.326  13.281  1.5334 -1.1912 -1.5643
  203MPD1    H1 3143   4.275   0.588  13.050 -0.4693 -2.8101  0.2711
  203MPD1    H2 3144   3.990   0.742  13.323 -1.2862 -1.3534  0.2029
  203MPD1    H3 3145   4.154   0.772  13.147  0.0469  0.5343  1.6181
  203MPD1     N 3146   4.217   0.325  13.090  0.2453 -0.0133  0.2673
  203MPD1    H5 3147   4.201   0.236  13.137 -2.4860 -1.0793 -2.6861
  203MPD1    N1 3148   3.933   0.511  13.437 -0.2488 -0.0043  0.4862
  203MPD1    H6 3149   3.954   0.571  13.517  0.9920  0.9367 -0.5404
  203MPD1    H7 3150   3.943   0.421  13.483  0.3126 -0.3092 -0.2537
  204MPD1     C 3151   3.875   2.196  17.472 -0.2926 -0.2803 -0.0232
  204MPD1    C1 3152   3.915   2.185  17.342  0.2742 -0.6300 -0.3423
  204MPD1    C2 3153   4.007   2.088  17.299 -0.6988 -0.2470 -0.1994
  204MPD1    C3 3154   4.059   1.998  17.397  0.7361  0.1196 -0.0612
  204MPD1    C4 3155   4.016   2.005  17.528  0.0625 -0.1850 -1.1400
  204MPD1    C5 3156   3.929   2.107  17.563  0.5512  0.6061  0.0171
  204MPD1     H 3157   4.045   2.104  17.199 -0.4238  2.3736  0.3173
  204MPD1    H1 3158   4.050   1.933  17.601 -0.0810 -0.3913 -1.2781
  204MPD1    H2 3159   3.814   2.277  17.508  0.0732  0.6339 -1.4554
  204MPD1    H3 3160   3.881   2.109  17.660 -1.9003 -0.4790 -1.1927
  204MPD1     N 3161   4.162   1.909  17.352 -0.0732 -0.1714  0.0796
  204MPD1    H5 3162   4.186   1.912  17.253 -0.4645  0.0620 -0.0109
  204MPD1    N1 3163   3.896   2.291  17.257 -0.0053  0.0574 -0.2540
  204MPD1    H6 3164   3.913   2.270  17.159  1.2283  1.8693 -0.4406
  204MPD1    H7 3165   3.807   2.339  17.269 -0.7455 -1.3107 -0.3853
  205MPD1     C 3166   4.365   0.456  16.880  0.7711  0.1619  0.3654
  205MPD1    C1 3167   4.400   0.373  16.989  0.5397  0.0923 -0.6473
  205MPD1    C2 3168   4.357   0.405  17.116  0.0174  0.5013 -0.0395
  205MPD1    C3 3169   4.298   0.523  17.144 -0.1873  0.2952  0.4662
  205MPD1    C4 3170   4.275   0.600  17.037 -0.2138 -0.2299  0.3956
  205MPD1    C5 3171   4.300   0.569  16.907  0.3184  0.6762 -0.1465
  205MPD1     H 3172   4.390   0.330  17.187 -2.0099  0.7455  1.1303
  205MPD1    H1 3173   4.218   0.692  17.040  0.1908 -0.0525  2.3303
  205MPD1    H2 3174   4.386   0.434  16.776 -1.1360  0.6324 -0.1108
  205MPD1    H3 3175   4.277   0.637  16.827 -0.4656  0.8721  0.2435
  205MPD1     N 3176   4.269   0.571  17.276 -0.2903 -0.0639 -0.4533
  205MPD1    H5 3177   4.235   0.664  17.300 -0.2884  0.4107 -2.2149
  205MPD1    N1 3178   4.472   0.254  16.972  0.0400 -0.1015 -0.0079
  205MPD1    H6 3179   4.457   0.208  16.882  3.0191 -0.4544 -0.3211
  205MPD1    H7 3180   4.443   0.178  17.033 -0.0672 -0.8164 -0.9516
  206MPD1     C 3181   4.310   3.251  17.120  0.2823 -0.4618  0.2895
  206MPD1    C1 3182   4.389   3.203  17.018  0.2505 -0.1032 -0.6928
  206MPD1    C2 3183   4.335   3.208  16.892  0.4578  0.3407 -0.5127
  206MPD1    C3 3184   4.201   3.254  16.870 -0.4580  0.1831 -0.5757
  206MPD1    C4 3185   4.122   3.282  16.978  0.2057  0.6990  0.6429
  206MPD1    C5 3186   4.179   3.282  17.098  0.1383  0.2217 -1.1530
  206MPD1     H 3187   4.406   3.175  16.816 -0.4348 -1.6367 -0.4952
  206MPD1    H1 3188   4.015   3.296  16.975  0.2043  0.4618 -0.4524
  206MPD1    H2 3189   4.346   3.261  17.221  1.0136 -0.0939 -0.0075
  206MPD1    H3 3190   4.119   3.305  17.185  0.0981  0.0623 -1.1378
  206MPD1     N 3191   4.132   3.254  16.743  0.1721 -0.3258 -0.1955
  206MPD1    H5 3192   4.038   3.290  16.733  0.5150  0.1329 -1.7815
  206MPD1    N1 3193   4.521   3.169  17.045 -0.7853  0.3967 -0.2284
  206MPD1    H6 3194   4.511   3.116  17.131 -0.4004  0.5186 -0.1118
  206MPD1    H7 3195   4.548   3.117  16.962 -0.3739  0.3238 -0.0453
  207MPD1     C 3196   2.129   1.876   9.882  0.8698 -0.3017 -0.0111
  207MPD1    C1 3197   2.067   1.754   9.893  0.5436 -0.2964  0.0201
  207MPD1    C2 3198   2.070   1.674  10.004 -0.0524 -0.0474  0.0845
  207MPD1    C3 3199   2.155   1.717  10.108  0.1880 -0.3136  0.3723
  207MPD1    C4 3200   2.223   1.840  10.095 -0.1617  0.4829 -0.1173
  207MPD1    C5 3201   2.198   1.926   9.990 -0.4548 -0.8483 -0.2540
  207MPD1     H 3202   2.009   1.585  10.017 -1.1115  0.5029 -1.1010
  207MPD1    H1 3203   2.296   1.870  10.170 -1.4781  2.2763  0.4277
  207MPD1    H2 3204   2.116   1.935   9.793  0.7620 -0.1312  0.1172
  207MPD1    H3 3205   2.231   2.030   9.990  0.7844 -1.2343 -1.0350
  207MPD1     N 3206   2.181   1.643  10.227  0.2638 -0.3899 -0.0790
  207MPD1    H5 3207   2.231   1.694  10.300  0.1776  0.5436 -0.6704
  207MPD1    N1 3208   1.998   1.710   9.781 -0.4456  0.5635 -0.4048
  207MPD1    H6 3209   1.947   1.623   9.788 -0.4544  0.6842  1.0721
  207MPD1    H7 3210   2.032   1.740   9.689 -1.5414 -0.8264 -1.2497
  208MPD1     C 3211   0.703   4.618   0.088  0.1539  0.3350  0.3140
  208MPD1    C1 3212   0.641   4.552   0.191 -0.1523  0.0464 -1.2258
  208MPD1    C2 3213   0.514   4.505   0.174 -0.0957 -0.3024  0.2374
  208MPD1    C3 3214   0.444   4.521   0.056  0.1632  0.7758 -1.1459
  208MPD1    C4 3215   0.508   4.598  17.697  0.0996 -0.5611  0.1541
  208MPD1    C5 3216   0.639   4.636  17.714  0.3316 -0.4849 -0.0886
  208MPD1     H 3217   0.468   4.460   0.261 -1.5160  2.1038  0.7245
  208MPD1    H1 3218   0.461   4.631  17.605 -1.4860 -0.5860  0.9528
  208MPD1    H2 3219   0.801   4.663   0.097  2.2125 -4.1802  0.8245
  208MPD1    H3 3220   0.686   4.688  17.632  0.3308 -0.1952  0.0958
  208MPD1     N 3221   0.316   4.470   0.053  0.4562 -0.1261  0.0597
  208MPD1    H5 3222   0.279   4.421   0.133  0.6299  0.5869  0.5820
  208MPD1    N1 3223   0.696   4.556   0.316  0.8447  0.6869  0.5198
  208MPD1    H6 3224   0.797   4.556   0.322  0.9406  1.4070 -1.2849
  208MPD1    H7 3225   0.664   4.482   0.379  2.3399  0.5686  1.1283
  209MPD1     C 3226   1.498   0.034  11.188  0.0292 -0.0762 -0.0224
  209MPD1    C1 3227   1.517   0.078  11.316 -0.0758 -0.6752  0.6570
  209MPD1    C2 3228   1.517   0.214  11.343 -0.6755 -0.2935 -0.3444
  209MPD1    C3 3229   1.501   0.306  11.240 -0.6788 -0.4010 -0.0627
  209MPD1    C4 3230   1.471   0.261  11.117  0.6201 -0.4683 -0.1607
  209MPD1    C5 3231   1.462   0.125  11.096  0.7719  0.4093 -0.4084
  209MPD1     H 3232   1.538   0.249  11.443  0.4784  1.5262 -1.2259
  209MPD1    H1 3233   1.453   0.322  11.030  1.6925  0.0308 -0.0300
  209MPD1    H2 3234   1.487   4.667  11.157  0.1606  0.3009 -1.3226
  209MPD1    H3 3235   1.443   0.094  10.994 -0.8266  0.5512 -0.1477
  209MPD1     N 3236   1.555   0.440  11.262 -0.1904  0.1433  0.4198
  209MPD1    H5 3237   1.606   0.449  11.349  1.2723  0.9193 -0.5157
  209MPD1    N1 3238   1.572   4.724  11.405 -0.0717  0.6059 -0.0343
  209MPD1    H6 3239   1.530   4.633  11.390 -0.4295  0.4779  1.7405
  209MPD1    H7 3240   1.534   0.022  11.493 -0.8423 -1.1020  0.2844
  210MPD1     C 3241   2.199   0.498  11.742 -0.0832  0.0916  0.1003
  210MPD1    C1 3242   2.109   0.604  11.768 -0.0169 -0.0118  0.0326
  210MPD1    C2 3243   2.036   0.663  11.663  0.0687  0.4318  0.0017
  210MPD1    C3 3244   2.029   0.609  11.537  0.1492  0.4249  0.4546
  210MPD1    C4 3245   2.113   0.501  11.517  0.0537 -0.4186 -0.0084
  210MPD1    C5 3246   2.199   0.451  11.612  0.0662 -0.0416  0.2226
  210MPD1     H 3247   1.982   0.755  11.681  0.6864  0.4348  1.7743
  210MPD1    H1 3248   2.127   0.448  11.423 -0.7771  1.1073 -1.0085
  210MPD1    H2 3249   2.279   0.471  11.810  1.0908  0.0449 -1.2903
  210MPD1    H3 3250   2.275   0.380  11.579  0.5046  0.4989  0.0754
  210MPD1     N 3251   1.942   0.651  11.433 -0.1892  0.2149  0.4650
  210MPD1    H5 3252   1.930   0.590  11.353  0.7805 -2.1370  2.1173
  210MPD1    N1 3253   2.105   0.654  11.899 -0.1939 -0.0957  0.2504
  210MPD1    H6 3254   2.164   0.593  11.955 -3.5689 -3.8231 -0.2497
  210MPD1    H7 3255   2.143   0.748  11.906 -1.5471  0.3724  1.3690
  211MPD1     C 3256   3.715   4.228  16.245  0.4410 -0.0888  0.1382
  211MPD1    C1 3257   3.608   4.256  16.335 -0.8782  0.3210  0.1554
  211MPD1    C2 3258   3.606   4.380  16.387  0.7247  0.3849 -0.8419
  211MPD1    C3 3259   3.705   4.472  16.366  0.4028  0.1988 -0.2667
  211MPD1    C4 3260   3.812   4.440  16.293  0.0508 -0.1688  0.1048
  211MPD1    C5 3261   3.820   4.313  16.238 -0.2620 -0.0239 -0.0062
  211MPD1     H 3262   3.517   4.405  16.444  0.0222 -0.5533 -1.5234
  211MPD1    H1 3263   3.891   4.511  16.272 -0.4064  0.5568  0.8721
  211MPD1    H2 3264   3.730   4.136  16.189 -0.5218  0.4292 -0.9600
  211MPD1    H3 3265   3.903   4.290  16.172  0.4888 -0.9066  1.2408
  211MPD1     N 3266   3.684   4.602  16.408  0.0070  0.1752 -0.3069
  211MPD1    H5 3267   3.592   4.638  16.432  0.5774 -0.0857  2.3296
  211MPD1    N1 3268   3.520   4.155  16.360  0.0671 -0.2746 -0.0434
  211MPD1    H6 3269   3.509   4.092  16.281 -0.5783 -0.5248  0.2451
  211MPD1    H7 3270   3.434   4.199  16.395 -0.5189 -0.9889 -0.5882
  212MPD1     C 3271   3.517   3.183  16.276 -0.1004 -0.2106 -0.8805
  212MPD1    C1 3272   3.420   3.257  16.331 -0.3361 -0.2377  0.1277
  212MPD1    C2 3273   3.324   3.200  16.408 -0.5855  0.0113 -1.2728
  212MPD1    C3 3274   3.334   3.061  16.440 -0.2986 -0.3818 -0.0657
  212MPD1    C4 3275   3.438   2.991  16.388  0.4955 -0.2568 -0.9956
  212MPD1    C5 3276   3.531   3.050  16.305 -0.4629 -0.0544 -0.1781
  212MPD1     H 3277   3.253   3.266  16.455  1.9638  0.2685  2.2221
  212MPD1    H1 3278   3.455   2.885  16.401  0.3402 -0.3641 -1.6472
  212MPD1    H2 3279   3.592   3.236  16.217 -0.1349 -0.2507 -0.9596
  212MPD1    H3 3280   3.622   3.000  16.271  0.4558  1.6231 -0.2022
  212MPD1     N 3281   3.242   2.995  16.526 -0.1407 -0.2241  0.3745
  212MPD1    H5 3282   3.267   2.899  16.545  0.5902 -0.2041 -0.4755
  212MPD1    N1 3283   3.427   3.389  16.318 -0.3564  0.2959 -0.5540
  212MPD1    H6 3284   3.506   3.432  16.270  2.1305 -0.7195  2.5905
  212MPD1    H7 3285   3.424   3.439  16.407 -3.5607 -0.4512 -0.2525
  213MPD1     C 3286   1.832   3.667  15.727  0.4758  0.0217  0.4384
  213MPD1    C1 3287   1.858   3.658  15.593  0.6411  0.6224  0.3245
  213MPD1    C2 3288   1.745   3.669  15.511  0.0603  0.1256  0.5903
  213MPD1    C3 3289   1.627   3.728  15.556 -0.3841  0.7432 -0.1698
  213MPD1    C4 3290   1.609   3.739  15.689  0.6451  0.2736 -0.0141
  213MPD1    C5 3291   1.708   3.701  15.776 -0.2311 -0.2354  1.3842
  213MPD1     H 3292   1.749   3.647  15.404  2.1620 -1.7777  1.0380
  213MPD1    H1 3293   1.519   3.776  15.736 -0.2555 -0.8570 -0.8469
  213MPD1    H2 3294   1.908   3.631  15.794 -0.7957 -3.3200  0.1039
  213MPD1    H3 3295   1.696   3.708  15.884  1.5407 -3.0934  1.7604
  213MPD1     N 3296   1.524   3.756  15.457 -0.8044 -0.8851 -0.7338
  213MPD1    H5 3297   1.550   3.764  15.359 -0.0502 -1.0359 -0.5505
  213MPD1    N1 3298   1.967   3.583  15.541  0.1631 -0.4728 -0.4019
  213MPD1    H6 3299   1.980   3.585  15.440  0.3158  1.2608 -0.3602
  213MPD1    H7 3300   2.054   3.606  15.590 -0.1288 -1.4585  0.5954
  214MPD1     C 3301   0.932   3.126  14.951  0.1353  0.2936  0.9715
  214MPD1    C1 3302   0.942   3.138  15.088  0.2859 -0.0174 -0.3317
  214MPD1    C2 3303   1.001   3.253  15.144  0.1336 -0.1415 -0.1110
  214MPD1    C3 3304   1.053   3.354  15.061 -0.0275 -0.9015 -1.3630
  214MPD1    C4 3305   1.036   3.333  14.923  0.2827 -0.8041  0.5129
  214MPD1    C5 3306   0.973   3.228  14.867 -0.3206  0.2739 -0.1028
  214MPD1     H 3307   1.005   3.255  15.253  1.8682 -0.1887 -0.1724
  214MPD1    H1 3308   1.081   3.401  14.852 -1.6435  0.6731  0.7216
  214MPD1    H2 3309   0.897   3.041  14.894  2.9465  0.2383 -0.6764
  214MPD1    H3 3310   0.978   3.207  14.761  0.0311  1.3015 -0.2860
  214MPD1     N 3311   1.115   3.481  15.102 -0.3637  0.1058 -0.4892
  214MPD1    H5 3312   1.160   3.533  15.027 -0.6053  2.2468  0.8400
  214MPD1    N1 3313   0.908   3.025  15.164  0.1459  0.0407  0.1759
  214MPD1    H6 3314   0.829   2.982  15.117  0.0604 -0.4098  0.7337
  214MPD1    H7 3315   0.870   3.047  15.256  2.0546  4.3935 -0.0731
  215MPD1     C 3316   0.820   0.205  11.085 -0.0292  0.3414 -0.2427
  215MPD1    C1 3317   0.807   0.178  11.221 -0.2449  0.7173 -0.3478
  215MPD1    C2 3318   0.908   0.226  11.299 -0.4153  0.7130  0.6629
  215MPD1    C3 3319   0.982   0.326  11.263  0.3245  0.3102  0.4150
  215MPD1    C4 3320   0.989   0.363  11.131 -0.2190  0.2585 -0.2919
  215MPD1    C5 3321   0.914   0.293  11.044 -0.4159 -0.8845  0.9314
  215MPD1     H 3322   0.906   0.189  11.401  1.5332  0.3059  0.5438
  215MPD1    H1 3323   1.046   0.446  11.091  0.0886  0.0460 -0.2965
  215MPD1    H2 3324   0.767   0.158  11.003  0.0090 -0.5226  0.2268
  215MPD1    H3 3325   0.928   0.311  10.938 -0.8072  0.4725  1.1145
  215MPD1     N 3326   1.056   0.388  11.368 -0.9132 -0.1739  0.2898
  215MPD1    H5 3327   1.031   0.364  11.463  0.7085  1.8858  1.2414
  215MPD1    N1 3328   0.720   0.071  11.262 -0.0216  0.8633 -0.1104
  215MPD1    H6 3329   0.643   0.062  11.197 -1.1442 -2.0453  1.6299
  215MPD1    H7 3330   0.684   0.098  11.354 -2.5723 -0.1544 -0.8337
  216MPD1     C 3331   3.484   2.351  16.697  0.5514 -0.0594  0.2365
  216MPD1    C1 3332   3.431   2.224  16.724  0.6084  0.1180  0.5563
  216MPD1    C2 3333   3.434   2.172  16.844 -0.3554  0.6697 -0.6860
  216MPD1    C3 3334   3.506   2.236  16.945  0.6154  0.1317  0.1938
  216MPD1    C4 3335   3.561   2.364  16.921 -0.3462 -0.4366 -0.0758
  216MPD1    C5 3336   3.541   2.422  16.797 -0.4313 -0.1125  0.0363
  216MPD1     H 3337   3.370   2.087  16.864  1.8682 -0.9341 -0.3845
  216MPD1    H1 3338   3.592   2.425  17.005  0.3473 -0.2414 -0.4716
  216MPD1    H2 3339   3.454   2.400  16.605  1.9106 -0.9728 -0.6929
  216MPD1    H3 3340   3.575   2.524  16.782  1.2949 -0.9432 -1.7961
  216MPD1     N 3341   3.507   2.182  17.076 -0.3126  0.7830  0.3436
  216MPD1    H5 3342   3.457   2.094  17.086 -1.5039  1.4961  0.7635
  216MPD1    N1 3343   3.337   2.174  16.629  0.0448  0.0756  0.0894
  216MPD1    H6 3344   3.328   2.072  16.629 -3.3239  0.3795  0.8926
  216MPD1    H7 3345   3.352   2.203  16.532  0.5789  2.5906  0.9218
  217MPD1     C 3346   4.121   3.358   8.116  0.0482 -0.3850  0.3580
  217MPD1    C1 3347   4.026   3.450   8.164  0.3173 -0.5693  0.2724
  217MPD1    C2 3348   4.072   3.561   8.241 -0.2537  0.1118  0.1508
  217MPD1    C3 3349   4.199   3.560   8.302 -0.2520 -0.1089  0.9075
  217MPD1    C4 3350   4.285   3.459   8.265 -0.5757  0.5655 -0.3173
  217MPD1    C5 3351   4.243   3.363   8.175 -0.3414 -0.4374  0.4538
  217MPD1     H 3352   4.005   3.646   8.256 -2.3883 -1.4890 -0.3049
  217MPD1    H1 3353   4.377   3.444   8.321 -0.7148  0.1939 -0.1837
  217MPD1    H2 3354   4.103   3.276   8.048  4.0569 -0.0126 -1.1650
  217MPD1    H3 3355   4.315   3.287   8.152 -0.6282 -0.8635  0.9546
  217MPD1     N 3356   4.257   3.642   8.398  0.1765  0.1044 -0.3830
  217MPD1    H5 3357   4.347   3.623   8.441 -1.2316 -1.3950  1.9125
  217MPD1    N1 3358   3.900   3.462   8.095 -0.2852 -0.1080 -0.7223
  217MPD1    H6 3359   3.869   3.368   8.069 -0.5159  0.1991 -1.5274
  217MPD1    H7 3360   3.823   3.503   8.147  1.2821  0.5481  1.0778
  218MPD1     C 3361   1.553   0.742  12.571 -0.5072 -0.4870 -0.1717
  218MPD1    C1 3362   1.497   0.729  12.451 -0.3733 -0.2148 -0.1221
  218MPD1    C2 3363   1.417   0.615  12.435 -0.0831  0.3622  0.1739
  218MPD1    C3 3364   1.423   0.504  12.520 -0.1559 -0.5614 -0.5075
  218MPD1    C4 3365   1.504   0.516  12.638 -0.3582  0.1991  0.1547
  218MPD1    C5 3366   1.560   0.641  12.661  0.1447 -0.4276  0.2959
  218MPD1     H 3367   1.354   0.611  12.347 -1.2778 -0.2754  1.0530
  218MPD1    H1 3368   1.521   0.433  12.706  0.4749  1.6976  1.7536
  218MPD1    H2 3369   1.590   0.841  12.594 -2.2488 -0.0603  0.7748
  218MPD1    H3 3370   1.613   0.653  12.755  2.6692 -1.3865 -1.0051
  218MPD1     N 3371   1.358   0.382  12.476 -0.5319 -0.0138  0.0042
  218MPD1    H5 3372   1.291   0.382  12.400 -0.8457  3.2332  0.2634
  218MPD1    N1 3373   1.474   0.839  12.365  0.7637 -0.1745  0.9712
  218MPD1    H6 3374   1.449   0.819  12.268 -0.0959  1.5663  0.8393
  218MPD1    H7 3375   1.554   0.901  12.361 -0.0111  0.7427 -0.6926
  219MPD1     C 3376   1.004   4.586  11.731  0.5253  0.2377 -0.1119
  219MPD1    C1 3377   1.045   4.716  11.754 -0.7740  0.1774  0.0110
  219MPD1    C2 3378   1.066   0.016  11.886 -0.1005  0.0839  0.4975
  219MPD1    C3 3379   1.020   4.674  11.989  0.6360  0.1622 -0.0098
  219MPD1    C4 3380   0.953   4.553  11.967 -0.2807 -0.0278 -0.9377
  219MPD1    C5 3381   0.940   4.518  11.832  0.2800  0.5658 -0.2901
  219MPD1     H 3382   1.135   0.097  11.906 -0.4158  0.8237 -1.4057
  219MPD1    H1 3383   0.899   4.495  12.041  1.0434  0.4064  0.3662
  219MPD1    H2 3384   0.994   4.542  11.633  0.4573 -1.1249  0.5090
  219MPD1    H3 3385   0.882   4.433  11.799 -0.7889  1.9512 -1.9625
  219MPD1     N 3386   1.040   4.705  12.128  0.3688 -0.3646  1.1995
  219MPD1    H5 3387   1.007   4.637  12.197  0.0154 -2.2426 -0.8146
  219MPD1    N1 3388   1.108   0.039  11.652  0.0648 -0.4425  0.0438
  219MPD1    H6 3389   1.132   0.137  11.664 -3.3133  0.4798 -0.8740
  219MPD1    H7 3390   1.056   0.024  11.566  2.0584  0.4088 -1.3171
  220MPD1     C 3391   1.238   2.025  10.495  0.4173  0.3991  0.0629
  220MPD1    C1 3392   1.197   1.923  10.415  0.7050  0.4550  0.2815
  220MPD1    C2 3393   1.240   1.797  10.445  0.0699 -0.0987 -0.5920
  220MPD1    C3 3394   1.327   1.772  10.552  0.0533  0.2151  0.6397
  220MPD1    C4 3395   1.358   1.876  10.636  0.3189 -0.6404 -0.1609
  220MPD1    C5 3396   1.318   2.003  10.603  1.0588 -0.7785  0.1922
  220MPD1     H 3397   1.216   1.711  10.383 -0.0189  1.8678 -3.2826
  220MPD1    H1 3398   1.422   1.869  10.723 -1.9990 -0.2964  1.5585
  220MPD1    H2 3399   1.216   2.130  10.479  3.1879  0.8043 -1.1323
  220MPD1    H3 3400   1.347   2.088  10.664 -1.8253  0.7342 -0.5254
  220MPD1     N 3401   1.362   1.639  10.570  0.5647 -0.2131  0.3607
  220MPD1    H5 3402   1.316   1.574  10.507  0.7549  1.4637 -1.5033
  220MPD1    N1 3403   1.132   1.959  10.291  0.1805 -0.2750 -0.2793
  220MPD1    H6 3404   1.090   2.052  10.285 -0.0609 -0.2240  2.1363
  220MPD1    H7 3405   1.055   1.895  10.276 -0.4191  1.0141 -2.6004
  221MPD1     C 3406   4.642   4.566  15.837  0.7750  0.2730  0.2595
  221MPD1    C1 3407   4.684   4.441  15.804  0.0264  0.5137  1.0608
  221MPD1    C2 3408   4.644   4.320  15.869  0.3981  0.0827  0.3052
  221MPD1    C3 3409   4.549   4.326  15.969  0.0624 -0.1242  0.1728
  221MPD1    C4 3410   4.489   4.452  15.981  0.0156 -0.5761  0.3234
  221MPD1    C5 3411   4.536   4.572  15.921 -0.6079 -0.3342 -1.0176
  221MPD1     H 3412   4.704   4.234  15.842 -0.4109 -1.3869  3.2205
  221MPD1    H1 3413   4.399   4.457  16.041 -0.6634  0.5870 -0.8010
  221MPD1    H2 3414   4.685   4.654  15.790 -0.9778  1.0801  0.1824
  221MPD1    H3 3415   4.486   4.666  15.940  0.3041  0.0557 -0.5248
  221MPD1     N 3416   4.490   4.212  16.019  0.1757  1.0255 -0.2420
  221MPD1    H5 3417   4.399   4.226  16.063  0.4248 -1.8780  1.1963
  221MPD1    N1 3418   0.057   4.441  15.723  0.5581  0.1692 -0.1506
  221MPD1    H6 3419   0.050   4.518  15.657  0.0315  2.2706  2.3808
  221MPD1    H7 3420   0.083   4.351  15.683 -0.0678 -0.7424  1.4817
  222MPD1     C 3421   2.701   3.264  17.478 -0.3326 -0.3236 -0.6743
  222MPD1    C1 3422   2.802   3.246  17.577 -0.4641 -0.2541 -0.5615
  222MPD1    C2 3423   2.850   3.366  17.644  0.5653  0.1558 -0.1645
  222MPD1    C3 3424   2.803   3.494  17.606  0.3390  0.1056 -0.1345
  222MPD1    C4 3425   2.706   3.505  17.510 -0.6985  0.3442  0.3843
  222MPD1    C5 3426   2.652   3.391  17.452  0.0733 -0.4675  0.0105
  222MPD1     H 3427   2.905   3.358  17.736  0.0502 -2.4654 -0.0790
  222MPD1    H1 3428   2.663   3.600  17.481  0.2688  0.3193 -1.1388
  222MPD1    H2 3429   2.650   3.182  17.430  2.2659 -3.3804  1.8016
  222MPD1    H3 3430   2.571   3.412  17.383  0.6645  0.9127 -0.2602
  222MPD1     N 3431   2.847   3.618  17.660 -0.1293 -0.3140 -0.3756
  222MPD1    H5 3432   2.796   3.699  17.626 -0.6767 -0.2768  0.5361
  222MPD1    N1 3433   2.846   3.120  17.621 -0.5441  0.1642  0.0798
  222MPD1    H6 3434   2.847   3.042  17.557 -1.6925 -1.3165  1.8624
  222MPD1    H7 3435   2.938   3.115  17.665 -1.1920  1.5618  1.6222
  223MPD1     C 3436   2.460   4.450   0.327  0.0455  0.0601  0.0121
  223MPD1    C1 3437   2.596   4.483   0.312 -0.1223  0.8168  0.8074
  223MPD1    C2 3438   2.693   4.390   0.270  0.1980  0.4855 -0.3922
  223MPD1    C3 3439   2.657   4.269   0.222 -0.1483 -0.7302 -0.2595
  223MPD1    C4 3440   2.521   4.237   0.232 -0.5406  0.8952  0.2291
  223MPD1    C5 3441   2.422   4.329   0.267 -0.7286 -0.1296  0.6419
  223MPD1     H 3442   2.797   4.419   0.273  0.2457  0.3000 -0.1764
  223MPD1    H1 3443   2.490   4.137   0.207  0.7311  0.1080  1.8660
  223MPD1    H2 3444   2.379   4.514   0.361 -2.4194 -1.9340 -2.1422
  223MPD1    H3 3445   2.318   4.298   0.265 -1.4111  2.2434 -0.3538
  223MPD1     N 3446   2.757   4.183   0.175  0.3589 -0.0469  0.0522
  223MPD1    H5 3447   2.855   4.205   0.192  0.2462  0.8165 -0.4108
  223MPD1    N1 3448   2.644   4.596   0.384 -0.3418  0.0874 -0.2205
  223MPD1    H6 3449   2.736   4.615   0.345 -0.9919  2.0481 -0.8270
  223MPD1    H7 3450   2.584   4.677   0.370  0.5658  0.7445 -0.3241
  224MPD1     C 3451   4.216   0.126   8.844  0.3011 -0.2130 -0.0496
  224MPD1    C1 3452   4.182   0.198   8.961 -0.0724  0.2118 -0.9863
  224MPD1    C2 3453   4.252   0.162   9.074  0.2678  0.2473  0.8260
  224MPD1    C3 3454   4.336   0.046   9.084  0.1586 -0.1811  0.5027
  224MPD1    C4 3455   4.363   4.714   8.965 -0.7337 -0.4840  0.8752
  224MPD1    C5 3456   4.304   0.016   8.846 -0.9023 -0.4861 -0.0421
  224MPD1     H 3457   4.219   0.216   9.162 -0.1051 -0.4874  1.1349
  224MPD1    H1 3458   4.430   4.629   8.970 -0.7078 -0.6661 -2.5236
  224MPD1    H2 3459   4.167   0.148   8.750 -0.4384 -2.3356 -0.1428
  224MPD1    H3 3460   4.307   4.694   8.755  1.6525  0.8251 -0.7919
  224MPD1     N 3461   4.403   4.736   9.205 -0.8804  0.4092 -0.1477
  224MPD1    H5 3462   4.477   4.666   9.205 -1.6786 -0.4410 -0.2430
  224MPD1    N1 3463   4.104   0.322   8.961  0.5874  0.4356 -0.0934
  224MPD1    H6 3464   4.063   0.339   9.053  0.6412  0.6651 -0.1117
  224MPD1    H7 3465   4.035   0.330   8.887  0.9087  0.1323 -0.4211
  225MPD1     C 3466   1.116   1.371  12.920 -0.3332 -0.5833 -0.0030
  225MPD1    C1 3467   1.123   1.248  12.850  0.5682  0.1596 -0.3891
  225MPD1    C2 3468   1.026   1.213  12.762 -0.4617 -0.1817  0.0494
  225MPD1    C3 3469   0.921   1.303  12.735  0.5191 -0.0192  0.1714
  225MPD1    C4 3470   0.919   1.428  12.800  0.1026  0.3667  0.4607
  225MPD1    C5 3471   1.017   1.461  12.886  0.0555  0.0325  0.0471
  225MPD1     H 3472   1.035   1.117  12.712 -0.9658  0.6977 -1.7166
  225MPD1    H1 3473   0.860   1.515  12.778  0.8364  0.9969  0.9627
  225MPD1    H2 3474   1.196   1.403  12.986 -1.5251 -2.5261  2.3660
  225MPD1    H3 3475   1.022   1.562  12.925 -0.7316  0.2081 -0.3180
  225MPD1     N 3476   0.818   1.271  12.651  0.1815  0.2597 -0.4293
  225MPD1    H5 3477   0.746   1.342  12.646 -1.9051 -1.7188  1.5286
  225MPD1    N1 3478   1.215   1.153  12.896 -0.0972 -0.6395  0.4977
  225MPD1    H6 3479   1.251   1.095  12.821 -1.6422  0.0757 -0.8079
  225MPD1    H7 3480   1.299   1.203  12.923  1.2801 -1.7816 -1.7080
  226MPD1     C 3481   3.517   0.775   8.769  0.5263 -0.0900  0.2764
  226MPD1    C1 3482   3.446   0.812   8.882  0.1162  0.1354 -0.0702
  226MPD1    C2 3483   3.503   0.860   8.991  1.0588 -0.5589  0.6960
  226MPD1    C3 3484   3.637   0.875   8.999  1.0143  0.6921 -0.2316
  226MPD1    C4 3485   3.716   0.818   8.895  0.1575  0.0598 -0.7454
  226MPD1    C5 3486   3.657   0.772   8.781  0.3171 -0.4682 -0.2495
  226MPD1     H 3487   3.449   0.888   9.080  0.2677  0.5627 -0.1345
  226MPD1    H1 3488   3.823   0.831   8.895  0.0279  1.1645  0.5067
  226MPD1    H2 3489   3.481   0.740   8.672  2.2701 -2.9069  0.6578
  226MPD1    H3 3490   3.719   0.745   8.696  0.1345  1.1803 -0.9126
  226MPD1     N 3491   3.688   0.938   9.107 -0.1752 -0.3879 -0.0329
  226MPD1    H5 3492   3.624   0.977   9.176 -0.7538  0.1066 -0.8409
  226MPD1    N1 3493   3.310   0.836   8.865  0.5848  0.1597  0.1516
  226MPD1    H6 3494   3.251   0.834   8.949 -0.3088 -2.3307 -0.5056
  226MPD1    H7 3495   3.264   0.770   8.802  0.5744  0.2743  0.0403
  227MPD1     C 3496   3.647   1.708   9.727 -0.4457 -0.5247  0.7426
  227MPD1    C1 3497   3.759   1.650   9.783  0.7707  0.2214 -0.1037
  227MPD1    C2 3498   3.814   1.541   9.716 -0.6525 -0.0752  0.2431
  227MPD1    C3 3499   3.743   1.468   9.624  0.7196 -1.0051 -0.3401
  227MPD1    C4 3500   3.618   1.522   9.586 -0.4299 -0.2450 -0.1631
  227MPD1    C5 3501   3.573   1.639   9.636 -0.0996  0.0384 -0.3754
  227MPD1     H 3502   3.913   1.511   9.745 -0.4314  0.6420  0.2377
  227MPD1    H1 3503   3.558   1.474   9.510  1.1168 -3.0824  0.3849
  227MPD1    H2 3504   3.612   1.802   9.770 -0.4948  0.3902 -1.2775
  227MPD1    H3 3505   3.478   1.681   9.606 -0.2681  0.3926  0.6551
  227MPD1     N 3506   3.791   1.345   9.575  0.2407 -0.2950 -0.8075
  227MPD1    H5 3507   3.877   1.309   9.614 -0.7806  0.3817  2.0566
  227MPD1    N1 3508   3.834   1.730   9.871  0.2114  0.4535  0.7078
  227MPD1    H6 3509   3.906   1.676   9.919  0.3935 -1.1986 -1.3745
  227MPD1    H7 3510   3.761   1.764   9.933  0.2196  1.8807 -0.0836
  228MPD1     C 3511   2.708   3.641  12.614 -0.0710  0.2261  0.2308
  228MPD1    C1 3512   2.604   3.609  12.528  0.2190  0.2475  0.4928
  228MPD1    C2 3513   2.486   3.567  12.587  0.3820 -0.7114  0.5699
  228MPD1    C3 3514   2.486   3.527  12.718 -0.3685  0.0958 -0.1625
  228MPD1    C4 3515   2.592   3.554  12.802 -0.1230  0.1738  0.6988
  228MPD1    C5 3516   2.706   3.612  12.750  0.2024  0.3808 -0.3912
  228MPD1     H 3517   2.391   3.553  12.538  1.4487 -1.9138 -1.1491
  228MPD1    H1 3518   2.603   3.531  12.908  1.6759 -2.1281  0.0136
  228MPD1    H2 3519   2.796   3.697  12.582  1.0102 -0.9005  1.2319
  228MPD1    H3 3520   2.798   3.634  12.803 -0.7435 -0.8157  1.7351
  228MPD1     N 3521   2.368   3.474  12.762  0.1771 -0.5707  0.3165
  228MPD1    H5 3522   2.298   3.447  12.693 -0.6910 -0.0981  1.0083
  228MPD1    N1 3523   2.615   3.654  12.402 -0.0554  0.3252 -0.2176
  228MPD1    H6 3524   2.553   3.619  12.330 -0.7324  1.6062 -0.2720
  228MPD1    H7 3525   2.710   3.665  12.369  0.8215 -2.0628  1.5712
  229MPD1     C 3526   1.664   2.487  14.894  0.4280  0.2071  0.5478
  229MPD1    C1 3527   1.651   2.420  15.009  0.4592  0.3905  0.2968
  229MPD1    C2 3528   1.765   2.386  15.085 -0.4544 -0.1422 -0.5473
  229MPD1    C3 3529   1.887   2.405  15.027  0.0708 -0.1733 -0.0204
  229MPD1    C4 3530   1.902   2.484  14.921  0.4257  0.0681  0.7508
  229MPD1    C5 3531   1.792   2.526  14.855 -0.7099 -0.2478  0.2669
  229MPD1     H 3532   1.758   2.347  15.186  0.5906  1.2451  0.0592
  229MPD1    H1 3533   2.002   2.503  14.885  0.6385 -1.1773  0.6898
  229MPD1    H2 3534   1.577   2.511  14.835  1.3950  3.4871  0.4816
  229MPD1    H3 3535   1.807   2.593  14.771  0.3940 -1.6131 -0.6208
  229MPD1     N 3536   2.002   2.346  15.084  0.1044  0.4362 -0.3090
  229MPD1    H5 3537   2.088   2.389  15.051 -0.9256  1.1993 -2.0141
  229MPD1    N1 3538   1.524   2.390  15.053 -0.4386  0.3319  0.2433
  229MPD1    H6 3539   1.538   2.314  15.119 -0.3807 -0.1810 -0.3636
  229MPD1    H7 3540   1.468   2.349  14.979  1.7855  0.4537 -1.4744
  230MPD1     C 3541   2.845   2.619  15.466 -0.2616  0.2677  0.2603
  230MPD1    C1 3542   2.815   2.500  15.533  0.5457 -0.3441  1.0803
  230MPD1    C2 3543   2.713   2.421  15.484 -0.2042 -0.0699  0.3622
  230MPD1    C3 3544   2.652   2.444  15.365  0.2741  0.1152  0.5973
  230MPD1    C4 3545   2.674   2.560  15.301 -0.3741  0.3336 -0.6207
  230MPD1    C5 3546   2.766   2.648  15.352 -0.9475  0.0200  0.0715
  230MPD1     H 3547   2.685   2.330  15.535  0.5770 -2.9569 -4.3130
  230MPD1    H1 3548   2.631   2.571  15.202  1.6821  0.1296 -1.5309
  230MPD1    H2 3549   2.918   2.690  15.504 -1.4777  1.8011 -0.2805
  230MPD1    H3 3550   2.777   2.744  15.301  0.5966 -0.0452  0.2832
  230MPD1     N 3551   2.550   2.356  15.327 -0.6053  0.2335 -0.7660
  230MPD1    H5 3552   2.559   2.276  15.389 -1.2405 -0.1197 -1.1354
  230MPD1    N1 3553   2.867   2.464  15.661 -0.1923 -0.0312 -0.3713
  230MPD1    H6 3554   2.855   2.366  15.687 -1.3492 -0.1540 -1.4060
  230MPD1    H7 3555   2.962   2.500  15.667 -0.1628 -0.0439 -0.8419
  231MPD1     C 3556   0.912   3.870  15.301  0.3762  0.3422  1.0976
  231MPD1    C1 3557   0.867   3.787  15.205 -0.2496 -0.5911  0.1508
  231MPD1    C2 3558   0.873   3.834  15.072 -0.2992 -0.2952 -0.6182
  231MPD1    C3 3559   0.953   3.950  15.050 -0.0896  0.0820  0.3429
  231MPD1    C4 3560   1.005   4.030  15.149  0.1066 -0.5008  0.1625
  231MPD1    C5 3561   0.977   3.985  15.273  0.8083  0.1160 -0.1040
  231MPD1     H 3562   0.837   3.775  14.989  0.2582  0.5613 -1.4649
  231MPD1    H1 3563   1.072   4.114  15.135  1.2052 -1.2965  0.6517
  231MPD1    H2 3564   0.903   3.839  15.405  2.0153  2.0221  1.7292
  231MPD1    H3 3565   1.011   4.037  15.362  0.9117  0.6704 -0.4672
  231MPD1     N 3566   0.992   3.972  14.915  0.4469 -0.0526 -0.2486
  231MPD1    H5 3567   0.959   3.904  14.847 -0.7079  0.7690 -0.5209
  231MPD1    N1 3568   0.792   3.682  15.243 -0.5861  0.3908 -0.1934
  231MPD1    H6 3569   0.773   3.606  15.178 -1.4208  1.6158 -1.3829
  231MPD1    H7 3570   0.812   3.648  15.337  0.1915 -1.1792 -0.9178
  232MPD1     C 3571   2.255   1.853  17.073  0.1109  0.1865  0.6287
  232MPD1    C1 3572   2.266   1.957  17.158 -0.3425  0.3084 -0.0735
  232MPD1    C2 3573   2.216   1.946  17.284 -0.1424  0.6316 -0.0937
  232MPD1    C3 3574   2.184   1.820  17.327  0.0101  0.3688 -0.7601
  232MPD1    C4 3575   2.177   1.707  17.248 -0.5923 -0.0005  0.3850
  232MPD1    C5 3576   2.220   1.728  17.117  1.1466  0.1666  0.0938
  232MPD1     H 3577   2.202   2.032  17.349 -2.8833 -0.0674  0.2606
  232MPD1    H1 3578   2.153   1.607  17.283  0.7588 -0.0263  1.2322
  232MPD1    H2 3579   2.283   1.861  16.968  1.0445  1.8960  1.0224
  232MPD1    H3 3580   2.230   1.640  17.054 -0.5915  0.1103 -0.1211
  232MPD1     N 3581   2.152   1.810  17.468 -0.9926  0.4216  0.0151
  232MPD1    H5 3582   2.140   1.896  17.521 -2.1915 -0.3900  1.0784
  232MPD1    N1 3583   2.310   2.077  17.102  0.0898 -0.4409 -0.1326
  232MPD1    H6 3584   2.388   2.061  17.038 -0.0767  0.5556 -0.5887
  232MPD1    H7 3585   2.346   2.132  17.180 -1.6645 -0.2239  0.5060
  233MPD1     C 3586   3.918   0.339   0.286 -0.9987 -0.5449 -0.2405
  233MPD1    C1 3587   3.829   0.253   0.343 -0.9059  0.1446  0.2954
  233MPD1    C2 3588   3.865   0.177   0.455 -0.5589  0.1848  0.7013
  233MPD1    C3 3589   3.991   0.191   0.514  0.8624 -0.5819  0.5638
  233MPD1    C4 3590   4.067   0.296   0.466 -0.2344  0.2785 -0.3871
  233MPD1    C5 3591   4.040   0.354   0.343 -0.2660  0.1729  0.1876
  233MPD1     H 3592   3.794   0.104   0.493  0.3184 -1.9368 -1.6877
  233MPD1    H1 3593   4.164   0.320   0.507 -0.0715 -1.5149  0.2731
  233MPD1    H2 3594   3.897   0.386   0.191 -0.4358  3.3824  1.5920
  233MPD1    H3 3595   4.118   0.413   0.297 -0.4640  1.3554  1.3614
  233MPD1     N 3596   4.033   0.134   0.637 -0.1467  0.0151  0.0386
  233MPD1    H5 3597   4.126   0.159   0.669  0.1023 -0.3536 -0.3966
  233MPD1    N1 3598   3.702   0.236   0.281 -0.2747 -0.7969 -0.5624
  233MPD1    H6 3599   3.631   0.185   0.334  0.0148 -2.2265 -1.5474
  233MPD1    H7 3600   3.666   0.319   0.234  0.0089 -0.7968 -0.7743
  234MPD1     C 3601   1.089   3.449   9.467 -0.0777 -0.0331  0.0205
  234MPD1    C1 3602   1.061   3.432   9.329 -0.4928 -0.7660 -0.2078
  234MPD1    C2 3603   0.953   3.501   9.288  0.1031 -0.1278 -0.3607
  234MPD1    C3 3604   0.871   3.569   9.377 -0.1875  0.0842  0.0137
  234MPD1    C4 3605   0.890   3.567   9.510  0.7801 -0.0251  0.3495
  234MPD1    C5 3606   1.006   3.515   9.557  0.0063 -0.5486 -0.0870
  234MPD1     H 3607   0.914   3.481   9.189 -0.1989  0.6323 -0.3982
  234MPD1    H1 3608   0.813   3.610   9.574  2.7746  0.2317  2.5736
  234MPD1    H2 3609   1.173   3.394   9.508  0.0810 -0.8565 -1.3926
  234MPD1    H3 3610   1.010   3.518   9.665  2.2168  0.6828 -0.2014
  234MPD1     N 3611   0.749   3.625   9.333 -0.2334 -0.2276  0.4401
  234MPD1    H5 3612   0.690   3.654   9.410  1.2901  2.9698  0.4109
  234MPD1    N1 3613   1.146   3.366   9.240 -0.3948 -0.4768 -0.0574
  234MPD1    H6 3614   1.115   3.360   9.144  3.1947  0.0650 -1.2602
  234MPD1    H7 3615   1.183   3.280   9.279 -1.3183 -1.7490 -1.9882
  235MPD1     C 3616   1.683   1.460  10.470 -0.7856 -0.0334  0.2961
  235MPD1    C1 3617   1.646   1.510  10.350  0.0350 -1.0198 -0.1078
  235MPD1    C2 3618   1.725   1.619  10.304 -0.3927 -0.2086 -0.3282
  235MPD1    C3 3619   1.815   1.685  10.382  0.9109 -0.0715 -0.3230
  235MPD1    C4 3620   1.841   1.630  10.508  0.1551  0.1160 -0.5997
  235MPD1    C5 3621   1.773   1.521  10.554 -0.4111 -0.5480 -0.7928
  235MPD1     H 3622   1.707   1.650  10.202  1.0839  0.5651 -0.3435
  235MPD1    H1 3623   1.903   1.684  10.579  0.4446  0.6237 -1.2307
  235MPD1    H2 3624   1.629   1.373  10.504 -0.0214 -0.4743  0.3721
  235MPD1    H3 3625   1.789   1.483  10.655 -1.2106  0.5396 -0.2482
  235MPD1     N 3626   1.856   1.810  10.336 -0.6210 -0.0173  0.3864
  235MPD1    H5 3627   1.812   1.851  10.254 -2.4551 -2.2244  0.2655
  235MPD1    N1 3628   1.560   1.439  10.262  0.3097  0.4540 -0.5312
  235MPD1    H6 3629   1.488   1.386  10.311  1.1241 -0.8580 -0.7564
  235MPD1    H7 3630   1.519   1.496  10.188 -1.6567 -0.7567 -0.3821
  236MPD1     C 3631   1.538   2.732   9.416  0.0258 -0.3215 -0.1181
  236MPD1    C1 3632   1.405   2.742   9.382  0.0718  0.4205 -0.3101
  236MPD1    C2 3633   1.308   2.784   9.478  0.5752 -0.9315  0.3653
  236MPD1    C3 3634   1.348   2.791   9.613 -0.6470 -0.1950 -0.3462
  236MPD1    C4 3635   1.485   2.777   9.646 -0.5434 -0.7003 -0.2671
  236MPD1    C5 3636   1.579   2.755   9.548  0.1146 -0.0752 -0.5900
  236MPD1     H 3637   1.204   2.800   9.454  0.7866 -0.2396 -0.1064
  236MPD1    H1 3638   1.512   2.783   9.751 -0.1527  0.9556 -0.4615
  236MPD1    H2 3639   1.615   2.724   9.340 -0.2559  1.4228 -0.6021
  236MPD1    H3 3640   1.680   2.724   9.570  1.0137  2.6208 -0.9221
  236MPD1     N 3641   1.256   2.810   9.718 -0.2921  0.3996 -0.1164
  236MPD1    H5 3642   1.298   2.834   9.807  0.5126 -2.5119  0.2729
  236MPD1    N1 3643   1.366   2.734   9.248 -0.5472  0.7201  0.0608
  236MPD1    H6 3644   1.433   2.681   9.193 -2.3051  1.1985 -2.5034
  236MPD1    H7 3645   1.271   2.701   9.236 -0.6411  1.3671 -0.9425
  237MPD1     C 3646   1.362   0.139  14.607 -0.2958  0.6234 -0.3054
  237MPD1    C1 3647   1.367   0.235  14.706 -0.0817  0.5931 -0.6543
  237MPD1    C2 3648   1.252   0.257  14.788  0.4599  0.1898 -0.3884
  237MPD1    C3 3649   1.127   0.200  14.759 -0.0489  0.7005 -0.6756
  237MPD1    C4 3650   1.130   0.105  14.657  0.0178  0.3898  0.4447
  237MPD1    C5 3651   1.240   0.076  14.584  0.4140 -0.3446 -0.7350
  237MPD1     H 3652   1.247   0.326  14.871 -0.2100  0.1578 -0.4042
  237MPD1    H1 3653   1.040   0.056  14.623 -0.4841  1.5153  0.1460
  237MPD1    H2 3654   1.443   0.107  14.542 -1.1408  1.2491 -1.6573
  237MPD1    H3 3655   1.218   0.008  14.503  2.1191 -3.7316  1.6407
  237MPD1     N 3656   1.002   0.237  14.811  0.2463 -0.2517  0.2963
  237MPD1    H5 3657   0.913   0.199  14.780  0.0419  0.6408 -0.2063
  237MPD1    N1 3658   1.491   0.290  14.744  0.2262 -0.2180  0.4035
  237MPD1    H6 3659   1.484   0.373  14.802  1.3848 -0.4500  0.8846
  237MPD1    H7 3660   1.546   0.314  14.661  0.6329 -2.2018  0.0887
  238MPD1     C 3661   2.898   4.063  15.283  0.0649 -0.0965 -0.1764
  238MPD1    C1 3662   2.885   3.927  15.289  0.3804  0.2041  0.0742
  238MPD1    C2 3663   2.783   3.864  15.217  0.4352  1.2019 -0.0883
  238MPD1    C3 3664   2.715   3.932  15.113 -0.1955  0.4888  0.2113
  238MPD1    C4 3665   2.743   4.067  15.098 -0.1586 -0.5010  0.0204
  238MPD1    C5 3666   2.826   4.138  15.186 -0.1050  0.3096  0.6285
  238MPD1     H 3667   2.756   3.760  15.230 -0.1551  1.5184  1.2560
  238MPD1    H1 3668   2.696   4.117  15.015 -0.9865 -1.4211 -0.0604
  238MPD1    H2 3669   2.967   4.109  15.352 -0.5372 -0.1319  0.4483
  238MPD1    H3 3670   2.844   4.243  15.165  2.3123 -0.3434 -0.5979
  238MPD1     N 3671   2.619   3.876  15.028  0.4142 -0.1907  0.3069
  238MPD1    H5 3672   2.590   3.922  14.942 -0.9132  0.2046  0.9643
  238MPD1    N1 3673   2.945   3.869  15.401  0.3559  0.1410  0.2828
  238MPD1    H6 3674   2.975   3.774  15.377  0.1128 -0.1901  1.3313
  238MPD1    H7 3675   3.037   3.911  15.411  0.7722 -0.9751  1.1330
  239MPD1     C 3676   2.652   0.036  15.353 -0.9094  0.0052 -0.0666
  239MPD1    C1 3677   2.759   0.056  15.270  0.6151 -0.0192  0.0951
  239MPD1    C2 3678   2.743   0.133  15.166  0.5847  0.1655  0.4183
  239MPD1    C3 3679   2.629   0.210  15.138  0.6585  0.0241 -0.1582
  239MPD1    C4 3680   2.526   0.196  15.236  0.7316  0.2299  0.5675
  239MPD1    C5 3681   2.536   0.107  15.338  0.5447  0.4785  0.4290
  239MPD1     H 3682   2.836   0.143  15.111  0.6421  1.0092  0.6655
  239MPD1    H1 3683   2.433   0.246  15.215  2.5096  1.3058 -4.7243
  239MPD1    H2 3684   2.655   4.704  15.437  0.1565  1.6032  1.2127
  239MPD1    H3 3685   2.456   0.087  15.408 -0.1104  0.4714 -0.3278
  239MPD1     N 3686   2.598   0.290  15.022 -0.4500  0.6033 -0.0653
  239MPD1    H5 3687   2.502   0.319  15.003 -0.6193 -0.8962 -1.4413
  239MPD1    N1 3688   2.871   4.712  15.288 -0.4716 -0.5963  0.0381
  239MPD1    H6 3689   2.886   4.683  15.384 -1.8324 -0.5819  0.2549
  239MPD1    H7 3690   2.956   0.025  15.261 -0.6699  0.1261  0.7327
  240MPD1     C 3691   2.039   0.317  14.086  0.3264  0.1625  0.0719
  240MPD1    C1 3692   1.937   0.232  14.050 -0.4860 -0.0362  0.4767
  240MPD1    C2 3693   1.958   0.102  14.092 -0.5553 -1.0383  0.0063
  240MPD1    C3 3694   2.045   0.071  14.202 -0.4633  0.4023  0.3651
  240MPD1    C4 3695   2.132   0.173  14.247  0.5129 -0.5313  0.5306
  240MPD1    C5 3696   2.129   0.292  14.186  0.0493 -0.0810  0.2170
  240MPD1     H 3697   1.906   0.021  14.042 -1.3939 -1.5453  1.7259
  240MPD1    H1 3698   2.202   0.162  14.329 -1.1558 -1.8756  1.7797
  240MPD1    H2 3699   2.037   0.418  14.048  0.8192  0.9319  2.1317
  240MPD1    H3 3700   2.212   0.358  14.208 -0.4596  0.7351 -0.3509
  240MPD1     N 3701   2.037   4.679  14.258 -0.3225  0.3594 -0.2428
  240MPD1    H5 3702   1.978   4.608  14.215 -1.0979  0.3568  0.8087
  240MPD1    N1 3703   1.859   0.251  13.935  0.2495  0.0440  0.2049
  240MPD1    H6 3704   1.837   0.349  13.917  0.6009  0.5060  2.2695
  240MPD1    H7 3705   1.769   0.205  13.942  1.2287 -2.1254 -1.4837
  241MPD1     C 3706   2.318   4.014  15.098 -0.1799  0.0778  0.7596
  241MPD1    C1 3707   2.371   4.134  15.049 -0.2362  0.1543 -0.2543
  241MPD1    C2 3708   2.312   4.191  14.937  0.0433  0.3174 -0.1813
  241MPD1    C3 3709   2.226   4.123  14.861 -0.2789 -0.9392  0.0221
  241MPD1    C4 3710   2.173   4.012  14.909 -0.1773 -0.4993  0.0789
  241MPD1    C5 3711   2.209   3.965  15.029 -0.0193  0.7276  0.3100
  241MPD1     H 3712   2.350   4.290  14.912  1.2936  0.4065  2.0512
  241MPD1    H1 3713   2.085   3.974  14.857 -1.2754 -0.3142  1.7952
  241MPD1    H2 3714   2.366   3.969  15.184 -0.4645  1.1325  1.4708
  241MPD1    H3 3715   2.160   3.876  15.066  2.2385 -1.3808 -1.7290
  241MPD1     N 3716   2.181   4.157  14.726 -0.3294 -0.3980 -0.2449
  241MPD1    H5 3717   2.113   4.091  14.691 -0.9336  0.4193 -0.5890
  241MPD1    N1 3718   2.469   4.200  15.122 -0.6552  0.0268  0.3340
  241MPD1    H6 3719   2.531   4.258  15.066 -1.5636  1.7756  1.1044
  241MPD1    H7 3720   2.523   4.143  15.187  1.5179 -0.0083 -1.5097
  242MPD1     C 3721   1.862   2.403  15.532  0.1458 -0.1646  0.7722
  242MPD1    C1 3722   1.997   2.423  15.534  0.3546  0.0517  0.4242
  242MPD1    C2 3723   2.051   2.523  15.454 -0.2628  0.3896 -0.9241
  242MPD1    C3 3724   1.979   2.582  15.358  0.2337  0.5322  0.0101
  242MPD1    C4 3725   1.847   2.552  15.343 -0.6560  0.1698 -0.0782
  242MPD1    C5 3726   1.790   2.464  15.437 -0.4949 -0.1660 -0.3876
  242MPD1     H 3727   2.155   2.546  15.470  0.0337 -0.1839 -2.0267
  242MPD1    H1 3728   1.790   2.605  15.268  3.2319  1.1791 -2.2720
  242MPD1    H2 3729   1.811   2.333  15.599 -0.7963  0.1697  0.4066
  242MPD1    H3 3730   1.685   2.447  15.418 -0.4849  0.8919 -1.4119
  242MPD1     N 3731   2.033   2.671  15.268 -0.0378 -0.8352  0.5188
  242MPD1    H5 3732   1.966   2.719  15.208  2.7641  1.1479 -1.0686
  242MPD1    N1 3733   2.078   2.362  15.635 -0.2022  1.1197  0.1953
  242MPD1    H6 3734   2.045   2.266  15.638  0.6111  0.8834  1.4955
  242MPD1    H7 3735   2.179   2.373  15.624 -0.4048  2.8470  0.0914
  243MPD1     C 3736   3.253   1.615   0.222 -0.5042  0.0203  1.4455
  243MPD1    C1 3737   3.241   1.530   0.113 -0.5627 -0.1452  0.3759
  243MPD1    C2 3738   3.332   1.540   0.008 -0.3181  0.1588 -0.0937
  243MPD1    C3 3739   3.429   1.639   0.008  0.1888 -0.3191 -0.4455
  243MPD1    C4 3740   3.427   1.730   0.101  0.3971 -0.5560 -0.3203
  243MPD1    C5 3741   3.345   1.722   0.213 -0.1381 -0.4039 -0.4819
  243MPD1     H 3742   3.330   1.477  17.663  0.0362 -0.5656  0.4242
  243MPD1    H1 3743   3.495   1.815   0.102 -1.1831  0.7188 -0.7657
  243MPD1    H2 3744   3.193   1.610   0.312 -0.2814  1.6653  1.6975
  243MPD1    H3 3745   3.338   1.787   0.300 -1.3542  1.1801 -1.7688
  243MPD1     N 3746   3.518   1.634  17.643 -0.4710 -0.2105  0.2523
  243MPD1    H5 3747   3.504   1.557  17.579  0.2970 -0.2974  0.1821
  243MPD1    N1 3748   3.154   1.416   0.113 -0.6604  0.2318  0.1232
  243MPD1    H6 3749   3.068   1.437   0.165 -0.6459 -0.9658  0.6267
  243MPD1    H7 3750   3.117   1.407   0.019  1.6276 -1.1020 -0.6338
  244MPD1     C 3751   3.942   0.886  17.640 -0.7184 -0.9635  0.6395
  244MPD1    C1 3752   3.819   0.923  17.613  0.3431 -0.1062  0.2869
  244MPD1    C2 3753   3.791   1.056  17.584 -0.1629  0.3584 -0.1551
  244MPD1    C3 3754   3.887   1.152  17.571 -0.0807  0.0889 -0.6403
  244MPD1    C4 3755   4.021   1.110  17.592 -0.2033  0.1478  0.4896
  244MPD1    C5 3756   4.040   0.981  17.632  0.4809  0.4411 -0.1042
  244MPD1     H 3757   3.685   1.080  17.580 -0.3930 -0.7995 -1.1890
  244MPD1    H1 3758   4.108   1.172  17.575  0.6820 -0.2756  3.4734
  244MPD1    H2 3759   3.977   0.788  17.670 -0.8091 -1.6637 -1.5113
  244MPD1    H3 3760   4.145   0.957  17.643  0.1100  0.4123  3.1206
  244MPD1     N 3761   3.853   1.286  17.538  0.0646 -0.4326 -0.0081
  244MPD1    H5 3762   3.754   1.310  17.543  0.2026  0.2305 -0.4739
  244MPD1    N1 3763   3.717   0.833  17.645 -0.5156 -0.0815  0.1366
  244MPD1    H6 3764   3.738   0.744  17.601  1.1009 -0.1749  1.1027
  244MPD1    H7 3765   3.627   0.852  17.600 -1.7532  1.5689  3.2896
  245MPD1     C 3766   4.592   1.868  13.120  0.9697 -0.1266 -0.6554
  245MPD1    C1 3767   4.612   1.896  13.250  0.1306  0.1308 -0.6955
  245MPD1    C2 3768   4.688   2.010  13.280  0.7717  0.4282  0.6073
  245MPD1    C3 3769   4.736   2.095  13.180  0.3550 -0.4402  0.2268
  245MPD1    C4 3770   4.711   2.055  13.049  0.1395  0.1875 -0.6746
  245MPD1    C5 3771   4.642   1.944  13.017 -0.0461  0.5650 -0.1138
  245MPD1     H 3772   4.707   2.035  13.383 -1.6072 -0.1831  1.2069
  245MPD1    H1 3773   0.004   2.113  12.962 -1.4928  2.6472  0.4224
  245MPD1    H2 3774   4.528   1.787  13.088  0.0808 -0.0077  0.8303
  245MPD1    H3 3775   4.616   1.910  12.917  0.2947 -2.6301  0.8727
  245MPD1     N 3776   0.067   2.213  13.226  0.1787  0.0257 -0.7115
  245MPD1    H5 3777   0.073   2.231  13.325  2.0685 -2.9402 -0.2667
  245MPD1    N1 3778   4.578   1.799  13.347  0.9456  0.0991  1.0809
  245MPD1    H6 3779   4.511   1.734  13.306  1.3614  0.0343  0.4944
  245MPD1    H7 3780   4.558   1.833  13.440 -0.2274  1.3191  0.3882
  246MPD1     C 3781   2.530   4.337  10.453 -0.0343 -0.2360 -0.2188
  246MPD1    C1 3782   2.540   4.431  10.354  0.7272 -0.7017 -0.6274
  246MPD1    C2 3783   2.483   4.400  10.231 -0.1519  0.2145  0.0827
  246MPD1    C3 3784   2.392   4.294  10.219  0.4124 -0.1267 -0.0446
  246MPD1    C4 3785   2.369   4.210  10.325 -0.6421  0.0426 -0.3888
  246MPD1    C5 3786   2.435   4.231  10.444  0.6148  0.2347  0.2492
  246MPD1     H 3787   2.498   4.471  10.150 -1.0259  0.9188  0.5409
  246MPD1    H1 3788   2.290   4.136  10.328  0.0594 -0.7682 -1.7754
  246MPD1    H2 3789   2.582   4.345  10.547 -2.0541  1.9824  0.7056
  246MPD1    H3 3790   2.424   4.158  10.524  0.6917  0.4111  0.4217
  246MPD1     N 3791   2.327   4.270  10.099 -0.3521  0.3107  0.2246
  246MPD1    H5 3792   2.343   4.336  10.024 -1.2656  0.0394 -0.2182
  246MPD1    N1 3793   2.627   4.547  10.358 -0.3222  0.0046  0.2942
  246MPD1    H6 3794   2.717   4.527  10.316 -1.0459 -1.3946 -0.5827
  246MPD1    H7 3795   2.651   4.555  10.457  0.8606  0.9958 -0.0804
  247MPD1     C 3796   0.089   1.593  16.797  0.8684  0.3625 -0.5538
  247MPD1    C1 3797   0.079   1.711  16.724 -0.1586  0.4092  0.1878
  247MPD1    C2 3798   0.075   1.698  16.587 -0.2330  0.2363  0.3003
  247MPD1    C3 3799   0.084   1.578  16.522  0.0079  0.6184  0.0508
  247MPD1    C4 3800   0.092   1.465  16.593 -0.6252  0.3943  0.5548
  247MPD1    C5 3801   0.095   1.472  16.728  0.3837  0.1564  0.0969
  247MPD1     H 3802   0.062   1.792  16.535 -0.5368  1.3038  2.3197
  247MPD1    H1 3803   0.096   1.371  16.539 -0.7475  1.0151 -0.5394
  247MPD1    H2 3804   0.106   1.603  16.904 -1.3543 -0.7898 -0.1030
  247MPD1    H3 3805   0.104   1.388  16.795 -1.5371 -1.6121 -1.8561
  247MPD1     N 3806   0.080   1.563  16.386 -0.0465  0.6009  0.0822
  247MPD1    H5 3807   0.098   1.471  16.348 -1.3100  0.5497 -0.3691
  247MPD1    N1 3808   0.066   1.839  16.781 -0.0359 -0.1803 -0.5960
  247MPD1    H6 3809   0.050   1.841  16.882 -1.0014  0.9888 -0.7665
  247MPD1    H7 3810   0.002   1.902  16.733 -1.7337  1.0826  3.2954
  248MPD1     C 3811   1.345   2.359   0.046  0.3448  0.0309  0.0968
  248MPD1    C1 3812   1.382   2.234   0.015 -0.2762  0.0042 -0.0150
  248MPD1    C2 3813   1.328   2.130   0.089 -0.0655  0.0922 -0.2102
  248MPD1    C3 3814   1.231   2.154   0.183 -0.1845 -0.0392  0.1183
  248MPD1    C4 3815   1.182   2.279   0.200  0.5250 -0.8867  0.0607
  248MPD1    C5 3816   1.249   2.385   0.141  0.3597 -0.8186 -0.2722
  248MPD1     H 3817   1.368   2.029   0.084 -0.5884 -0.1743  0.7754
  248MPD1    H1 3818   1.100   2.310   0.263  0.5071 -1.5224  0.3516
  248MPD1    H2 3819   1.398   2.444   0.005  1.3224 -0.6801 -0.1099
  248MPD1    H3 3820   1.216   2.487   0.157  1.3583 -0.4712 -0.4138
  248MPD1     N 3821   1.172   2.042   0.250 -0.3595 -0.3967  0.8193
  248MPD1    H5 3822   1.215   1.951   0.239  0.8410  0.5392 -2.3104
  248MPD1    N1 3823   1.496   2.211  17.678 -0.0066 -0.4594  0.5507
  248MPD1    H6 3824   1.519   2.112  17.683  2.2735  0.1419  1.5712
  248MPD1    H7 3825   1.576   2.261  17.717  0.7595 -0.0929 -1.4748
  249MPD1     C 3826   2.371   1.611   9.836 -0.2800 -0.1722 -0.7509
  249MPD1    C1 3827   2.470   1.692   9.886  0.3363 -0.2959 -1.3350
  249MPD1    C2 3828   2.553   1.635   9.977 -0.1811  0.1388  0.2112
  249MPD1    C3 3829   2.524   1.509  10.033 -0.0603  0.2727 -0.6597
  249MPD1    C4 3830   2.418   1.437   9.989 -0.6145 -0.3495 -0.2411
  249MPD1    C5 3831   2.335   1.493   9.896  0.0184  0.0430 -0.6941
  249MPD1     H 3832   2.644   1.686  10.007 -1.1837  1.3557  1.1707
  249MPD1    H1 3833   2.389   1.338  10.019  0.6936 -0.5283  0.4296
  249MPD1    H2 3834   2.317   1.655   9.753  1.3823  2.3476 -0.5043
  249MPD1    H3 3835   2.252   1.439   9.852  0.5846 -1.1947 -0.2386
  249MPD1     N 3836   2.616   1.452  10.127  0.5052 -0.2414 -0.0938
  249MPD1    H5 3837   2.700   1.500  10.158 -0.0430  0.1190  0.8065
  249MPD1    N1 3838   2.518   1.802   9.816 -0.2698 -0.6797 -0.4465
  249MPD1    H6 3839   2.573   1.862   9.877 -0.0798 -1.6813  0.3586
  249MPD1    H7 3840   2.436   1.851   9.783  0.3698  0.0773 -0.9223
  250MPD2     C 3841   3.322   0.739  13.828  0.8919 -0.2029  0.0375
  250MPD2    C1 3842   3.358   0.763  13.699  0.0998 -0.4017  0.4961
  250MPD2    C2 3843   3.318   0.675  13.601  0.2897  0.7562  0.2539
  250MPD2    C3 3844   3.255   0.562  13.629 -0.1972 -0.1307 -0.2145
  250MPD2    C4 3845   3.218   0.537  13.760  0.0246 -0.1091  0.4052
  250MPD2    C5 3846   3.248   0.630  13.856 -0.3762 -0.5333  0.1956
  250MPD2     H 3847   3.341   0.697  13.497  1.1719  0.1212  0.3140
  250MPD2    H1 3848   3.171   0.445  13.792  3.0203 -1.5138  0.7948
  250MPD2    H2 3849   3.348   0.815  13.901  2.6701 -0.8846  0.1168
  250MPD2    H3 3850   3.222   0.615  13.960  0.2873 -2.5639  0.0663
  250MPD2     N 3851   3.229   0.467  13.526 -0.3030 -0.1186  0.5895
  250MPD2    H5 3852   3.182   0.382  13.555 -0.2513  0.4494  2.3672
  250MPD2    N1 3853   3.440   0.872  13.677  0.5594  0.0169  0.0088
  250MPD2    H7 3854   3.464   0.916  13.765 -2.4946  1.9495 -0.1146
  251TMC3    C1 3855   3.616   1.004  13.578 -0.5267 -0.0157 -0.0170
  251TMC3    C2 3856   3.593   1.125  13.638  0.4855  0.1349  0.7874
  251TMC3    C3 3857   3.649   1.234  13.579 -0.1275 -0.4165  0.0132
  251TMC3    C4 3858   3.705   0.991  13.475 -0.3376  0.0308  0.5462
  251TMC3    C5 3859   3.774   1.107  13.434 -0.3983 -0.3111 -0.0144
  251TMC3    C6 3860   3.738   1.229  13.474  0.2756  0.0833  0.2441
  251TMC3     C 3861   3.506   0.909  13.561  0.1334 -0.2000  0.0752
  251TMC3     O 3862   3.484   0.858  13.448  0.7009 -0.0269  0.2939
  251TMC3     H 3863   3.499   1.151  13.685 -0.4563 -0.6013 -0.7363
  251TMC3    H1 3864   3.734   0.891  13.444 -0.3301  0.0166  0.5989
  251TMC3    H2 3865   3.777   1.323  13.437 -0.9706  0.4629 -0.1141
  251TMC3    C7 3866   3.882   1.099  13.329 -0.3113 -0.4126 -0.3492
  251TMC3    C8 3867   3.590   1.368  13.602 -0.5129  0.0017 -0.7740
  251TMC3    O1 3868   3.971   1.013  13.347 -0.6086 -0.5871  0.0169
  251TMC3    O2 3869   3.547   1.395  13.714 -0.2380 -0.1700  0.7539
  252TMC3    C1 3870   3.548   2.684   9.608  0.2975  0.2177 -0.5136
  252TMC3    C2 3871   3.649   2.615   9.552  0.3366 -0.4267 -0.0896
  252TMC3    C3 3872   3.623   2.514   9.469  1.0448  0.4032 -0.2495
  252TMC3    C4 3873   3.416   2.651   9.581  0.7039 -0.4661 -0.8176
  252TMC3    C5 3874   3.399   2.542   9.494  0.0327  0.7353  0.1161
  252TMC3    C6 3875   3.498   2.472   9.427  0.2856 -0.0558 -0.5037
  252TMC3     C 3876   3.588   2.822   9.641 -1.0757  0.0125  0.5762
  252TMC3     O 3877   3.708   2.840   9.664  0.1594 -0.3348  0.3679
  252TMC3     H 3878   3.752   2.637   9.580  0.2237  0.3815 -0.2861
  252TMC3    H1 3879   3.338   2.698   9.640  0.0979 -0.8106 -1.3502
  252TMC3    H2 3880   3.477   2.400   9.349  0.9759 -1.7781  0.8766
  252TMC3    C7 3881   3.269   2.480   9.483  0.0565 -0.6613 -0.6111
  252TMC3    C8 3882   3.731   2.420   9.446 -0.0999 -0.9833 -0.6099
  252TMC3    O1 3883   3.167   2.537   9.444 -0.1441  0.4747 -0.0706
  252TMC3    O2 3884   3.701   2.328   9.368  0.4090 -0.3021  0.4998
  253MPD2     C 3885   0.269   0.569  14.885 -0.3135 -0.2191 -0.3680
  253MPD2    C1 3886   0.141   0.524  14.924 -1.1393  0.4736  0.4663
  253MPD2    C2 3887   0.103   0.538  15.058 -0.7601  0.1102 -0.4692
  253MPD2    C3 3888   0.202   0.589  15.144  0.2558 -0.5337 -0.0835
  253MPD2    C4 3889   0.333   0.621  15.106  0.8600  0.6671  0.2224
  253MPD2    C5 3890   0.358   0.617  14.976 -0.1960 -0.5335 -0.4262
  253MPD2     H 3891   0.006   0.504  15.091  0.1586 -1.1751  0.8828
  253MPD2    H1 3892   0.415   0.662  15.164  3.4122 -1.4971 -1.8183
  253MPD2    H2 3893   0.303   0.561  14.782 -0.8019  0.4593 -0.5840
  253MPD2    H3 3894   0.453   0.645  14.932 -0.3636  1.3341  0.3754
  253MPD2     N 3895   0.171   0.622  15.281  0.7586  0.0768  0.5992
  253MPD2    H5 3896   0.249   0.656  15.337  2.0397 -1.3428 -0.2969
  253MPD2    N1 3897   0.039   0.478  14.835 -0.6081  0.2242 -0.0887
  253MPD2    H7 3898   4.689   0.440  14.874 -0.4564 -0.6676 -0.6111
  254TMC3    C1 3899   0.055   0.708  15.462  0.3003  0.1147  0.2389
  254TMC3    C2 3900   4.677   0.783  15.493 -0.2582 -0.5932  0.5142
  254TMC3    C3 3901   4.615   0.763  15.610 -1.1142 -0.2025  0.8472
  254TMC3    C4 3902   0.103   0.613  15.549  0.2134 -0.0543 -0.0350
  254TMC3    C5 3903   0.026   0.576  15.656 -0.7796 -0.1765 -0.3120
  254TMC3    C6 3904   4.651   0.655  15.685 -0.4463 -0.3744 -0.3488
  254TMC3     C 3905   0.045   0.653  15.329 -0.3507  0.3469  0.8391
  254TMC3     O 3906   4.677   0.657  15.265 -0.2686 -0.1801 -0.3765
  254TMC3     H 3907   4.638   0.856  15.423  1.3339  1.8409  2.1813
  254TMC3    H1 3908   0.185   0.550  15.518 -1.3573 -0.8889 -2.5430
  254TMC3    H2 3909   4.608   0.630  15.781 -1.2761 -0.1760 -0.6667
  254TMC3    C7 3910   0.079   0.515  15.773 -1.0274 -0.2669 -0.8955
  254TMC3    C8 3911   4.543   0.859  15.681 -0.4182  0.5398 -0.5592
  254TMC3    O1 3912   0.004   0.478  15.864 -0.1643  0.1381  0.2511
  254TMC3    O2 3913   4.505   0.822  15.792 -0.0243  0.5437  0.0258
  255MPD2     C 3914   3.593   3.020   9.304  0.4476  0.5817 -0.2723
  255MPD2    C1 3915   3.684   3.096   9.239 -0.0428  0.2249  0.0750
  255MPD2    C2 3916   3.749   3.046   9.133 -0.7235  0.2336  0.0557
  255MPD2    C3 3917   3.740   2.911   9.109  0.1443 -0.6572 -0.0627
  255MPD2    C4 3918   3.643   2.837   9.171  0.8930  0.6271  0.2790
  255MPD2    C5 3919   3.567   2.890   9.271  0.5144  0.3461  0.3061
  255MPD2     H 3920   3.805   3.119   9.075  1.1707 -0.3982  1.1109
  255MPD2    H1 3921   3.653   2.729   9.159 -0.1839  0.5180  0.4129
  255MPD2    H2 3922   3.544   3.065   9.389  1.7093 -0.3121  0.9395
  255MPD2    H3 3923   3.486   2.835   9.319  0.1445 -0.6597 -1.4400
  255MPD2     N 3924   3.813   2.842   9.002 -0.2218  0.7494  0.0058
  255MPD2    H5 3925   3.777   2.755   8.964 -0.4258  0.7109  0.2876
  255MPD2    N1 3926   3.722   3.227   9.287  0.3311 -0.4776  0.4015
  255MPD2    H7 3927   3.679   3.265   9.370 -1.8186  1.3625 -1.5617
  256TMC3    C1 3928   3.846   3.419   9.334 -0.2443  0.9402 -0.4830
  256TMC3    C2 3929   3.953   3.501   9.299 -0.1431 -0.0762 -0.2412
  256TMC3    C3 3930   3.961   3.618   9.368 -0.1114  0.0674  0.1570
  256TMC3    C4 3931   3.752   3.448   9.431 -0.4930  0.5813  0.1150
  256TMC3    C5 3932   3.778   3.568   9.495  0.4360 -0.2688 -0.1778
  256TMC3    C6 3933   3.877   3.654   9.465 -0.7487  0.1791 -1.0632
  256TMC3     C 3934   3.834   3.295   9.253  0.0044  0.6912 -0.0442
  256TMC3     O 3935   3.927   3.273   9.177  0.1840  0.1310 -0.1643
  256TMC3     H 3936   4.022   3.476   9.219  2.8812  0.6033  2.1429
  256TMC3    H1 3937   3.670   3.380   9.450  0.2763 -0.3073  0.2317
  256TMC3    H2 3938   3.898   3.737   9.531 -1.8365  0.5468 -1.1784
  256TMC3    C7 3939   3.660   3.633   9.552  0.2786 -1.2763 -0.2566
  256TMC3    C8 3940   4.076   3.695   9.355 -0.6632 -0.9218 -0.5318
  256TMC3    O1 3941   3.547   3.606   9.502  0.3033  0.1292 -0.3901
  256TMC3    O2 3942   4.182   3.642   9.342 -0.1117  0.5306 -0.0191
  257MPD2     C 3943   2.769   1.077  13.329  0.4954  0.6969 -0.4966
  257MPD2    C1 3944   2.705   0.975  13.265 -0.3910  0.2544 -0.0135
  257MPD2    C2 3945   2.629   0.876  13.339 -0.6472  0.3411 -0.4810
  257MPD2    C3 3946   2.613   0.893  13.476 -0.1818  0.7939  0.7979
  257MPD2    C4 3947   2.672   1.001  13.531  0.2258  0.4979 -0.5324
  257MPD2    C5 3948   2.746   1.094  13.464 -0.1262  0.2315  0.0698
  257MPD2     H 3949   2.583   0.794  13.284 -2.0881  1.5157 -1.0308
  257MPD2    H1 3950   2.666   1.015  13.638 -1.1239 -0.2767 -0.4977
  257MPD2    H2 3951   2.837   1.140  13.273 -0.7785  2.1394 -0.4226
  257MPD2    H3 3952   2.792   1.175  13.519  1.2014  0.3303 -1.1872
  257MPD2     N 3953   2.542   0.795  13.553  0.1934 -0.1688 -0.0537
  257MPD2    H5 3954   2.504   0.725  13.491 -1.1387  0.0747  0.5011
  257MPD2    N1 3955   2.724   0.978  13.131 -0.2698  0.4956 -0.5793
  257MPD2    H7 3956   2.800   1.037  13.099 -0.2270 -0.2624 -1.8781
  258TMC3    C1 3957   2.474   0.656  13.730  0.0138  0.1439  0.0182
  258TMC3    C2 3958   2.350   0.627  13.681 -0.3299  0.3660  0.3381
  258TMC3    C3 3959   2.271   0.541  13.754 -0.2202  0.4161  0.0652
  258TMC3    C4 3960   2.516   0.592  13.846 -0.4869  0.1882  0.7024
  258TMC3    C5 3961   2.437   0.502  13.910  0.2359 -0.2211 -0.6123
  258TMC3    C6 3962   2.309   0.472  13.866  1.3581  0.0312  0.3777
  258TMC3     C 3963   2.547   0.775  13.687  0.4864 -0.1853  0.4712
  258TMC3     O 3964   2.612   0.830  13.775  0.5309  0.1217 -0.6517
  258TMC3     H 3965   2.299   0.683  13.604 -0.1490  2.2344  1.5838
  258TMC3    H1 3966   2.607   0.624  13.895 -2.1417  0.4553  3.6029
  258TMC3    H2 3967   2.235   0.412  13.918  0.6003  1.8716  1.4027
  258TMC3    C7 3968   2.487   0.449  14.040  0.2565 -0.4920  0.3563
  258TMC3    C8 3969   2.123   0.564  13.729 -0.3524  0.0242  1.2696
  258TMC3    O1 3970   2.549   0.520  14.124  0.3584 -0.1688  0.4217
  258TMC3    O2 3971   2.095   0.575  13.612 -0.5888  0.1166 -0.0317
  259MPD2     C 3972   1.472   2.615   1.227  0.5404 -0.2361  1.0699
  259MPD2    C1 3973   1.546   2.505   1.187 -0.0558  1.0301 -0.0592
  259MPD2    C2 3974   1.498   2.436   1.076  0.4705  1.0550 -0.3662
  259MPD2    C3 3975   1.387   2.480   1.006  0.3846  0.4043 -0.2700
  259MPD2    C4 3976   1.320   2.591   1.046 -0.7805 -0.9582  0.0552
  259MPD2    C5 3977   1.360   2.652   1.153 -0.3400  0.1737  0.0813
  259MPD2     H 3978   1.560   2.356   1.037  2.9711  1.9687  1.6755
  259MPD2    H1 3979   1.239   2.640   0.993  2.4977  3.0742 -1.2167
  259MPD2    H2 3980   1.483   2.677   1.316 -0.3071  0.1983  0.8749
  259MPD2    H3 3981   1.320   2.750   1.177 -0.4415  0.6776 -2.1238
  259MPD2     N 3982   1.361   2.409   0.888 -0.3826  0.2714  0.2477
  259MPD2    H5 3983   1.419   2.332   0.857  0.4971 -0.5969  4.0547
  259MPD2    N1 3984   1.665   2.459   1.244 -0.3355 -0.1483 -0.7813
  259MPD2    H7 3985   1.693   2.368   1.208 -1.6271  0.5045 -3.4574
  260TMC3    C1 3986   1.265   2.362   0.678 -0.3947 -0.1656  0.0233
  260TMC3    C2 3987   1.356   2.407   0.587 -0.0975 -0.2774 -0.0822
  260TMC3    C3 3988   1.414   2.326   0.495 -0.8273  0.2017 -0.4049
  260TMC3    C4 3989   1.258   2.222   0.694  0.1004 -0.1430  0.1426
  260TMC3    C5 3990   1.316   2.135   0.597 -0.2795  0.1413  0.1021
  260TMC3    C6 3991   1.397   2.185   0.497  0.8365 -0.0101 -0.3583
  260TMC3     C 3992   1.258   2.446   0.799 -0.3812  0.2676  0.1216
  260TMC3     O 3993   1.166   2.526   0.810 -0.0318  0.0949  0.0071
  260TMC3     H 3994   1.387   2.511   0.578  0.5192 -0.4414  0.1799
  260TMC3    H1 3995   1.198   2.190   0.778 -1.3412 -1.6733 -1.4996
  260TMC3    H2 3996   1.422   2.115   0.418 -0.2760 -0.0363 -0.6875
  260TMC3    C7 3997   1.278   1.991   0.591  0.2017 -0.6958 -0.2008
  260TMC3    C8 3998   1.516   2.373   0.397  0.1651 -0.5249  0.0325
  260TMC3    O1 3999   1.327   1.926   0.502  0.1327 -0.0921 -0.0371
  260TMC3    O2 4000   1.514   2.493   0.366 -0.4430 -0.4408 -0.2019
  261MPD2     C 4001   2.699   0.183  13.031 -0.1105 -0.0594  0.3028
  261MPD2    C1 4002   2.814   0.224  12.968  0.2978  0.5542 -0.2569
  261MPD2    C2 4003   2.811   0.256  12.836 -0.3704 -0.4263 -0.0067
  261MPD2    C3 4004   2.690   0.246  12.763  0.2133  0.2854  0.0990
  261MPD2    C4 4005   2.574   0.202  12.821  0.2781 -0.1852 -0.9620
  261MPD2    C5 4006   2.581   0.176  12.957  0.2172  0.3733 -0.0131
  261MPD2     H 4007   2.901   0.279  12.780  0.5836  2.0940  2.5687
  261MPD2    H1 4008   2.479   0.191  12.770  0.4989  1.2142 -1.6799
  261MPD2    H2 4009   2.702   0.150  13.134 -0.3907 -0.2274  0.2579
  261MPD2    H3 4010   2.488   0.137  12.995  1.5003  0.1563  2.8389
  261MPD2     N 4011   2.706   0.300  12.632 -0.3531  0.1386 -0.2171
  261MPD2    H5 4012   2.803   0.323  12.613 -0.7590  1.5953 -0.5788
  261MPD2    N1 4013   2.940   0.233  13.033  0.9520 -0.4253 -0.0272
  261MPD2    H7 4014   3.019   0.268  12.979  0.1071  1.7338  0.1525
  262TMC3    C1 4015   2.669   0.335  12.402  0.0255 -0.3423 -0.2790
  262TMC3    C2 4016   2.630   0.455  12.352 -0.0945  0.0241  0.2110
  262TMC3    C3 4017   2.714   0.524  12.272 -0.0942 -0.0143  0.0545
  262TMC3    C4 4018   2.800   0.295  12.386  0.2011 -0.0632 -0.5872
  262TMC3    C5 4019   2.876   0.361  12.296 -0.3255 -0.9385 -0.0767
  262TMC3    C6 4020   2.831   0.471  12.227  0.7258 -0.7386  0.1150
  262TMC3     C 4021   2.612   0.291  12.528 -0.5785 -1.1168  0.1773
  262TMC3     O 4022   2.491   0.289  12.541  0.0295  0.5516 -0.2320
  262TMC3     H 4023   2.538   0.507  12.378 -1.1863 -1.7829 -0.0818
  262TMC3    H1 4024   2.833   0.201  12.428 -1.1972  0.3447  1.4197
  262TMC3    H2 4025   2.902   0.526  12.165 -0.1011  0.7555  0.4845
  262TMC3    C7 4026   3.020   0.331  12.302 -0.1128  0.1283  0.8111
  262TMC3    C8 4027   2.679   0.653  12.216 -0.3881  0.2232 -0.2597
  262TMC3    O1 4028   3.065   0.311  12.415  0.0737  0.0082  0.3294
  262TMC3    O2 4029   2.770   0.731  12.189  0.3014 -0.1498 -0.2794
  263MPD2     C 4030   4.228   4.664  11.355  0.9217 -1.1860 -0.0064
  263MPD2    C1 4031   4.319   4.701  11.449  0.5535 -0.4815 -0.0393
  263MPD2    C2 4032   4.397   0.074  11.423 -0.2110  0.4870  0.8449
  263MPD2    C3 4033   4.384   0.142  11.303  0.1328 -0.4653 -0.6693
  263MPD2    C4 4034   4.289   0.103  11.211  0.2299  0.0702  0.4774
  263MPD2    C5 4035   4.207   4.728  11.236 -0.5419 -0.0023  0.0453
  263MPD2     H 4036   4.476   0.108  11.489 -0.0443 -0.2829  1.0327
  263MPD2    H1 4037   4.275   0.161  11.121  0.1417  0.8846  1.0205
  263MPD2    H2 4038   4.156   4.587  11.378 -0.8797  1.0466  1.7491
  263MPD2    H3 4039   4.129   4.701  11.166  0.2463  0.0671 -0.8667
  263MPD2     N 4040   4.468   0.253  11.281  0.6738 -0.5865 -0.6332
  263MPD2    H5 4041   4.525   0.280  11.361 -0.3383 -1.2412  0.3231
  263MPD2    N1 4042   4.307   4.636  11.577  0.1938  0.0387 -0.0783
  263MPD2    H7 4043   4.227   4.577  11.595  0.0754  0.3508  0.4410
  264TMC3    C1 4044   4.604   0.405  11.170 -0.0602  0.6544  0.7491
  264TMC3    C2 4045   4.583   0.503  11.263 -0.9177  0.3080 -0.2777
  264TMC3    C3 4046   4.657   0.619  11.243  0.2143  0.2723 -0.2084
  264TMC3    C4 4047   4.668   0.424  11.055 -0.5573  0.2952 -0.4428
  264TMC3    C5 4048   4.726   0.550  11.031  0.1749  0.2357 -0.2326
  264TMC3    C6 4049   4.720   0.648  11.127 -0.1999 -0.8945  0.7694
  264TMC3     C 4050   4.517   0.290  11.160 -0.0812  0.0367 -0.4618
  264TMC3     O 4051   4.479   0.257  11.049  0.1259  0.5011 -0.0654
  264TMC3     H 4052   4.557   0.493  11.368 -1.4164  2.4379 -0.1877
  264TMC3    H1 4053   4.686   0.340  10.988 -2.1344 -0.1278 -0.3333
  264TMC3    H2 4054   0.023   0.747  11.107 -0.6791 -0.7858  0.3736
  264TMC3    C7 4055   0.055   0.581  10.904  0.4899 -0.9450  0.0993
  264TMC3    C8 4056   4.620   0.736  11.324 -0.3233 -0.5186  0.0393
  264TMC3    O1 4057   0.135   0.676  10.910 -0.2051 -0.2722 -0.4935
  264TMC3    O2 4058   4.670   0.840  11.280  0.8982  0.1750  0.3320
  265MPD2     C 4059   1.069   0.074  15.541 -0.4344  0.2370 -0.1878
  265MPD2    C1 4060   1.129   0.186  15.500 -0.2563  0.0694  0.5932
  265MPD2    C2 4061   1.207   0.192  15.388 -0.3805  0.2412 -0.2636
  265MPD2    C3 4062   1.249   0.072  15.330  0.1193 -0.4440 -0.2014
  265MPD2    C4 4063   1.198   4.695  15.386  0.6490 -0.0167  0.0020
  265MPD2    C5 4064   1.111   4.695  15.488 -0.0794  0.0098 -0.4080
  265MPD2     H 4065   1.231   0.290  15.348 -0.2093 -0.8062 -2.7566
  265MPD2    H1 4066   1.229   4.602  15.339  2.3776  0.3031  0.4756
  265MPD2    H2 4067   0.999   0.079  15.624 -2.1872  2.5664 -1.8078
  265MPD2    H3 4068   1.069   4.601  15.524  0.0109  0.3785  0.6550
  265MPD2     N 4069   1.344   0.060  15.224  0.1190 -0.2978 -0.1411
  265MPD2    H5 4070   1.365   4.705  15.186  2.2033  0.2000 -0.1925
  265MPD2    N1 4071   1.107   0.309  15.565  0.8051  0.0160 -0.7444
  265MPD2    H7 4072   1.136   0.391  15.512 -1.5447  0.3764 -1.4707
  266TMC3    C1 4073   1.053   0.472  15.712 -0.1428 -0.2231 -0.6760
  266TMC3    C2 4074   1.102   0.523  15.832 -0.8666 -0.0809 -0.2633
  266TMC3    C3 4075   1.095   0.658  15.861  0.0308  0.2205 -0.3535
  266TMC3    C4 4076   1.001   0.549  15.611  0.0729  0.1012  0.5715
  266TMC3    C5 4077   0.998   0.683  15.644  1.0077 -0.0533 -0.2268
  266TMC3    C6 4078   1.044   0.736  15.764  0.3760  0.1034  0.0629
  266TMC3     C 4079   1.062   0.331  15.694 -0.6563 -0.1226  0.0717
  266TMC3     O 4080   1.039   0.257  15.787 -0.0259  0.0962  0.1163
  266TMC3     H 4081   1.151   0.449  15.894 -1.2138 -1.4393 -1.6002
  266TMC3    H1 4082   0.949   0.502  15.528 -0.7970 -2.2204  2.4441
  266TMC3    H2 4083   1.038   0.844  15.767  1.9617  0.1346  1.7623
  266TMC3    C7 4084   0.927   0.770  15.554  0.4970  0.2842  0.0025
  266TMC3    C8 4085   1.177   0.712  15.970 -0.1893  0.2304  0.0356
  266TMC3    O1 4086   0.835   0.837  15.598  0.3433 -0.1940  0.2488
  266TMC3    O2 4087   1.235   0.617  16.026 -0.2653  0.0143  0.0664
  267MPD2     C 4088   3.683   2.159   0.420 -0.3916 -0.1587 -0.2599
  267MPD2    C1 4089   3.760   2.210   0.315  0.1331  0.0704 -1.1056
  267MPD2    C2 4090   3.700   2.218   0.188  0.2102 -0.3564  0.0631
  267MPD2    C3 4091   3.567   2.173   0.167  0.0410 -0.5375 -0.2182
  267MPD2    C4 4092   3.497   2.123   0.271  0.2896 -0.1702 -0.2073
  267MPD2    C5 4093   3.553   2.119   0.393  0.0817  0.2398 -0.2747
  267MPD2     H 4094   3.759   2.252   0.104 -3.5229  0.2990 -2.3349
  267MPD2    H1 4095   3.396   2.085   0.260  0.2199  0.9797 -3.5246
  267MPD2    H2 4096   3.722   2.147   0.521 -1.4061 -1.1789  0.0053
  267MPD2    H3 4097   3.489   2.084   0.473  0.9819  1.3261  0.9183
  267MPD2     N 4098   3.502   2.169   0.040 -0.1051  0.6156 -0.3480
  267MPD2    H5 4099   3.412   2.121   0.038  0.4911 -0.3754 -3.0943
  267MPD2    N1 4100   3.892   2.235   0.349 -0.2585  0.4160 -0.7558
  267MPD2    H7 4101   3.925   2.199   0.438  0.8627  1.7614 -0.6342
  268TMC3    C1 4102   4.117   2.285   0.310  1.0687 -0.7988 -0.1347
  268TMC3    C2 4103   4.210   2.343   0.229  0.3994  0.0458 -0.4185
  268TMC3    C3 4104   4.327   2.398   0.281 -0.2176  0.2413  0.8032
  268TMC3    C4 4105   4.148   2.271   0.443 -0.5852  0.1594 -0.2729
  268TMC3    C5 4106   4.273   2.313   0.491 -0.5398  0.3365  0.3347
  268TMC3    C6 4107   4.361   2.380   0.413 -0.0452 -0.0581  0.0633
  268TMC3     C 4108   3.983   2.294   0.263 -0.2796  0.4165 -0.6446
  268TMC3     O 4109   3.962   2.337   0.149 -0.1238 -0.8673  0.3784
  268TMC3     H 4110   4.187   2.343   0.123  4.1865 -1.5672 -1.2431
  268TMC3    H1 4111   4.072   2.221   0.502 -0.1606  0.0545  0.1796
  268TMC3    H2 4112   4.460   2.406   0.449 -0.2078  0.4503  0.1374
  268TMC3    C7 4113   4.330   2.267   0.615  0.0257 -0.0210 -0.0959
  268TMC3    C8 4114   4.421   2.459   0.186 -0.5824  1.1981 -0.8153
  268TMC3    O1 4115   4.450   2.267   0.630 -0.7840 -0.0414  0.5393
  268TMC3    O2 4116   4.526   2.490   0.238 -0.6286  0.2693 -0.2103
  269MPD2     C 4117   4.196   0.923  15.542 -0.4032 -0.0740 -0.1264
  269MPD2    C1 4118   4.099   0.977  15.620 -0.0701 -0.2954 -0.2959
  269MPD2    C2 4119   4.038   1.102  15.596 -0.3937  0.0708  0.1106
  269MPD2    C3 4120   4.090   1.178  15.487 -0.0379 -0.3137 -0.0556
  269MPD2    C4 4121   4.188   1.121  15.406 -0.3535  0.4690 -0.5264
  269MPD2    C5 4122   4.233   0.992  15.427 -0.4305 -0.6335 -0.3684
  269MPD2     H 4123   3.970   1.148  15.667  0.7420  1.2695  0.4289
  269MPD2    H1 4124   4.232   1.171  15.321  1.3073  0.6797  0.4627
  269MPD2    H2 4125   4.236   0.826  15.569  2.2167  0.6630 -1.3838
  269MPD2    H3 4126   4.314   0.962  15.362 -0.8422  1.2369 -1.7472
  269MPD2     N 4127   4.035   1.306  15.459  0.1297  0.3680  0.9820
  269MPD2    H5 4128   3.969   1.342  15.528 -1.9037 -1.1267 -0.1802
  269MPD2    N1 4129   4.068   0.899  15.735 -0.3490 -0.0161  0.2153
  269MPD2    H7 4130   4.114   0.809  15.744 -1.5230 -1.0171 -3.9393
  270TMC3    C1 4131   3.919   0.779  15.861 -0.1490  0.0522 -0.4539
  270TMC3    C2 4132   3.788   0.733  15.850  0.8890  0.3111 -0.3033
  270TMC3    C3 4133   3.759   0.605  15.884  0.3854  0.3354 -0.5209
  270TMC3    C4 4134   4.019   0.699  15.913  0.5913  0.8598 -0.9247
  270TMC3    C5 4135   3.976   0.573  15.956  0.7576  0.6940  0.9257
  270TMC3    C6 4136   3.848   0.527  15.948  0.6919 -0.1805 -0.1887
  270TMC3     C 4137   3.951   0.905  15.804 -0.2168  0.3570 -0.4612
  270TMC3     O 4138   3.867   0.993  15.806 -1.0312  0.2312 -0.1431
  270TMC3     H 4139   3.713   0.794  15.800 -1.4880 -1.6973  0.8151
  270TMC3    H1 4140   4.122   0.726  15.933  1.0748 -0.3362 -1.8148
  270TMC3    H2 4141   3.831   0.423  15.973  0.6348  0.2643  1.5785
  270TMC3    C7 4142   4.082   0.485  16.006 -0.2125 -0.0949 -0.1497
  270TMC3    C8 4143   3.639   0.548  15.834 -0.1660  0.4099  0.3320
  270TMC3    O1 4144   4.191   0.505  15.963 -0.1326  0.3507 -0.6080
  270TMC3    O2 4145   3.532   0.613  15.828 -0.6685 -0.2197  0.6207
  271MPD2     C 4146   3.223   0.838  14.204 -0.0185  0.6596 -0.6336
  271MPD2    C1 4147   3.126   0.792  14.290 -0.4246  0.1962  0.4780
  271MPD2    C2 4148   2.996   0.837  14.282  0.6399  0.0526  0.0406
  271MPD2    C3 4149   2.950   0.934  14.200  0.0383 -0.5361 -0.4507
  271MPD2    C4 4150   3.045   0.980  14.115 -0.0504  0.5623  0.2643
  271MPD2    C5 4151   3.174   0.931  14.113 -0.2466 -0.3251 -0.1337
  271MPD2     H 4152   2.930   0.794  14.357 -1.5979  1.9731 -0.8332
  271MPD2    H1 4153   3.026   1.057  14.041  2.4846  1.7432  0.8223
  271MPD2    H2 4154   3.324   0.800  14.201 -1.0334 -2.2617  1.7802
  271MPD2    H3 4155   3.244   0.973  14.041  0.3001  0.0066  0.5956
  271MPD2     N 4156   2.818   0.975  14.193  0.5255  0.2746  0.3030
  271MPD2    H5 4157   2.802   1.050  14.126  1.7517  0.0464 -0.2335
  271MPD2    N1 4158   3.145   0.703  14.396 -0.1310 -0.0252  0.3767
  271MPD2    H7 4159   3.063   0.677  14.450 -0.2093 -0.5751 -0.0032
  272TMC3    C1 4160   3.263   0.544  14.530 -0.5264  0.3045 -0.8409
  272TMC3    C2 4161   3.359   0.448  14.511 -0.5330 -0.5525  0.2296
  272TMC3    C3 4162   3.401   0.382  14.620 -0.0735  0.0806 -0.0252
  272TMC3    C4 4163   3.203   0.570  14.651  0.5665  0.1930 -0.7805
  272TMC3    C5 4164   3.260   0.509  14.755  0.4851  0.0136 -0.2601
  272TMC3    C6 4165   3.359   0.411  14.749  0.3979  0.3527  0.2452
  272TMC3     C 4166   3.266   0.641  14.423  0.1598  0.6422 -0.2334
  272TMC3     O 4167   3.376   0.653  14.371 -0.4185 -0.2238 -0.0932
  272TMC3     H 4168   3.392   0.426  14.410 -1.9414  0.2555 -0.4010
  272TMC3    H1 4169   3.131   0.651  14.656  1.0858  0.5098  1.3264
  272TMC3    H2 4170   3.404   0.369  14.838 -0.0437  0.7931  0.6671
  272TMC3    C7 4171   3.197   0.527  14.875  0.8834  0.9828 -0.0556
  272TMC3    C8 4172   3.514   0.297  14.595 -0.0738 -0.1326  0.3228
  272TMC3    O1 4173   3.077   0.551  14.868  0.2890 -0.1741  1.0184
  272TMC3    O2 4174   3.567   0.308  14.483  0.0981  0.3200 -0.6310
  273MPD2     C 4175   4.731   3.659  11.661 -0.1995 -0.3824  0.0947
  273MPD2    C1 4176   4.651   3.740  11.733 -0.1015  0.3007  0.2906
  273MPD2    C2 4177   4.516   3.730  11.705  0.0840  0.2849 -0.6457
  273MPD2    C3 4178   4.464   3.629  11.625  0.4810 -0.0484 -0.5926
  273MPD2    C4 4179   4.546   3.539  11.565 -0.4030  0.1577 -0.0666
  273MPD2    C5 4180   4.679   3.561  11.579 -0.0104  0.3306  0.5938
  273MPD2     H 4181   4.449   3.808  11.739 -1.2904 -0.2784 -2.0290
  273MPD2    H1 4182   4.502   3.465  11.498 -0.9131  0.0606  0.3806
  273MPD2    H2 4183   0.103   3.661  11.669 -0.1258  0.2237 -1.0148
  273MPD2    H3 4184   0.016   3.504  11.523 -0.7268  0.9518 -0.9902
  273MPD2     N 4185   4.323   3.618  11.606 -0.0635  0.7117 -0.0522
  273MPD2    H5 4186   4.267   3.685  11.658  0.0626  1.4251 -0.8475
  273MPD2    N1 4187   4.702   3.815  11.844  1.0187  0.0895 -0.7122
  273MPD2    H7 4188   0.066   3.803  11.855  0.7874 -0.8858  0.2916
  274TMC3    C1 4189   4.112   3.574  11.532  0.3232 -0.2493  0.1027
  274TMC3    C2 4190   4.053   3.604  11.413 -0.1862  0.3903  1.0273
  274TMC3    C3 4191   3.977   3.719  11.398  0.2523  0.2850  0.2064
  274TMC3    C4 4192   4.069   3.637  11.645 -0.3649 -0.8703  0.5474
  274TMC3    C5 4193   3.999   3.750  11.621  0.6445  0.1546  0.0787
  274TMC3    C6 4194   3.936   3.792  11.507 -0.0440 -0.0467 -0.5930
  274TMC3     C 4195   4.252   3.544  11.519 -0.2878 -0.3002  0.6265
  274TMC3     O 4196   4.292   3.463  11.437 -0.2701  0.3883 -0.0936
  274TMC3     H 4197   4.097   3.566  11.322 -0.9499  3.5005 -0.6405
  274TMC3    H1 4198   4.119   3.626  11.740  0.7162 -0.1177  0.0676
  274TMC3    H2 4199   3.906   3.896  11.504  0.4288  0.0341 -2.4802
  274TMC3    C7 4200   4.003   3.853  11.720 -0.0341 -0.2166  0.3762
  274TMC3    C8 4201   3.988   3.794  11.266  0.2816 -0.0856 -0.2908
  274TMC3    O1 4202   4.116   3.885  11.760  0.4903 -0.5120  0.0697
  274TMC3    O2 4203   4.074   3.756  11.189  0.1211 -0.2708 -0.0949
  275MPD2     C 4204   4.485   1.767  14.308 -0.3809  0.0532 -0.1751
  275MPD2    C1 4205   4.522   1.654  14.386  0.8389 -0.1768 -1.5012
  275MPD2    C2 4206   4.424   1.554  14.400  0.0410 -0.0523 -0.3297
  275MPD2    C3 4207   4.304   1.566  14.336  0.1529  0.7688 -0.3944
  275MPD2    C4 4208   4.275   1.674  14.255  0.5451 -0.1546 -0.5626
  275MPD2    C5 4209   4.362   1.781  14.255 -0.0938  0.9240  0.6265
  275MPD2     H 4210   4.453   1.459  14.444  0.2946 -0.4584 -1.3729
  275MPD2    H1 4211   4.175   1.696  14.220  1.8019  0.8188 -3.5774
  275MPD2    H2 4212   4.548   1.854  14.292 -0.6470  0.2835  0.0402
  275MPD2    H3 4213   4.332   1.873  14.207 -0.5523  0.1820 -0.5007
  275MPD2     N 4214   4.202   1.480  14.364  0.0807 -0.4842 -0.0102
  275MPD2    H5 4215   4.107   1.505  14.342  0.2493 -0.6692 -0.9459
  275MPD2    N1 4216   4.644   1.644  14.448 -0.5632  0.4683 -0.1298
  275MPD2    H7 4217   4.649   1.562  14.507 -0.7140  0.5740  0.0278
  276TMC3    C1 4218   0.141   1.687  14.493 -0.0759 -0.2304  0.0510
  276TMC3    C2 4219   0.156   1.553  14.506  0.7857 -0.4212  1.2390
  276TMC3    C3 4220   0.261   1.514  14.581  0.1336  0.8305 -0.0545
  276TMC3    C4 4221   0.222   1.781  14.548  0.1733  0.0488 -0.1550
  276TMC3    C5 4222   0.315   1.733  14.631  0.0185  0.2095 -0.4043
  276TMC3    C6 4223   0.333   1.600  14.651  0.0075 -0.2138  0.1709
  276TMC3     C 4224   0.018   1.729  14.435  0.0599  0.1889 -0.7961
  276TMC3     O 4225   0.014   1.840  14.386  0.0570  0.2133  0.5698
  276TMC3     H 4226   0.096   1.481  14.452  1.7603 -1.3114  1.3462
  276TMC3    H1 4227   0.197   1.886  14.540 -0.5132  0.0759  2.3261
  276TMC3    H2 4228   0.402   1.561  14.726 -1.0435 -2.0456  0.1693
  276TMC3    C7 4229   0.358   1.829  14.737 -0.3738 -0.4624 -0.8695
  276TMC3    C8 4230   0.307   1.378  14.577  0.3864 -0.4572  0.6234
  276TMC3    O1 4231   0.359   1.777  14.848  0.0990  0.1028  0.0347
  276TMC3    O2 4232   0.428   1.363  14.608  0.2241 -0.2733  0.4801
  277MPD2     C 4233   1.589   0.917  13.293  0.1503 -0.5525 -0.2205
  277MPD2    C1 4234   1.453   0.923  13.313 -0.1983  0.0275 -0.1558
  277MPD2    C2 4235   1.387   0.809  13.352 -0.0605 -0.0249 -0.1278
  277MPD2    C3 4236   1.452   0.690  13.380  0.3991  0.1873  0.1414
  277MPD2    C4 4237   1.586   0.687  13.356  0.6716  0.0960  0.3918
  277MPD2    C5 4238   1.653   0.802  13.329  0.0263  0.1036 -0.0442
  277MPD2     H 4239   1.279   0.804  13.365 -0.1023 -1.4775 -1.0852
  277MPD2    H1 4240   1.650   0.601  13.374  1.2853  0.3475 -0.5670
  277MPD2    H2 4241   1.645   1.007  13.269  0.6578 -0.5049  1.2028
  277MPD2    H3 4242   1.760   0.801  13.318 -0.0118  1.3317 -0.5569
  277MPD2     N 4243   1.379   0.588  13.431  0.4696  0.6485  0.8640
  277MPD2    H5 4244   1.278   0.587  13.444  0.4781 -0.4905  0.8690
  277MPD2    N1 4245   1.389   1.052  13.293  0.2390 -0.1794  0.4759
  277MPD2    H7 4246   1.452   1.128  13.270  0.0247 -0.2701 -0.4066
  278TMC3    C1 4247   1.329   0.389  13.536  0.1301 -0.1877 -0.1102
  278TMC3    C2 4248   1.320   0.259  13.498 -0.0661 -0.1570 -0.3400
  278TMC3    C3 4249   1.242   0.176  13.573 -0.1307  0.1741 -0.1630
  278TMC3    C4 4250   1.265   0.447  13.642 -0.3190  0.8305 -0.3484
  278TMC3    C5 4251   1.176   0.368  13.708 -0.5485  0.6100  0.8355
  278TMC3    C6 4252   1.164   0.233  13.678 -0.2920  0.3276 -0.1187
  278TMC3     C 4253   1.427   0.469  13.466  0.7836 -0.3880 -0.0685
  278TMC3     O 4254   1.526   0.412  13.423  0.4951 -0.4333  0.6999
  278TMC3     H 4255   1.370   0.220  13.410  0.6460 -2.0976  0.9366
  278TMC3    H1 4256   1.289   0.548  13.671  1.5854 -0.3822  2.2608
  278TMC3    H2 4257   1.113   0.163  13.744 -0.2960 -0.4932 -0.9792
  278TMC3    C7 4258   1.125   0.417  13.838  0.5333  0.4050  0.7257
  278TMC3    C8 4259   1.211   0.042  13.535 -0.4690  0.0555 -0.3116
  278TMC3    O1 4260   1.171   0.525  13.879 -0.2367 -0.1960 -0.3331
  278TMC3    O2 4261   1.118   4.729  13.590  0.3889  0.2408 -0.6689
  279MPD2     C 4262   0.675   0.233  17.664 -0.5765 -0.7454  0.5775
  279MPD2    C1 4263   0.735   0.348  17.712  0.0933 -0.5993  0.4015
  279MPD2    C2 4264   0.787   0.437  17.625 -0.1640  0.2391 -0.4279
  279MPD2    C3 4265   0.773   0.416  17.490 -0.0607  0.2782  0.6038
  279MPD2    C4 4266   0.739   0.293  17.441  0.1665  0.1737 -0.0922
  279MPD2    C5 4267   0.686   0.200  17.529 -0.6601 -0.3863 -0.3159
  279MPD2     H 4268   0.838   0.522  17.668  0.7611  0.0976 -1.2524
  279MPD2    H1 4269   0.740   0.264  17.336 -0.2212  0.8743 -0.2876
  279MPD2    H2 4270   0.630   0.158  17.728 -1.8321 -0.9390 -0.5451
  279MPD2    H3 4271   0.651   0.105  17.490 -0.7979  0.5095 -2.3502
  279MPD2     N 4272   0.803   0.515  17.391 -0.0340 -0.5761 -0.0618
  279MPD2    H5 4273   0.788   0.483  17.296  0.3381  1.6589 -0.8692
  279MPD2    N1 4274   0.733   0.388   0.100  0.2172  0.3996 -0.8211
  279MPD2    H7 4275   0.762   0.484   0.119  1.3239  0.3266 -2.1552
  280TMC3    C1 4276   0.709   0.388   0.331  0.5346  0.3115 -0.6371
  280TMC3    C2 4277   0.736   0.321   0.447  0.6921  0.1286 -0.1538
  280TMC3    C3 4278   0.772   0.397   0.553  0.2841  0.2785  0.0534
  280TMC3    C4 4279   0.700   0.520   0.329 -0.5613  0.6134  0.3661
  280TMC3    C5 4280   0.725   0.593   0.437  0.6439 -0.5607  0.1245
  280TMC3    C6 4281   0.757   0.535   0.554  0.2693  0.6645  0.1120
  280TMC3     C 4282   0.697   0.310   0.212 -0.1952 -0.1576 -0.5899
  280TMC3     O 4283   0.699   0.190   0.219  0.1916  0.2780  0.2683
  280TMC3     H 4284   0.747   0.214   0.438  0.9328  0.0611  0.9228
  280TMC3    H1 4285   0.666   0.576   0.242 -0.5893 -0.7368 -0.4794
  280TMC3    H2 4286   0.774   0.593   0.645 -2.4543  1.5275  0.0436
  280TMC3    C7 4287   0.666   0.727   0.449 -0.1188  0.2478 -0.1410
  280TMC3    C8 4288   0.812   0.324   0.676  0.7272 -0.4838  1.4052
  280TMC3    O1 4289   0.683   0.785   0.554 -0.5539  0.5125 -0.1757
  280TMC3    O2 4290   0.851   0.391   0.768 -0.3311  0.3981 -0.2259
  281TMC3    C1 4291   4.334   1.095  13.449  0.2024  0.2496  0.8423
  281TMC3    C2 4292   4.335   1.136  13.315  0.2056 -0.0224 -0.1920
  281TMC3    C3 4293   4.366   1.040  13.220 -0.2558  0.3849 -0.0432
  281TMC3    C4 4294   4.354   0.955  13.485  0.0118  0.3890  0.0316
  281TMC3    C5 4295   4.389   0.872  13.384  0.0735 -0.4238 -0.1164
  281TMC3    C6 4296   4.401   0.911  13.252 -0.1344  0.1528 -0.5749
  281TMC3     C 4297   4.252   1.163  13.541  0.2494 -0.0405 -0.2827
  281TMC3     O 4298   4.273   1.128  13.657 -0.7388 -0.5794  0.3143
  281TMC3     H 4299   4.345   1.241  13.290 -0.7091 -0.1999 -1.3129
  281TMC3    H1 4300   4.338   0.924  13.587 -1.6598  1.8906  0.2272
  281TMC3    H2 4301   4.426   0.833  13.181  0.6165 -2.5241  2.7000
  281TMC3    C7 4302   4.397   0.728  13.416  0.2083  0.4659  1.2445
  281TMC3    C8 4303   4.388   1.075  13.077  0.5235  0.3080 -0.4230
  281TMC3    O1 4304   4.453   0.662  13.332  0.4803 -0.1237  0.0670
  281TMC3    O2 4305   4.485   1.013  13.029 -0.0635  0.1268  0.3454
  282MPD2     C 4306   1.167   1.817  15.011  0.4044 -0.5379 -0.1168
  282MPD2    C1 4307   1.109   1.936  14.979  0.2820  0.1632  0.2934
  282MPD2    C2 4308   1.038   1.959  14.863  0.7242 -0.2829  0.0908
  282MPD2    C3 4309   1.031   1.861  14.760 -0.1691  0.5148 -0.0622
  282MPD2    C4 4310   1.110   1.749  14.783 -0.4163  0.3426  0.1233
  282MPD2    C5 4311   1.169   1.728  14.900 -0.2698  0.3016  0.0321
  282MPD2     H 4312   0.995   2.057  14.847  0.1595 -0.4849  0.3780
  282MPD2    H1 4313   1.107   1.672  14.707  3.3701  0.9740 -0.6826
  282MPD2    H2 4314   1.219   1.787  15.101 -1.9950  0.0699  1.4509
  282MPD2    H3 4315   1.196   1.625  14.920  0.6145  0.6509  0.6293
  282MPD2     N 4316   0.979   1.907  14.634  0.0509  0.0560 -0.1115
  282MPD2    H5 4317   0.934   1.999  14.631  1.2005  0.5486 -1.9634
  282MPD2    N1 4318   1.106   2.035  15.079  0.5087  0.3498  0.8289
  282MPD2    H7 4319   1.042   2.114  15.072 -2.1525 -1.8871  0.1854
  283TMC3    C1 4320   1.150   2.151  15.284 -0.6796  0.0464  0.7623
  283TMC3    C2 4321   1.253   2.218  15.337 -0.2521  0.1182 -0.6524
  283TMC3    C3 4322   1.224   2.299  15.448 -0.9321 -0.4580 -0.6537
  283TMC3    C4 4323   1.023   2.147  15.335 -0.4246  0.2337 -0.0753
  283TMC3    C5 4324   1.000   2.219  15.447  0.1608 -1.7187  0.1786
  283TMC3    C6 4325   1.093   2.302  15.509 -0.1925 -0.0221  0.3111
  283TMC3     C 4326   1.186   2.043  15.193  0.7735 -0.2897  0.3781
  283TMC3     O 4327   1.283   1.981  15.227 -0.3633 -0.0551 -0.0181
  283TMC3     H 4328   1.352   2.211  15.295 -0.5668  2.6508 -1.8137
  283TMC3    H1 4329   0.954   2.079  15.287  0.2091 -0.9644  0.6989
  283TMC3    H2 4330   1.073   2.365  15.596  1.2948  0.1846  0.5072
  283TMC3    C7 4331   0.885   2.182  15.524  0.4084  0.2518 -0.6241
  283TMC3    C8 4332   1.319   2.391  15.501  0.0402 -0.4825  0.5779
  283TMC3    O1 4333   0.872   2.253  15.619 -0.4633  0.0031  0.3820
  283TMC3    O2 4334   1.350   2.389  15.622 -0.0112 -0.3903 -0.0181
  284MPD2     C 4335   3.951   1.574  12.184 -0.0541 -0.2921 -0.4628
  284MPD2    C1 4336   4.052   1.623  12.112 -0.2883 -0.0585 -0.3860
  284MPD2    C2 4337   4.171   1.550  12.104  1.0254 -0.1118 -0.0830
  284MPD2    C3 4338   4.192   1.426  12.165  0.1162 -0.3147 -0.6638
  284MPD2    C4 4339   4.086   1.379  12.237  0.0342  0.4034  0.6149
  284MPD2    C5 4340   3.969   1.448  12.241 -0.0074  0.2916  0.2593
  284MPD2     H 4341   4.245   1.591  12.036 -1.2582  0.7018 -2.0712
  284MPD2    H1 4342   4.086   1.275  12.269  2.0787  0.7853  1.9058
  284MPD2    H2 4343   3.854   1.623  12.178 -0.6951 -1.2882  1.7362
  284MPD2    H3 4344   3.890   1.401  12.299 -0.1844 -1.3374 -1.3274
  284MPD2     N 4345   4.301   1.343  12.143  0.4440 -0.3802 -0.2768
  284MPD2    H5 4346   4.294   1.247  12.174 -0.4767 -0.2527 -0.1135
  284MPD2    N1 4347   4.058   1.747  12.057  0.0198  0.1913 -0.0559
  284MPD2    H7 4348   4.147   1.774  12.018  0.3808 -0.2129  0.4938
  285TMC3    C1 4349   4.036   1.976  12.036 -0.6976 -0.0679 -0.0772
  285TMC3    C2 4350   4.172   1.975  12.035  1.0344 -0.8759  0.1579
  285TMC3    C3 4351   4.228   2.066  11.952 -0.1010 -0.5920  0.2074
  285TMC3    C4 4352   3.960   2.067  11.969  0.7166  0.6266 -0.5485
  285TMC3    C5 4353   4.021   2.158  11.886  0.4257 -0.4125 -0.6182
  285TMC3    C6 4354   4.160   2.159  11.883  0.0630  0.5902 -0.4357
  285TMC3     C 4355   3.966   1.848  12.070 -0.0087 -0.2798  0.1487
  285TMC3     O 4356   3.843   1.843  12.080 -0.0993 -0.2731  0.0095
  285TMC3     H 4357   4.228   1.914  12.104  0.2069 -2.4467 -0.5726
  285TMC3    H1 4358   3.853   2.066  11.987  0.6667 -1.6299 -0.8696
  285TMC3    H2 4359   4.204   2.230  11.815 -1.7107  3.0302  0.9837
  285TMC3    C7 4360   3.959   2.206  11.761 -0.8837  0.1147 -0.0525
  285TMC3    C8 4361   4.344   2.015  11.887  0.1691  0.3911  0.4240
  285TMC3    O1 4362   4.027   2.286  11.699  0.1215 -0.1924 -0.5712
  285TMC3    O2 4363   4.368   1.900  11.921  0.2522  0.1104  0.9369
  286MPD2     C 4364   4.503   4.273   1.480 -0.4354 -0.5291  0.2222
  286MPD2    C1 4365   4.577   4.391   1.475 -1.3156  0.4125  0.3658
  286MPD2    C2 4366   4.710   4.387   1.512 -0.6256 -0.2502 -0.1803
  286MPD2    C3 4367   0.042   4.264   1.541  0.3396  0.2402  0.6336
  286MPD2    C4 4368   4.705   4.148   1.528 -0.1411  0.0232 -0.1250
  286MPD2    C5 4369   4.570   4.155   1.497 -0.3522  0.3256 -0.1906
  286MPD2     H 4370   0.032   4.478   1.519  0.3546 -1.1422  3.6008
  286MPD2    H1 4371   0.020   4.055   1.548 -0.0023  0.4079  1.3157
  286MPD2    H2 4372   4.399   4.261   1.454 -0.8964  1.2458  1.1823
  286MPD2    H3 4373   4.517   4.061   1.489 -0.3843  0.3363 -0.1050
  286MPD2     N 4374   0.181   4.251   1.569  0.6644  0.4901 -0.4182
  286MPD2    H5 4375   0.219   4.158   1.550  0.7614  0.7656 -1.5545
  286MPD2    N1 4376   4.520   4.516   1.427 -0.3292  0.0662  0.2241
  286MPD2    H7 4377   4.588   4.591   1.436  0.2966 -0.3211 -1.3446
  287TMC3    C1 4378   0.403   4.329   1.553  0.5102 -1.3264 -0.3977
  287TMC3    C2 4379   0.418   4.278   1.432  0.7920  0.3740  0.8814
  287TMC3    C3 4380   0.545   4.291   1.381  0.6759 -0.3415  0.6533
  287TMC3    C4 4381   0.497   4.383   1.628  0.2070  0.3612  0.8820
  287TMC3    C5 4382   0.618   4.412   1.567 -0.1815 -1.1034 -0.5141
  287TMC3    C6 4383   0.655   4.347   1.446 -0.1783  0.2209  0.4053
  287TMC3     C 4384   0.268   4.355   1.593 -0.4151  0.5357 -0.1732
  287TMC3     O 4385   0.249   4.464   1.648  0.3950 -0.1729  0.4390
  287TMC3     H 4386   0.340   4.231   1.372  1.1134  0.1389  0.6473
  287TMC3    H1 4387   0.484   4.418   1.729  2.2453  1.3507  0.8111
  287TMC3    H2 4388   0.742   4.380   1.390  1.4946 -0.1213  2.8045
  287TMC3    C7 4389   0.723   4.460   1.653 -0.2062 -0.0423 -0.2836
  287TMC3    C8 4390   0.572   4.224   1.256 -0.3909 -0.0145 -0.0846
  287TMC3    O1 4391   0.688   4.525   1.747 -0.3472  0.0861  0.0841
  287TMC3    O2 4392   0.503   4.123   1.232  0.1800  0.0381 -0.4241
  288TMC3    C1 4393   1.989   0.002  14.621 -0.8889 -0.1448 -0.1913
  288TMC3    C2 4394   1.861   4.706  14.574 -0.4261  0.2252 -0.0851
  288TMC3    C3 4395   1.808   0.062  14.492  0.0473 -0.7400 -0.4296
  288TMC3    C4 4396   2.046   0.128  14.608 -0.2303  0.2694 -0.2972
  288TMC3    C5 4397   1.975   0.224  14.539 -0.0227  0.8239  0.3562
  288TMC3    C6 4398   1.862   0.186  14.478  0.5031 -0.2283 -0.1036
  288TMC3     C 4399   2.053   4.648  14.712 -0.0816 -0.0249 -0.1006
  288TMC3     O 4400   1.978   4.575  14.771 -0.7088 -0.1775  0.2315
  288TMC3     H 4401   1.823   4.604  14.567 -0.1639  0.0028  1.6308
  288TMC3    H1 4402   2.125   0.167  14.670 -0.4065  0.2562 -0.0633
  288TMC3    H2 4403   1.822   0.240  14.393  0.5777 -1.2681 -0.8025
  288TMC3    C7 4404   2.041   0.345  14.499 -1.5170  0.4010  0.1796
  288TMC3    C8 4405   1.689   0.031  14.414 -0.1402 -0.7323 -0.3304
  288TMC3    O1 4406   2.162   0.344  14.525  0.1922 -0.1711  0.0764
  288TMC3    O2 4407   1.679   0.095  14.311 -0.4307  0.0901 -0.4076
  289MPD2     C 4408   1.671   3.934  14.461  0.0504 -0.3633 -0.3828
  289MPD2    C1 4409   1.682   4.045  14.393  0.1225 -0.1861  0.4680
  289MPD2    C2 4410   1.597   4.068  14.287 -0.1697  0.2789  0.0057
  289MPD2    C3 4411   1.505   3.972  14.253 -0.2739 -0.0796  0.2862
  289MPD2    C4 4412   1.505   3.853  14.315 -0.1342 -0.4005 -0.3872
  289MPD2    C5 4413   1.581   3.838  14.426 -0.9547  0.1956 -0.3467
  289MPD2     H 4414   1.572   4.167  14.250  0.8962 -0.0302 -1.5363
  289MPD2    H1 4415   1.430   3.778  14.295  0.5781 -1.2354  0.0386
  289MPD2    H2 4416   1.732   3.920  14.549 -0.4157 -2.7901 -0.4243
  289MPD2    H3 4417   1.584   3.747  14.485  0.9838 -0.1784 -1.0399
  289MPD2     N 4418   1.408   3.986  14.153 -0.1512 -0.1659  0.0684
  289MPD2    H5 4419   1.341   3.911  14.148 -0.7881  0.4359 -0.4983
  289MPD2    N1 4420   1.783   4.138  14.437 -0.4288  0.3154 -0.5348
  289MPD2    H7 4421   1.859   4.084  14.478 -1.3324 -1.6553 -1.4432
  290TMC3    C1 4422   1.262   4.105  14.005 -0.4895  0.0315  0.4351
  290TMC3    C2 4423   1.206   4.228  13.989 -0.5369  0.1752 -0.5348
  290TMC3    C3 4424   1.082   4.250  13.941  0.2665 -0.8975 -0.5471
  290TMC3    C4 4425   1.197   3.992  13.972 -0.3564  0.3814  0.1762
  290TMC3    C5 4426   1.083   4.013  13.911 -0.0053 -0.2707  0.6560
  290TMC3    C6 4427   1.022   4.137  13.900 -1.1205 -0.2127  0.2755
  290TMC3     C 4428   1.389   4.102  14.075 -0.0645 -0.3801 -0.2139
  290TMC3     O 4429   1.463   4.199  14.066 -0.0119  0.5450 -0.0204
  290TMC3     H 4430   1.265   4.304  14.040 -0.7583 -1.3465  1.9798
  290TMC3    H1 4431   1.239   3.892  13.974 -0.9993  0.1175  0.9120
  290TMC3    H2 4432   0.926   4.154  13.853 -0.8037 -0.6662 -0.5266
  290TMC3    C7 4433   1.049   3.916  13.803  0.0289 -0.2351 -0.0528
  290TMC3    C8 4434   0.998   4.335  14.021  0.2780 -0.6991 -0.6160
  290TMC3    O1 4435   1.008   3.965  13.697  0.0051  0.2590 -0.0782
  290TMC3    O2 4436   0.888   4.287  14.039 -0.1528  0.2242  0.0310
  291MPD2     C 4437   1.141   4.209   0.123 -0.2803  0.3051  0.3340
  291MPD2    C1 4438   1.236   4.113   0.132 -0.0767 -0.0464 -0.5977
  291MPD2    C2 4439   1.366   4.141   0.139  0.5575 -0.1713  1.4162
  291MPD2    C3 4440   1.400   4.277   0.140 -0.3648 -0.3195 -0.1525
  291MPD2    C4 4441   1.304   4.375   0.123  0.8143 -0.6234  0.0315
  291MPD2    C5 4442   1.168   4.343   0.121 -0.2564  0.4074 -0.2644
  291MPD2     H 4443   1.439   4.067   0.168  0.1011 -1.0461  0.3015
  291MPD2    H1 4444   1.315   4.482   0.116 -0.2546 -0.4707  0.7131
  291MPD2    H2 4445   1.038   4.173   0.122 -0.7128  1.4245  3.1834
  291MPD2    H3 4446   1.093   4.421   0.117  0.1959  0.7807 -1.4875
  291MPD2     N 4447   1.538   4.315   0.140 -0.5764 -0.2376  0.3069
  291MPD2    H5 4448   1.596   4.237   0.172  2.1271  1.2250 -1.0542
  291MPD2    N1 4449   1.202   3.974   0.147  0.3125 -0.3339 -0.3933
  291MPD2    H7 4450   1.280   3.913   0.166 -0.3218 -1.7493 -2.3072
  292TMC3    C1 4451   1.066   3.792   0.206  1.3893  0.9757 -0.4888
  292TMC3    C2 4452   1.139   3.777   0.316 -0.5570 -0.0044  0.9428
  292TMC3    C3 4453   1.132   3.659   0.376  0.1422 -0.0500 -0.4060
  292TMC3    C4 4454   0.989   3.698   0.143 -0.1188 -0.0451  0.1988
  292TMC3    C5 4455   0.986   3.577   0.211  0.0118 -0.7475 -0.3573
  292TMC3    C6 4456   1.060   3.559   0.331 -0.2050  0.5448 -0.2261
  292TMC3     C 4457   1.074   3.923   0.147  0.3330  0.3593  0.6685
  292TMC3     O 4458   0.971   3.955   0.089 -0.4081  0.6455 -0.2669
  292TMC3     H 4459   1.196   3.862   0.354 -1.1026  0.1279  1.4617
  292TMC3    H1 4460   0.952   3.713   0.042 -0.3461 -0.1618  0.2649
  292TMC3    H2 4461   1.065   3.468   0.389  1.2389  1.1320  0.5696
  292TMC3    C7 4462   0.904   3.463   0.159  0.4449 -0.2178  0.1715
  292TMC3    C8 4463   1.207   3.646   0.498 -0.4377 -0.1881  0.4420
  292TMC3    O1 4464   0.933   3.351   0.198 -0.2181 -0.0124 -0.5684
  292TMC3    O2 4465   1.306   3.721   0.508 -0.0502  0.0575  0.1163
  293MPD2     C 4466   2.791   0.590  12.906 -0.9396 -0.5785  0.1932
  293MPD2    C1 4467   2.704   0.562  13.011  0.2435 -0.5900  0.0437
  293MPD2    C2 4468   2.753   0.563  13.139  0.6342 -0.0520 -0.4878
  293MPD2    C3 4469   2.879   0.613  13.172 -0.1134  0.1960  0.3537
  293MPD2    C4 4470   2.963   0.641  13.067  0.2897 -0.3067  0.8074
  293MPD2    C5 4471   2.919   0.628  12.930 -1.1460 -0.1264 -0.9194
  293MPD2     H 4472   2.686   0.537  13.220  0.5772  1.4738 -0.0447
  293MPD2    H1 4473   3.063   0.676  13.088  1.3843 -2.7417 -0.3145
  293MPD2    H2 4474   2.758   0.597  12.803  0.0936  1.6146  0.0191
  293MPD2    H3 4475   2.987   0.647  12.848 -0.1087  0.0824 -0.0178
  293MPD2     N 4476   2.915   0.642  13.306 -0.2953 -0.2078 -0.1287
  293MPD2    H5 4477   2.838   0.628  13.371  1.9261 -1.0198  2.3456
  293MPD2    N1 4478   2.562   0.538  12.994  0.1758  0.0614 -1.0858
  293MPD2    H7 4479   2.503   0.523  13.075  1.7001  1.3206  0.2769
  294TMC3    C1 4480   2.354   0.541  12.887  0.2523  0.6125  0.2321
  294TMC3    C2 4481   2.337   0.406  12.914 -0.6245  0.3273  0.2553
  294TMC3    C3 4482   2.219   0.353  12.861 -0.7686  0.8675 -0.4108
  294TMC3    C4 4483   2.272   0.611  12.801 -0.1876  0.2658 -0.1141
  294TMC3    C5 4484   2.171   0.548  12.745 -1.0619 -0.0166  0.5772
  294TMC3    C6 4485   2.134   0.425  12.783 -0.2718 -0.2855 -0.0847
  294TMC3     C 4486   2.493   0.572  12.880  0.4882  0.5200 -0.2063
  294TMC3     O 4487   2.526   0.635  12.783  0.6604 -0.3835  0.2355
  294TMC3     H 4488   2.410   0.351  12.972 -0.8944 -0.8267 -0.5106
  294TMC3    H1 4489   2.320   0.699  12.760  1.5174  0.4418  2.2993
  294TMC3    H2 4490   2.039   0.380  12.755 -0.2397 -0.2535 -0.2450
  294TMC3    C7 4491   2.092   0.630  12.661  0.0135  0.2949  0.7087
  294TMC3    C8 4492   2.207   0.211  12.865  0.1622 -0.0306 -0.4458
  294TMC3    O1 4493   2.086   0.749  12.685 -0.5273 -0.2499 -0.3503
  294TMC3    O2 4494   2.249   0.160  12.967 -0.8140  0.0746 -0.1588
  295MPD2     C 4495   4.197   4.534   0.469 -0.5024 -0.0777  0.4688
  295MPD2    C1 4496   4.064   4.515   0.494 -0.0083  0.1292  0.2390
  295MPD2    C2 4497   4.014   4.456   0.617 -0.1145 -0.2466 -0.7318
  295MPD2    C3 4498   4.112   4.392   0.691 -0.0938  0.0853 -0.7251
  295MPD2    C4 4499   4.251   4.406   0.660  0.6455 -0.1573  0.2310
  295MPD2    C5 4500   4.293   4.488   0.557  0.4375  0.1997  0.2157
  295MPD2     H 4501   3.907   4.455   0.634 -0.0376 -1.1494 -0.3338
  295MPD2    H1 4502   4.332   4.356   0.713  0.7395 -0.7350 -0.4594
  295MPD2    H2 4503   4.227   4.594   0.384  2.0249 -0.2737  1.2402
  295MPD2    H3 4504   4.395   4.490   0.522  0.2228 -0.2581 -0.4559
  295MPD2     N 4505   4.066   4.313   0.804 -0.0837  0.2119  0.3596
  295MPD2    H5 4506   4.137   4.276   0.866 -0.6545 -1.0926  0.2199
  295MPD2    N1 4507   3.962   4.545   0.400 -1.0515 -0.2538 -0.0153
  295MPD2    H7 4508   3.869   4.535   0.439 -2.0706 -1.1509 -2.6965
  296TMC3    C1 4509   3.919   4.192   0.945 -0.3426  0.4316  0.2686
  296TMC3    C2 4510   3.786   4.184   0.982  0.4123  0.1830  0.2582
  296TMC3    C3 4511   3.735   4.070   1.026 -0.3083 -0.1639  0.0974
  296TMC3    C4 4512   4.004   4.085   0.957  0.0268  1.2529 -0.0774
  296TMC3    C5 4513   3.948   3.973   1.015 -0.5401 -0.1740  1.2567
  296TMC3    C6 4514   3.816   3.961   1.052  0.6883 -0.0387  0.4533
  296TMC3     C 4515   3.936   4.279   0.833 -0.5476  0.5399 -0.5172
  296TMC3     O 4516   3.828   4.307   0.774  0.0920 -0.2766 -0.4370
  296TMC3     H 4517   3.730   4.277   0.982 -1.9283 -1.2246  0.1480
  296TMC3    H1 4518   4.106   4.099   0.925  0.2159  1.0035  0.4207
  296TMC3    H2 4519   3.780   3.862   1.075 -0.0540 -0.3345 -2.0243
  296TMC3    C7 4520   4.034   3.865   1.050 -0.1429 -0.0595 -0.1690
  296TMC3    C8 4521   3.605   4.028   0.967  0.4889 -0.2854  0.8347
  296TMC3    O1 4522   4.142   3.856   0.992 -0.1943  0.0483 -0.5261
  296TMC3    O2 4523   3.558   3.920   0.998  0.3124 -1.0030  0.5470
  297MPD2     C 4524   0.478   0.959  16.409 -0.2403  0.3999  0.4798
  297MPD2    C1 4525   0.442   1.005  16.288  0.9492 -0.3461 -0.1207
  297MPD2    C2 4526   0.506   1.122  16.244 -0.1725  0.1227  0.3962
  297MPD2    C3 4527   0.610   1.188  16.309 -0.3289  0.0448  0.9784
  297MPD2    C4 4528   0.643   1.140  16.433  0.0637  0.8304 -0.2442
  297MPD2    C5 4529   0.579   1.023  16.478  0.3026  0.7014 -0.5075
  297MPD2     H 4530   0.467   1.163  16.152  0.5503 -0.1005 -0.0095
  297MPD2    H1 4531   0.729   1.181  16.484 -0.4975 -1.5105  2.5993
  297MPD2    H2 4532   0.450   0.863  16.451  0.9883 -0.0346  0.3035
  297MPD2    H3 4533   0.623   0.988  16.570 -2.7315  0.1335  0.7225
  297MPD2     N 4534   0.660   1.308  16.249 -0.0442 -0.2378  0.5089
  297MPD2    H5 4535   0.630   1.330  16.154 -2.7446 -1.0014  1.1760
  297MPD2    N1 4536   0.346   0.942  16.205 -0.2929  0.4626  0.0997
  297MPD2    H7 4537   0.341   0.976  16.109  1.5691  0.3964 -0.0081
  298TMC3    C1 4538   0.135   0.860  16.143  0.0836  0.4835 -0.3234
  298TMC3    C2 4539   0.181   0.889  16.017  0.4803 -0.1176  0.2885
  298TMC3    C3 4540   0.097   0.963  15.939  0.6724  0.3255  0.5256
  298TMC3    C4 4541   0.016   0.914  16.192  0.5618 -0.4652  0.8667
  298TMC3    C5 4542   4.689   1.008  16.118 -0.0516 -0.2128 -0.2365
  298TMC3    C6 4543   4.717   1.021  15.987  0.3917  0.6612 -0.7168
  298TMC3     C 4544   0.236   0.860  16.241 -0.0758 -0.3755 -0.2743
  298TMC3     O 4545   0.198   0.825  16.353 -0.2861  0.5741 -0.2899
  298TMC3     H 4546   0.272   0.855  15.970  0.5710 -0.8709  1.0094
  298TMC3    H1 4547   4.731   0.899  16.297 -2.2414 -1.6249  0.1382
  298TMC3    H2 4548   4.657   1.073  15.913  0.3772  1.7904  0.0988
  298TMC3    C7 4549   4.617   1.110  16.191 -0.2648  0.5411  0.1791
  298TMC3    C8 4550   0.134   0.951  15.799  0.1612 -0.1106 -0.3618
  298TMC3    O1 4551   4.609   1.100  16.312  0.7437 -0.0948  0.3885
  298TMC3    O2 4552   0.199   0.851  15.764  0.6787 -0.1464 -0.6117
  299MPD2     C 4553   1.098   1.743  10.810 -0.1674 -0.3812  0.5958
  299MPD2    C1 4554   1.076   1.622  10.858  0.5984  0.1507 -0.3366
  299MPD2    C2 4555   0.974   1.538  10.812  0.2376 -0.1670  0.2130
  299MPD2    C3 4556   0.902   1.575  10.703  0.0227  0.0473  0.5113
  299MPD2    C4 4557   0.928   1.701  10.648  0.2348  0.0721 -0.6596
  299MPD2    C5 4558   1.018   1.784  10.703 -0.2648  0.5366  1.0921
  299MPD2     H 4559   0.953   1.439  10.851  1.1847 -1.0792 -1.5815
  299MPD2    H1 4560   0.865   1.735  10.567  3.0266  2.6208 -1.7683
  299MPD2    H2 4561   1.174   1.811  10.845  0.3344  0.4100 -2.0332
  299MPD2    H3 4562   1.034   1.881  10.657 -1.2260  0.3129  0.2799
  299MPD2     N 4563   0.797   1.490  10.666 -0.1426 -0.4022 -0.3249
  299MPD2    H5 4564   0.785   1.407  10.723 -0.3120 -0.3940 -0.3498
  299MPD2    N1 4565   1.155   1.590  10.970  0.1582 -0.0186  0.0963
  299MPD2    H7 4566   1.205   1.672  11.003 -1.3188  1.4062 -1.1854
  300TMC3    C1 4567   0.622   1.387  10.536 -0.2366  0.4505  0.0014
  300TMC3    C2 4568   0.598   1.347  10.408  0.2569  0.4496  0.1315
  300TMC3    C3 4569   0.507   1.246  10.385 -0.3575 -0.9596 -0.4091
  300TMC3    C4 4570   0.563   1.329  10.643  0.5081  0.6252 -0.6366
  300TMC3    C5 4571   0.474   1.230  10.618  0.0384  0.0107 -0.8909
  300TMC3    C6 4572   0.457   1.187  10.494 -0.8590 -0.0441 -0.3679
  300TMC3     C 4573   0.719   1.495  10.554 -0.1397 -0.2766  0.3361
  300TMC3     O 4574   0.734   1.569  10.455  0.5367  0.1460  0.5066
  300TMC3     H 4575   0.651   1.389  10.323 -0.0987  1.4476  0.4023
  300TMC3    H1 4576   0.573   1.373  10.741  1.2087  1.6333 -1.1626
  300TMC3    H2 4577   0.381   1.113  10.470  1.2066 -1.4492 -2.5990
  300TMC3    C7 4578   0.399   1.149  10.722  0.7330 -0.4820  0.6822
  300TMC3    C8 4579   0.411   1.285  10.284  1.0632 -0.8995  0.3444
  300TMC3    O1 4580   0.378   1.030  10.689 -0.1132 -0.8630  0.2232
  300TMC3    O2 4581   0.315   1.212  10.256  0.1101  0.2444 -0.4758
  301MPD2     C 4582   3.703   2.158   0.785  0.5578 -0.3820  0.2082
  301MPD2    C1 4583   3.570   2.149   0.747 -0.2154  0.3774 -0.2570
  301MPD2    C2 4584   3.512   2.023   0.751  0.1881  0.6478  0.4823
  301MPD2    C3 4585   3.574   1.915   0.805  0.2010  0.1778  0.5007
  301MPD2    C4 4586   3.706   1.936   0.842  0.2645  0.5095  0.1238
  301MPD2    C5 4587   3.767   2.052   0.836 -0.5613  0.8785  0.0454
  301MPD2     H 4588   3.408   2.005   0.727  0.0884  1.6172  0.1958
  301MPD2    H1 4589   3.768   1.859   0.888 -2.1796 -1.6497 -0.2040
  301MPD2    H2 4590   3.762   2.248   0.774  2.1880 -1.4427  0.1659
  301MPD2    H3 4591   3.870   2.054   0.869 -1.0027  0.5179  1.4878
  301MPD2     N 4592   3.520   1.787   0.807  0.0498 -0.0607 -0.1260
  301MPD2    H5 4593   3.574   1.713   0.851  1.4698  1.1996  0.2345
  301MPD2    N1 4594   3.488   2.253   0.697 -0.3448 -0.4755 -0.3599
  301MPD2    H7 4595   3.390   2.230   0.680 -0.7736  0.9027  0.2846
  302TMC3    C1 4596   3.366   1.609   0.744  0.2011  0.6848  0.8041
  302TMC3    C2 4597   3.423   1.520   0.830 -0.3855 -1.0019 -0.3732
  302TMC3    C3 4598   3.396   1.389   0.825  0.2805  0.2459  0.6612
  302TMC3    C4 4599   3.276   1.569   0.648 -0.1878  1.2444 -0.3531
  302TMC3    C5 4600   3.234   1.435   0.660  0.4694 -0.5534 -0.4535
  302TMC3    C6 4601   3.304   1.345   0.740  0.3141  0.5160 -0.5566
  302TMC3     C 4602   3.397   1.749   0.754  0.2352 -0.0232  0.1745
  302TMC3     O 4603   3.313   1.816   0.697  0.0827  0.0799  0.4169
  302TMC3     H 4604   3.490   1.556   0.908  1.2544 -3.3172 -0.7105
  302TMC3    H1 4605   3.233   1.646   0.586 -1.2509 -1.7472 -3.3328
  302TMC3    H2 4606   3.277   1.240   0.738 -2.1494  1.1636 -0.9419
  302TMC3    C7 4607   3.139   1.388   0.565  0.6707  0.0852 -0.0712
  302TMC3    C8 4608   3.443   1.307   0.941 -0.5326 -0.3545  0.7205
  302TMC3    O1 4609   3.152   1.276   0.525 -0.5980  0.4010 -0.0697
  302TMC3    O2 4610   3.520   1.360   1.019 -0.1263  0.0923 -0.1177
  303MPD2     C 4611   3.076   0.255  10.202 -0.1586 -0.3651  0.1983
  303MPD2    C1 4612   3.020   0.288  10.325 -0.0816 -0.1308  0.4205
  303MPD2    C2 4613   2.936   0.402  10.332 -0.2509  0.2443 -0.2987
  303MPD2    C3 4614   2.907   0.479  10.220  0.1143 -0.1334 -1.2034
  303MPD2    C4 4615   2.975   0.448  10.111 -0.3032  0.5730 -0.2651
  303MPD2    C5 4616   3.048   0.333  10.095  0.2346  0.2120  0.1891
  303MPD2     H 4617   2.883   0.432  10.422 -0.0650  1.1252 -0.4843
  303MPD2    H1 4618   2.968   0.504  10.019  1.6651  1.9867  0.4535
  303MPD2    H2 4619   3.137   0.168  10.182  1.2380  0.5568  0.4467
  303MPD2    H3 4620   3.083   0.301   9.998 -0.0534 -0.7236  0.3915
  303MPD2     N 4621   2.813   0.589  10.219 -0.4064 -0.1694  0.4318
  303MPD2    H5 4622   2.785   0.613  10.124 -3.9911 -3.0586  0.7732
  303MPD2    N1 4623   3.048   0.203  10.438  0.2667  0.0679  0.0368
  303MPD2    H7 4624   3.109   0.122  10.432  2.0687  1.3568  1.0032
  304TMC3    C1 4625   3.028   0.102  10.651  0.2320  0.0754 -0.1755
  304TMC3    C2 4626   3.051   0.147  10.770 -0.3459 -0.1916  0.4702
  304TMC3    C3 4627   2.997   0.078  10.878  0.2004  0.3931 -0.4959
  304TMC3    C4 4628   2.946   4.733  10.635  0.1638 -0.6363  0.3476
  304TMC3    C5 4629   2.895   4.657  10.739  0.0994 -0.1688 -0.0782
  304TMC3    C6 4630   2.921   4.703  10.858  0.0034 -0.1024 -0.3990
  304TMC3     C 4631   2.991   0.212  10.560  0.0926 -0.3254  0.2898
  304TMC3     O 4632   2.923   0.296  10.620 -0.2330  0.0164  0.4694
  304TMC3     H 4633   3.113   0.235  10.778 -0.5294 -0.1635  1.5889
  304TMC3    H1 4634   2.916   4.713  10.533 -0.4692  2.5998 -0.0973
  304TMC3    H2 4635   2.927   4.627  10.935 -3.5384 -0.5254 -0.5231
  304TMC3    C7 4636   2.759   4.636  10.716  0.1293  0.2086 -0.1568
  304TMC3    C8 4637   2.941   0.146  10.991  0.3740  0.0471  0.1798
  304TMC3    O1 4638   2.723   4.602  10.607  1.1282  0.8493 -0.6303
  304TMC3    O2 4639   2.834   0.094  11.023  0.4291  0.0856  0.3816
  305MPD2     C 4640   1.190   2.424  13.860  0.6901  0.4577  0.4183
  305MPD2    C1 4641   1.331   2.443  13.853 -0.9746 -0.0854  0.3490
  305MPD2    C2 4642   1.384   2.415  13.721  0.1934 -0.5142  0.3929
  305MPD2    C3 4643   1.310   2.368  13.615 -0.0387 -0.0110 -0.4427
  305MPD2    C4 4644   1.179   2.342  13.639 -0.0819 -0.4165  0.5430
  305MPD2    C5 4645   1.123   2.371  13.754 -0.2367  0.2104 -0.2934
  305MPD2     H 4646   1.491   2.431  13.708  0.1668 -0.7350 -0.1332
  305MPD2    H1 4647   1.110   2.295  13.570 -1.0540  1.0218  0.5242
  305MPD2    H2 4648   1.132   2.461  13.944 -1.6208 -1.1103 -0.4853
  305MPD2    H3 4649   1.016   2.363  13.772  0.2305 -1.6051  1.6956
  305MPD2     N 4650   1.348   2.349  13.482  0.0671  0.1934 -0.5786
  305MPD2    H5 4651   1.268   2.324  13.424  0.5880 -2.5102 -0.1023
  305MPD2    N1 4652   1.416   2.494  13.954  0.0833  0.4805  0.2791
  305MPD2    H7 4653   1.512   2.511  13.926 -0.3979  0.3683 -1.3971
  306TMC3    C1 4654   1.492   2.506  14.184  0.1564  0.4688 -0.0887
  306TMC3    C2 4655   1.491   2.436  14.303  0.6647  0.0399  0.3478
  306TMC3    C3 4656   1.618   2.424  14.365  0.0057  0.1427 -0.8332
  306TMC3    C4 4657   1.593   2.587  14.147 -0.5467 -0.7822 -0.0224
  306TMC3    C5 4658   1.704   2.592  14.225  0.3873 -0.4203 -0.0871
  306TMC3    C6 4659   1.726   2.496  14.325 -0.1071  0.0470 -0.5873
  306TMC3     C 4660   1.381   2.495  14.088  0.2755 -0.2165  0.4547
  306TMC3     O 4661   1.277   2.455  14.141  0.2949  0.0039 -0.9122
  306TMC3     H 4662   1.404   2.377  14.327  0.0550  0.7558 -0.0991
  306TMC3    H1 4663   1.583   2.658  14.065 -1.5417 -0.1994  0.6003
  306TMC3    H2 4664   1.823   2.471  14.365  0.5345  0.5828 -1.8136
  306TMC3    C7 4665   1.783   2.720  14.241 -0.6538 -0.3360 -0.6233
  306TMC3    C8 4666   1.633   2.363  14.492  0.2712 -0.4409  0.4595
  306TMC3    O1 4667   1.779   2.806  14.154 -0.0838  0.0678 -0.1605
  306TMC3    O2 4668   1.748   2.353  14.536 -0.2748 -0.5432 -0.5823
  307MPD2     C 4669   4.640   0.622   0.828  0.2588 -0.4830  0.4146
  307MPD2    C1 4670   4.583   0.750   0.797  0.5963  0.3670 -0.6933
  307MPD2    C2 4671   4.469   0.794   0.861 -0.7309 -0.1415  0.3400
  307MPD2    C3 4672   4.413   0.720   0.960 -0.1809 -0.5427 -0.8654
  307MPD2    C4 4673   4.468   0.599   0.995 -0.1759 -0.9182 -0.2400
  307MPD2    C5 4674   4.582   0.558   0.933 -0.0839  0.4462  0.2993
  307MPD2     H 4675   4.418   0.888   0.846 -1.1373 -0.2640  0.9400
  307MPD2    H1 4676   4.434   0.539   1.078 -0.9648 -0.8802 -0.5363
  307MPD2    H2 4677   4.731   0.580   0.787  1.6289  2.4533  0.4728
  307MPD2    H3 4678   4.623   0.458   0.946 -0.6291  0.1336 -0.3806
  307MPD2     N 4679   4.288   0.772   1.013  0.4540 -0.4853  0.0683
  307MPD2    H5 4680   4.252   0.859   0.975 -1.7153  0.0776  3.3621
  307MPD2    N1 4681   4.640   0.829   0.692 -0.0521 -0.1650  0.0519
  307MPD2    H7 4682   4.612   0.926   0.686  1.6317  0.3282  0.1715
  308TMC3    C1 4683   3.852   0.741   1.100  0.1227  0.1541  0.1546
  308TMC3    C2 4684   3.825   0.875   1.100  0.3062 -1.5240 -0.8305
  308TMC3    C3 4685   3.933   0.954   1.103 -0.2931  0.2268  0.9452
  308TMC3    C4 4686   3.971   0.681   1.115 -0.5766  0.4703  0.4615
  308TMC3    C5 4687   4.077   0.762   1.114 -0.2401  0.0428 -0.9183
  308TMC3    C6 4688   4.059   0.903   1.098 -0.8648 -0.0970 -0.2924
  308TMC3     C 4689   3.736   0.655   1.083  0.4606  0.1700  0.5129
  308TMC3     O 4690   3.743   0.549   1.146  0.5323 -0.1012 -0.0078
  308TMC3     H 4691   3.726   0.919   1.099  1.8286  1.8981 -3.0131
  308TMC3    H1 4692   3.980   0.573   1.109 -0.8632  0.5014 -0.5890
  308TMC3    H2 4693   4.148   0.959   1.123  0.2371 -1.8072 -0.4017
  308TMC3    C7 4694   4.209   0.705   1.106  0.3746  0.0673 -0.1335
  308TMC3    C8 4695   3.918   1.091   1.135  1.2006  0.6459 -0.1732
  308TMC3    O1 4696   4.222   0.590   1.149  0.1014 -0.6041  0.2456
  308TMC3    O2 4697   3.808   1.122   1.177 -0.3305  0.1134  0.0832
  309MPD2     C 4698   3.228   1.112  17.401 -0.7295  0.2252 -0.4799
  309MPD2    C1 4699   3.152   1.111  17.281 -0.6346  0.3640 -0.3179
  309MPD2    C2 4700   3.013   1.122  17.294 -0.2840 -0.5819 -1.0098
  309MPD2    C3 4701   2.950   1.129  17.423 -0.1342 -0.0703  0.2658
  309MPD2    C4 4702   3.026   1.129  17.536 -0.1387 -0.3570  0.3002
  309MPD2    C5 4703   3.163   1.114  17.522  0.2423  0.0542 -0.1644
  309MPD2     H 4704   2.952   1.106  17.205  0.2976 -0.7447 -1.3821
  309MPD2    H1 4705   2.982   1.157  17.631  1.3512 -2.4701  1.6050
  309MPD2    H2 4706   3.336   1.105  17.404 -0.7161  0.1271 -1.2060
  309MPD2    H3 4707   3.223   1.121  17.611  3.2492 -0.0409 -2.1985
  309MPD2     N 4708   2.814   1.126  17.438 -0.3457 -0.4634 -0.5887
  309MPD2    H5 4709   2.774   1.124  17.531  1.3077 -2.8435  0.0913
  309MPD2    N1 4710   3.200   1.110  17.148  0.4736  0.0523  0.4095
  309MPD2    H7 4711   3.131   1.129  17.076  1.9315  0.0270 -0.9723
  310TMC3    C1 4712   3.380   1.099  16.979  0.4969  0.9216  0.0593
  310TMC3    C2 4713   3.295   1.165  16.895 -0.3818  0.5272 -1.0700
  310TMC3    C3 4714   3.344   1.193  16.773 -0.3333  0.4000 -0.4508
  310TMC3    C4 4715   3.511   1.066  16.956 -0.3411  0.4361 -0.0790
  310TMC3    C5 4716   3.557   1.087  16.828  0.4896 -0.4902 -0.1427
  310TMC3    C6 4717   3.472   1.157  16.746  0.6811  0.0157  0.6827
  310TMC3     C 4718   3.334   1.083  17.119  0.1421  0.0381 -0.2978
  310TMC3     O 4719   3.422   1.048  17.192 -0.3530 -0.2535  0.1236
  310TMC3     H 4720   3.196   1.198  16.922  0.5961  1.2125  1.6427
  310TMC3    H1 4721   3.574   1.004  17.019 -0.3799 -0.5322 -0.9884
  310TMC3    H2 4722   3.504   1.165  16.642 -0.1184 -1.6274  0.3057
  310TMC3    C7 4723   3.645   0.993  16.769  0.1876 -0.3461  0.4757
  310TMC3    C8 4724   3.278   1.274  16.676  0.3812 -0.3674  0.1268
  310TMC3    O1 4725   3.629   0.975  16.648 -0.9699  0.2763 -0.4359
  310TMC3    O2 4726   3.156   1.279  16.665 -0.4218  0.5581  0.3100
  311MPD2     C 4727   0.260   2.431  12.231 -0.9664  0.5069 -0.0902
  311MPD2    C1 4728   0.299   2.395  12.359 -0.2321 -0.1377 -0.2672
  311MPD2    C2 4729   0.202   2.383  12.457  0.3174  0.1755 -0.2543
  311MPD2    C3 4730   0.072   2.377  12.426 -1.0287 -0.8574 -0.6489
  311MPD2    C4 4731   0.034   2.391  12.298  0.3604 -0.0834 -0.7350
  311MPD2    C5 4732   0.123   2.431  12.207 -0.1033 -0.1064  0.0294
  311MPD2     H 4733   0.230   2.370  12.561 -1.4071  0.3194  0.2242
  311MPD2    H1 4734   4.668   2.385  12.262 -0.3897  0.6178  1.2898
  311MPD2    H2 4735   0.330   2.443  12.148  1.3010 -1.3405  1.5566
  311MPD2    H3 4736   0.085   2.459  12.109  0.9846 -0.6161 -0.5395
  311MPD2     N 4737   4.715   2.349  12.526 -0.9900  0.6697 -0.3585
  311MPD2    H5 4738   0.025   2.344  12.616 -0.5087  1.0883 -0.5837
  311MPD2    N1 4739   0.433   2.375  12.395  0.5315  0.4794 -0.0300
  311MPD2    H7 4740   0.452   2.358  12.493  1.5324 -0.6727 -0.4180
  312TMC3    C1 4741   4.504   2.343  12.630  0.6118 -0.3680 -0.1261
  312TMC3    C2 4742   4.369   2.301  12.619  0.3496 -0.0776 -0.2129
  312TMC3    C3 4743   4.296   2.300  12.739 -0.0593 -0.6459 -0.3006
  312TMC3    C4 4744   4.555   2.389  12.749  0.4108 -0.3198 -0.1068
  312TMC3    C5 4745   4.486   2.381  12.865 -0.5592  0.4682 -0.3831
  312TMC3    C6 4746   4.358   2.330  12.864  0.0789  0.0594  0.2189
  312TMC3     C 4747   4.582   2.339  12.502 -0.7140 -0.3078 -0.5469
  312TMC3     O 4748   4.519   2.311  12.399  0.3796  0.7277  0.6840
  312TMC3     H 4749   4.330   2.273  12.522 -0.0006  0.7048 -0.3009
  312TMC3    H1 4750   4.659   2.421  12.752  0.4283 -0.7853  4.0503
  312TMC3    H2 4751   4.305   2.325  12.959  1.4112 -3.7688  0.7663
  312TMC3    C7 4752   4.516   2.479  12.963 -0.0031 -0.5789  0.2266
  312TMC3    C8 4753   4.165   2.232  12.744  0.7651 -0.4436 -0.5579
  312TMC3    O1 4754   4.558   2.583  12.924 -0.0876  0.0445  0.4145
  312TMC3    O2 4755   4.163   2.113  12.767  0.1557  0.2228 -0.2457
  313MPD2     C 4756   4.119   1.194  11.466  0.0356 -0.0833  1.0792
  313MPD2    C1 4757   4.191   1.229  11.350 -0.1717  0.9509 -0.3776
  313MPD2    C2 4758   4.225   1.130  11.266 -0.8062  0.9002 -0.1935
  313MPD2    C3 4759   4.203   1.000  11.285  0.3296  0.5851  0.0076
  313MPD2    C4 4760   4.114   0.961  11.390 -0.1657  0.4548 -0.0987
  313MPD2    C5 4761   4.079   1.063  11.480 -0.0444  0.0852 -0.4617
  313MPD2     H 4762   4.286   1.156  11.181 -1.1437 -0.6774 -0.9159
  313MPD2    H1 4763   4.093   0.857  11.411 -2.0093  1.2099  1.7099
  313MPD2    H2 4764   4.093   1.264  11.544 -1.9972  2.3323 -1.7461
  313MPD2    H3 4765   4.024   1.031  11.567  0.4101  0.2219 -0.1228
  313MPD2     N 4766   4.249   0.913  11.185  0.1943  0.1387  0.0490
  313MPD2    H5 4767   4.301   0.953  11.108 -0.5681  3.8344  1.4540
  313MPD2    N1 4768   4.207   1.364  11.309 -0.1963 -0.1097  0.0128
  313MPD2    H7 4769   4.248   1.381  11.218  2.8452 -1.7513  1.0334
  314TMC3    C1 4770   4.169   1.590  11.296 -0.7634  0.0080 -0.1374
  314TMC3    C2 4771   4.240   1.702  11.326  0.5419 -0.1463 -0.0433
  314TMC3    C3 4772   4.252   1.795  11.230 -0.5440  0.9424  0.2389
  314TMC3    C4 4773   4.094   1.573  11.183  0.5189 -0.8758 -0.1118
  314TMC3    C5 4774   4.121   1.659  11.084 -0.3593 -0.6257  0.1074
  314TMC3    C6 4775   4.202   1.772  11.101 -0.2561  0.3144 -0.9538
  314TMC3     C 4776   4.170   1.478  11.387 -0.4830  0.1366  0.6438
  314TMC3     O 4777   4.150   1.484  11.509  0.3104 -0.0925 -0.5959
  314TMC3     H 4778   4.279   1.716  11.426  0.8502  0.8083 -0.2872
  314TMC3    H1 4779   4.036   1.482  11.179 -0.8909  0.0048  0.0976
  314TMC3    H2 4780   4.224   1.851  11.029  1.4602  0.2459 -0.5184
  314TMC3    C7 4781   4.069   1.622  10.952  0.3008 -0.1626  0.2010
  314TMC3    C8 4782   4.328   1.913  11.239 -0.5298  0.4437 -0.2376
  314TMC3    O1 4783   4.021   1.512  10.951  0.1290 -0.1637  0.1613
  314TMC3    O2 4784   4.407   1.941  11.152  0.2116 -0.1725 -0.2978
  315MPD2     C 4785   4.640   0.498  17.394  0.6608 -0.2873 -0.3438
  315MPD2    C1 4786   4.702   0.539  17.508  0.5173 -0.3531  0.2118
  315MPD2    C2 4787   0.025   0.664  17.529 -0.3519  0.1466 -0.5356
  315MPD2    C3 4788   4.736   0.758  17.433  0.3275 -0.7952 -0.3833
  315MPD2    C4 4789   4.678   0.722  17.312 -0.3629 -0.1766 -0.1986
  315MPD2    C5 4790   4.641   0.590  17.294 -0.2601  0.4595 -0.6830
  315MPD2     H 4791   0.077   0.696  17.619  1.6579 -1.5870 -1.0746
  315MPD2    H1 4792   4.659   0.795  17.234  0.9307  0.8730  0.4684
  315MPD2    H2 4793   4.623   0.393  17.370  2.2461 -0.5804 -0.2348
  315MPD2    H3 4794   4.609   0.552  17.197  1.6750 -1.6473 -0.4994
  315MPD2     N 4795   0.042   0.891  17.469 -0.0525  0.1353 -0.0395
  315MPD2    H5 4796   0.073   0.901  17.565  2.2321  0.2409 -0.7938
  315MPD2    N1 4797   4.735   0.447  17.612  0.0823 -0.3047  0.1519
  315MPD2    H7 4798   0.044   0.487  17.694  1.1536 -0.6233 -0.2899
  316TMC3    C1 4799   0.101   1.112  17.470 -0.1586  0.1833  0.0030
  316TMC3    C2 4800   0.153   1.085  17.598  0.6783  0.1474  0.1338
  316TMC3    C3 4801   0.177   1.196  17.677 -0.1386 -0.2849 -0.0187
  316TMC3    C4 4802   0.074   1.244  17.428  0.3798 -0.5114  0.3114
  316TMC3    C5 4803   0.111   1.341  17.512  1.1532  0.0043 -0.5270
  316TMC3    C6 4804   0.152   1.323  17.638  0.2100 -0.1513  0.0732
  316TMC3     C 4805   0.027   1.008  17.398 -0.1847  0.0016  0.3773
  316TMC3     O 4806   4.725   1.029  17.286 -0.4152  0.0857 -0.6860
  316TMC3     H 4807   0.189   0.989  17.633 -1.6164  0.5275  3.5127
  316TMC3    H1 4808   0.024   1.252  17.332  2.6048  1.9367 -0.6205
  316TMC3    H2 4809   0.187   1.402  17.705  0.3648  0.1391 -0.3513
  316TMC3    C7 4810   0.075   1.482  17.482 -0.0179 -0.3925 -0.2110
  316TMC3    C8 4811   0.233   1.177   0.065 -0.7465 -0.0990  0.0186
  316TMC3    O1 4812   0.054   1.545  17.583  0.4738 -0.3267 -0.1159
  316TMC3    O2 4813   0.182   1.257   0.140  0.0813 -0.2025 -0.8332
  317MPD2     C 4814   1.161   3.977  12.999  1.0682  0.1968 -0.2171
  317MPD2    C1 4815   1.219   3.854  12.969 -0.0993  0.3689  0.4927
  317MPD2    C2 4816   1.340   3.818  13.035 -0.1144  0.1132 -0.4086
  317MPD2    C3 4817   1.388   3.897  13.136 -0.5786  0.0203 -0.3397
  317MPD2    C4 4818   1.328   4.014  13.159 -0.0781  0.3070 -0.2639
  317MPD2    C5 4819   1.221   4.056  13.092 -0.1923 -0.3693 -0.3931
  317MPD2     H 4820   1.382   3.726  12.996 -1.5936 -0.5665 -0.3948
  317MPD2    H1 4821   1.355   4.081  13.240 -1.9167 -1.8061  2.1185
  317MPD2    H2 4822   1.084   4.031  12.945 -0.2615 -0.2317  1.2616
  317MPD2    H3 4823   1.181   4.156  13.101  1.1667  0.1568 -0.1475
  317MPD2     N 4824   1.484   3.832  13.219 -0.3542 -0.2981 -0.0873
  317MPD2    H5 4825   1.510   3.737  13.193  0.5993 -0.1399  0.3197
  317MPD2    N1 4826   1.182   3.769  12.859 -0.0791 -0.0643 -0.1056
  317MPD2    H7 4827   1.256   3.711  12.823 -2.3218 -2.1316 -1.3930
  318TMC3    C1 4828   1.618   3.783  13.409  0.0034 -0.6369 -0.1509
  318TMC3    C2 4829   1.585   3.649  13.409 -0.5342  0.0104 -0.2011
  318TMC3    C3 4830   1.651   3.580  13.505 -0.6534  0.1377  0.5436
  318TMC3    C4 4831   1.715   3.837  13.488  0.7114 -0.6353  0.1081
  318TMC3    C5 4832   1.783   3.755  13.574 -0.1036  0.0639  0.0065
  318TMC3    C6 4833   1.760   3.622  13.581  0.6472 -0.0617 -0.3762
  318TMC3     C 4834   1.531   3.873  13.343 -0.1709 -0.7933 -0.3320
  318TMC3     O 4835   1.534   3.991  13.383 -0.8524  0.2568  0.5815
  318TMC3     H 4836   1.506   3.603  13.352  1.4991 -3.7491  0.0708
  318TMC3    H1 4837   1.741   3.942  13.487  1.4481 -0.8233 -0.4489
  318TMC3    H2 4838   1.808   3.555  13.651 -0.2707  0.2929  0.5891
  318TMC3    C7 4839   1.879   3.821  13.645 -0.1400 -0.5434 -0.0932
  318TMC3    C8 4840   1.628   3.438  13.507 -0.8689  0.5505  0.6276
  318TMC3    O1 4841   1.862   3.940  13.675 -0.7052  0.5734 -0.2857
  318TMC3    O2 4842   1.728   3.375  13.537  0.3095 -0.5866 -0.1229
  319MPD2     C 4843   2.068   0.669  16.527 -0.4821 -0.0803  0.4483
  319MPD2    C1 4844   2.083   0.553  16.604 -0.7846  0.2521 -0.2447
  319MPD2    C2 4845   2.041   0.433  16.552 -0.5923 -0.7120 -0.3728
  319MPD2    C3 4846   1.971   0.425  16.436 -0.2136 -1.0273  1.0297
  319MPD2    C4 4847   1.944   0.538  16.361 -0.0360 -0.1613  0.2994
  319MPD2    C5 4848   2.000   0.654  16.403  0.1888 -0.2405  0.7956
  319MPD2     H 4849   2.041   0.348  16.619 -1.4817  1.2566  2.1207
  319MPD2    H1 4850   1.894   0.539  16.265 -0.1882  1.7420  0.3964
  319MPD2    H2 4851   2.111   0.764  16.557  0.9880 -0.9196  0.9683
  319MPD2    H3 4852   1.976   0.749  16.355 -1.4767 -1.1047 -0.0772
  319MPD2     N 4853   1.910   0.309  16.393 -0.5179  0.7384 -0.2167
  319MPD2    H5 4854   1.873   0.308  16.299  0.5955  1.1901 -0.6553
  319MPD2    N1 4855   2.149   0.549  16.728 -0.0133  0.1003 -0.8889
  319MPD2    H7 4856   2.163   0.454  16.761  0.6897  0.1149 -1.1487
  320TMC3    C1 4857   1.850   0.100  16.375  0.7802 -0.1614  0.7298
  320TMC3    C2 4858   1.759   0.153  16.292  0.3509 -0.4524 -0.0223
  320TMC3    C3 4859   1.717   0.091  16.177  0.6793  0.2410 -0.3402
  320TMC3    C4 4860   1.905   4.718  16.339 -0.4451  0.2808  0.0196
  320TMC3    C5 4861   1.845   4.649  16.241 -0.5207  0.6837  0.0328
  320TMC3    C6 4862   1.748   4.694  16.158  0.1566 -0.8097 -0.4324
  320TMC3     C 4863   1.928   0.187  16.452  0.1182 -0.4983 -0.7285
  320TMC3     O 4864   2.016   0.140  16.521  0.4625  0.1121  0.2731
  320TMC3     H 4865   1.699   0.236  16.328  0.2727 -1.1221  1.3553
  320TMC3    H1 4866   1.996   4.685  16.387  0.0293  0.9385 -0.4253
  320TMC3    H2 4867   1.700   4.637  16.078  1.9294 -1.3590 -1.0987
  320TMC3    C7 4868   1.885   4.512  16.222  0.1432 -0.5835  0.7386
  320TMC3    C8 4869   1.669   0.176  16.073  0.1706  0.1432 -0.7170
  320TMC3    O1 4870   1.862   4.472  16.110 -0.0342  0.0953 -0.2874
  320TMC3    O2 4871   1.676   0.293  16.108 -0.9042  0.4339  0.3317
  321TMC3    C1 4872   2.279   0.627  16.910  0.2962 -0.3875  0.3242
  321TMC3    C2 4873   2.287   0.497  16.955  0.3466 -0.3368  0.4947
  321TMC3    C3 4874   2.356   0.467  17.068 -0.9234  0.1589  0.7715
  321TMC3    C4 4875   2.344   0.730  16.979  0.2282  0.2897  0.2504
  321TMC3    C5 4876   2.410   0.691  17.091 -0.3617  0.1195 -0.2568
  321TMC3    C6 4877   2.405   0.569  17.144  0.4925  0.1660  0.5080
  321TMC3     C 4878   2.203   0.655  16.794  0.7731 -0.9823  0.1336
  321TMC3     O 4879   2.193   0.776  16.766  0.2991 -0.1010 -0.0443
  321TMC3     H 4880   2.225   0.417  16.917 -3.3979  3.4875 -1.4977
  321TMC3    H1 4881   2.348   0.830  16.938 -0.9669 -0.1983 -1.0435
  321TMC3    H2 4882   2.452   0.555  17.240 -0.2960 -0.4469  0.8012
  321TMC3    C7 4883   2.556   0.725  17.079 -0.6685 -0.8018  0.4897
  321TMC3    C8 4884   2.444   0.354  17.049  0.8985 -0.8552  0.0225
  321TMC3    O1 4885   2.628   0.643  17.135 -0.7380 -0.4848 -0.0316
  321TMC3    O2 4886   2.412   0.249  16.992  0.1508 -0.5264  0.0083
  322MPD2     C 4887   1.213   1.805  13.714  0.4220  0.4922 -0.0057
  322MPD2    C1 4888   1.219   1.742  13.838 -0.8859  0.1334  0.5834
  322MPD2    C2 4889   1.242   1.599  13.842 -0.2125 -0.5451  0.2791
  322MPD2    C3 4890   1.272   1.533  13.719  0.3178 -0.4304 -0.1041
  322MPD2    C4 4891   1.265   1.598  13.601  0.2696  0.3897  0.6484
  322MPD2    C5 4892   1.226   1.729  13.603 -0.0672  0.3084  0.1150
  322MPD2     H 4893   1.254   1.542  13.934  0.0079  0.3718  0.8154
  322MPD2    H1 4894   1.288   1.557  13.503 -0.4571 -1.0817  1.0976
  322MPD2    H2 4895   1.192   1.911  13.708  0.6023  0.3850 -2.2544
  322MPD2    H3 4896   1.203   1.786  13.514  2.0058  0.3471 -0.4057
  322MPD2     N 4897   1.329   1.404  13.748 -0.1441  0.4329 -0.0306
  322MPD2    H5 4898   1.328   1.365  13.842 -0.0853 -0.2583 -0.3202
  322MPD2    N1 4899   1.209   1.826  13.954 -0.7022 -0.0315  0.4372
  322MPD2    H7 4900   1.207   1.927  13.943 -0.2561 -0.0952 -0.2379
  323TMC3    C1 4901   1.278   1.868  14.180 -0.3517  0.1299  0.6074
  323TMC3    C2 4902   1.348   1.979  14.145 -0.4866  0.0526  0.7755
  323TMC3    C3 4903   1.396   2.063  14.240 -0.4039 -0.8431 -0.0734
  323TMC3    C4 4904   1.258   1.844  14.309 -0.7698 -0.0491  0.0616
  323TMC3    C5 4905   1.310   1.933  14.406  0.8101  0.6860 -0.1638
  323TMC3    C6 4906   1.369   2.051  14.369  0.4570 -0.8023 -0.0182
  323TMC3     C 4907   1.214   1.775  14.082 -0.3055  0.3936 -0.0319
  323TMC3     O 4908   1.171   1.669  14.124  0.3526  0.3159  0.5636
  323TMC3     H 4909   1.391   1.982  14.045  0.9416 -0.9577  1.3611
  323TMC3    H1 4910   1.196   1.762  14.346  0.8961 -1.1694  0.3821
  323TMC3    H2 4911   1.412   2.116  14.445 -0.8745  1.0991 -0.8741
  323TMC3    C7 4912   1.390   1.859  14.496  0.3067 -0.1385  0.0265
  323TMC3    C8 4913   1.527   2.116  14.221  0.0603  0.7195  0.5624
  323TMC3    O1 4914   1.353   1.756  14.541  0.1128 -0.0399  0.3262
  323TMC3    O2 4915   1.603   2.096  14.317 -1.1263  0.1785  0.2232
  324MPD2     C 4916   3.103   2.951  14.317 -0.7447 -0.0201  0.6899
  324MPD2    C1 4917   3.105   3.078  14.367 -0.0888  0.4384  0.0467
  324MPD2    C2 4918   2.981   3.150  14.367  0.0443 -0.1594 -0.8424
  324MPD2    C3 4919   2.868   3.090  14.308 -0.4058 -0.6876  0.6538
  324MPD2    C4 4920   2.872   2.964  14.254 -0.4752 -0.0689  0.5247
  324MPD2    C5 4921   2.988   2.898  14.263  0.0931 -0.3636  0.0809
  324MPD2     H 4922   2.967   3.241  14.424  0.5175 -0.3934 -0.3530
  324MPD2    H1 4923   2.786   2.923  14.204  0.3387  0.5253 -1.3625
  324MPD2    H2 4924   3.188   2.883  14.308 -2.7752 -2.5477  0.5741
  324MPD2    H3 4925   2.986   2.797  14.226 -1.4486  0.7092 -2.7327
  324MPD2     N 4926   2.742   3.143  14.295 -0.3664  0.3088  0.6254
  324MPD2    H5 4927   2.671   3.078  14.264  0.4228  0.6608 -1.9085
  324MPD2    N1 4928   3.213   3.143  14.434  0.3151 -0.0326  0.3019
  324MPD2    H7 4929   3.202   3.240  14.461  0.7804  0.1965 -0.3280
  325TMC3    C1 4930   2.560   3.295  14.271 -0.1607 -0.0381  0.0035
  325TMC3    C2 4931   2.505   3.212  14.173  0.5490  0.4950  0.6251
  325TMC3    C3 4932   2.380   3.241  14.135  0.2348 -0.4683  0.2208
  325TMC3    C4 4933   2.505   3.413  14.301  0.4373  0.1914 -0.3115
  325TMC3    C5 4934   2.384   3.444  14.242  0.4621  0.0520  0.2621
  325TMC3    C6 4935   2.315   3.350  14.171 -0.5488  0.5546 -0.0930
  325TMC3     C 4936   2.697   3.272  14.322 -0.2401 -0.0547  0.2813
  325TMC3     O 4937   2.750   3.370  14.370 -0.3038  0.2920 -0.3854
  325TMC3     H 4938   2.539   3.116  14.134  0.3655  1.3595 -1.6653
  325TMC3    H1 4939   2.557   3.476  14.372  0.7603 -1.5262  0.9810
  325TMC3    H2 4940   2.207   3.357  14.163 -0.3446  2.2708 -1.3753
  325TMC3    C7 4941   2.300   3.540  14.310 -0.2935  0.6954  0.8101
  325TMC3    C8 4942   2.287   3.134  14.108 -0.2844  0.1232 -0.2611
  325TMC3    O1 4943   2.278   3.649  14.256  0.3943  0.2268  0.7693
  325TMC3    O2 4944   2.186   3.125  14.175 -0.7452  0.1176  0.1767
  326MPD2     C 4945   0.020   4.385  10.995  0.8665 -0.9681  0.3302
  326MPD2    C1 4946   0.003   4.413  10.856  0.0682  0.1298  0.4486
  326MPD2    C2 4947   0.111   4.462  10.785 -0.0715 -0.0982 -0.1946
  326MPD2    C3 4948   0.235   4.487  10.847  0.2536 -0.6127 -0.3891
  326MPD2    C4 4949   0.251   4.441  10.972 -0.0357  0.0646 -0.5545
  326MPD2    C5 4950   0.144   4.393  11.042  0.3460  0.1917 -0.0156
  326MPD2     H 4951   0.089   4.485  10.682 -0.2753  0.0357 -0.1210
  326MPD2    H1 4952   0.348   4.431  11.020 -0.0828  0.8850 -0.2835
  326MPD2    H2 4953   4.673   4.345  11.052 -0.2917  0.0036 -0.6948
  326MPD2    H3 4954   0.161   4.367  11.146 -0.1371 -0.3457 -0.0691
  326MPD2     N 4955   0.329   4.574  10.790  0.4414 -0.5896 -0.2488
  326MPD2    H5 4956   0.408   4.607  10.844 -1.5869 -1.2228  3.1549
  326MPD2    N1 4957   4.617   4.397  10.785  0.8214 -0.2671  0.5364
  326MPD2    H7 4958   4.611   4.432  10.690  0.3809  1.2577  1.1245
  327TMC3    C1 4959   4.392   4.333  10.731 -0.1670 -0.2792  0.5203
  327TMC3    C2 4960   4.399   4.396  10.616  0.5170 -0.6632  0.0916
  327TMC3    C3 4961   4.285   4.398  10.541 -0.2106 -0.0010  0.4645
  327TMC3    C4 4962   4.285   4.255  10.777  0.2854 -0.3331  0.2082
  327TMC3    C5 4963   4.174   4.254  10.691  0.2966 -0.1214  0.7681
  327TMC3    C6 4964   4.178   4.325  10.578  0.0583 -0.3954 -0.1267
  327TMC3     C 4965   4.507   4.330  10.827  0.4266 -0.4444 -0.2005
  327TMC3     O 4966   4.497   4.267  10.931 -0.0263  0.1303 -0.1847
  327TMC3     H 4967   4.487   4.446  10.577  0.4890 -0.1748  0.6609
  327TMC3    H1 4968   4.287   4.196  10.868 -1.1078  0.6765  0.9064
  327TMC3    H2 4969   4.083   4.328  10.526  0.3896  1.2568 -0.6411
  327TMC3    C7 4970   4.038   4.219  10.739  0.1838 -0.8636 -0.6882
  327TMC3    C8 4971   4.258   4.519  10.462 -0.2855 -0.5374 -0.6182
  327TMC3    O1 4972   3.939   4.262  10.683 -0.2232  0.1084  0.2302
  327TMC3    O2 4973   4.153   4.511  10.400  0.2190  0.3671 -0.1733
  328MPD2     C 4974   2.018   4.115  17.037 -0.0973 -0.3540  1.2133
  328MPD2    C1 4975   1.929   4.019  16.990 -0.0868  0.5048 -0.9178
  328MPD2    C2 4976   1.859   4.035  16.877 -0.0872 -0.3268 -0.3042
  328MPD2    C3 4977   1.872   4.150  16.801  0.1888 -0.0042 -0.6053
  328MPD2    C4 4978   1.967   4.244  16.848 -0.5674  0.7046 -0.2442
  328MPD2    C5 4979   2.034   4.230  16.962 -0.6859  0.2906  0.2117
  328MPD2     H 4980   1.792   3.955  16.846  1.6823 -1.3793 -1.3865
  328MPD2    H1 4981   1.989   4.336  16.795 -1.1860  1.4248  0.7422
  328MPD2    H2 4982   2.059   4.107  17.137 -0.3067 -1.5894  1.1963
  328MPD2    H3 4983   2.101   4.307  16.998 -1.5623  1.1075  0.0761
  328MPD2     N 4984   1.802   4.166  16.680  0.0315  0.5312 -0.2123
  328MPD2    H5 4985   1.809   4.257  16.636  0.0308  1.4040  1.6192
  328MPD2    N1 4986   1.929   3.892  17.055 -0.1274  0.0107 -0.0838
  328MPD2    H7 4987   2.001   3.884  17.126  0.0875  1.2530 -0.1682
  329TMC3    C1 4988   1.867   3.679  17.126  0.1843  0.2558 -0.5202
  329TMC3    C2 4989   1.922   3.705  17.252 -0.4462  0.5319  0.3058
  329TMC3    C3 4990   1.922   3.608  17.347 -0.1948  0.0238  0.5328
  329TMC3    C4 4991   1.808   3.555  17.097  0.4468  0.0663  0.0752
  329TMC3    C5 4992   1.824   3.460  17.191  0.4874  0.7725  0.4733
  329TMC3    C6 4993   1.872   3.485  17.320  0.4419 -0.0561 -0.3749
  329TMC3     C 4994   1.840   3.788  17.038 -0.1242 -0.5786  0.9005
  329TMC3     O 4995   1.749   3.772  16.962 -0.0223 -0.0680 -0.7360
  329TMC3     H 4996   1.983   3.794  17.267  1.1021 -0.3703 -0.6144
  329TMC3    H1 4997   1.769   3.542  16.997  3.3528  0.0086 -1.0384
  329TMC3    H2 4998   1.871   3.413  17.401  0.7081  0.6110  0.2209
  329TMC3    C7 4999   1.798   3.318  17.169  0.4672 -0.3120 -0.1761
  329TMC3    C8 5000   2.002   3.616  17.469  0.3706 -0.0585 -0.1414
  329TMC3    O1 5001   1.815   3.251  17.270 -0.5572 -0.2707 -0.3368
  329TMC3    O2 5002   2.048   3.511  17.514 -0.0217  0.2571  0.1170
  330TMC3    C1 5003   0.285   3.473   9.710 -0.4682  0.2657 -0.4533
  330TMC3    C2 5004   0.226   3.369   9.640  0.2080  0.0905  0.0050
  330TMC3    C3 5005   0.199   3.254   9.714  0.3939  0.2686  0.1779
  330TMC3    C4 5006   0.347   3.448   9.832  0.2005 -0.3678  0.2668
  330TMC3    C5 5007   0.332   3.323   9.890  0.8197 -0.3732 -0.3018
  330TMC3    C6 5008   0.256   3.223   9.834 -0.0590  0.2042  0.4639
  330TMC3     C 5009   0.217   3.599   9.709 -0.6433 -0.7438 -0.3583
  330TMC3     O 5010   0.198   3.649   9.821 -0.4055  0.4762  0.0231
  330TMC3     H 5011   0.170   3.390   9.550 -1.3036 -1.3024  0.6246
  330TMC3    H1 5012   0.380   3.532   9.892 -1.4163 -0.1254  0.8218
  330TMC3    H2 5013   0.266   3.120   9.867  1.8307  0.6127  1.1206
  330TMC3    C7 5014   0.337   3.325  10.036  0.0670  0.3361 -0.8856
  330TMC3    C8 5015   0.121   3.155   9.646  0.3242  0.1092  0.1197
  330TMC3    O1 5016   0.411   3.412  10.082  0.0809 -0.3051  0.5282
  330TMC3    O2 5017   0.120   3.148   9.523  0.8052 -0.1560  0.5110
  331MPD2     C 5018   2.801   2.447  12.666 -0.3331  0.9019  0.7847
  331MPD2    C1 5019   2.728   2.445  12.545  0.8875  0.8432  0.3026
  331MPD2    C2 5020   2.679   2.327  12.492 -0.5109  0.4079 -0.1364
  331MPD2    C3 5021   2.697   2.203  12.545 -0.4483  0.2368  0.0779
  331MPD2    C4 5022   2.769   2.203  12.665 -0.3470 -0.0297  0.5750
  331MPD2    C5 5023   2.818   2.320  12.720 -0.0326 -0.0722 -0.0058
  331MPD2     H 5024   2.636   2.341  12.393 -0.7025 -0.5260 -0.1770
  331MPD2    H1 5025   2.786   2.108  12.715  0.6865 -0.2574 -0.1973
  331MPD2    H2 5026   2.843   2.539  12.707 -0.2081  1.5085 -0.7047
  331MPD2    H3 5027   2.880   2.313  12.808  0.6883 -1.2322 -0.5979
  331MPD2     N 5028   2.656   2.088  12.469 -0.1982  1.1912  1.2031
  331MPD2    H5 5029   2.617   2.116  12.380 -0.3709 -2.1487  0.2386
  331MPD2    N1 5030   2.723   2.566  12.478 -0.0941 -0.8806  0.0033
  331MPD2    H7 5031   2.792   2.635  12.508 -0.3517 -0.5480 -0.1788
  332TMC3    C1 5032   2.610   1.862  12.390 -0.3992 -0.2821  0.7408
  332TMC3    C2 5033   2.600   1.906  12.265  0.6749 -0.7608  0.3014
  332TMC3    C3 5034   2.582   1.817  12.164  0.2893 -0.1877 -0.7696
  332TMC3    C4 5035   2.600   1.734  12.421  0.7630 -0.7702 -0.8755
  332TMC3    C5 5036   2.600   1.643  12.321 -0.9260 -0.7755 -0.2777
  332TMC3    C6 5037   2.597   1.682  12.189  0.2034  0.1065 -0.2509
  332TMC3     C 5038   2.660   1.952  12.499  0.2538 -0.8309  0.2938
  332TMC3     O 5039   2.721   1.892  12.588  0.0399 -0.2703 -0.2137
  332TMC3     H 5040   2.624   2.009  12.241 -1.4587 -0.0559  1.1957
  332TMC3    H1 5041   2.611   1.701  12.524  1.7634  0.9279 -0.4324
  332TMC3    H2 5042   2.607   1.617  12.103 -1.2957 -0.6132  0.1115
  332TMC3    C7 5043   2.684   1.528  12.344  0.2661 -0.3359 -0.6392
  332TMC3    C8 5044   2.577   1.869  12.029 -0.0903  0.3135 -0.6191
  332TMC3    O1 5045   2.661   1.424  12.285  0.6856 -0.0559 -0.1295
  332TMC3    O2 5046   2.587   1.986  12.010  0.3447 -0.1969 -0.7738
  333MPD2     C 5047   2.481   2.971  11.622  0.1184 -0.2817  0.0112
  333MPD2    C1 5048   2.553   2.862  11.586 -0.4008  0.2326 -0.2722
  333MPD2    C2 5049   2.543   2.748  11.667 -0.1744  0.2045  0.0789
  333MPD2    C3 5050   2.450   2.752  11.770  0.4788 -0.7422 -0.1613
  333MPD2    C4 5051   2.370   2.861  11.799 -0.1671  0.2790  0.5845
  333MPD2    C5 5052   2.388   2.971  11.718 -0.1484  0.3427 -0.0712
  333MPD2     H 5053   2.599   2.657  11.647 -0.2154  0.4482 -1.1396
  333MPD2    H1 5054   2.297   2.870  11.879 -0.0047 -0.8467  0.8547
  333MPD2    H2 5055   2.486   3.066  11.570  2.3570 -1.4484 -1.8840
  333MPD2    H3 5056   2.329   3.061  11.734  1.9266  1.6990 -0.0847
  333MPD2     N 5057   2.436   2.631  11.839 -0.3132  0.2874  0.2697
  333MPD2    H5 5058   2.483   2.555  11.792 -3.3372 -2.5875  1.8926
  333MPD2    N1 5059   2.651   2.877  11.488 -0.0180  0.4971  0.1149
  333MPD2    H7 5060   2.673   2.975  11.470  0.6616  0.4326  0.5839
  334TMC3    C1 5061   2.843   2.832  11.367  0.0691  0.0909 -0.7454
  334TMC3    C2 5062   2.959   2.751  11.364  0.5676  0.1836  0.5558
  334TMC3    C3 5063   3.034   2.769  11.250  1.0550  0.0922 -0.3955
  334TMC3    C4 5064   2.804   2.923  11.274 -0.3233  0.2772 -0.7442
  334TMC3    C5 5065   2.884   2.937  11.164  0.2041  0.1450  0.3650
  334TMC3    C6 5066   2.996   2.855  11.147  0.0454 -0.4397  0.2333
  334TMC3     C 5067   2.745   2.786  11.453  0.3933  0.2459 -0.6150
  334TMC3     O 5068   2.743   2.664  11.472  0.3186  0.4868 -0.4230
  334TMC3     H 5069   2.978   2.677  11.441 -0.2701 -0.4876  0.1272
  334TMC3    H1 5070   2.712   2.978  11.287 -0.9628 -0.0508 -3.8900
  334TMC3    H2 5071   3.063   2.865  11.063 -2.5047  1.5720 -1.5429
  334TMC3    C7 5072   2.859   3.042  11.065 -0.3926 -0.2098  0.2704
  334TMC3    C8 5073   3.131   2.670  11.224  0.1202  0.4190  0.3678
  334TMC3    O1 5074   2.946   3.065  10.982 -0.2317 -0.1323  0.2732
  334TMC3    O2 5075   3.121   2.571  11.296 -0.1493 -0.1823  0.0738
  335TMC3    C1 5076   2.323   4.089  17.533 -0.4034 -0.6594 -0.2268
  335TMC3    C2 5077   2.247   3.995  17.462 -0.4181  0.2583 -0.3565
  335TMC3    C3 5078   2.315   3.894  17.410 -0.3363 -0.9446  0.2425
  335TMC3    C4 5079   2.461   4.083  17.542 -0.0658  0.0304  0.2202
  335TMC3    C5 5080   2.520   3.982  17.467  1.2705  0.0339  0.0515
  335TMC3    C6 5081   2.450   3.878  17.406  0.1546 -0.5176  0.3832
  335TMC3     C 5082   2.247   4.207  17.589  0.4416 -0.3439 -0.1707
  335TMC3     O 5083   2.129   4.195  17.582 -0.1667  0.8878  0.1391
  335TMC3     H 5084   2.141   4.012  17.445 -1.0607  0.5466  4.1065
  335TMC3    H1 5085   2.510   4.126  17.628  0.3136  1.7729 -0.8450
  335TMC3    H2 5086   2.503   3.802  17.351 -0.6470  1.4078 -3.0343
  335TMC3    C7 5087   2.658   3.951  17.480 -0.8485 -0.1315  0.5372
  335TMC3    C8 5088   2.252   3.836  17.298  0.0395  0.1452  0.7768
  335TMC3    O1 5089   2.705   3.836  17.472  0.2681 -0.3476  0.2988
  335TMC3    O2 5090   2.171   3.909  17.247  0.0028  0.7090 -0.5102
  336MPD2     C 5091   2.217   2.100  16.099  0.7254  0.1759  0.2915
  336MPD2    C1 5092   2.109   2.018  16.071  0.4036 -0.6096  0.2128
  336MPD2    C2 5093   2.109   1.895  16.129 -0.0679  0.1825  0.0711
  336MPD2    C3 5094   2.221   1.857  16.198 -0.7560 -0.5612 -0.3454
  336MPD2    C4 5095   2.327   1.941  16.227  0.7660  0.1818 -0.7926
  336MPD2    C5 5096   2.326   2.066  16.182  0.1400 -0.6257  0.1414
  336MPD2     H 5097   2.026   1.829  16.106 -0.8472  0.8647  0.9203
  336MPD2    H1 5098   2.420   1.920  16.280  0.9018  1.1170 -0.6660
  336MPD2    H2 5099   2.227   2.196  16.049 -0.7200  0.1820  0.0231
  336MPD2    H3 5100   2.405   2.137  16.207 -1.2608  0.9822  0.0164
  336MPD2     N 5101   2.230   1.719  16.248 -0.3306 -0.6609 -0.3511
  336MPD2    H5 5102   2.324   1.707  16.283 -0.6976  0.3740  0.9871
  336MPD2    N1 5103   1.990   2.067  16.005  0.8686  0.1835 -0.1826
  336MPD2    H7 5104   1.911   2.007  15.984  0.5737  0.8842 -1.1295
  337TMC3    C1 5105   1.841   2.242  15.913  0.1822  0.9237  0.3042
  337TMC3    C2 5106   1.747   2.156  15.862 -0.0785 -0.1553 -0.1703
  337TMC3    C3 5107   1.620   2.202  15.828  0.4359 -0.3455 -0.3847
  337TMC3    C4 5108   1.815   2.377  15.917  0.0181  0.9642  0.8332
  337TMC3    C5 5109   1.687   2.417  15.888 -0.2582 -0.0864 -0.6823
  337TMC3    C6 5110   1.589   2.328  15.849 -0.6324 -0.1085  0.1065
  337TMC3     C 5111   1.972   2.198  15.967 -0.9385 -0.1496  0.0596
  337TMC3     O 5112   2.035   2.298  15.991  0.1440  0.7151 -0.5142
  337TMC3     H 5113   1.777   2.056  15.835  0.7974  0.0238  0.1409
  337TMC3    H1 5114   1.881   2.450  15.964  1.5265  0.1581 -0.0746
  337TMC3    H2 5115   1.489   2.357  15.818 -0.0050  0.6299 -1.2563
  337TMC3    C7 5116   1.646   2.558  15.914 -0.2607 -0.1658  0.5184
  337TMC3    C8 5117   1.534   2.113  15.756  0.6082 -0.0309 -0.7426
  337TMC3    O1 5118   1.527   2.584  15.933  0.4074  0.0416 -0.3071
  337TMC3    O2 5119   1.585   2.008  15.720 -0.2763 -0.3512 -0.0592
  338MPD2     C 5120   3.006   1.383   0.934  0.2931  0.2600  0.3345
  338MPD2    C1 5121   2.898   1.338   0.860 -0.3929  0.6665  0.6620
  338MPD2    C2 5122   2.787   1.413   0.878  0.2501 -0.9082 -0.3126
  338MPD2    C3 5123   2.775   1.522   0.957  0.3965  0.6992 -0.2237
  338MPD2    C4 5124   2.882   1.572   1.028  0.2971  0.0498  0.0480
  338MPD2    C5 5125   3.000   1.494   1.014 -0.7134  0.2710  0.2952
  338MPD2     H 5126   2.697   1.383   0.825  0.9309 -1.4084 -1.1869
  338MPD2    H1 5127   2.880   1.648   1.105  0.9114 -1.0219  1.1243
  338MPD2    H2 5128   3.101   1.332   0.947 -0.7954 -2.2369 -1.4455
  338MPD2    H3 5129   3.077   1.505   1.089 -0.5101  5.1791 -0.6848
  338MPD2     N 5130   2.640   1.570   0.981 -0.2088  0.1032 -0.1597
  338MPD2    H5 5131   2.564   1.525   0.931 -0.1751  0.6151 -0.6823
  338MPD2    N1 5132   2.900   1.222   0.777  0.4387  0.9174  0.3107
  338MPD2    H7 5133   2.814   1.177   0.749  0.6203  0.7356  0.0374
  339TMC3    C1 5134   2.455   1.690   1.079 -0.0088  0.0834  0.2243
  339TMC3    C2 5135   2.402   1.764   1.175 -0.2341  0.2305 -0.4333
  339TMC3    C3 5136   2.264   1.785   1.176  0.0346 -0.3746  0.6209
  339TMC3    C4 5137   2.386   1.632   0.986  0.0113  0.7328 -0.1171
  339TMC3    C5 5138   2.251   1.658   0.988 -0.0776 -0.3057 -0.2241
  339TMC3    C6 5139   2.192   1.747   1.070  0.0314  0.4159 -0.3980
  339TMC3     C 5140   2.595   1.664   1.072 -0.0861 -0.2059  1.0041
  339TMC3     O 5141   2.657   1.718   1.163 -0.1285  0.1471 -0.1784
  339TMC3     H 5142   2.468   1.804   1.252  0.1137 -1.6516  0.2383
  339TMC3    H1 5143   2.429   1.583   0.899  2.1781  0.3937  1.1396
  339TMC3    H2 5144   2.090   1.780   1.054 -0.1664 -0.0552 -0.0906
  339TMC3    C7 5145   2.188   1.617   0.862 -0.4691  0.3613  0.1307
  339TMC3    C8 5146   2.199   1.830   1.295  0.6105  0.1254  0.1564
  339TMC3    O1 5147   2.095   1.687   0.815  0.0853  0.0482  0.2741
  339TMC3    O2 5148   2.271   1.877   1.381 -0.0103  0.1410  0.5514
  340MPD2     C 5149   3.442   3.828   9.993 -0.2543  0.0009  0.3904
  340MPD2    C1 5150   3.386   3.792   9.869 -0.4303 -0.4067 -0.3042
  340MPD2    C2 5151   3.463   3.743   9.766 -0.0656 -1.0276  0.1005
  340MPD2    C3 5152   3.603   3.739   9.782 -0.1085 -1.0921  0.5588
  340MPD2    C4 5153   3.657   3.768   9.894  0.0242  0.3795 -0.5923
  340MPD2    C5 5154   3.578   3.803  10.003  0.4118 -0.0942  0.5973
  340MPD2     H 5155   3.418   3.707   9.674 -0.5501  1.8437 -0.7887
  340MPD2    H1 5156   3.765   3.755   9.899  0.4702  3.0606 -2.8855
  340MPD2    H2 5157   3.391   3.861  10.083 -0.6595 -0.2746  0.2652
  340MPD2    H3 5158   3.633   3.828  10.094  0.4695 -0.2899  0.6161
  340MPD2     N 5159   3.686   3.693   9.678  0.0076 -0.0489 -0.0014
  340MPD2    H5 5160   3.781   3.693   9.715 -0.2458 -1.8561  0.6527
  340MPD2    N1 5161   3.248   3.810   9.840  0.2075 -0.2284  0.2825
  340MPD2    H7 5162   3.221   3.781   9.746  1.8243 -2.0925  0.3879
  341TMC3    C1 5163   3.022   3.864   9.856 -0.0363  0.5342 -0.6273
  341TMC3    C2 5164   2.920   3.820   9.935  0.3653 -0.3106 -0.6015
  341TMC3    C3 5165   2.818   3.761   9.875 -0.1317 -0.9078 -0.0077
  341TMC3    C4 5166   3.011   3.851   9.717 -0.0463  0.5343 -0.1696
  341TMC3    C5 5167   2.896   3.799   9.660  0.4872  0.5581 -0.0363
  341TMC3    C6 5168   2.794   3.755   9.735  0.0905  0.3410 -0.0792
  341TMC3     C 5169   3.153   3.869   9.920 -0.0159 -0.8665  0.1061
  341TMC3     O 5170   3.157   3.899  10.037 -0.3443  0.0341 -0.3427
  341TMC3     H 5171   2.928   3.826  10.043  1.4879  1.7225 -0.7895
  341TMC3    H1 5172   3.086   3.883   9.645  2.1916  1.0469  2.3873
  341TMC3    H2 5173   2.711   3.695   9.699  1.1834 -0.3637 -1.4605
  341TMC3    C7 5174   2.918   3.739   9.533 -0.2802  0.5486 -0.3547
  341TMC3    C8 5175   2.724   3.689   9.960  0.8225 -0.3229  0.3393
  341TMC3    O1 5176   3.005   3.796   9.468 -0.3569 -0.0817  0.2755
  341TMC3    O2 5177   2.606   3.697   9.925 -0.9078  0.6295 -0.2010
  342MPD2     C 5178   0.539   2.190  17.648 -0.0964  0.0787  0.0087
  342MPD2    C1 5179   0.609   2.177  17.529 -0.0334  0.3942 -0.4185
  342MPD2    C2 5180   0.649   2.295  17.469 -0.6973  0.1322 -1.0910
  342MPD2    C3 5181   0.625   2.415  17.517  0.5200  0.9133 -0.1720
  342MPD2    C4 5182   0.539   2.422  17.616 -0.9586 -0.2794  0.0645
  342MPD2    C5 5183   0.495   2.313  17.686  0.1376  0.3186 -0.2155
  342MPD2     H 5184   0.706   2.279  17.378 -0.0790 -2.9917 -0.1386
  342MPD2    H1 5185   0.506   2.523  17.637  3.2365  0.9372  0.6856
  342MPD2    H2 5186   0.513   2.097  17.696 -0.2710  0.3796  0.4936
  342MPD2    H3 5187   0.431   2.311   0.030 -0.5861  2.6911 -0.7127
  342MPD2     N 5188   0.678   2.534  17.467 -0.5119 -0.1168  0.4421
  342MPD2    H5 5189   0.653   2.618  17.518 -2.8088 -1.1644  1.0536
  342MPD2    N1 5190   0.648   2.048  17.469  0.1494 -0.2580  0.2247
  342MPD2    H7 5191   0.687   2.058  17.376  2.1022 -1.4580  0.9234
  343TMC3    C1 5192   0.695   1.810  17.462 -0.1477 -0.8915  0.7237
  343TMC3    C2 5193   0.714   1.818  17.329  0.4307  0.1148 -0.1386
  343TMC3    C3 5194   0.740   1.709  17.252 -0.7600 -0.5973 -0.1266
  343TMC3    C4 5195   0.708   1.693  17.525 -0.6556  0.4573 -0.2019
  343TMC3    C5 5196   0.717   1.580  17.447 -0.3496 -0.0726  0.3119
  343TMC3    C6 5197   0.737   1.584  17.310 -0.6247  0.5374  0.3814
  343TMC3     C 5198   0.647   1.927  17.539 -0.5125 -0.5047 -0.2953
  343TMC3     O 5199   0.617   1.906  17.656  0.1231 -0.1983 -0.3914
  343TMC3     H 5200   0.694   1.915  17.285 -1.3204  0.0339  0.4557
  343TMC3    H1 5201   0.677   1.684  17.629  0.9935 -2.1331  0.0635
  343TMC3    H2 5202   0.766   1.498  17.251 -1.0852 -1.1979  2.6700
  343TMC3    C7 5203   0.697   1.447  17.512  0.1872  0.4443 -0.2214
  343TMC3    C8 5204   0.720   1.728  17.108 -0.7054 -0.1858  0.1330
  343TMC3    O1 5205   0.724   1.447  17.634  0.0685  0.2700 -0.0070
  343TMC3    O2 5206   0.664   1.833  17.077  0.1943 -0.3827 -0.1842
  344MPD2     C 5207   1.555   1.977  11.386  0.4482 -0.8179  0.0181
  344MPD2    C1 5208   1.549   1.900  11.272 -0.4989 -0.3082 -0.5348
  344MPD2    C2 5209   1.595   1.945  11.155 -0.1332  0.1757 -0.0528
  344MPD2    C3 5210   1.641   2.079  11.149  0.1672  0.1041 -0.2526
  344MPD2    C4 5211   1.648   2.158  11.269 -0.1900 -0.1712  0.4787
  344MPD2    C5 5212   1.601   2.105  11.380  0.2791  0.8694  0.0163
  344MPD2     H 5213   1.592   1.888  11.063  2.3001  0.5584 -0.3600
  344MPD2    H1 5214   1.705   2.250  11.280  0.8895 -0.9446  1.3108
  344MPD2    H2 5215   1.519   1.947  11.483  0.3491 -0.2267  0.1685
  344MPD2    H3 5216   1.602   2.164  11.471  2.8005  0.5562  0.2043
  344MPD2     N 5217   1.693   2.135  11.033 -0.8283 -0.2952 -0.3730
  344MPD2    H5 5218   1.752   2.215  11.053 -1.2490  0.2975 -1.5371
  344MPD2    N1 5219   1.488   1.774  11.278 -0.4853  0.8237  0.3745
  344MPD2    H7 5220   1.497   1.719  11.193  2.3069 -0.0069  1.2191
  345TMC3    C1 5221   1.763   2.119  10.802  0.2158 -0.0712 -0.0650
  345TMC3    C2 5222   1.876   2.183  10.844 -0.1274 -0.2199  0.0144
  345TMC3    C3 5223   1.962   2.232  10.752  0.1808 -0.3048 -0.0185
  345TMC3    C4 5224   1.726   2.132  10.672  0.3201 -0.5593 -0.1908
  345TMC3    C5 5225   1.807   2.189  10.577 -0.2661  0.2456 -0.4061
  345TMC3    C6 5226   1.932   2.224  10.617  0.0247  0.4666  0.2154
  345TMC3     C 5227   1.662   2.092  10.904 -0.1746  0.0757  0.4423
  345TMC3     O 5228   1.553   2.043  10.873  0.2692  0.2555 -0.1914
  345TMC3     H 5229   1.899   2.197  10.949 -0.2413  0.8324 -0.1032
  345TMC3    H1 5230   1.620   2.118  10.652  0.1723  1.1139 -0.5531
  345TMC3    H2 5231   1.996   2.268  10.541  0.4555 -0.0819  0.2634
  345TMC3    C7 5232   1.752   2.290  10.491 -0.5183 -0.0671  0.2283
  345TMC3    C8 5233   1.998   2.366  10.790 -0.2087 -0.2549 -0.3591
  345TMC3    O1 5234   1.824   2.389  10.468  0.2897 -0.2568 -0.4344
  345TMC3    O2 5235   1.933   2.416  10.882  0.4386 -0.6154 -0.1826
  346MPD2     C 5236   1.363   2.805  14.321  0.0083  0.2226 -0.1204
  346MPD2    C1 5237   1.461   2.897  14.290  0.4654  0.7452 -0.6895
  346MPD2    C2 5238   1.548   2.932  14.388 -0.2275 -0.9371 -0.0689
  346MPD2    C3 5239   1.527   2.894  14.526  0.0533  0.2430 -0.2324
  346MPD2    C4 5240   1.420   2.803  14.552  0.2128 -0.2784  0.4555
  346MPD2    C5 5241   1.352   2.761  14.443  0.3361  0.3163  0.0543
  346MPD2     H 5242   1.634   2.995  14.371 -0.9743 -0.0243 -0.4895
  346MPD2    H1 5243   1.391   2.765  14.649  2.7296 -1.9922  0.5478
  346MPD2    H2 5244   1.305   2.757  14.243  1.4926 -0.0663 -1.0518
  346MPD2    H3 5245   1.265   2.700  14.466  2.5585 -2.5224  0.9480
  346MPD2     N 5246   1.624   2.931  14.620  0.1939 -0.0724  0.2005
  346MPD2    H5 5247   1.698   2.989  14.582 -0.4679  1.2330  0.8949
  346MPD2    N1 5248   1.497   2.933  14.159  0.1815 -0.0662  0.1525
  346MPD2    H7 5249   1.585   2.983  14.149 -0.9735  1.5297 -1.9784
  347TMC3    C1 5250   1.726   2.968  14.821  0.0995  0.4910  0.2984
  347TMC3    C2 5251   1.787   3.077  14.763 -0.3940  0.5732  0.4830
  347TMC3    C3 5252   1.869   3.152  14.846  0.3732 -0.1371  0.6972
  347TMC3    C4 5253   1.727   2.943  14.952  0.2594  0.3134 -0.0828
  347TMC3    C5 5254   1.815   3.013  15.025 -0.1133 -0.2331  0.1371
  347TMC3    C6 5255   1.883   3.126  14.977  0.1128 -0.2576 -0.6507
  347TMC3     C 5256   1.625   2.894  14.747 -0.2375 -0.4712  0.1482
  347TMC3     O 5257   1.550   2.822  14.817  0.4713 -0.3761  0.0317
  347TMC3     H 5258   1.793   3.100  14.657  0.8131 -0.6169  0.3004
  347TMC3    H1 5259   1.684   2.852  14.992  0.0841  1.0440  1.3880
  347TMC3    H2 5260   1.965   3.177  15.027 -1.6990  0.2165  1.8236
  347TMC3    C7 5261   1.841   2.962  15.160 -0.5015  0.0881  0.3850
  347TMC3    C8 5262   1.955   3.250  14.782  0.2560 -0.0664  0.1214
  347TMC3    O1 5263   1.844   2.840  15.165 -0.0500 -0.1656  0.1230
  347TMC3    O2 5264   2.072   3.248  14.811  0.1368  0.1190 -0.0070
  348MPD2     C 5265   0.476   3.175  11.798 -0.5703  0.3906 -0.0002
  348MPD2    C1 5266   0.391   3.141  11.694 -0.1318 -0.9569  0.0466
  348MPD2    C2 5267   0.383   3.224  11.582  0.0676  0.1943  0.5560
  348MPD2    C3 5268   0.455   3.343  11.582  0.1791  0.1573 -0.2831
  348MPD2    C4 5269   0.539   3.378  11.686  0.3289  1.1546  0.2888
  348MPD2    C5 5270   0.538   3.299  11.795 -0.8763  0.1147  0.2920
  348MPD2     H 5271   0.318   3.201  11.499  2.1184  1.1506 -1.2944
  348MPD2    H1 5272   0.602   3.466  11.691 -0.3940  1.7553 -1.2541
  348MPD2    H2 5273   0.489   3.107  11.882  0.4335  0.1580 -0.3453
  348MPD2    H3 5274   0.617   3.320  11.866 -0.8132  0.4675  0.1175
  348MPD2     N 5275   0.457   3.417  11.459 -0.0850  0.4424 -0.2230
  348MPD2    H5 5276   0.390   3.385  11.389  0.6964 -0.3629 -0.6028
  348MPD2    N1 5277   0.318   3.020  11.686  0.0303 -0.1928 -0.4100
  348MPD2    H7 5278   0.282   2.993  11.595 -0.8380 -0.6093  0.0543
  349TMC3    C1 5279   0.238   2.808  11.752 -0.0392 -0.4126  0.4809
  349TMC3    C2 5280   0.277   2.701  11.826  0.9124 -0.2241  0.1617
  349TMC3    C3 5281   0.209   2.583  11.809 -0.7361 -0.5994  0.2397
  349TMC3    C4 5282   0.132   2.810  11.675 -0.8994 -0.5326 -0.3127
  349TMC3    C5 5283   0.061   2.693  11.667 -0.6951  0.5979  0.2864
  349TMC3    C6 5284   0.103   2.571  11.724  0.0315 -0.3498  0.7804
  349TMC3     C 5285   0.298   2.933  11.792 -0.0873  0.0515 -1.0352
  349TMC3     O 5286   0.324   2.941  11.909 -0.1513  0.6211 -0.4087
  349TMC3     H 5287   0.366   2.706  11.888  1.1620  1.7449 -0.3738
  349TMC3    H1 5288   0.094   2.906  11.640 -2.4704 -1.3207 -0.7565
  349TMC3    H2 5289   0.043   2.480  11.727  1.8402 -1.6716 -5.0117
  349TMC3    C7 5290   4.691   2.685  11.580  0.5367  0.1982 -0.3034
  349TMC3    C8 5291   0.267   2.463  11.870  0.4102 -0.9890 -0.1597
  349TMC3    O1 5292   4.634   2.573  11.580  0.1284  0.0433  0.7140
  349TMC3    O2 5293   0.383   2.475  11.902 -0.1622  0.3501  0.4372
  350MPD2     C 5294   0.041   1.145  10.473 -0.3029 -0.1270  0.0159
  350MPD2    C1 5295   4.714   1.032  10.431  0.3718  0.3692 -0.3541
  350MPD2    C2 5296   4.680   0.942  10.533 -0.4436  0.3437  0.6318
  350MPD2    C3 5297   4.676   0.967  10.662 -0.3710 -0.7688 -0.2361
  350MPD2    C4 5298   4.734   1.087  10.709 -0.3313 -1.0415  0.3420
  350MPD2    C5 5299   0.049   1.166  10.608  0.3288 -0.1195 -0.2226
  350MPD2     H 5300   4.632   0.851  10.503  1.4342 -0.3075 -0.3738
  350MPD2    H1 5301   0.004   1.107  10.815  0.7043  0.4102  0.0058
  350MPD2    H2 5302   0.092   1.211  10.403  0.7128 -1.1541 -0.1990
  350MPD2    H3 5303   0.098   1.259  10.635  1.3784 -1.3443  2.1520
  350MPD2     N 5304   4.612   0.867  10.739 -0.5333 -0.1319  0.1481
  350MPD2    H5 5305   4.588   0.778  10.697 -0.9665 -1.0375  2.2794
  350MPD2    N1 5306   4.690   0.996  10.296  0.2010  0.2211 -0.6166
  350MPD2    H7 5307   4.658   0.900  10.284 -0.6727  0.3926  0.3530
  351TMC3    C1 5308   4.663   0.997  10.064 -0.1624 -0.0755  0.5725
  351TMC3    C2 5309   4.725   0.878  10.043  0.7387  0.0161 -0.3087
  351TMC3    C3 5310   0.008   0.836   9.911 -0.7411 -0.0754  0.6790
  351TMC3    C4 5311   4.606   1.067   9.962  0.3407 -0.3531  0.2859
  351TMC3    C5 5312   4.608   1.017   9.834 -0.3189 -0.0694 -0.2380
  351TMC3    C6 5313   4.683   0.908   9.803  0.3465  0.0346  0.4494
  351TMC3     C 5314   4.688   1.076  10.185  0.1572  0.1784 -0.0717
  351TMC3     O 5315   4.690   1.196  10.183  0.4912 -0.0797 -0.9338
  351TMC3     H 5316   0.026   0.828  10.132 -2.0396 -3.0566 -0.8900
  351TMC3    H1 5317   4.578   1.168   9.988  3.1599  0.2581  1.0032
  351TMC3    H2 5318   4.688   0.871   9.701  1.0511 -0.2743  0.5942
  351TMC3    C7 5319   4.518   1.069   9.731  0.5708  0.6860 -0.9010
  351TMC3    C8 5320   0.055   0.706   9.867  0.0240  0.9581  0.3236
  351TMC3    O1 5321   4.517   1.004   9.626  0.7697  0.1763  0.0927
  351TMC3    O2 5322   0.050   0.673   9.752  0.5575  0.2921 -0.1230
  352MPD2     C 5323   3.254   3.207   0.833 -0.6946 -0.1282  0.1803
  352MPD2    C1 5324   3.164   3.159   0.745  0.2608 -0.4916 -0.1702
  352MPD2    C2 5325   3.203   3.050   0.664  0.4866 -0.3546 -0.5219
  352MPD2    C3 5326   3.326   2.989   0.672  0.0818  0.2925  0.3245
  352MPD2    C4 5327   3.416   3.042   0.763  0.4328 -0.2293 -0.1784
  352MPD2    C5 5328   3.375   3.147   0.847  0.0220  0.1549  0.3236
  352MPD2     H 5329   3.133   3.004   0.594 -1.1836 -1.5188  1.9107
  352MPD2    H1 5330   3.510   2.992   0.779  0.7043 -0.3622 -2.2765
  352MPD2    H2 5331   3.222   3.285   0.902  0.6645  0.1507  0.4879
  352MPD2    H3 5332   3.439   3.186   0.925  1.7292 -0.1574 -0.9276
  352MPD2     N 5333   3.376   2.879   0.603  0.3257  0.7038  0.3488
  352MPD2    H5 5334   3.467   2.840   0.623  0.7327 -0.2475 -3.2625
  352MPD2    N1 5335   3.050   3.241   0.721 -0.1381  1.0233  0.1179
  352MPD2    H7 5336   3.037   3.331   0.766  1.1214  1.6130 -0.6993
  353TMC3    C1 5337   3.369   2.666   0.499 -0.4910  0.0043 -0.1306
  353TMC3    C2 5338   3.442   2.601   0.591 -0.3217  0.2515 -0.4340
  353TMC3    C3 5339   3.428   2.461   0.596 -0.3977 -0.1614 -0.2155
  353TMC3    C4 5340   3.299   2.596   0.398 -0.0623  0.3703 -0.3552
  353TMC3    C5 5341   3.296   2.459   0.398 -0.2088 -0.0963 -0.1880
  353TMC3    C6 5342   3.358   2.388   0.504 -0.0669  0.5064 -0.2078
  353TMC3     C 5343   3.301   2.795   0.523  0.2293  0.4357  0.2287
  353TMC3     O 5344   3.188   2.816   0.474  0.1093 -0.0319 -0.9006
  353TMC3     H 5345   3.488   2.651   0.676  1.2874 -1.7575 -0.1228
  353TMC3    H1 5346   3.238   2.651   0.326 -1.3065  0.1259  0.5077
  353TMC3    H2 5347   3.343   2.282   0.521 -1.0297  0.4233 -1.5770
  353TMC3    C7 5348   3.182   2.390   0.343  0.1396 -0.0607 -0.0502
  353TMC3    C8 5349   3.527   2.385   0.676 -0.5088 -0.5760 -0.4053
  353TMC3    O1 5350   3.149   2.285   0.394 -0.0252  0.0621 -0.5289
  353TMC3    O2 5351   3.637   2.440   0.703 -0.1370  0.0158 -0.4952
  354TMC3    C1 5352   4.316   4.052  13.909  1.0324  1.1042 -0.4605
  354TMC3    C2 5353   4.340   4.182  13.902  0.8963  0.0818 -0.1197
  354TMC3    C3 5354   4.370   4.244  13.778 -0.8582  0.2603  0.1864
  354TMC3    C4 5355   4.319   3.981  13.789 -0.4262 -0.0646  0.3807
  354TMC3    C5 5356   4.373   4.032  13.676  1.2405 -0.4057  0.1036
  354TMC3    C6 5357   4.391   4.165  13.667 -0.0232  0.8137  0.2185
  354TMC3     C 5358   4.222   4.005  14.012 -1.3579 -1.0488  0.0433
  354TMC3     O 5359   4.148   3.913  13.980  0.9095  0.1045 -0.0149
  354TMC3     H 5360   4.341   4.241  13.993  1.5347  0.1454 -0.1648
  354TMC3    H1 5361   4.299   3.874  13.787  0.8334 -0.2587 -2.1059
  354TMC3    H2 5362   4.433   4.212  13.579 -0.9596  0.5656 -0.3519
  354TMC3    C7 5363   4.385   3.940  13.558  0.5351  0.7062  0.7763
  354TMC3    C8 5364   4.412   4.383  13.770  0.2576  0.5287 -0.0032
  354TMC3    O1 5365   4.326   3.837  13.547 -0.2815  0.1607 -0.2398
  354TMC3    O2 5366   4.452   4.436  13.873 -0.0838 -0.0474  0.1720
  355MPD2     C 5367   4.644   0.529  11.650 -0.1782 -0.6891 -0.2608
  355MPD2    C1 5368   0.004   0.488  11.564  0.4350  0.5701  0.2332
  355MPD2    C2 5369   0.028   0.349  11.565  0.4081  0.7978  0.2943
  355MPD2    C3 5370   4.691   0.263  11.647 -0.3479 -0.4325 -0.0193
  355MPD2    C4 5371   4.574   0.309  11.707  0.6719 -0.3630 -0.0804
  355MPD2    C5 5372   4.558   0.446  11.716  0.2072  0.1029  0.1117
  355MPD2     H 5373   0.106   0.300  11.509 -0.2326  1.1911 -0.9593
  355MPD2    H1 5374   4.517   0.242  11.771  0.4019  1.9450  2.0699
  355MPD2    H2 5375   4.619   0.634  11.658  0.3192 -0.5132 -1.0187
  355MPD2    H3 5376   4.474   0.484  11.773 -0.0463 -0.4484  0.1046
  355MPD2     N 5377   0.003   0.127  11.676  0.0874 -0.1542  0.1075
  355MPD2    H5 5378   4.664   0.062  11.699 -1.3957  1.6433  0.3720
  355MPD2    N1 5379   0.087   0.583  11.508  0.3694  0.2087 -0.1693
  355MPD2    H7 5380   0.067   0.678  11.537 -0.2319 -0.4215  1.4870
  356TMC3    C1 5381   0.232   0.175  11.705  0.6715  0.3523 -0.5018
  356TMC3    C2 5382   0.339   0.200  11.618  0.9352  0.0662 -0.4204
  356TMC3    C3 5383   0.436   0.284  11.663  0.4632 -0.3233 -0.1850
  356TMC3    C4 5384   0.224   0.208  11.834  0.8405 -0.0011 -0.0930
  356TMC3    C5 5385   0.330   0.289  11.875  0.1727  0.5492 -0.5272
  356TMC3    C6 5386   0.433   0.335  11.795  0.4104 -0.4171  0.2599
  356TMC3     C 5387   0.131   0.079  11.655 -0.3555 -0.5063  0.6701
  356TMC3     O 5388   0.163   4.696  11.666 -0.0914  0.0061 -0.0773
  356TMC3     H 5389   0.335   0.191  11.510 -1.0161 -0.4556 -0.3067
  356TMC3    H1 5390   0.141   0.179  11.898  0.4790 -1.0393 -1.0249
  356TMC3    H2 5391   0.517   0.380  11.847 -0.1119  2.2575 -1.2529
  356TMC3    C7 5392   0.345   0.311  12.019  0.2313 -0.7344 -0.2423
  356TMC3    C8 5393   0.540   0.339  11.571 -0.6733  0.0348 -0.2730
  356TMC3    O1 5394   0.310   0.214  12.088 -0.0314  0.0059  0.3135
  356TMC3    O2 5395   0.553   0.276  11.468 -0.6124  0.0339 -0.6287
  357MPD2     C 5396   0.153   4.721   0.936 -0.4404  0.0624 -0.4705
  357MPD2    C1 5397   0.074   4.619   0.981 -0.2163 -0.1139  0.7673
  357MPD2    C2 5398   4.675   4.620   0.961 -0.4102 -0.4303  0.2746
  357MPD2    C3 5399   4.605   4.730   0.910 -1.0584  0.7091 -0.4132
  357MPD2    C4 5400   4.688   0.093   0.858 -0.4180 -0.1041 -0.1830
  357MPD2    C5 5401   0.085   0.089   0.875  0.3081  0.0043 -0.2376
  357MPD2     H 5402   4.614   4.546   1.011  0.2729 -0.8838  0.4319
  357MPD2    H1 5403   4.651   0.185   0.814  2.3645  1.2106  0.1966
  357MPD2    H2 5404   0.258   4.733   0.960  0.0185  0.2606 -2.5722
  357MPD2    H3 5405   0.145   0.172   0.839 -1.5258  1.6427  0.4781
  357MPD2     N 5406   4.462   0.011   0.892  0.1524  0.0921 -0.7998
  357MPD2    H5 5407   4.422   0.101   0.867 -0.9020 -1.2875 -4.1735
  357MPD2    N1 5408   0.146   4.520   1.055 -0.1333  0.1218  0.3746
  357MPD2    H7 5409   0.247   4.523   1.042 -0.0832 -2.9694 -0.1595
  358TMC3    C1 5410   0.173   4.304   1.096 -0.3625  0.7577  0.1951
  358TMC3    C2 5411   0.184   4.286   0.959 -0.3367  0.3400  0.3779
  358TMC3    C3 5412   0.170   4.153   0.910  0.1707  0.0706  0.4756
  358TMC3    C4 5413   0.156   4.199   1.186  0.4923 -0.8105  0.3618
  358TMC3    C5 5414   0.163   4.073   1.133 -0.6453 -0.5475 -0.8540
  358TMC3    C6 5415   0.167   4.044   0.998  0.0731  0.4162  0.5593
  358TMC3     C 5416   0.089   4.414   1.118 -0.4159 -0.3432 -0.1556
  358TMC3     O 5417   4.715   4.409   1.169  0.0373  0.2413  0.1685
  358TMC3     H 5418   0.190   4.365   0.886  3.9113 -1.3586 -1.0967
  358TMC3    H1 5419   0.153   4.221   1.292 -1.0791  0.6772  0.0098
  358TMC3    H2 5420   0.147   3.943   0.965  1.1462 -0.2559  2.0166
  358TMC3    C7 5421   0.164   3.966   1.221  0.5703 -0.2840 -0.0997
  358TMC3    C8 5422   0.144   4.139   0.768  0.8081  0.4024 -0.0431
  358TMC3    O1 5423   0.125   3.988   1.333  0.8295 -0.2328  0.0556
  358TMC3    O2 5424   0.189   4.223   0.691  0.0915 -0.2296  0.2350
  359MPD2     C 5425   4.507   4.263  12.568 -0.1752 -0.2593 -0.0112
  359MPD2    C1 5426   4.464   4.187  12.455 -0.2559  0.7384  0.5352
  359MPD2    C2 5427   4.339   4.120  12.459  0.3202  0.5468  0.3038
  359MPD2    C3 5428   4.259   4.134  12.575  0.5485 -0.2777  0.7782
  359MPD2    C4 5429   4.300   4.206  12.685  0.1041  0.3473  0.4985
  359MPD2    C5 5430   4.420   4.275  12.680  0.3484 -0.4708  0.3307
  359MPD2     H 5431   4.311   4.072  12.366  0.1516 -0.7162  1.0124
  359MPD2    H1 5432   4.246   4.209  12.779 -2.8290  2.1212 -1.2297
  359MPD2    H2 5433   4.599   4.320  12.556  1.0751 -1.9075  1.8679
  359MPD2    H3 5434   4.450   4.345  12.757 -0.4037  2.3811 -1.9359
  359MPD2     N 5435   4.131   4.072  12.580 -0.3573  0.1866 -0.1073
  359MPD2    H5 5436   4.096   4.063  12.675 -1.9388 -2.7213 -0.9640
  359MPD2    N1 5437   4.536   4.167  12.335 -0.5264 -0.0039  0.2657
  359MPD2    H7 5438   4.488   4.140  12.250 -1.4428  0.7787  0.5261
  360TMC3    C1 5439   4.718   4.137  12.204  0.1681  0.4514 -0.2736
  360TMC3    C2 5440   0.116   4.155  12.177 -0.6456 -0.1094  0.0619
  360TMC3    C3 5441   0.176   4.077  12.086 -0.7360 -1.2077 -1.0065
  360TMC3    C4 5442   4.650   4.035  12.134  0.0405 -0.2162 -0.5225
  360TMC3    C5 5443   4.711   3.980  12.023  0.8343  0.3982 -0.2605
  360TMC3    C6 5444   0.107   3.996  12.000  0.4565 -0.0548  0.2544
  360TMC3     C 5445   4.668   4.185  12.330 -0.9787 -0.1629  0.4226
  360TMC3     O 5446   0.014   4.224  12.415 -0.0311 -0.7261 -0.2283
  360TMC3     H 5447   0.179   4.207  12.249  0.7036  0.3998 -1.4849
  360TMC3    H1 5448   4.550   4.000  12.157  0.6399 -1.8309 -0.3907
  360TMC3    H2 5449   0.146   3.963  11.904 -2.9251 -1.4303 -0.6541
  360TMC3    C7 5450   4.633   3.909  11.921 -0.6079 -0.7911 -0.3775
  360TMC3    C8 5451   0.295   4.132  12.040  0.0048  0.2510  0.6121
  360TMC3    O1 5452   4.513   3.935  11.924  0.3735 -0.3468 -0.4543
  360TMC3    O2 5453   0.321   4.242  12.090  0.1164 -0.0501 -0.1618
  361MPD2     C 5454   1.643   2.062  16.206 -0.3921 -0.4912 -0.2885
  361MPD2    C1 5455   1.622   2.131  16.323  1.1062 -0.0884  0.1277
  361MPD2    C2 5456   1.690   2.101  16.437 -0.4032 -0.1217 -0.0135
  361MPD2    C3 5457   1.777   1.995  16.437 -0.1942 -0.2680 -0.2065
  361MPD2    C4 5458   1.781   1.909  16.323 -0.1127 -0.1623 -0.4852
  361MPD2    C5 5459   1.716   1.952  16.207 -0.0074 -0.0629 -0.2935
  361MPD2     H 5460   1.690   2.162  16.526 -1.4842 -1.6388  1.0260
  361MPD2    H1 5461   1.850   1.825  16.322 -1.5365 -1.3774  2.7889
  361MPD2    H2 5462   1.595   2.092  16.114  0.2763 -2.3644 -1.2447
  361MPD2    H3 5463   1.721   1.891  16.117 -0.2293  0.4230 -0.6343
  361MPD2     N 5464   1.856   1.965  16.548 -0.2106 -0.1042  0.5544
  361MPD2    H5 5465   1.915   1.883  16.539  1.7478  1.5876 -2.0696
  361MPD2    N1 5466   1.523   2.235  16.326  1.1474 -0.2369 -0.1719
  361MPD2    H7 5467   1.520   2.290  16.411 -3.3306 -1.6165  0.5545
  362TMC3    C1 5468   1.364   2.395  16.270 -0.3412 -0.4086  0.6783
  362TMC3    C2 5469   1.330   2.407  16.402  0.3760  0.1226  0.0895
  362TMC3    C3 5470   1.268   2.525  16.449  0.5500 -0.0109  0.0274
  362TMC3    C4 5471   1.333   2.492  16.181  0.2521 -0.3444 -0.6682
  362TMC3    C5 5472   1.260   2.599  16.226  0.4410  0.1590  0.1227
  362TMC3    C6 5473   1.231   2.620  16.358 -0.1412  0.3585  0.8546
  362TMC3     C 5474   1.442   2.282  16.225  0.1280  0.0259 -0.1743
  362TMC3     O 5475   1.442   2.263  16.105  0.2403  0.2163  0.4130
  362TMC3     H 5476   1.368   2.334  16.473 -2.3289  0.5928  2.0069
  362TMC3    H1 5477   1.370   2.492  16.080  0.9254  2.6998 -0.4068
  362TMC3    H2 5478   1.150   2.684  16.392 -1.1496 -0.5003  0.0332
  362TMC3    C7 5479   1.195   2.693  16.140  0.2956  0.5432 -0.0698
  362TMC3    C8 5480   1.192   2.512  16.574  0.0884 -0.3423 -0.4057
  362TMC3    O1 5481   1.137   2.779  16.205  0.1425  0.1783  0.0380
  362TMC3    O2 5482   1.188   2.409  16.640 -0.7279  0.4371  0.3892
  363TMC3    C1 5483   4.716   0.252   9.125 -0.1794 -0.0625  1.1003
  363TMC3    C2 5484   0.087   0.236   9.208 -0.7691 -0.5410  0.0138
  363TMC3    C3 5485   0.094   0.300   9.328  0.1479 -0.3484  0.4551
  363TMC3    C4 5486   4.610   0.331   9.162  0.2631 -0.0400 -0.2409
  363TMC3    C5 5487   4.619   0.394   9.285  0.4285  0.2402  0.7743
  363TMC3    C6 5488   4.729   0.381   9.365  0.5839  0.5509  0.1594
  363TMC3     C 5489   4.716   0.164   9.009 -0.0371  0.3235  0.6162
  363TMC3     O 5490   0.040   0.058   9.024  0.1176  0.1096  0.0892
  363TMC3     H 5491   0.159   0.157   9.188  1.7238  2.0782 -1.3383
  363TMC3    H1 5492   4.518   0.336   9.105 -0.9114 -0.3514  1.6171
  363TMC3    H2 5493   4.733   0.438   9.457 -1.8248 -0.2722  0.7803
  363TMC3    C7 5494   4.510   0.482   9.325 -0.9514  0.0537  0.4025
  363TMC3    C8 5495   0.183   0.263   9.439  0.5521 -0.0361  0.5482
  363TMC3    O1 5496   4.440   0.530   9.240 -0.2256 -0.9048  0.5922
  363TMC3    O2 5497   0.183   0.330   9.538 -0.2095 -0.2015  0.0588
  364MPD2     C 5498   4.307   0.278  10.368  0.1785 -0.2895 -0.8047
  364MPD2    C1 5499   4.234   0.187  10.301  0.3076 -0.1623 -0.4052
  364MPD2    C2 5500   4.239   0.058  10.334 -0.6069  0.4621  0.5124
  364MPD2    C3 5501   4.327   0.017  10.439 -0.0892 -0.2856 -0.3426
  364MPD2    C4 5502   4.400   0.115  10.503 -0.4932  0.5284 -0.7234
  364MPD2    C5 5503   4.384   0.244  10.476 -0.4590 -0.0393  0.4018
  364MPD2     H 5504   4.181   4.719  10.281  1.0597 -0.1766 -0.4078
  364MPD2    H1 5505   4.474   0.089  10.578 -2.3450  0.9670  1.2591
  364MPD2    H2 5506   4.327   0.379  10.333 -0.2088 -0.3279 -1.1402
  364MPD2    H3 5507   4.437   0.320  10.532  0.6126  0.8166 -1.7530
  364MPD2     N 5508   4.342   4.625  10.491  0.7386  0.0832 -0.1476
  364MPD2    H5 5509   4.420   4.614  10.555  0.7747  2.0947  0.1514
  364MPD2    N1 5510   4.141   0.224  10.200  0.5014 -0.1978  0.3888
  364MPD2    H7 5511   4.116   0.322  10.203  0.6574 -0.1636  0.5505
  365TMC3    C1 5512   3.967   0.184  10.037  0.4854  0.2224 -0.8115
  365TMC3    C2 5513   3.943   0.113   9.925 -0.3081 -0.3266 -0.4380
  365TMC3    C3 5514   3.811   0.102   9.881  0.1274 -0.1673  0.6767
  365TMC3    C4 5515   3.866   0.238  10.104 -0.2552  0.2645  0.0851
  365TMC3    C5 5516   3.736   0.224  10.061  0.3208  0.7256 -0.6511
  365TMC3    C6 5517   3.707   0.148   9.948 -0.0808  0.5547 -0.7097
  365TMC3     C 5518   4.082   0.139  10.111  0.7464 -0.7463  0.7192
  365TMC3     O 5519   4.128   0.035  10.068  0.1375 -0.1034  0.9096
  365TMC3     H 5520   4.023   0.070   9.864 -1.1370  1.0088 -2.4628
  365TMC3    H1 5521   3.881   0.295  10.195 -0.7386 -1.6741  1.3908
  365TMC3    H2 5522   3.607   0.128   9.911  0.0969 -0.8001 -0.4429
  365TMC3    C7 5523   3.618   0.273  10.136 -0.5841 -0.0583  0.2218
  365TMC3    C8 5524   3.787   0.006   9.779  0.5096 -0.1542 -0.3945
  365TMC3    O1 5525   3.516   0.282  10.067  0.2700  0.0561  0.2025
  365TMC3    O2 5526   3.674   0.016   9.730  0.0752 -0.9806  0.0842
  366MPD2     C 5527   2.372   0.716  15.178 -0.0738 -0.0129 -0.1774
  366MPD2    C1 5528   2.396   0.784  15.298 -0.1084  0.4163 -0.0690
  366MPD2    C2 5529   2.525   0.801  15.333  0.3543  0.0107 -0.2003
  366MPD2    C3 5530   2.627   0.770  15.240 -0.3277 -0.3385  0.4515
  366MPD2    C4 5531   2.606   0.702  15.128  0.4626  0.8421 -0.9385
  366MPD2    C5 5532   2.477   0.671  15.093  1.1406 -0.1099  0.9444
  366MPD2     H 5533   2.545   0.847  15.429 -2.2667  1.6911 -0.4706
  366MPD2    H1 5534   2.684   0.663  15.064  1.3795 -1.2226  1.4128
  366MPD2    H2 5535   2.274   0.695  15.137 -0.6129  0.2128  0.9699
  366MPD2    H3 5536   2.450   0.610  15.007  2.5920 -0.8516  1.0177
  366MPD2     N 5537   2.765   0.795  15.279 -0.2119  0.6113  0.0180
  366MPD2    H5 5538   2.829   0.731  15.233 -1.0397  1.3753 -2.1869
  366MPD2    N1 5539   2.303   0.833  15.387 -0.0976  0.2998  0.1892
  366MPD2    H7 5540   2.340   0.881  15.468 -0.2757 -0.3325  0.6417
  367TMC3    C1 5541   2.106   0.936  15.449  0.0156  0.2943  0.6833
  367TMC3    C2 5542   2.178   1.033  15.517  0.3691 -0.3457  0.0974
  367TMC3    C3 5543   2.111   1.127  15.584 -0.1022  0.6149 -0.3275
  367TMC3    C4 5544   1.967   0.939  15.455  0.1407 -0.1269 -0.5458
  367TMC3    C5 5545   1.904   1.047  15.521  0.0537  0.3016 -0.0052
  367TMC3    C6 5546   1.972   1.142  15.596  0.1261  0.2571 -0.6436
  367TMC3     C 5547   2.166   0.842  15.358  0.7235  0.2518  0.0166
  367TMC3     O 5548   2.092   0.781  15.281 -0.0675 -0.2512 -0.1157
  367TMC3     H 5549   2.286   1.036  15.505  0.4477 -0.6446  0.7290
  367TMC3    H1 5550   1.913   0.880  15.381 -0.0637  0.6073 -0.9788
  367TMC3    H2 5551   1.927   1.220  15.656 -0.4730 -2.4413  2.4516
  367TMC3    C7 5552   1.766   1.082  15.491  0.3272  1.2608 -0.5306
  367TMC3    C8 5553   2.197   1.225  15.656  0.1433  0.4515  0.2462
  367TMC3    O1 5554   1.713   1.180  15.543 -0.0029 -0.1993 -0.1008
  367TMC3    O2 5555   2.312   1.183  15.684 -0.6286  0.2284 -0.3234
  368MPD2     C 5556   3.637   2.600  12.927  0.3775  0.6851 -0.0422
  368MPD2    C1 5557   3.600   2.679  12.822 -0.4695  0.0476  0.0547
  368MPD2    C2 5558   3.693   2.731  12.726  0.4540  0.5970  0.6044
  368MPD2    C3 5559   3.827   2.707  12.737 -1.0232 -0.1504  0.4935
  368MPD2    C4 5560   3.861   2.621  12.841 -0.1859  0.6294 -0.5328
  368MPD2    C5 5561   3.767   2.569  12.930 -0.5631 -0.0202 -0.7207
  368MPD2     H 5562   3.669   2.786  12.635 -0.6218  0.9064  1.0769
  368MPD2    H1 5563   3.963   2.594  12.867 -0.9464 -1.1577  0.6135
  368MPD2    H2 5564   3.554   2.560  12.984 -1.3674  0.4302 -2.7655
  368MPD2    H3 5565   3.802   2.515  13.017 -0.7702  2.6311  0.9952
  368MPD2     N 5566   3.927   2.752  12.648  0.0232 -0.2503 -0.1363
  368MPD2    H5 5567   4.020   2.712  12.652  0.2168  0.0513 -1.6892
  368MPD2    N1 5568   3.459   2.699  12.810  0.7650  0.0842 -0.6426
  368MPD2    H7 5569   3.395   2.670  12.883 -0.4248 -1.2257 -2.1861
  369TMC3    C1 5570   3.261   2.772  12.706  0.1498 -0.1906  0.0142
  369TMC3    C2 5571   3.214   2.824  12.582 -0.1430 -0.1789 -0.0901
  369TMC3    C3 5572   3.151   2.941  12.601 -0.2996  0.0391 -0.9821
  369TMC3    C4 5573   3.210   2.809  12.825 -0.2509  0.2736 -0.6495
  369TMC3    C5 5574   3.113   2.904  12.825 -0.4659  0.3617  0.4862
  369TMC3    C6 5575   3.087   2.979  12.715  0.6478  0.7386  0.2047
  369TMC3     C 5576   3.402   2.760  12.701  0.2639 -0.0965 -0.2191
  369TMC3     O 5577   3.448   2.803  12.594 -0.6542 -0.5057 -0.0555
  369TMC3     H 5578   3.245   2.792  12.483 -2.1958  0.5421 -0.9432
  369TMC3    H1 5579   3.241   2.774  12.922 -2.2552  1.7635  0.5295
  369TMC3    H2 5580   3.022   3.066  12.722  1.1576  1.3131 -1.9220
  369TMC3    C7 5581   3.000   2.844  12.898  0.6772 -0.0085  0.5254
  369TMC3    C8 5582   3.208   3.049  12.522 -0.4250 -0.4083  1.0309
  369TMC3    O1 5583   3.022   2.795  13.008 -0.2656 -0.3123 -0.4462
  369TMC3    O2 5584   3.146   3.156  12.510  0.0599  0.1192 -0.0905
  370TMC3    C1 5585   2.736   3.389  16.092 -0.5616 -0.0041  0.3589
  370TMC3    C2 5586   2.665   3.310  16.180 -0.2571 -0.9571 -0.1914
  370TMC3    C3 5587   2.641   3.182  16.140  0.2610  0.5805 -0.2007
  370TMC3    C4 5588   2.772   3.348  15.972  0.0426  0.2254 -0.7764
  370TMC3    C5 5589   2.756   3.214  15.946  0.4899  0.3861  0.4900
  370TMC3    C6 5590   2.697   3.122  16.034 -0.0378 -0.5296 -0.7551
  370TMC3     C 5591   2.836   3.456  16.172 -0.7563  0.4914  0.4747
  370TMC3     O 5592   2.863   3.415  16.281  0.3967 -0.1795  0.4599
  370TMC3     H 5593   2.643   3.352  16.278 -0.3079 -0.7230 -0.3041
  370TMC3    H1 5594   2.822   3.417  15.905  2.1008 -1.7287 -1.2560
  370TMC3    H2 5595   2.675   3.020  16.008  0.7204 -0.6787 -0.8145
  370TMC3    C7 5596   2.831   3.164  15.836  0.3449 -0.2558 -0.4529
  370TMC3    C8 5597   2.599   3.089  16.247 -0.6029 -0.5053  0.3090
  370TMC3    O1 5598   2.886   3.244  15.760  1.1225  0.2125 -0.1660
  370TMC3    O2 5599   2.647   2.978  16.237 -0.1025  0.2568  0.1842
  371TMC3    C1 5600   4.014   1.526  15.403  1.1418 -0.0401  0.3371
  371TMC3    C2 5601   3.882   1.519  15.425 -0.0518  0.5151 -0.2266
  371TMC3    C3 5602   3.810   1.634  15.402 -0.5605  0.1019  0.1423
  371TMC3    C4 5603   4.071   1.635  15.348 -0.3516 -0.8889 -0.5519
  371TMC3    C5 5604   3.994   1.747  15.337  0.0857 -0.9187  0.3697
  371TMC3    C6 5605   3.865   1.753  15.365 -0.2538  0.3775 -0.4274
  371TMC3     C 5606   4.076   1.400  15.371  1.0537 -0.5374 -0.0664
  371TMC3     O 5607   4.171   1.402  15.294  0.1171 -0.5254 -0.1139
  371TMC3     H 5608   3.829   1.424  15.428 -0.7087  0.9174  1.0224
  371TMC3    H1 5609   4.178   1.640  15.330 -0.0860 -0.9062  0.9868
  371TMC3    H2 5610   3.813   1.845  15.342  1.7492  1.1809 -1.6883
  371TMC3    C7 5611   4.051   1.881  15.345 -0.3265 -0.0205 -1.0042
  371TMC3    C8 5612   3.673   1.633  15.448 -0.6559  0.7098  0.3812
  371TMC3    O1 5613   3.990   1.968  15.288  0.3514 -0.0606 -0.0403
  371TMC3    O2 5614   3.633   1.521  15.484  0.1408  0.3854 -0.3207
  372MPD2     C 5615   3.261   3.086  13.046 -0.7471  0.9057 -0.4158
  372MPD2    C1 5616   3.375   3.028  13.087  0.3140  0.4441 -0.4692
  372MPD2    C2 5617   3.367   2.944  13.190  0.3237 -0.5356 -0.8296
  372MPD2    C3 5618   3.250   2.929  13.264 -0.4722 -0.0407 -0.1620
  372MPD2    C4 5619   3.138   3.005  13.230 -0.6197  0.3966 -0.9930
  372MPD2    C5 5620   3.145   3.081  13.118 -0.0195  0.1500  0.1921
  372MPD2     H 5621   3.455   2.906  13.239 -0.1742 -0.6783 -0.0344
  372MPD2    H1 5622   3.046   2.988  13.284 -2.1402  1.8647 -3.0819
  372MPD2    H2 5623   3.264   3.164  12.971  2.7617  0.7121 -0.4773
  372MPD2    H3 5624   3.058   3.128  13.075 -1.4400 -1.9698  0.7302
  372MPD2     N 5625   3.256   2.869  13.395  1.2177  0.0362 -0.3547
  372MPD2    H5 5626   3.345   2.840  13.434  1.1059  0.4182  0.1940
  372MPD2    N1 5627   3.498   3.046  13.030  0.0723 -0.6357  0.9173
  372MPD2    H7 5628   3.570   3.003  13.087  0.0992 -1.3889  0.3007
  373TMC3    C1 5629   3.198   2.792  13.598 -0.0534  0.1746 -0.5626
  373TMC3    C2 5630   3.210   2.878  13.705  0.1654  0.0049  0.1550
  373TMC3    C3 5631   3.287   2.845  13.816 -0.0490 -0.4117  0.2244
  373TMC3    C4 5632   3.262   2.672  13.602 -0.4566  0.4716  0.1899
  373TMC3    C5 5633   3.322   2.636  13.722  0.3457  0.1264 -0.4677
  373TMC3    C6 5634   3.340   2.719  13.831 -0.1663  0.1561 -0.3618
  373TMC3     C 5635   3.150   2.851  13.484 -0.1305  0.1031  0.4888
  373TMC3     O 5636   3.045   2.920  13.489  0.0417  0.2366 -0.7695
  373TMC3     H 5637   3.175   2.980  13.696  0.1029  0.0344  0.7147
  373TMC3    H1 5638   3.268   2.609  13.514  0.4818 -0.1587  0.7126
  373TMC3    H2 5639   3.407   2.687  13.909  0.3791  0.3936 -0.7349
  373TMC3    C7 5640   3.397   2.508  13.715 -0.3632  0.4645 -0.7561
  373TMC3    C8 5641   3.375   2.945  13.879  0.2607 -0.5840  0.0418
  373TMC3    O1 5642   3.399   2.455  13.601  0.1071  0.1829  0.1501
  373TMC3    O2 5643   3.465   2.901  13.949  0.2081  0.8049  0.2815
  374TMC3    C1 5644   4.219   2.890   9.663 -0.5562  0.1624  0.1231
  374TMC3    C2 5645   4.289   3.003   9.634  0.3780 -0.2814 -0.2113
  374TMC3    C3 5646   4.357   3.007   9.514 -0.0569  0.3039 -0.2352
  374TMC3    C4 5647   4.206   2.790   9.571  0.2329  0.7451  0.1780
  374TMC3    C5 5648   4.282   2.800   9.451 -0.6624  0.1765 -0.5418
  374TMC3    C6 5649   4.357   2.905   9.426  0.3188 -0.8194 -0.4097
  374TMC3     C 5650   4.131   2.887   9.778  0.5549 -0.3245  0.5420
  374TMC3     O 5651   4.080   2.777   9.796 -0.4053 -0.0130 -0.6675
  374TMC3     H 5652   4.265   3.095   9.684 -1.4967  0.4461 -2.4786
  374TMC3    H1 5653   4.169   2.692   9.600  0.6735  1.1285  2.0364
  374TMC3    H2 5654   4.414   2.922   9.334  1.3428  0.9132  0.5293
  374TMC3    C7 5655   4.270   2.697   9.348 -0.0404  0.0204  0.5100
  374TMC3    C8 5656   4.443   3.119   9.486  0.1493 -0.2513 -0.3759
  374TMC3    O1 5657   4.356   2.702   9.261 -0.4426 -0.0498 -0.9685
  374TMC3    O2 5658   4.447   3.167   9.376 -0.3796  1.0076 -0.5005
  375MPD2     C 5659   4.049   3.822  17.414 -0.0306  0.2377 -0.5843
  375MPD2    C1 5660   3.972   3.750  17.320 -0.0507  0.2782  0.0371
  375MPD2    C2 5661   4.026   3.718  17.197  0.0903  0.2378 -0.7273
  375MPD2    C3 5662   4.165   3.744  17.176 -0.0062  0.5482  0.0696
  375MPD2    C4 5663   4.236   3.813  17.272  0.6208 -0.3941 -0.1781
  375MPD2    C5 5664   4.183   3.847  17.391 -0.2162  0.5925 -0.5254
  375MPD2     H 5665   3.963   3.661  17.130 -1.6550  0.9538  0.2906
  375MPD2    H1 5666   4.338   3.849  17.265  0.4714  0.1990  0.7420
  375MPD2    H2 5667   4.009   3.850  17.511 -0.5335 -0.7189 -0.5193
  375MPD2    H3 5668   4.251   3.905  17.451  1.9025 -0.8050 -1.5785
  375MPD2     N 5669   4.244   3.710  17.061  0.6041  0.6677 -0.3504
  375MPD2    H5 5670   4.343   3.730  17.068  0.6738  0.6270 -1.3267
  375MPD2    N1 5671   3.840   3.733  17.339  0.0514  0.6131 -0.2562
  375MPD2    H7 5672   3.773   3.715  17.266  0.6602  0.5887 -0.8080
  376TMC3    C1 5673   4.288   3.630  16.841  0.1934  0.2887  0.2188
  376TMC3    C2 5674   4.428   3.632  16.866 -0.2293  0.0348  0.5953
  376TMC3    C3 5675   4.504   3.597  16.756  0.7964  0.5955 -0.4328
  376TMC3    C4 5676   4.238   3.587  16.723 -0.5793 -0.5008  0.1718
  376TMC3    C5 5677   4.321   3.565  16.621  0.2708 -0.9091  0.1902
  376TMC3    C6 5678   4.456   3.580  16.629 -0.1503 -0.2893 -0.0453
  376TMC3     C 5679   4.187   3.652  16.952 -0.1830  0.0343  0.1195
  376TMC3     O 5680   4.067   3.647  16.922  0.0252  0.3145  0.6661
  376TMC3     H 5681   4.468   3.614  16.965  0.8151 -0.7933  0.0260
  376TMC3    H1 5682   4.130   3.591  16.717 -0.6006 -2.4853 -0.6927
  376TMC3    H2 5683   4.514   3.582  16.537  2.7783  2.2899  1.8568
  376TMC3    C7 5684   4.255   3.552  16.489  0.2453  0.3599 -0.7807
  376TMC3    C8 5685   4.654   3.609  16.767 -0.2410 -0.2508 -0.2322
  376TMC3    O1 5686   4.140   3.596  16.480  0.1660  0.2195 -0.4376
  376TMC3    O2 5687   4.715   3.562  16.671  0.1535  0.3340  0.3395
  377MPD2     C 5688   2.943   3.326  12.767 -0.6980 -0.4071 -0.0526
  377MPD2    C1 5689   2.837   3.264  12.703  0.6138  0.8316 -0.1924
  377MPD2    C2 5690   2.745   3.196  12.779  0.0325 -0.2595 -0.2618
  377MPD2    C3 5691   2.741   3.214  12.916  0.1047 -1.1268  0.3329
  377MPD2    C4 5692   2.829   3.300  12.980 -0.3292 -0.3370  0.8355
  377MPD2    C5 5693   2.933   3.351  12.903 -0.3016  0.4839  0.1246
  377MPD2     H 5694   2.670   3.133  12.733 -2.6869  2.8654 -0.1376
  377MPD2    H1 5695   2.818   3.332  13.083  2.0778 -2.1555  1.6645
  377MPD2    H2 5696   3.024   3.368  12.709 -0.5717 -1.6137 -0.7507
  377MPD2    H3 5697   3.005   3.419  12.949  1.3904  0.3056 -2.2351
  377MPD2     N 5698   2.650   3.154  13.010 -0.4953  0.2358 -0.3536
  377MPD2    H5 5699   2.674   3.174  13.107  1.5245  0.5410 -0.9266
  377MPD2    N1 5700   2.835   3.263  12.561  0.9227 -0.2710 -0.4153
  377MPD2    H7 5701   2.917   3.301  12.516 -0.7992  0.8165 -2.5958
  378TMC3    C1 5702   2.700   3.394  12.167  0.1064  0.0231 -0.7639
  378TMC3    C2 5703   2.661   3.336  12.283 -0.4088  0.3901 -0.2548
  378TMC3    C3 5704   2.756   3.258  12.341 -0.2566 -0.5604 -0.1356
  378TMC3    C4 5705   2.826   3.370  12.113  0.1571 -0.3679 -0.7137
  378TMC3    C5 5706   2.913   3.282  12.168  0.0633 -0.6815  0.4088
  378TMC3    C6 5707   2.879   3.231  12.291 -0.3287  0.3122 -0.2494
  378TMC3     C 5708   2.600   3.496  12.115 -0.7312  0.2385 -0.5746
  378TMC3     O 5709   2.494   3.517  12.174 -0.0632  0.1540  0.2499
  378TMC3     H 5710   2.568   3.350  12.337 -0.4529 -0.8557 -0.0139
  378TMC3    H1 5711   2.850   3.423  12.021 -2.5025  1.6655 -0.2366
  378TMC3    H2 5712   2.937   3.153  12.339  2.4780  2.3447 -0.3659
  378TMC3    C7 5713   3.024   3.206  12.104 -0.4618  0.4084 -0.1007
  378TMC3    C8 5714   2.726   3.237  12.481  1.0457 -0.3168 -0.2309
  378TMC3    O1 5715   3.090   3.140  12.187 -0.4517 -0.1495 -0.1167
  378TMC3    O2 5716   2.607   3.211  12.511  0.0139 -0.4369 -0.2934
  379MPD2     C 5717   3.323   1.563  16.253  0.7460  0.6731 -0.6069
  379MPD2    C1 5718   3.231   1.472  16.286 -0.5760 -0.3036 -0.3805
  379MPD2    C2 5719   3.240   1.404  16.407 -0.2329  0.5624  0.0279
  379MPD2    C3 5720   3.351   1.431  16.491  0.1750  0.5815  0.1341
  379MPD2    C4 5721   3.451   1.524  16.447  0.0658 -0.1479 -0.2867
  379MPD2    C5 5722   3.428   1.594  16.332 -0.5537 -0.1027 -0.5044
  379MPD2     H 5723   3.184   1.312  16.422 -0.6952  0.6188 -1.3922
  379MPD2    H1 5724   3.543   1.544  16.501  1.7633 -1.5931 -2.6264
  379MPD2    H2 5725   3.311   1.630  16.168 -1.3628  0.3714 -0.5364
  379MPD2    H3 5726   3.503   1.668  16.308 -2.3427  1.2310 -1.9981
  379MPD2     N 5727   3.374   1.355  16.608  0.0292 -0.4834 -0.1462
  379MPD2    H5 5728   3.463   1.362  16.657 -0.6848  1.6787  0.8556
  379MPD2    N1 5729   3.125   1.448  16.197 -0.5275  0.3621  0.2108
  379MPD2    H7 5730   3.135   1.484  16.103  0.3436  2.5538  1.1416
  380TMC3    C1 5731   2.908   1.415  16.128  0.0980 -0.3335  0.7881
  380TMC3    C2 5732   2.972   1.376  16.012  0.3805 -0.3021  0.0879
  380TMC3    C3 5733   2.913   1.403  15.891  0.0758 -0.0700  0.0932
  380TMC3    C4 5734   2.796   1.496  16.130 -0.5917 -0.0180  0.1602
  380TMC3    C5 5735   2.744   1.526  16.008 -0.2462  0.6052 -0.2385
  380TMC3    C6 5736   2.793   1.479  15.890  0.7143 -0.1432 -0.1248
  380TMC3     C 5737   2.999   1.402  16.239  0.9672  0.2513 -0.5741
  380TMC3     O 5738   2.942   1.390  16.343  0.5746  0.5533  0.4366
  380TMC3     H 5739   3.061   1.314  16.010  1.2208  0.9881 -2.0890
  380TMC3    H1 5740   2.755   1.531  16.224 -0.5134 -0.6495  0.4266
  380TMC3    H2 5741   2.768   1.525  15.796 -0.5744 -1.5735 -0.4872
  380TMC3    C7 5742   2.614   1.596  15.997  0.5671  0.6614 -0.1218
  380TMC3    C8 5743   2.975   1.380  15.763  0.0668  0.4812  0.5815
  380TMC3    O1 5744   2.586   1.675  16.081 -0.0331 -0.0832  0.1737
  380TMC3    O2 5745   2.907   1.398  15.662  0.2288  0.3352  0.1356
  381TMC3    C1 5746   2.618   2.409  16.009 -0.1051 -0.0821 -0.1497
  381TMC3    C2 5747   2.742   2.471  16.019 -0.3526  0.4329  0.2124
  381TMC3    C3 5748   2.757   2.568  16.116  0.4799  0.5547 -0.4485
  381TMC3    C4 5749   2.510   2.453  16.083  0.4721  0.2940 -0.0726
  381TMC3    C5 5750   2.529   2.541  16.184  0.7277 -0.4474 -0.3892
  381TMC3    C6 5751   2.654   2.596  16.210  0.3784 -0.3052  0.0621
  381TMC3     C 5752   2.611   2.290  15.929 -0.7538 -0.6022  0.2253
  381TMC3     O 5753   2.720   2.241  15.911  0.1525 -0.1045 -0.1781
  381TMC3     H 5754   2.814   2.462  15.938 -1.4988 -0.8252 -0.6588
  381TMC3    H1 5755   2.422   2.389  16.081 -1.0084  2.3758 -1.9564
  381TMC3    H2 5756   2.660   2.667  16.292  0.6587 -0.9701  0.6181
  381TMC3    C7 5757   2.467   2.494  16.307 -0.2700  0.1901  0.7008
  381TMC3    C8 5758   2.881   2.643  16.109  0.2888 -0.3433  0.3223
  381TMC3    O1 5759   2.473   2.372  16.310 -0.1196  0.1978 -0.1729
  381TMC3    O2 5760   2.964   2.594  16.032  0.2613 -0.3793  0.3434
  382MPD2     C 5761   1.734   0.589  16.826 -0.0689 -0.2385 -0.2301
  382MPD2    C1 5762   1.805   0.579  16.948 -0.1631  0.0421  0.1894
  382MPD2    C2 5763   1.855   0.457  16.981  0.3190  0.2038  0.0335
  382MPD2    C3 5764   1.837   0.345  16.902 -0.0297 -0.4553 -0.0253
  382MPD2    C4 5765   1.766   0.353  16.784  0.2126 -0.2594 -0.6543
  382MPD2    C5 5766   1.721   0.479  16.744  0.0974 -0.0751  0.5159
  382MPD2     H 5767   1.915   0.455  17.072  0.1221  1.6187  0.1917
  382MPD2    H1 5768   1.746   0.269  16.719 -0.3061 -1.2746  0.8107
  382MPD2    H2 5769   1.681   0.674  16.786  0.1093  0.2081  0.4800
  382MPD2    H3 5770   1.658   0.488  16.656 -0.1174  0.3390  0.7121
  382MPD2     N 5771   1.879   0.215  16.939 -0.4920  0.7434  0.2564
  382MPD2    H5 5772   1.883   0.147  16.863 -1.2906 -0.7839  1.6051
  382MPD2    N1 5773   1.835   0.692  17.030 -0.4061  0.2768  0.0848
  382MPD2    H7 5774   1.900   0.672  17.106  0.9331  0.2687 -1.0571
  383TMC3    C1 5775   1.958   0.041  17.078 -0.2907  0.6682  0.5026
  383TMC3    C2 5776   1.860   4.696  17.025 -0.0812 -0.2335 -0.5181
  383TMC3    C3 5777   1.873   4.557  17.033  0.9707  0.5724 -0.0359
  383TMC3    C4 5778   2.060   4.733  17.159 -0.3703 -1.0546  0.8374
  383TMC3    C5 5779   2.056   4.598  17.191  0.3265  0.0198 -1.0575
  383TMC3    C6 5780   1.966   4.514  17.131  0.3861 -0.2144  0.4856
  383TMC3     C 5781   1.945   0.186  17.057  0.4825  0.3740 -0.2043
  383TMC3     O 5782   2.001   0.258  17.139  0.7058 -0.2381 -0.1563
  383TMC3     H 5783   1.774   4.730  16.968 -0.2681 -0.4670 -0.3735
  383TMC3    H1 5784   2.125   0.060  17.219 -1.9730  0.7323  0.6808
  383TMC3    H2 5785   1.978   4.409  17.156  1.1259 -0.2527 -0.0238
  383TMC3    C7 5786   2.180   4.537  17.221  0.4618  0.1226 -0.2897
  383TMC3    C8 5787   1.764   4.477  16.986  0.1624  0.5105  0.2306
  383TMC3    O1 5788   2.212   4.423  17.189  0.0183  0.5086 -0.2956
  383TMC3    O2 5789   1.702   4.521  16.890 -0.1880  0.1804 -0.3672
  384MPD2     C 5790   3.865   1.064  11.970  0.4060 -0.0192 -0.2872
  384MPD2    C1 5791   3.928   0.998  12.072  0.2052  0.5613  0.2366
  384MPD2    C2 5792   3.991   0.878  12.045 -0.0613  2.0939  0.2392
  384MPD2    C3 5793   4.005   0.834  11.908  0.1530  0.0750  0.1617
  384MPD2    C4 5794   3.951   0.912  11.811 -0.5216 -0.8299 -0.0250
  384MPD2    C5 5795   3.880   1.026  11.838  0.6966  0.3871  0.6349
  384MPD2     H 5796   4.047   0.838  12.129 -1.0344  0.3020  0.0312
  384MPD2    H1 5797   3.964   0.890  11.706  0.7406  1.3413 -0.3238
  384MPD2    H2 5798   3.804   1.152  11.989  0.5405 -0.7262  3.3243
  384MPD2    H3 5799   3.850   1.093  11.758 -1.9226 -2.5095 -0.7907
  384MPD2     N 5800   4.077   0.718  11.879  0.1139 -0.5026  0.0433
  384MPD2    H5 5801   4.103   0.657  11.956  1.6870  0.8850  0.6111
  384MPD2    N1 5802   3.935   1.039  12.206 -0.3245  0.2569  0.3334
  384MPD2    H7 5803   3.999   0.990  12.268 -0.5863  2.2431  2.1880
  385TMC3    C1 5804   4.168   0.536  11.780  0.2318 -0.0177  0.7322
  385TMC3    C2 5805   4.115   0.417  11.750  1.1296 -0.7704 -0.1273
  385TMC3    C3 5806   4.138   0.309  11.828 -0.2572  0.0189  0.3382
  385TMC3    C4 5807   4.236   0.547  11.895 -0.4815 -0.2199  0.0672
  385TMC3    C5 5808   4.258   0.439  11.982 -0.7739  0.1091  0.2135
  385TMC3    C6 5809   4.209   0.317  11.943  0.6306  0.2609 -0.2907
  385TMC3     C 5810   4.088   0.656  11.758 -0.1486  0.4903 -0.1342
  385TMC3     O 5811   4.052   0.684  11.647  0.9295  0.2389 -0.3220
  385TMC3     H 5812   4.056   0.422  11.660 -0.5458  2.2365  1.1387
  385TMC3    H1 5813   4.287   0.639  11.919 -0.3944 -0.5263  1.0459
  385TMC3    H2 5814   4.220   0.234  12.013  0.1836 -1.8191 -2.7171
  385TMC3    C7 5815   4.216   0.493  12.111 -1.1366  0.3457 -0.3346
  385TMC3    C8 5816   4.099   0.184  11.780  0.1600 -0.5686  1.3089
  385TMC3    O1 5817   4.190   0.615  12.112 -0.4761  0.0154 -0.2859
  385TMC3    O2 5818   4.150   0.086  11.833 -0.2585  0.2345  0.2805
  386TMC3    C1 5819   3.876   3.220  11.066  0.2675 -0.0708  0.3218
  386TMC3    C2 5820   3.841   3.252  10.940  0.0541  0.3719  0.4729
  386TMC3    C3 5821   3.817   3.379  10.912  0.5819  0.1257 -0.3893
  386TMC3    C4 5822   3.858   3.302  11.177  0.0289 -0.7662 -0.3700
  386TMC3    C5 5823   3.828   3.432  11.147 -0.1794 -0.0043  0.3174
  386TMC3    C6 5824   3.816   3.473  11.016  0.1973 -1.0139  0.0645
  386TMC3     C 5825   3.869   3.079  11.107  0.7672 -0.1328  0.1125
  386TMC3     O 5826   3.930   2.998  11.041 -0.0830 -0.1539  0.2933
  386TMC3     H 5827   3.851   3.179  10.860 -1.4956  0.4986  0.1763
  386TMC3    H1 5828   3.888   3.274  11.278 -0.0592 -1.9862 -0.6790
  386TMC3    H2 5829   3.801   3.576  10.988 -2.7397 -1.2014  0.9717
  386TMC3    C7 5830   3.741   3.495  11.248  0.1438  0.0390  0.3299
  386TMC3    C8 5831   3.723   3.409  10.804 -0.0080 -0.2010  0.1072
  386TMC3    O1 5832   3.747   3.452  11.367  0.4883  0.5439  1.1149
  386TMC3    O2 5833   3.678   3.522  10.796  0.2663  0.2735  0.3363
  387MPD2     C 5834   1.320   3.671   9.868  0.2435 -0.7057 -0.9238
  387MPD2    C1 5835   1.456   3.672   9.894 -0.1795 -0.2771 -0.1714
  387MPD2    C2 5836   1.512   3.550   9.904  0.2564 -0.5003 -0.1775
  387MPD2    C3 5837   1.446   3.431   9.900 -0.3926  0.4398  0.5942
  387MPD2    C4 5838   1.308   3.438   9.888 -0.8262 -0.5603  0.3647
  387MPD2    C5 5839   1.251   3.558   9.859  0.0258 -0.2403 -0.2642
  387MPD2     H 5840   1.617   3.554   9.931  0.4232 -0.2276 -0.8745
  387MPD2    H1 5841   1.248   3.348   9.886 -0.0878 -1.0197 -1.5473
  387MPD2    H2 5842   1.267   3.765   9.857  0.6369 -0.0617  2.5295
  387MPD2    H3 5843   1.144   3.566   9.846 -0.0264 -0.1952  0.1941
  387MPD2     N 5844   1.517   3.315   9.934 -0.0064 -0.1631  0.5927
  387MPD2    H5 5845   1.616   3.326   9.954 -0.4403 -0.0074  2.6205
  387MPD2    N1 5846   1.538   3.780   9.922  0.3786 -0.4898 -0.0804
  387MPD2    H7 5847   1.636   3.756   9.935  1.2982  2.9861 -0.7227
  388TMC3    C1 5848   1.612   3.952  10.030  0.2041 -0.8223 -0.4266
  388TMC3    C2 5849   1.648   4.081  10.024  0.5962  0.6459  0.0847
  388TMC3    C3 5850   1.762   4.120  10.097  0.6682 -0.0811 -0.7010
  388TMC3    C4 5851   1.659   3.872  10.136 -0.0169  0.4455  0.7961
  388TMC3    C5 5852   1.771   3.908  10.203 -0.2600  1.0895  0.1086
  388TMC3    C6 5853   1.826   4.031  10.185  0.9043  0.1185 -0.5739
  388TMC3     C 5854   1.501   3.903   9.949  0.1313  0.5360 -0.3147
  388TMC3     O 5855   1.404   3.967   9.911 -0.1337 -0.5483 -0.1570
  388TMC3     H 5856   1.584   4.148   9.968 -0.0402 -0.7034 -0.8111
  388TMC3    H1 5857   1.646   3.765  10.124  0.2779  0.4385  0.5525
  388TMC3    H2 5858   1.912   4.065  10.243  1.1079 -1.3197 -0.0310
  388TMC3    C7 5859   1.853   3.794  10.247  0.1059 -0.0897 -0.2884
  388TMC3    C8 5860   1.811   4.249  10.068 -0.0080  0.6306 -0.2336
  388TMC3    O1 5861   1.971   3.814  10.236  0.1045  0.4898  0.2303
  388TMC3    O2 5862   1.750   4.325   9.996  0.5083  0.0897 -0.5011
  389MPD2     C 5863   0.744   2.315  10.934 -0.3355 -0.3920 -0.3515
  389MPD2    C1 5864   0.637   2.232  10.910  0.4945 -0.4089  0.4775
  389MPD2    C2 5865   0.609   2.140  11.013 -0.2852  0.0485 -0.4564
  389MPD2    C3 5866   0.668   2.150  11.142 -0.0118 -0.3394  0.8499
  389MPD2    C4 5867   0.770   2.237  11.159 -0.0491  0.6280  0.9645
  389MPD2    C5 5868   0.803   2.320  11.054  0.7599 -0.1269  0.0640
  389MPD2     H 5869   0.527   2.070  11.001  0.9031 -1.2143 -1.2183
  389MPD2    H1 5870   0.826   2.256  11.250 -2.3896 -0.5724  2.6356
  389MPD2    H2 5871   0.778   2.385  10.858  0.3045  0.3442  0.6130
  389MPD2    H3 5872   0.894   2.380  11.059  1.4399 -1.2636  1.3071
  389MPD2     N 5873   0.632   2.082  11.255  0.3359 -0.2351 -0.2999
  389MPD2    H5 5874   0.668   2.120  11.342  0.3352 -1.4216  0.2281
  389MPD2    N1 5875   0.573   2.230  10.786 -0.8107 -0.1514 -0.4664
  389MPD2    H7 5876   0.611   2.287  10.711  0.9740 -1.6731 -0.7404
  390TMC3    C1 5877   0.558   1.907  11.383 -0.4591 -0.2765 -0.4537
  390TMC3    C2 5878   0.603   1.776  11.407  0.1559 -0.1278 -0.4809
  390TMC3    C3 5879   0.588   1.728  11.531 -0.7367 -0.2943  0.1073
  390TMC3    C4 5880   0.481   1.975  11.476 -0.4785  0.3093 -0.1871
  390TMC3    C5 5881   0.468   1.920  11.597  0.6411  0.0187  0.8304
  390TMC3    C6 5882   0.531   1.801  11.629 -0.3942  0.6082  0.4901
  390TMC3     C 5883   0.566   1.965  11.252 -0.4252  0.4678 -0.1350
  390TMC3     O 5884   0.537   1.899  11.152 -0.2725 -0.4288 -0.1219
  390TMC3     H 5885   0.660   1.713  11.340 -2.4512 -2.1032 -0.8454
  390TMC3    H1 5886   0.439   2.075  11.466  0.9264  1.0786  1.6294
  390TMC3    H2 5887   0.499   1.771  11.728  1.5745  0.1596  0.9839
  390TMC3    C7 5888   0.347   1.973  11.665 -0.5716 -0.3103 -0.3850
  390TMC3    C8 5889   0.585   1.582  11.546 -0.3560 -0.2351 -0.3735
  390TMC3    O1 5890   0.354   2.094  11.691  0.0258  0.4608  0.3998
  390TMC3    O2 5891   0.571   1.524  11.438  0.2181 -0.5562 -0.3083
  391MPD2     C 5892   0.049   3.316  10.984 -0.1336  0.0771  0.8532
  391MPD2    C1 5893   0.159   3.379  10.930 -0.6162 -0.6379  0.4369
  391MPD2    C2 5894   0.154   3.419  10.792 -0.3762 -0.0184  0.5072
  391MPD2    C3 5895   0.056   3.386  10.710  0.7018 -0.5271  0.1554
  391MPD2    C4 5896   4.687   3.320  10.762  0.1123  0.0782 -0.2764
  391MPD2    C5 5897   4.683   3.295  10.895 -0.5170 -0.4371 -0.6772
  391MPD2     H 5898   0.239   3.472  10.749  0.3360 -2.4883 -1.1299
  391MPD2    H1 5899   4.605   3.276  10.706 -1.4256  0.7710  1.4380
  391MPD2    H2 5900   0.045   3.293  11.090  3.5410 -2.5090  0.4126
  391MPD2    H3 5901   4.596   3.240  10.929  0.2918 -0.5386  1.2461
  391MPD2     N 5902   0.085   3.413  10.574 -0.5623  1.0362  0.3198
  391MPD2    H5 5903   0.174   3.453  10.547  0.7858 -2.1925  0.0914
  391MPD2    N1 5904   0.273   3.410  11.007  0.3342 -0.0226 -0.6425
  391MPD2    H7 5905   0.264   3.413  11.109  0.5851  0.5516 -0.6415
  392TMC3    C1 5906   0.028   3.450  10.340 -0.0902  0.1627 -0.3090
  392TMC3    C2 5907   4.669   3.456  10.244 -0.6500  0.0366 -0.2635
  392TMC3    C3 5908   4.687   3.524  10.126 -0.5067 -0.0914 -0.1990
  392TMC3    C4 5909   0.138   3.526  10.329 -0.4639 -0.8141 -0.8605
  392TMC3    C5 5910   0.158   3.601  10.217  0.0130 -0.5208  0.8974
  392TMC3    C6 5911   0.071   3.593  10.110  0.1454  0.4536  0.1825
  392TMC3     C 5912   4.735   3.380  10.469 -0.3260 -0.0550 -0.6366
  392TMC3     O 5913   4.631   3.319  10.465 -1.3033 -0.6058  0.1083
  392TMC3     H 5914   4.572   3.408  10.253 -0.3144 -0.3812  1.0836
  392TMC3    H1 5915   0.209   3.531  10.410 -0.7143 -0.9825 -0.6300
  392TMC3    H2 5916   0.091   3.652  10.022  0.4308 -0.7715 -0.5647
  392TMC3    C7 5917   0.271   3.692  10.215 -0.1621  0.2819  0.9625
  392TMC3    C8 5918   4.629   3.455  10.014 -0.3373 -0.3158 -0.1451
  392TMC3    O1 5919   0.334   3.706  10.322 -0.0243  0.2694 -0.2506
  392TMC3    O2 5920   4.581   3.343  10.039 -0.0228  0.0677  0.1108
  393TMC3    C1 5921   3.477   0.968  10.728  0.2250 -0.1673 -0.2993
  393TMC3    C2 5922   3.445   0.931  10.856  0.3351 -0.6858 -0.0197
  393TMC3    C3 5923   3.448   0.799  10.884 -0.1316 -0.0125  0.8220
  393TMC3    C4 5924   3.497   0.874  10.628  0.6297  0.6896 -0.4450
  393TMC3    C5 5925   3.501   0.744  10.662 -0.2120 -0.2743  0.3508
  393TMC3    C6 5926   3.482   0.703  10.789 -0.1082  0.0765  0.6008
  393TMC3     C 5927   3.497   1.109  10.697  1.0351  0.2369  0.4641
  393TMC3     O 5928   3.516   1.176  10.793 -0.0011  0.2060  0.4013
  393TMC3     H 5929   3.402   0.992  10.934  1.2455 -0.1231  0.0479
  393TMC3    H1 5930   3.519   0.906  10.527  0.3215  2.0489 -0.0817
  393TMC3    H2 5931   3.485   0.598  10.816  0.4716 -0.2503 -0.7390
  393TMC3    C7 5932   3.596   0.663  10.587  0.0450  0.5831 -0.2550
  393TMC3    C8 5933   3.357   0.754  10.986 -0.0407  0.4530 -0.0649
  393TMC3    O1 5934   3.607   0.701  10.472  0.2653 -0.2151  0.1903
  393TMC3    O2 5935   3.268   0.678  10.942  0.1918 -0.6145 -0.2566
  394TMC3    C1 5936   0.434   2.157  10.611  0.1289  0.4344  0.6301
  394TMC3    C2 5937   0.309   2.107  10.575 -0.1386 -0.4654  0.4139
  394TMC3    C3 5938   0.276   2.078  10.448 -0.0411  0.3089  0.0579
  394TMC3    C4 5939   0.533   2.168  10.517 -0.0156 -0.4490 -0.2353
  394TMC3    C5 5940   0.496   2.135  10.390 -0.1864 -0.1324 -0.0334
  394TMC3    C6 5941   0.369   2.093  10.354 -0.5322 -0.0965 -0.1010
  394TMC3     C 5942   0.467   2.159  10.752  0.5690  0.0979  0.3496
  394TMC3     O 5943   0.403   2.078  10.820 -0.4702 -0.4028 -0.3541
  394TMC3     H 5944   0.239   2.086  10.655 -0.7943  1.9632  0.4602
  394TMC3    H1 5945   0.633   2.195  10.547 -1.0447  0.3106  2.5063
  394TMC3    H2 5946   0.335   2.077  10.252  0.4477  0.9350 -0.5905
  394TMC3    C7 5947   0.588   2.184  10.293 -0.2470 -0.2545  0.5799
  394TMC3    C8 5948   0.196   1.961  10.437 -0.4044  0.5459 -0.2435
  394TMC3    O1 5949   0.685   2.250  10.327  0.5677  0.1887 -0.2679
  394TMC3    O2 5950   0.092   1.947  10.501 -0.2642  0.4197  0.1426
  395TMC3    C1 5951   0.424   3.056  14.736  0.3900  0.8607  0.4262
  395TMC3    C2 5952   0.308   3.126  14.755 -0.8433  0.4676 -0.3305
  395TMC3    C3 5953   0.309   3.261  14.775 -0.4097  0.7579 -0.1802
  395TMC3    C4 5954   0.540   3.125  14.718 -0.1055  0.2388  0.2467
  395TMC3    C5 5955   0.545   3.258  14.748 -0.8382  0.5745  0.8962
  395TMC3    C6 5956   0.428   3.333  14.770 -0.5427  0.0703 -0.3843
  395TMC3     C 5957   0.445   2.925  14.801 -0.7128  0.7288 -1.2467
  395TMC3     O 5958   0.559   2.874  14.779 -0.5439 -0.4942 -0.3912
  395TMC3     H 5959   0.213   3.079  14.774  0.3306 -1.9946 -0.5632
  395TMC3    H1 5960   0.635   3.074  14.711 -0.0381  0.5202 -0.9517
  395TMC3    H2 5961   0.430   3.435  14.806 -0.1738 -0.4468  1.0755
  395TMC3    C7 5962   0.665   3.338  14.725 -0.5070  0.4595 -0.1579
  395TMC3    C8 5963   0.186   3.338  14.782  0.6741  0.4514  0.1082
  395TMC3    O1 5964   0.655   3.450  14.769 -0.1627 -0.4323 -0.2975
  395TMC3    O2 5965   0.196   3.448  14.836 -0.1928 -0.3612 -0.1787
  396MPD2     C 5966   0.275   4.465  17.005 -0.7761  0.2737 -0.2351
  396MPD2    C1 5967   0.367   4.566  17.024  0.3836  0.2436  0.4020
  396MPD2    C2 5968   0.358   4.672  16.941  0.0701  0.7724  0.1694
  396MPD2    C3 5969   0.269   4.682  16.833  0.6154 -0.1886  0.0929
  396MPD2    C4 5970   0.184   4.577  16.813  0.0213 -0.0308  0.4420
  396MPD2    C5 5971   0.185   4.480  16.903 -0.0513  0.1166 -0.2839
  396MPD2     H 5972   0.419   0.021  16.968 -0.5048  0.5901  2.0459
  396MPD2    H1 5973   0.115   4.559  16.732  2.7617 -1.6555 -1.5007
  396MPD2    H2 5974   0.262   4.370  17.056 -0.0083  1.2044  1.6747
  396MPD2    H3 5975   0.107   4.406  16.889  0.4525  0.0150 -2.5062
  396MPD2     N 5976   0.258   0.061  16.754 -0.0963 -0.3974  0.0722
  396MPD2    H5 5977   0.324   0.135  16.776 -2.0937  1.0412  1.2867
  396MPD2    N1 5978   0.442   4.551  17.141 -0.1276 -0.5240  0.1513
  396MPD2    H7 5979   0.427   4.467  17.196 -3.3049 -0.0352  0.0409
  397TMC3    C1 5980   0.549   4.598  17.338  0.6442 -0.1620 -0.1073
  397TMC3    C2 5981   0.685   4.582  17.367 -0.6163  0.1683  0.3626
  397TMC3    C3 5982   0.736   4.461  17.403  0.5364  0.4797 -0.0269
  397TMC3    C4 5983   0.470   4.493  17.375  0.1910 -0.6418 -0.1872
  397TMC3    C5 5984   0.518   4.389  17.443  0.4561 -0.1797 -0.8459
  397TMC3    C6 5985   0.654   4.361  17.447  0.2828  0.0519  0.4860
  397TMC3     C 5986   0.527   4.639  17.200 -0.5367  0.2757 -0.5250
  397TMC3     O 5987   0.585   4.736  17.155 -0.0099  0.5572 -0.1117
  397TMC3     H 5988   0.739   4.654  17.307 -2.0479  0.3917 -0.6506
  397TMC3    H1 5989   0.362   4.498  17.370  0.2984 -0.2245 -2.0048
  397TMC3    H2 5990   0.689   4.261  17.467 -0.9869 -0.4855 -0.0101
  397TMC3    C7 5991   0.419   4.276  17.466  0.3248 -0.0984  0.1561
  397TMC3    C8 5992   0.831   4.405  17.307  0.1825  0.4524 -0.5547
  397TMC3    O1 5993   0.306   4.283  17.424  0.2163  0.0924  0.0274
  397TMC3    O2 5994   0.821   4.287  17.281 -0.8021  0.1505  0.0112
  398MPD2     C 5995   3.612   1.621   0.402 -0.4890 -0.8753 -0.3273
  398MPD2    C1 5996   3.683   1.549   0.497  0.2428  0.6347  0.5687
  398MPD2    C2 5997   3.791   1.608   0.556 -1.2310  0.4789  0.1224
  398MPD2    C3 5998   3.837   1.735   0.528 -0.0856 -0.5871  0.1775
  398MPD2    C4 5999   3.773   1.805   0.432 -0.2107 -0.0979  0.8778
  398MPD2    C5 6000   3.655   1.754   0.382  0.5596 -0.1803 -0.1693
  398MPD2     H 6001   3.841   1.548   0.632 -0.7606  0.4644 -0.2016
  398MPD2    H1 6002   3.812   1.895   0.388 -0.7725 -0.3642 -0.1640
  398MPD2    H2 6003   3.522   1.592   0.348 -2.0494  1.2031  1.1350
  398MPD2    H3 6004   3.591   1.810   0.315  2.7796  1.4944 -0.9066
  398MPD2     N 6005   3.943   1.781   0.607  0.7266  0.5067  0.2104
  398MPD2    H5 6006   3.983   1.713   0.671 -0.9326 -0.9600 -0.2908
  398MPD2    N1 6007   3.652   1.417   0.533 -0.0237 -0.2210  0.7221
  398MPD2    H7 6008   3.696   1.376   0.614  0.1166 -0.4288  0.5377
  399TMC3    C1 6009   3.539   1.216   0.526  0.6838  0.3756 -0.1601
  399TMC3    C2 6010   3.626   1.175   0.616 -0.2709  0.2547  0.6008
  399TMC3    C3 6011   3.608   1.043   0.657 -0.3630 -0.2627 -1.2272
  399TMC3    C4 6012   3.439   1.140   0.478  0.7193 -0.1468  0.2713
  399TMC3    C5 6013   3.424   1.013   0.525 -0.1527 -0.2520  0.6729
  399TMC3    C6 6014   3.514   0.959   0.602 -0.8812 -0.1287  0.1022
  399TMC3     C 6015   3.554   1.346   0.465 -0.8018 -0.0981 -0.3820
  399TMC3     O 6016   3.504   1.359   0.357  0.3064 -0.1367  0.2459
  399TMC3     H 6017   3.710   1.233   0.651  0.2797 -0.2540  0.1187
  399TMC3    H1 6018   3.353   1.183   0.428  2.4773  0.2354 -2.4174
  399TMC3    H2 6019   3.504   0.857   0.639  0.4727 -0.5329 -0.6556
  399TMC3    C7 6020   3.333   0.921   0.452 -0.8391  0.9309  0.6083
  399TMC3    C8 6021   3.720   0.968   0.714 -0.1820 -0.2087  0.7502
  399TMC3    O1 6022   3.344   0.803   0.482  0.3695 -0.3423  0.2552
  399TMC3    O2 6023   3.693   0.858   0.763  0.5967 -0.4663  0.1870
  400TMC3    C1 6024   1.641   4.132  16.507 -0.1527  0.4497  0.5555
  400TMC3    C2 6025   1.544   4.056  16.446  0.7461  0.4081 -0.7280
  400TMC3    C3 6026   1.447   4.117  16.374 -0.8192 -0.1911  0.1832
  400TMC3    C4 6027   1.644   4.271  16.492 -1.0196 -0.2035 -0.5592
  400TMC3    C5 6028   1.546   4.323  16.409 -0.7257 -0.0486  0.1070
  400TMC3    C6 6029   1.447   4.250  16.351  0.1362 -0.0929 -0.4582
  400TMC3     C 6030   1.722   4.074  16.615  0.3533  0.0250  0.2178
  400TMC3     O 6031   1.707   3.955  16.631  0.2857 -0.4393  0.0876
  400TMC3     H 6032   1.556   3.948  16.454  0.6486  0.5381  1.0485
  400TMC3    H1 6033   1.710   4.343  16.539 -0.2008  1.1557 -3.7170
  400TMC3    H2 6034   1.378   4.307  16.291  0.6789  0.8107 -0.2227
  400TMC3    C7 6035   1.537   4.467  16.395 -0.6577  0.5733 -0.5243
  400TMC3    C8 6036   1.340   4.036  16.317 -0.5308 -0.0852  0.1134
  400TMC3    O1 6037   1.514   4.497  16.282  0.1668  0.2751  0.7975
  400TMC3    O2 6038   1.277   4.081  16.221  0.0107 -0.3397 -0.8312
  401MPD2     C 6039   0.303   2.972   1.111  0.1949 -0.1686  0.1018
  401MPD2    C1 6040   0.428   2.922   1.131  0.0160  0.8794  0.4094
  401MPD2    C2 6041   0.439   2.786   1.138  0.1341 -0.2868  0.5740
  401MPD2    C3 6042   0.333   2.699   1.119 -0.1378 -0.2394 -0.9849
  401MPD2    C4 6043   0.210   2.759   1.104  0.1054 -0.0135 -0.5696
  401MPD2    C5 6044   0.192   2.892   1.104 -0.0101 -0.2455  0.6940
  401MPD2     H 6045   0.540   2.755   1.160  0.0168 -0.0085  1.5234
  401MPD2    H1 6046   0.114   2.709   1.097  1.2993 -2.2001 -1.3255
  401MPD2    H2 6047   0.283   3.078   1.101 -0.9910 -0.4905 -0.9265
  401MPD2    H3 6048   0.093   2.935   1.109 -0.5940 -1.7008  1.4225
  401MPD2     N 6049   0.361   2.563   1.131 -0.0011  0.0785 -0.3849
  401MPD2    H5 6050   0.455   2.527   1.147 -1.4883 -4.3928 -1.7560
  401MPD2    N1 6051   0.542   3.004   1.142 -0.0773  0.1562 -0.1645
  401MPD2    H7 6052   0.630   2.959   1.166 -0.4496  0.0635  0.9887
  402TMC3    C1 6053   0.301   2.331   1.157  0.1602  0.0658  0.2485
  402TMC3    C2 6054   0.414   2.320   1.233  0.1589  0.8089 -0.8304
  402TMC3    C3 6055   0.467   2.194   1.243  0.0360 -0.1525 -0.2728
  402TMC3    C4 6056   0.244   2.232   1.087  0.3618 -0.4964 -0.2383
  402TMC3    C5 6057   0.301   2.112   1.095  0.1842  0.1756 -0.7641
  402TMC3    C6 6058   0.418   2.091   1.167  0.3319 -0.0867 -0.7678
  402TMC3     C 6059   0.262   2.467   1.116  0.2424  0.1156 -0.2442
  402TMC3     O 6060   0.145   2.482   1.079  0.1160 -0.6237 -0.4225
  402TMC3     H 6061   0.456   2.409   1.278  0.7746 -0.8748  1.9752
  402TMC3    H1 6062   0.148   2.241   1.038  0.5827 -0.4947 -0.6668
  402TMC3    H2 6063   0.458   1.990   1.166  1.2464  0.2998 -2.1960
  402TMC3    C7 6064   0.270   2.020   0.985 -0.1872 -0.0039 -0.1122
  402TMC3    C8 6065   0.592   2.185   1.317  0.0666 -0.5557 -0.0429
  402TMC3    O1 6066   0.162   2.019   0.927 -0.6838 -0.4522  0.1317
  402TMC3    O2 6067   0.607   2.275   1.398  0.0508  0.2270 -0.3298
  403MPD2     C 6068   2.977   1.321  13.911 -0.3765  0.1546 -0.2768
  403MPD2    C1 6069   3.075   1.240  13.855  0.2115 -0.4138 -0.2353
  403MPD2    C2 6070   3.208   1.274  13.870  0.2646 -0.2206  0.2782
  403MPD2    C3 6071   3.246   1.386  13.940  0.9930 -0.1910 -0.1698
  403MPD2    C4 6072   3.146   1.471  13.992 -0.2480  0.1336  0.4783
  403MPD2    C5 6073   3.019   1.433  13.980 -0.0258 -0.4255 -0.0086
  403MPD2     H 6074   3.283   1.204  13.834  0.0724 -0.1918 -0.1822
  403MPD2    H1 6075   3.161   1.564  14.044 -0.1646  0.5374 -0.2650
  403MPD2    H2 6076   2.871   1.301  13.905 -0.3363 -0.6507  1.7860
  403MPD2    H3 6077   2.939   1.498  14.013 -0.4717  1.0860 -4.0581
  403MPD2     N 6078   3.386   1.420  13.957 -0.2333 -0.2510 -0.2900
  403MPD2    H5 6079   3.450   1.348  13.925  0.6020  0.3992 -0.0602
  403MPD2    N1 6080   3.026   1.126  13.788  0.1527 -0.4400  0.2912
  403MPD2    H7 6081   2.930   1.097  13.804  0.1908  0.8037  2.7196
  404TMC3    C1 6082   3.029   0.930  13.649  0.3600 -0.6934 -0.1776
  404TMC3    C2 6083   2.955   0.862  13.740 -0.9463 -0.3063  0.1106
  404TMC3    C3 6084   2.891   0.747  13.701 -0.0334  0.0701  0.1229
  404TMC3    C4 6085   3.053   0.890  13.520  0.0577 -0.2303 -0.1629
  404TMC3    C5 6086   2.998   0.772  13.483 -0.7190  0.0614 -0.1300
  404TMC3    C6 6087   2.912   0.701  13.567 -0.3240 -0.3309  0.1877
  404TMC3     C 6088   3.096   1.050  13.697  0.5225 -0.1680 -0.1486
  404TMC3     O 6089   3.199   1.088  13.643 -0.3721 -0.3436  0.2033
  404TMC3     H 6090   2.950   0.893  13.844 -1.7445 -1.0901  0.2971
  404TMC3    H1 6091   3.120   0.939  13.451  0.0798  0.0354  0.0442
  404TMC3    H2 6092   2.856   0.616  13.529 -1.5247  0.4544  0.2152
  404TMC3    C7 6093   3.024   0.721  13.349 -0.5065 -0.0200  1.3194
  404TMC3    C8 6094   2.886   0.639  13.798 -0.3613 -0.2408 -0.2952
  404TMC3    O1 6095   3.115   0.773  13.283  0.2801 -0.0578 -0.3791
  404TMC3    O2 6096   2.897   0.531  13.744 -0.6147  0.0127 -0.5418
  405MPD2     C 6097   3.580   1.750  14.544  0.3303  0.4645 -0.0237
  405MPD2    C1 6098   3.483   1.681  14.477  0.0702 -0.3638 -0.4748
  405MPD2    C2 6099   3.367   1.748  14.433  0.4247 -0.2260 -0.1490
  405MPD2    C3 6100   3.346   1.880  14.468 -0.3394 -0.0350  0.0987
  405MPD2    C4 6101   3.446   1.948  14.541 -0.3037 -0.2235  0.4682
  405MPD2    C5 6102   3.563   1.880  14.573 -0.8871 -0.0725  0.4169
  405MPD2     H 6103   3.287   1.705  14.374  0.8094  0.0709 -0.8878
  405MPD2    H1 6104   3.422   2.048  14.574 -0.2502  0.6240 -2.0244
  405MPD2    H2 6105   3.668   1.701  14.584 -0.2507 -0.5600 -0.0197
  405MPD2    H3 6106   3.638   1.929  14.634  1.7973 -2.1038 -1.2626
  405MPD2     N 6107   3.217   1.928  14.436 -0.1121 -0.0819 -0.0576
  405MPD2    H5 6108   3.169   1.868  14.369 -0.7402  0.1472  0.1917
  405MPD2    N1 6109   3.506   1.536  14.461 -0.4090 -0.2339  0.1341
  405MPD2    H7 6110   3.585   1.504  14.515 -1.2635 -3.4820 -0.5352
  406TMC3    C1 6111   2.823   2.108  14.518  0.4062  0.3139  0.2939
  406TMC3    C2 6112   2.771   1.991  14.470 -0.3492  0.3573 -0.0853
  406TMC3    C3 6113   2.849   1.911  14.393  0.0010 -0.5980  0.0600
  406TMC3    C4 6114   2.945   2.151  14.473 -0.3310  0.3964  0.2787
  406TMC3    C5 6115   3.023   2.059  14.405  0.3886  0.2276 -0.3218
  406TMC3    C6 6116   2.978   1.936  14.358  0.1817 -0.1200 -0.2322
  406TMC3     C 6117   2.736   2.208  14.581  0.7419  0.7689  0.1650
  406TMC3     O 6118   2.755   2.327  14.565 -0.3314 -0.2932 -0.6798
  406TMC3     H 6119   2.664   1.975  14.480 -0.0348 -1.9908 -0.5055
  406TMC3    H1 6120   2.982   2.251  14.492 -1.3687  0.5417  1.5402
  406TMC3    H2 6121   3.032   1.868  14.293 -1.7764 -2.0508  0.1522
  406TMC3    C7 6122   3.167   2.057  14.445 -0.1902  0.2767 -0.0173
  406TMC3    C8 6123   2.808   1.778  14.407 -0.0001  0.2639  0.2562
  406TMC3    O1 6124   3.212   2.157  14.498 -0.3223  0.1814  0.0388
  406TMC3    O2 6125   2.740   1.749  14.504  0.5030 -0.3543 -0.1607
  407MPD2     C 6126   1.108   3.072   9.450  0.0758 -0.1030  0.3072
  407MPD2    C1 6127   1.176   3.128   9.561  0.5325  0.4747  0.2310
  407MPD2    C2 6128   1.100   3.158   9.674  0.4262  0.6334 -0.0546
  407MPD2    C3 6129   0.964   3.151   9.670 -0.0283  0.9019 -0.3762
  407MPD2    C4 6130   0.904   3.091   9.562 -0.2595 -0.6090 -0.4734
  407MPD2    C5 6131   0.973   3.055   9.450 -0.3748 -0.1235  0.3632
  407MPD2     H 6132   1.153   3.197   9.761 -0.6772 -2.2766  1.9259
  407MPD2    H1 6133   0.797   3.077   9.572 -0.0376 -1.2518  1.0086
  407MPD2    H2 6134   1.167   3.055   9.361 -0.6944  2.3153 -0.6614
  407MPD2    H3 6135   0.929   3.005   9.364  0.4241 -1.7941  0.9191
  407MPD2     N 6136   0.888   3.195   9.777  0.5346 -0.2279 -0.3158
  407MPD2    H5 6137   0.788   3.206   9.762  0.2448 -1.1658  1.0296
  407MPD2    N1 6138   1.316   3.156   9.576  0.9127  0.0812  0.4270
  407MPD2    H7 6139   1.348   3.191   9.666  0.4184 -0.8981  0.9776
  408TMC3    C1 6140   1.550   3.154   9.508 -0.2860  0.0718 -0.7161
  408TMC3    C2 6141   1.639   3.105   9.418 -0.0906  0.3263 -0.1841
  408TMC3    C3 6142   1.760   3.168   9.409 -1.0363  0.0873  0.0745
  408TMC3    C4 6143   1.568   3.271   9.572  0.3031  0.4916  0.1178
  408TMC3    C5 6144   1.693   3.329   9.563  0.6733  0.3070 -0.1705
  408TMC3    C6 6145   1.796   3.277   9.489 -0.0283 -0.2547  0.2102
  408TMC3     C 6146   1.409   3.130   9.476  0.8294 -0.1757 -0.5000
  408TMC3     O 6147   1.381   3.103   9.358 -0.1112 -0.6870  0.0420
  408TMC3     H 6148   1.626   3.010   9.367  0.2779  0.0350  0.2626
  408TMC3    H1 6149   1.487   3.325   9.620 -0.6936  0.9379 -2.0424
  408TMC3    H2 6150   1.894   3.323   9.497  1.3396 -3.0270 -0.3974
  408TMC3    C7 6151   1.716   3.469   9.599  0.1030 -1.6408  0.5289
  408TMC3    C8 6152   1.865   3.122   9.316  0.5345 -0.1987  0.2540
  408TMC3    O1 6153   1.829   3.498   9.640 -0.4722  0.2828 -0.3619
  408TMC3    O2 6154   1.867   3.002   9.277  0.5296 -0.4115 -0.0571
  409MPD2     C 6155   0.732   3.565  16.435 -0.1033  0.0483 -0.2200
  409MPD2    C1 6156   0.788   3.588  16.559 -0.7292 -0.5643 -0.0545
  409MPD2    C2 6157   0.850   3.711  16.577  0.0062  0.3828  0.8044
  409MPD2    C3 6158   0.856   3.802  16.467 -0.0601  0.0669  0.1472
  409MPD2    C4 6159   0.811   3.769  16.339  0.0694 -0.5774 -0.2180
  409MPD2    C5 6160   0.744   3.644  16.329 -0.0057  0.1523  0.0384
  409MPD2     H 6161   0.876   3.729  16.680  2.3219  0.4287  0.2309
  409MPD2    H1 6162   0.820   3.840  16.258 -0.8322 -0.2102  0.0032
  409MPD2    H2 6163   0.671   3.476  16.423 -1.4716  0.7049  1.7159
  409MPD2    H3 6164   0.702   3.625  16.231 -0.6646 -1.7600  0.6954
  409MPD2     N 6165   0.913   3.934  16.470 -0.1023  0.0067 -0.6219
  409MPD2    H5 6166   0.923   3.976  16.378 -0.3212 -0.1750 -0.7289
  409MPD2    N1 6167   0.758   3.513  16.675 -0.1202 -0.1552 -0.0857
  409MPD2    H7 6168   0.782   3.560  16.762 -1.8102  1.9257 -0.7477
  410TMC3    C1 6169   1.044   4.111  16.571  0.5101 -0.6762  0.4575
  410TMC3    C2 6170   1.146   4.133  16.668 -0.3174 -0.3175 -0.1840
  410TMC3    C3 6171   1.210   4.249  16.656  0.5237 -0.2618  0.3587
  410TMC3    C4 6172   0.999   4.207  16.483 -0.6707 -1.2257  0.2510
  410TMC3    C5 6173   1.071   4.330  16.475 -0.7069 -0.4569  0.0859
  410TMC3    C6 6174   1.182   4.345  16.562  0.2730  0.1127 -0.6533
  410TMC3     C 6175   0.963   3.991  16.590  0.2841 -0.1369  0.0360
  410TMC3     O 6176   0.963   3.946  16.706  0.4783  0.3094 -0.2532
  410TMC3     H 6177   1.172   4.045  16.726 -1.6451 -0.9002 -0.4653
  410TMC3    H1 6178   0.928   4.184  16.404 -0.5597 -0.3635 -0.1020
  410TMC3    H2 6179   1.243   4.433  16.544  1.9905 -1.1478 -0.9416
  410TMC3    C7 6180   1.091   4.380  16.336 -0.6889 -0.1997 -0.2510
  410TMC3    C8 6181   1.331   4.273  16.742 -0.5363 -0.3352  0.4312
  410TMC3    O1 6182   1.037   4.310  16.252  0.3476  0.2141 -0.3212
  410TMC3    O2 6183   1.400   4.367  16.711  0.6482  0.5100 -0.5064
  411MPD2     C 6184   0.845   3.955  14.196  0.0063  0.4736 -0.0685
  411MPD2    C1 6185   0.819   3.975  14.328 -0.4453 -0.3957  0.2047
  411MPD2    C2 6186   0.763   3.876  14.403  0.8316 -0.1475  0.3064
  411MPD2    C3 6187   0.748   3.753  14.344 -0.0963  0.3711  0.2145
  411MPD2    C4 6188   0.801   3.727  14.222  0.1723  0.0301  0.0485
  411MPD2    C5 6189   0.831   3.832  14.143 -0.3611 -0.3444 -0.7357
  411MPD2     H 6190   0.721   3.905  14.498 -0.1355  3.5316 -1.2337
  411MPD2    H1 6191   0.787   3.630  14.176  1.5190 -0.0227 -0.2559
  411MPD2    H2 6192   0.862   4.037  14.127 -0.4901 -0.4293 -1.2531
  411MPD2    H3 6193   0.855   3.805  14.041  2.6633  0.6367 -0.2799
  411MPD2     N 6194   0.664   3.648  14.395 -0.0438 -0.5207 -0.3413
  411MPD2    H5 6195   0.656   3.566  14.335 -1.8476 -1.2836  0.9333
  411MPD2    N1 6196   0.795   4.108  14.374  0.2517  0.2251 -0.5346
  411MPD2    H7 6197   0.799   4.181  14.303 -0.6510 -0.5184 -1.3450
  412TMC3    C1 6198   0.470   3.569  14.509 -0.5201 -0.2025 -0.7693
  412TMC3    C2 6199   0.364   3.633  14.574 -0.2930 -0.2808  0.0018
  412TMC3    C3 6200   0.236   3.578  14.554 -0.4709 -0.2751  0.4049
  412TMC3    C4 6201   0.453   3.467  14.419  0.1496  0.7674 -1.4473
  412TMC3    C5 6202   0.325   3.447  14.372 -0.4063  0.2682 -0.2783
  412TMC3    C6 6203   0.214   3.493  14.445  0.0440  0.9022 -0.0765
  412TMC3     C 6204   0.589   3.651  14.507  0.0769  0.0770  0.0462
  412TMC3     O 6205   0.592   3.733  14.598 -0.0055 -0.0511  0.4137
  412TMC3     H 6206   0.378   3.687  14.667 -2.8604 -2.0027  1.3969
  412TMC3    H1 6207   0.535   3.405  14.383  0.0739 -1.6572  2.5298
  412TMC3    H2 6208   0.114   3.485  14.402 -0.4023  1.1356  0.9223
  412TMC3    C7 6209   0.318   3.506  14.242  0.7348  0.5750 -0.1669
  412TMC3    C8 6210   0.137   3.683  14.548 -0.6226 -1.0117  0.2094
  412TMC3    O1 6211   0.215   3.569  14.216 -0.0618  0.0561 -0.6486
  412TMC3    O2 6212   0.184   3.792  14.574 -0.0757 -0.8020  0.2023
  413MPD2     C 6213   2.699   3.157  15.251  0.3165  0.5786 -0.6075
  413MPD2    C1 6214   2.654   3.052  15.168 -0.4065  0.0090 -0.9783
  413MPD2    C2 6215   2.742   2.962  15.118 -0.3480 -0.0266  0.3115
  413MPD2    C3 6216   2.876   2.966  15.159 -0.8849 -0.3596 -0.1612
  413MPD2    C4 6217   2.922   3.068  15.239 -0.4198 -0.8738  0.3151
  413MPD2    C5 6218   2.830   3.152  15.283 -0.5814 -0.4934 -0.2503
  413MPD2     H 6219   2.713   2.878  15.056  1.1586  1.3785 -2.3134
  413MPD2    H1 6220   3.024   3.084  15.272 -0.1888 -0.8065 -0.4540
  413MPD2    H2 6221   2.630   3.231  15.287 -1.0890 -1.0663  0.0798
  413MPD2    H3 6222   2.878   3.232  15.340 -0.6099 -0.8170  0.2277
  413MPD2     N 6223   2.963   2.876  15.101  0.4528 -0.4620 -0.1620
  413MPD2    H5 6224   2.917   2.814  15.034  1.0462 -0.3080 -0.7138
  413MPD2    N1 6225   2.512   3.045  15.147 -0.0766  0.5860 -0.0313
  413MPD2    H7 6226   2.456   3.100  15.211 -1.5232  3.0808 -3.5019
  414TMC3    C1 6227   3.108   2.704  15.104 -0.8261 -0.1886 -0.8006
  414TMC3    C2 6228   3.123   2.615  15.201 -0.1948 -0.3806 -0.2809
  414TMC3    C3 6229   3.048   2.504  15.190 -0.2193  0.3090  0.1333
  414TMC3    C4 6230   3.049   2.683  14.984 -0.3965 -0.0262 -0.2541
  414TMC3    C5 6231   2.989   2.564  14.967  0.0015  1.3927  0.2156
  414TMC3    C6 6232   2.971   2.487  15.081  0.6607 -0.2173  0.2446
  414TMC3     C 6233   3.087   2.843  15.149  0.5204  0.2268 -0.5062
  414TMC3     O 6234   3.145   2.876  15.252  0.0449 -0.8319 -0.4063
  414TMC3     H 6235   3.171   2.637  15.295  0.6154 -1.7814 -0.3657
  414TMC3    H1 6236   3.081   2.747  14.903  0.6799 -0.4944 -0.1980
  414TMC3    H2 6237   2.924   2.390  15.084 -1.0924  0.6263 -0.1473
  414TMC3    C7 6238   3.081   2.487  14.880 -0.0768  0.2418  0.0027
  414TMC3    C8 6239   3.105   2.375  15.232  0.0311 -0.0141  0.3051
  414TMC3    O1 6240   3.172   2.549  14.826  0.0629 -0.3411  0.6047
  414TMC3    O2 6241   3.022   2.285  15.256 -0.0156  0.4391 -0.0208
  415TMC3    C1 6242   2.640   0.742  10.289 -0.6460  0.1493 -0.3229
  415TMC3    C2 6243   2.660   0.822  10.177  0.1023 -0.1380 -0.1808
  415TMC3    C3 6244   2.570   0.922  10.161 -0.2088 -0.1132  0.1151
  415TMC3    C4 6245   2.536   0.759  10.377  0.0348 -0.3166  0.4200
  415TMC3    C5 6246   2.443   0.848  10.347  0.2401  0.3028  0.7885
  415TMC3    C6 6247   2.464   0.938  10.243 -0.3245 -0.3651 -0.2042
  415TMC3     C 6248   2.736   0.634  10.320 -0.4084 -0.3263 -0.1692
  415TMC3     O 6249   2.735   0.598  10.439 -0.2136 -0.2525  0.1381
  415TMC3     H 6250   2.736   0.814  10.100  1.0638 -3.4142  1.1096
  415TMC3    H1 6251   2.528   0.696  10.465  3.9124 -2.0658 -0.4475
  415TMC3    H2 6252   2.401   1.024  10.223 -0.2161  0.0608  1.2270
  415TMC3    C7 6253   2.335   0.887  10.441 -0.0022  0.0264  0.1623
  415TMC3    C8 6254   2.562   0.996  10.032 -0.0635  0.2233 -0.0614
  415TMC3    O1 6255   2.282   0.990  10.413 -0.1531  0.4394  0.0966
  415TMC3    O2 6256   2.451   1.023   9.987  0.1246  0.1208 -0.2089
  416MPD2     C 6257   3.817   4.177  12.054  0.6109 -0.3407  0.0636
  416MPD2    C1 6258   3.927   4.185  11.967  0.3691 -1.0559  0.0269
  416MPD2    C2 6259   3.944   4.086  11.872 -0.5368 -0.1323 -0.5509
  416MPD2    C3 6260   3.863   3.982  11.864  0.0804 -0.2003 -0.4537
  416MPD2    C4 6261   3.749   3.980  11.938  0.0534  0.3348 -1.1395
  416MPD2    C5 6262   3.730   4.071  12.040  0.5430  0.3374  0.0555
  416MPD2     H 6263   4.020   4.095  11.796 -0.8345  0.2058 -0.8090
  416MPD2    H1 6264   3.690   3.889  11.940  0.0629  0.3469 -0.4414
  416MPD2    H2 6265   3.803   4.245  12.138  1.4234  0.0079 -0.0844
  416MPD2    H3 6266   3.662   4.040  12.118  1.3921  1.7037  1.3389
  416MPD2     N 6267   3.881   3.878  11.773 -0.2523  0.0781 -0.1203
  416MPD2    H5 6268   3.812   3.807  11.753  0.0613  0.3245 -2.1635
  416MPD2    N1 6269   4.018   4.293  11.976 -0.5757  0.1526  0.4359
  416MPD2    H7 6270   4.009   4.346  12.063  2.7489 -0.0098  0.8741
  417TMC3    C1 6271   4.193   4.437  11.888 -0.3922 -1.0761  0.0668
  417TMC3    C2 6272   4.231   4.482  12.010 -0.3466  0.3737  0.2499
  417TMC3    C3 6273   4.341   4.567  12.018 -0.2550 -1.1502  0.1326
  417TMC3    C4 6274   4.260   4.484  11.783  0.5384 -0.1597  0.2671
  417TMC3    C5 6275   4.359   4.582  11.793  0.0347 -0.7973  0.9653
  417TMC3    C6 6276   4.408   4.618  11.917  0.0657 -0.7242  0.0977
  417TMC3     C 6277   4.094   4.335  11.872 -0.0242  0.4949 -0.7707
  417TMC3     O 6278   4.076   4.309  11.754  0.5604 -0.1400  0.1226
  417TMC3     H 6279   4.185   4.438  12.097 -0.3251 -0.3971 -0.1333
  417TMC3    H1 6280   4.237   4.443  11.686 -0.7228 -2.3467  1.5046
  417TMC3    H2 6281   4.494   4.681  11.937 -0.5003 -0.0368  0.3878
  417TMC3    C7 6282   4.395   4.659  11.676  0.0776  0.1132  0.4088
  417TMC3    C8 6283   4.386   4.589  12.150  0.5771 -0.1574 -0.4032
  417TMC3    O1 6284   4.494   4.728  11.679 -0.3865 -0.3792 -0.3748
  417TMC3    O2 6285   4.304   4.575  12.238  0.3254 -0.5560  0.6329
  418TMC3    C1 6286   4.343   1.817   0.631 -0.3995 -0.4798  0.0236
  418TMC3    C2 6287   4.227   1.896   0.604 -0.7758 -0.4267  0.3789
  418TMC3    C3 6288   4.122   1.887   0.689  0.0292 -0.4157  0.0457
  418TMC3    C4 6289   4.344   1.732   0.736  0.7286  0.1989 -0.7765
  418TMC3    C5 6290   4.237   1.732   0.818 -0.8260  0.0312  0.4742
  418TMC3    C6 6291   4.121   1.802   0.792 -0.0182  0.1533  0.1591
  418TMC3     C 6292   4.452   1.811   0.530 -0.0394 -0.1950  1.1090
  418TMC3     O 6293   4.487   1.907   0.469 -0.1055  0.6641 -0.3897
  418TMC3     H 6294   4.236   1.974   0.529 -1.0236 -1.2848 -0.5493
  418TMC3    H1 6295   4.432   1.684   0.778  0.0960 -0.7674 -0.5590
  418TMC3    H2 6296   4.032   1.791   0.852 -2.4949  0.1740 -3.5296
  418TMC3    C7 6297   4.246   1.623   0.916  0.9028 -0.0423 -0.0486
  418TMC3    C8 6298   4.008   1.900   0.605  0.5756 -0.2246 -0.3986
  418TMC3    O1 6299   4.311   1.524   0.883 -0.0324 -0.1741  0.1330
  418TMC3    O2 6300   3.994   1.998   0.536 -0.4776  0.2443  0.7870
  419MPD2     C 6301   2.104   3.925  12.315 -0.2106 -0.0639  0.7638
  419MPD2    C1 6302   2.063   4.052  12.347  0.1491  0.0787 -0.9950
  419MPD2    C2 6303   1.996   4.077  12.464  0.0875  0.5034 -0.5346
  419MPD2    C3 6304   1.975   3.977  12.561  0.0010  0.2007  0.3040
  419MPD2    C4 6305   2.020   3.850  12.529 -0.7669  0.1042  0.0972
  419MPD2    C5 6306   2.083   3.828  12.409 -0.2730  0.0520  0.3319
  419MPD2     H 6307   1.972   4.179  12.489 -1.2143  0.0401  0.0802
  419MPD2    H1 6308   2.005   3.765  12.595  3.2789 -1.0233 -0.4798
  419MPD2    H2 6309   2.159   3.894  12.227 -0.7364  3.4031 -0.8096
  419MPD2    H3 6310   2.120   3.732  12.375  0.6772  0.6437 -0.2956
  419MPD2     N 6311   1.902   4.000  12.677  0.5271  0.3983 -0.4197
  419MPD2    H5 6312   1.864   4.094  12.684 -1.7991 -0.6613  0.8519
  419MPD2    N1 6313   2.089   4.162  12.262 -0.2655 -0.3166 -0.1789
  419MPD2    H7 6314   2.033   4.243  12.284 -0.2074 -0.6801  1.2730
  420TMC3    C1 6315   1.779   3.971  12.871 -0.6740 -0.1955  0.8628
  420TMC3    C2 6316   1.681   4.043  12.817  0.7139  0.5225  0.6602
  420TMC3    C3 6317   1.610   4.129  12.896  0.2317  0.1747  0.6024
  420TMC3    C4 6318   1.795   3.973  13.012 -0.1782 -0.8314 -0.1688
  420TMC3    C5 6319   1.718   4.060  13.089 -0.2771  0.5438  0.8473
  420TMC3    C6 6320   1.623   4.143  13.034  0.7730 -0.4746 -0.1533
  420TMC3     C 6321   1.879   3.915  12.784 -0.8045  0.4023  0.1378
  420TMC3     O 6322   1.930   3.810  12.817  0.2384 -0.2012 -0.0576
  420TMC3     H 6323   1.662   4.040  12.710 -1.7345  0.4774  1.0778
  420TMC3    H1 6324   1.889   3.939  13.053  0.8240 -0.6796 -2.3875
  420TMC3    H2 6325   1.562   4.218  13.084 -0.8518 -1.0832 -1.2197
  420TMC3    C7 6326   1.791   4.113  13.208  0.2960 -0.3304  0.3421
  420TMC3    C8 6327   1.488   4.190  12.842 -0.2061  0.3144 -0.8060
  420TMC3    O1 6328   1.878   4.042  13.255 -1.0332  0.8362 -0.1226
  420TMC3    O2 6329   1.460   4.294  12.896  0.0344 -0.3179 -0.5296
  421TMC3    C1 6330   3.581   1.523  14.031 -0.3181  0.2085 -0.5897
  421TMC3    C2 6331   3.635   1.599  14.130  0.4562 -0.2149 -0.0750
  421TMC3    C3 6332   3.750   1.565  14.195  0.2517 -0.3424  0.1163
  421TMC3    C4 6333   3.637   1.398  14.006  0.0740  0.6176 -0.1209
  421TMC3    C5 6334   3.750   1.364  14.067 -0.0510 -0.9439 -0.2402
  421TMC3    C6 6335   3.806   1.444  14.165  0.1449  0.3733  0.0715
  421TMC3     C 6336   3.441   1.536  14.013  0.2122  0.2140  0.8573
  421TMC3     O 6337   3.391   1.649  14.019 -0.0992 -0.3483  0.3458
  421TMC3     H 6338   3.583   1.690  14.154  0.2094 -0.3466 -0.1144
  421TMC3    H1 6339   3.591   1.322  13.942 -0.9580  0.3932  0.8819
  421TMC3    H2 6340   3.893   1.414  14.221 -0.9634 -2.8453  0.0620
  421TMC3    C7 6341   3.778   1.228  14.076  0.1473 -0.3975  0.8246
  421TMC3    C8 6342   3.835   1.648  14.274  0.0148  0.1504  0.1407
  421TMC3    O1 6343   3.673   1.161  14.077  0.2794 -0.0981  0.1556
  421TMC3    O2 6344   3.943   1.602  14.299 -0.1206  0.0191  0.5036
  422TMC3    C1 6345   0.912   2.388  12.395 -0.4706  0.6853 -0.5224
  422TMC3    C2 6346   0.913   2.414  12.531 -0.2899 -0.2154 -0.0065
  422TMC3    C3 6347   0.793   2.406  12.597 -0.0794  1.1732  0.3577
  422TMC3    C4 6348   0.789   2.371  12.335  0.0166  0.0488 -0.7534
  422TMC3    C5 6349   0.671   2.371  12.402  0.4832  0.3603 -0.0677
  422TMC3    C6 6350   0.671   2.387  12.538 -0.2089 -0.1307 -0.1837
  422TMC3     C 6351   1.028   2.414  12.322 -0.0695  0.0111 -0.2177
  422TMC3     O 6352   1.132   2.429  12.386  0.2369 -0.0143  0.1656
  422TMC3     H 6353   1.005   2.443  12.581 -1.7439  1.3688  1.7880
  422TMC3    H1 6354   0.784   2.347  12.230  0.3544  0.5574 -0.8859
  422TMC3    H2 6355   0.577   2.398  12.591 -0.1993 -0.4671 -0.0977
  422TMC3    C7 6356   0.552   2.375  12.322  0.1741 -0.1498  0.5615
  422TMC3    C8 6357   0.791   2.450  12.738  1.2085  0.1351  0.1338
  422TMC3    O1 6358   0.564   2.390  12.203 -0.0987 -0.1274  0.8568
  422TMC3    O2 6359   0.890   2.501  12.788 -0.1080  0.4021  0.4254
  423MPD2     C 6360   2.240   3.130   0.437  0.4776  0.5810 -0.4272
  423MPD2    C1 6361   2.374   3.118   0.385 -0.5471 -0.6341  0.6975
  423MPD2    C2 6362   2.392   3.040   0.273  0.2671  0.5940  0.5769
  423MPD2    C3 6363   2.282   2.986   0.213 -0.0432 -0.0565  0.2686
  423MPD2    C4 6364   2.152   2.989   0.261 -0.2399  0.4754  0.4180
  423MPD2    C5 6365   2.138   3.067   0.376  0.8015 -0.4507  0.7712
  423MPD2     H 6366   2.493   3.031   0.235 -0.2652 -1.6641 -0.3040
  423MPD2    H1 6367   2.069   2.942   0.209  0.0833  1.2113 -0.7658
  423MPD2    H2 6368   2.216   3.201   0.515  0.5894  2.8642 -2.4687
  423MPD2    H3 6369   2.041   3.086   0.420 -0.0101  0.5174 -1.4666
  423MPD2     N 6370   2.292   2.920   0.080  0.8686  0.2723 -0.8437
  423MPD2    H5 6371   2.205   2.913   0.029 -0.1737 -2.4844  1.3288
  423MPD2    N1 6372   2.484   3.184   0.441  0.3525 -0.2198 -0.1240
  423MPD2    H7 6373   2.579   3.174   0.408 -0.0332 -1.3378 -0.8943
  424TMC3    C1 6374   2.608   3.328   0.592 -0.0628 -0.1239  0.0797
  424TMC3    C2 6375   2.721   3.243   0.594 -0.0974  0.7722 -0.4256
  424TMC3    C3 6376   2.840   3.298   0.642 -0.1578  0.5168 -0.3027
  424TMC3    C4 6377   2.608   3.452   0.652  0.7959 -0.2197  0.4898
  424TMC3    C5 6378   2.730   3.494   0.711  0.2310 -0.5624 -0.1095
  424TMC3    C6 6379   2.848   3.422   0.702  0.4027 -0.7774 -1.2903
  424TMC3     C 6380   2.475   3.270   0.547 -0.2065 -0.4662  0.0196
  424TMC3     O 6381   2.379   3.329   0.593 -0.3434 -0.4407 -0.4602
  424TMC3     H 6382   2.709   3.138   0.569 -0.2342  0.2760  1.6981
  424TMC3    H1 6383   2.510   3.495   0.668  1.2724  1.5089 -1.3831
  424TMC3    H2 6384   2.935   3.469   0.745 -0.6846  1.3603 -1.4355
  424TMC3    C7 6385   2.742   3.630   0.781  0.2465  0.4899 -0.2649
  424TMC3    C8 6386   2.948   3.199   0.642  0.9781  0.7139 -0.8869
  424TMC3    O1 6387   2.830   3.656   0.866 -1.0961  0.4219 -0.0122
  424TMC3    O2 6388   2.923   3.085   0.599 -0.2323 -0.1330 -0.1009
  425MPD2     C 6389   1.460   2.607  16.888  0.1118  0.6813  0.1947
  425MPD2    C1 6390   1.445   2.527  16.998  0.9500 -0.3152  0.0745
  425MPD2    C2 6391   1.364   2.570  17.100 -0.6503  0.0375  0.5251
  425MPD2    C3 6392   1.301   2.694  17.097 -0.2388 -0.5597  0.3365
  425MPD2    C4 6393   1.339   2.780  16.996  0.0150  0.7510  0.5492
  425MPD2    C5 6394   1.411   2.737  16.887  0.0578 -0.1440  0.0255
  425MPD2     H 6395   1.344   2.505  17.184  0.6412  0.6189  1.2793
  425MPD2    H1 6396   1.297   2.880  16.993 -2.3324 -0.2500 -0.5261
  425MPD2    H2 6397   1.510   2.568  16.800 -1.9140  0.2031 -0.7542
  425MPD2    H3 6398   1.422   2.801  16.799 -0.2066 -0.7704 -0.4620
  425MPD2     N 6399   1.207   2.722  17.200  0.5871  0.2838  0.3848
  425MPD2    H5 6400   1.194   2.654  17.275  0.7080  0.0067  0.1552
  425MPD2    N1 6401   1.507   2.402  16.993 -1.2531  0.0882  0.8623
  425MPD2    H7 6402   1.560   2.384  16.909 -1.4114 -0.1006  0.8018
  426TMC3    C1 6403   1.543   2.173  17.054 -0.8333 -0.0625  0.7019
  426TMC3    C2 6404   1.537   2.131  16.931 -0.6395  0.0004 -0.0978
  426TMC3    C3 6405   1.527   1.996  16.924 -0.1866  0.5107 -0.0719
  426TMC3    C4 6406   1.549   2.090  17.163  0.6250 -0.4705  0.7368
  426TMC3    C5 6407   1.533   1.960  17.150  0.5020  0.0280  0.0475
  426TMC3    C6 6408   1.527   1.907  17.028  0.3988 -0.1736  0.0147
  426TMC3     C 6409   1.503   2.306  17.093  0.4414  0.6414 -0.6997
  426TMC3     O 6410   1.471   2.320  17.209  0.2552  0.7208 -0.6988
  426TMC3     H 6411   1.524   2.199  16.847 -0.1642 -0.3335 -0.4449
  426TMC3    H1 6412   1.552   2.133  17.263  2.0696 -2.7571  1.6897
  426TMC3    H2 6413   1.506   1.802  17.012  0.9298 -0.3486  0.4861
  426TMC3    C7 6414   1.464   1.888  17.251 -0.0348 -0.4502  0.2189
  426TMC3    C8 6415   1.515   1.944  16.785 -0.1396 -0.4052 -0.1984
  426TMC3    O1 6416   1.471   1.764  17.240 -0.0392  0.0013  0.3735
  426TMC3    O2 6417   1.556   1.830  16.769  0.2672  0.1227  0.3227
  427MPD2     C 6418   4.043   3.925  15.236  0.1482  0.3757  0.4903
  427MPD2    C1 6419   4.161   3.999  15.259 -0.0176  0.4223  0.9855
  427MPD2    C2 6420   4.160   4.133  15.242  0.9236  0.4049 -1.0119
  427MPD2    C3 6421   4.039   4.201  15.215  0.3209  0.1072 -0.0723
  427MPD2    C4 6422   3.931   4.123  15.179  0.4898  0.3340  0.4741
  427MPD2    C5 6423   3.935   3.986  15.189  0.1000 -0.2362 -0.5017
  427MPD2     H 6424   4.254   4.182  15.265  0.9025 -0.0050 -0.0556
  427MPD2    H1 6425   3.834   4.164  15.154  0.5719  2.1383  3.1239
  427MPD2    H2 6426   4.042   3.819  15.258  1.3704  0.3891  0.5978
  427MPD2    H3 6427   3.851   3.919  15.177 -0.7084  0.3493  1.9126
  427MPD2     N 6428   4.030   4.345  15.212 -0.2103 -0.1049  1.3987
  427MPD2    H5 6429   3.944   4.378  15.169  0.5243 -0.1669 -0.1263
  427MPD2    N1 6430   4.283   3.937  15.293 -0.6557  0.2729  0.5717
  427MPD2    H7 6431   4.369   3.992  15.288 -0.0090 -0.6932  1.1751
  428TMC3    C1 6432   4.427   3.781  15.376 -0.6028  0.0153  0.2621
  428TMC3    C2 6433   4.451   3.681  15.471  0.2369  0.5325  0.1593
  428TMC3    C3 6434   4.579   3.672  15.520 -0.6835  0.3261 -1.0716
  428TMC3    C4 6435   4.534   3.859  15.326  0.0748  0.4089 -0.6741
  428TMC3    C5 6436   4.663   3.847  15.374 -0.0965  0.2859  0.3325
  428TMC3    C6 6437   4.679   3.757  15.476  0.2359  0.7073 -0.0238
  428TMC3     C 6438   4.294   3.817  15.351 -0.2137  0.9169  0.2025
  428TMC3     O 6439   4.208   3.739  15.393 -0.1145  0.0734 -0.0276
  428TMC3     H 6440   4.375   3.617  15.516 -0.0766  2.1613  1.9523
  428TMC3    H1 6441   4.528   3.909  15.230 -2.5302  0.0120 -0.7229
  428TMC3    H2 6442   0.042   3.751  15.519  0.5934  0.3380 -0.9009
  428TMC3    C7 6443   0.033   3.941  15.332  0.4507 -0.3811  0.7748
  428TMC3    C8 6444   4.607   3.553  15.592  0.3827  0.6878  0.3142
  428TMC3    O1 6445   0.001   4.040  15.267 -0.1230 -0.0340  0.0569
  428TMC3    O2 6446   4.534   3.459  15.559 -0.1444  0.3846 -0.1927
  429MPD2     C 6447   1.006   4.615  17.553  0.9032 -0.6398 -0.2684
  429MPD2    C1 6448   1.120   4.559  17.496 -0.0577 -0.0755  0.0472
  429MPD2    C2 6449   1.204   4.646  17.422 -0.1117  0.5759 -1.1296
  429MPD2    C3 6450   1.180   0.041  17.409  0.2859 -0.2135  0.0100
  429MPD2    C4 6451   1.076   0.102  17.478 -0.1175 -0.0594 -0.7853
  429MPD2    C5 6452   0.998   0.016  17.546 -0.4547 -0.0346 -0.0466
  429MPD2     H 6453   1.292   4.610  17.371 -0.4113 -2.8196  0.6899
  429MPD2    H1 6454   1.058   0.209  17.485 -0.3115 -0.1966  0.6393
  429MPD2    H2 6455   0.935   4.556  17.610  1.2679 -0.5740  0.2539
  429MPD2    H3 6456   0.915   0.060  17.600 -1.1766 -2.3568  0.7340
  429MPD2     N 6457   1.255   0.107  17.310 -0.3551  0.2458  0.2478
  429MPD2    H5 6458   1.344   0.066  17.283  0.4060  1.0706  1.5320
  429MPD2    N1 6459   1.152   4.423  17.508 -0.3232  0.1355 -0.1285
  429MPD2    H7 6460   1.241   4.389  17.472  0.2978 -0.6459  2.1148
  430TMC3    C1 6461   1.325   0.290  17.169  0.2405 -0.2386  1.0216
  430TMC3    C2 6462   1.298   0.416  17.118  0.1332 -0.1499 -0.2386
  430TMC3    C3 6463   1.369   0.459  17.011  0.2615  0.1529 -0.4816
  430TMC3    C4 6464   1.408   0.202  17.106 -0.2370 -0.4798  0.3718
  430TMC3    C5 6465   1.489   0.248  17.005  0.0833 -0.2002 -0.1301
  430TMC3    C6 6466   1.460   0.374  16.955  0.1223  0.0402 -0.8565
  430TMC3     C 6467   1.231   0.240  17.267 -0.4493  0.3984  0.0441
  430TMC3     O 6468   1.135   0.315  17.297 -0.1068  0.0563  0.1732
  430TMC3     H 6469   1.221   0.475  17.166  0.1806  1.2768 -1.9374
  430TMC3    H1 6470   1.418   0.097  17.132  2.4902 -0.3119 -0.0907
  430TMC3    H2 6471   1.526   0.405  16.875  0.1676 -1.6366 -1.4712
  430TMC3    C7 6472   1.521   0.150  16.905  0.0255  0.0685 -0.4052
  430TMC3    C8 6473   1.290   0.519  16.907 -1.0489  0.1095 -0.2166
  430TMC3    O1 6474   1.547   0.037  16.939 -0.0057 -0.3461 -0.5324
  430TMC3    O2 6475   1.323   0.481  16.796 -0.2858  0.3183 -0.2416
  431MPD2     C 6476   2.332   4.687  12.786 -0.2856  0.6112  0.1405
  431MPD2    C1 6477   2.259   0.034  12.698  0.3463 -0.2270 -0.3627
  431MPD2    C2 6478   2.246   4.735  12.567 -0.1099  0.5980  0.3274
  431MPD2    C3 6479   2.300   4.610  12.517  0.2545  0.1380 -0.4921
  431MPD2    C4 6480   2.348   4.521  12.613 -0.5960  0.4939  1.1049
  431MPD2    C5 6481   2.357   4.561  12.748  0.4491  0.3513  0.5291
  431MPD2     H 6482   2.211   0.075  12.499 -0.4587  1.2543  1.2458
  431MPD2    H1 6483   2.370   4.416  12.598  5.6326  1.5828  2.5996
  431MPD2    H2 6484   2.362   4.710  12.888  0.0570  0.5359  0.0578
  431MPD2    H3 6485   2.406   4.488  12.810 -3.2722 -2.0528  0.6370
  431MPD2     N 6486   2.293   4.557  12.379 -0.1269 -0.4580 -0.0090
  431MPD2    H5 6487   2.332   4.466  12.355  0.5024 -0.6301  1.6714
  431MPD2    N1 6488   2.205   0.164  12.737  0.0187 -0.4999  0.3485
  431MPD2    H7 6489   2.165   0.218  12.661  0.5437  0.9086  1.0686
  432TMC3    C1 6490   2.216   4.535  12.143 -0.1603  0.0345 -0.1861
  432TMC3    C2 6491   2.272   4.551  12.020  0.3475  0.1032  0.0326
  432TMC3    C3 6492   2.283   4.440  11.940  1.2451 -0.0516  0.4969
  432TMC3    C4 6493   2.175   4.411  12.182 -0.3317  0.3198 -0.0644
  432TMC3    C5 6494   2.181   4.304  12.095  0.0328  0.5747  0.7730
  432TMC3    C6 6495   2.240   4.317  11.977  0.3619 -0.1486 -0.3946
  432TMC3     C 6496   2.251   4.622  12.258 -0.4264  0.0961  0.0272
  432TMC3     O 6497   2.240   0.004  12.243 -0.0315 -0.0384 -0.1662
  432TMC3     H 6498   2.318   4.647  11.997  1.9897 -0.2052  2.0205
  432TMC3    H1 6499   2.127   4.414  12.279  0.4788 -1.7745  0.3860
  432TMC3    H2 6500   2.262   4.233  11.913  0.4575 -1.1335  0.9346
  432TMC3    C7 6501   2.160   4.167  12.138 -0.0827  0.1583 -0.2011
  432TMC3    C8 6502   2.371   4.444  11.834 -0.0526  0.8490  0.1282
  432TMC3    O1 6503   2.234   4.087  12.083  0.4725 -0.2034  0.4467
  432TMC3    O2 6504   2.350   4.358  11.748 -0.5670  0.3125 -0.0279
  433MPD2     C 6505   0.855   3.539  10.849  0.0080 -0.3002  0.7211
  433MPD2    C1 6506   0.817   3.425  10.921 -0.1610 -0.2107  0.1632
  433MPD2    C2 6507   0.822   3.434  11.060  0.5810  0.7194 -0.0578
  433MPD2    C3 6508   0.862   3.546  11.121  0.1471  0.3613  0.7782
  433MPD2    C4 6509   0.910   3.657  11.044  0.6407  0.9217  0.1361
  433MPD2    C5 6510   0.907   3.651  10.910 -0.4646  0.2680  0.1285
  433MPD2     H 6511   0.790   3.350  11.120  2.2183 -0.3578 -0.7105
  433MPD2    H1 6512   0.944   3.747  11.094  1.0861  1.4505 -1.1149
  433MPD2    H2 6513   0.856   3.547  10.741  0.5302 -0.6211  0.7035
  433MPD2    H3 6514   0.944   3.738  10.857  0.6102 -0.8997 -1.0528
  433MPD2     N 6515   0.871   3.545  11.261  0.5288 -0.4769 -1.0267
  433MPD2    H5 6516   0.865   3.452  11.301 -1.5053  0.8363  1.6865
  433MPD2    N1 6517   0.771   3.312  10.846  0.1038  0.2167 -0.5974
  433MPD2    H7 6518   0.771   3.324  10.745  0.7901 -0.7835 -0.7147
  434TMC3    C1 6519   0.682   3.097  10.793 -0.6819  0.0681 -0.3116
  434TMC3    C2 6520   0.672   2.963  10.841  0.2347  0.0663 -0.1942
  434TMC3    C3 6521   0.685   2.862  10.755 -0.0672  0.0528 -0.3159
  434TMC3    C4 6522   0.707   3.125  10.663  0.1903 -0.2935  0.3453
  434TMC3    C5 6523   0.724   3.017  10.585  0.5520 -0.5102 -0.0179
  434TMC3    C6 6524   0.721   2.889  10.627  1.3321  0.1967  0.6186
  434TMC3     C 6525   0.714   3.197  10.897 -0.3060  0.3078 -0.2624
  434TMC3     O 6526   0.697   3.164  11.015 -1.0319  0.3053 -0.1580
  434TMC3     H 6527   0.651   2.951  10.947 -0.9695  0.0007 -0.4358
  434TMC3    H1 6528   0.712   3.223  10.616  1.5321 -0.1728  0.7479
  434TMC3    H2 6529   0.746   2.805  10.562  1.4385 -0.3906  1.4077
  434TMC3    C7 6530   0.738   3.039  10.446  0.4777 -0.0733 -0.0881
  434TMC3    C8 6531   0.748   2.744  10.821  0.1042 -0.2081 -0.3176
  434TMC3    O1 6532   0.808   3.131  10.403 -0.2667 -0.0029 -0.6184
  434TMC3    O2 6533   0.694   2.719  10.929 -0.3126  0.1819  0.0098
  435MPD2     C 6534   3.129   3.388  15.310  0.1101  0.2838  0.5756
  435MPD2    C1 6535   3.088   3.363  15.448 -0.4039 -0.1275  0.0042
  435MPD2    C2 6536   3.161   3.271  15.522 -0.2051 -0.3787 -0.7312
  435MPD2    C3 6537   3.288   3.229  15.472 -0.4679  0.0033 -1.3761
  435MPD2    C4 6538   3.326   3.252  15.345 -0.2138 -0.1905  0.1136
  435MPD2    C5 6539   3.247   3.328  15.258  0.3744 -0.0071  0.8417
  435MPD2     H 6540   3.126   3.242  15.620  3.8151  0.8696  1.0904
  435MPD2    H1 6541   3.420   3.219  15.303 -0.0338  2.9530 -1.9512
  435MPD2    H2 6542   3.082   3.456  15.239 -0.0419  1.6370  1.9610
  435MPD2    H3 6543   3.285   3.359  15.161  0.4355  0.5160  1.0316
  435MPD2     N 6544   3.365   3.150  15.557  0.5591  0.4326  0.3273
  435MPD2    H5 6545   3.340   3.159  15.655 -0.6912 -0.1270  0.0603
  435MPD2    N1 6546   2.976   3.416  15.504 -0.5043 -0.3320  0.2215
  435MPD2    H7 6547   2.945   3.376  15.592 -0.9701 -1.1533 -0.3125
  436TMC3    C1 6548   2.579   3.428  15.596  0.7824  0.4436  0.7583
  436TMC3    C2 6549   2.703   3.408  15.547 -0.5752 -0.3569 -0.2200
  436TMC3    C3 6550   2.768   3.516  15.493  0.6855 -0.1977 -0.0336
  436TMC3    C4 6551   2.516   3.547  15.596  0.2422  0.2053  0.1577
  436TMC3    C5 6552   2.579   3.652  15.535 -0.5341  0.3197 -0.6381
  436TMC3    C6 6553   2.711   3.642  15.485 -0.3073 -0.1241 -0.6875
  436TMC3     C 6554   2.513   3.318  15.659  0.0162  0.0651 -0.3830
  436TMC3     O 6555   2.544   3.205  15.624  0.3517  0.2332 -0.5178
  436TMC3     H 6556   2.751   3.311  15.549  0.8747  0.3279 -1.4652
  436TMC3    H1 6557   2.416   3.566  15.632 -0.2228 -1.8730 -0.0688
  436TMC3    H2 6558   2.754   3.730  15.439 -0.8470  1.7340  2.3934
  436TMC3    C7 6559   2.498   3.771  15.495 -0.8157  0.2400 -0.3172
  436TMC3    C8 6560   2.897   3.493  15.432 -0.2124 -0.1538  0.4529
  436TMC3    O1 6561   2.378   3.758  15.481  0.2859 -0.0925  0.0641
  436TMC3    O2 6562   2.925   3.578  15.346 -0.0937  0.2008  0.4572
  437TMC3    C1 6563   2.220   1.383  11.999 -0.3783 -0.3363 -1.2529
  437TMC3    C2 6564   2.228   1.407  11.867 -0.1787 -0.0653 -0.0230
  437TMC3    C3 6565   2.214   1.296  11.794  0.4625  0.1904 -0.0746
  437TMC3    C4 6566   2.225   1.267  12.056  0.1063 -0.7171  0.4355
  437TMC3    C5 6567   2.225   1.159  11.975  0.1375  0.0228 -0.2792
  437TMC3    C6 6568   2.222   1.166  11.838  0.4495  0.0535 -0.0806
  437TMC3     C 6569   2.239   1.511  12.073  0.2821 -0.1271  0.0793
  437TMC3     O 6570   2.332   1.584  12.031  0.2156 -0.3458 -0.6205
  437TMC3     H 6571   2.223   1.509  11.830 -0.5804  0.2254  0.8280
  437TMC3    H1 6572   2.221   1.254  12.163 -1.5871  2.0784  0.6853
  437TMC3    H2 6573   2.203   1.077  11.780 -0.3398 -0.7732  1.4587
  437TMC3    C7 6574   2.225   1.027  12.032 -0.1648 -0.7244  0.3911
  437TMC3    C8 6575   2.205   1.331  11.656 -0.2123 -0.0556 -0.2291
  437TMC3    O1 6576   2.152   0.943  11.973  0.0520 -0.2710 -0.2909
  437TMC3    O2 6577   2.135   1.431  11.635 -0.2119  0.6034 -0.5282
  438MPD2     C 6578   3.991   1.600  16.611  0.3074 -0.3190  0.2338
  438MPD2    C1 6579   4.083   1.509  16.652 -0.1540 -0.1835  0.5571
  438MPD2    C2 6580   4.134   1.506  16.782 -0.7388 -0.2888  0.8165
  438MPD2    C3 6581   4.096   1.604  16.877  0.2302 -0.6237 -0.3795
  438MPD2    C4 6582   3.995   1.688  16.829 -0.4583 -0.5428 -0.5474
  438MPD2    C5 6583   3.940   1.686  16.707 -0.0513 -0.3627 -0.3713
  438MPD2     H 6584   4.215   1.436  16.794  1.5949  2.0411 -1.3158
  438MPD2    H1 6585   3.953   1.763  16.895 -0.8963 -1.5650  0.3335
  438MPD2    H2 6586   3.945   1.600  16.512  1.5374  3.4903 -0.3573
  438MPD2    H3 6587   3.852   1.740  16.674 -0.8553 -0.5547  1.4198
  438MPD2     N 6588   4.151   1.612  17.004 -0.7157  0.5302  0.1848
  438MPD2    H5 6589   4.109   1.688  17.056 -1.4936 -0.3527  0.8406
  438MPD2    N1 6590   4.143   1.412  16.569 -0.2829  0.3248  0.1435
  438MPD2    H7 6591   4.214   1.351  16.607 -1.2798  0.2626  1.8825
  439TMC3    C1 6592   4.182   1.267  16.376 -0.3221 -0.7386  1.0536
  439TMC3    C2 6593   4.180   1.244  16.239 -0.3403  0.4108  0.1536
  439TMC3    C3 6594   4.216   1.117  16.197 -0.0079 -0.2388  0.5705
  439TMC3    C4 6595   4.238   1.183  16.461 -0.3315  0.3024 -0.0879
  439TMC3    C5 6596   4.298   1.069  16.410  0.3377  0.4205 -0.3478
  439TMC3    C6 6597   4.282   1.028  16.280 -0.0870 -0.0537 -0.2606
  439TMC3     C 6598   4.117   1.390  16.429  0.3850 -0.0609  0.8465
  439TMC3     O 6599   4.040   1.445  16.356  0.0979  0.5873 -0.0707
  439TMC3     H 6600   4.128   1.308  16.169 -1.6885 -0.4879  0.3165
  439TMC3    H1 6601   4.238   1.191  16.569 -0.8644 -0.9400  0.0053
  439TMC3    H2 6602   4.322   0.937  16.237  1.3109  0.8044 -0.7798
  439TMC3    C7 6603   4.385   0.997  16.507 -0.0394  0.1217 -0.0619
  439TMC3    C8 6604   4.228   1.076  16.058  0.8758 -0.1226 -0.2476
  439TMC3    O1 6605   4.429   1.052  16.605 -0.0613 -0.2251  0.1595
  439TMC3    O2 6606   4.242   0.959  16.039 -0.1419 -0.5508 -0.3514
  440MPD2     C 6607   2.447   1.663  15.382  0.3042 -0.2429 -0.1897
  440MPD2    C1 6608   2.508   1.768  15.306 -0.1949 -0.1975  0.1383
  440MPD2    C2 6609   2.631   1.747  15.248 -0.1619 -0.1914 -0.5430
  440MPD2    C3 6610   2.690   1.622  15.255 -0.4413 -0.0058  0.2562
  440MPD2    C4 6611   2.622   1.518  15.319  0.6832  0.0811 -0.5306
  440MPD2    C5 6612   2.504   1.543  15.380  0.5173  0.4418  0.4636
  440MPD2     H 6613   2.688   1.833  15.215  0.2589 -0.3141 -0.1334
  440MPD2    H1 6614   2.662   1.417  15.319  0.1597 -0.1221  0.4191
  440MPD2    H2 6615   2.351   1.672  15.431  0.6495 -1.6645  0.7460
  440MPD2    H3 6616   2.460   1.458  15.433  1.4120 -0.4135 -0.1710
  440MPD2     N 6617   2.816   1.592  15.191  0.1326  0.3184 -0.5527
  440MPD2    H5 6618   2.867   1.507  15.212 -0.0535  0.5535  0.8798
  440MPD2    N1 6619   2.444   1.895  15.287 -0.5131 -0.0245  0.3049
  440MPD2    H7 6620   2.497   1.953  15.223  0.8175 -0.7876  0.7162
  441TMC3    C1 6621   3.001   1.631  15.050  0.5153 -0.2609 -0.7629
  441TMC3    C2 6622   3.100   1.724  15.069 -0.6063  0.4941  0.8114
  441TMC3    C3 6623   3.222   1.674  15.106 -0.2197 -0.8137 -0.5931
  441TMC3    C4 6624   3.024   1.496  15.064  0.1825  0.3703  0.1024
  441TMC3    C5 6625   3.143   1.456  15.109  0.0817  0.0316  0.0492
  441TMC3    C6 6626   3.257   1.541  15.118 -0.2048  0.1461 -0.0315
  441TMC3     C 6627   2.875   1.671  15.101  0.4779  0.6421  0.2653
  441TMC3     O 6628   2.828   1.763  15.038 -0.2930 -0.9188  0.0298
  441TMC3     H 6629   3.077   1.830  15.073 -1.1131  0.4186 -0.1962
  441TMC3    H1 6630   2.943   1.425  15.051  1.1089 -0.4182 -1.4282
  441TMC3    H2 6631   3.353   1.510  15.157 -1.2150 -1.4467  1.2127
  441TMC3    C7 6632   3.116   1.394  15.242 -0.5626  0.2289  0.3307
  441TMC3    C8 6633   3.329   1.771  15.138 -0.0841  0.1481  0.1489
  441TMC3    O1 6634   3.003   1.418  15.289 -0.4355 -0.1911  0.3053
  441TMC3    O2 6635   3.447   1.736  15.127 -0.0961 -0.4328  0.0865
  442MPD2     C 6636   0.958   2.373  16.204  0.3880  0.2857  0.4371
  442MPD2    C1 6637   0.892   2.316  16.314  0.2499  0.6577  0.4337
  442MPD2    C2 6638   0.882   2.177  16.305  0.3733 -0.4851  0.5041
  442MPD2    C3 6639   0.934   2.098  16.201  0.2924  0.8670  0.3583
  442MPD2    C4 6640   1.009   2.164  16.105  0.8542  0.8111  0.2925
  442MPD2    C5 6641   1.025   2.301  16.109  0.3646  0.4459 -0.2060
  442MPD2     H 6642   0.832   2.133  16.390 -0.3448 -1.0311 -0.2040
  442MPD2    H1 6643   1.050   2.123  16.014 -2.0213 -1.1423 -0.0926
  442MPD2    H2 6644   0.978   2.480  16.206 -1.0638  0.5012  2.7649
  442MPD2    H3 6645   1.086   2.356  16.038  0.2404 -0.7843 -1.2663
  442MPD2     N 6646   0.915   1.960  16.189  0.7217 -0.5421  0.8086
  442MPD2    H5 6647   0.968   1.920  16.112 -0.3921  2.2028 -1.3725
  442MPD2    N1 6648   0.831   2.386  16.423  0.5921 -0.5199  0.5053
  442MPD2    H7 6649   0.794   2.332  16.500  0.9116 -0.7695  0.4841
  443TMC3    C1 6650   0.762   2.573  16.551 -1.1317 -0.6855 -0.1806
  443TMC3    C2 6651   0.687   2.686  16.534 -0.2553  0.3347  0.3349
  443TMC3    C3 6652   0.574   2.701  16.611 -0.1336  0.2252 -0.3157
  443TMC3    C4 6653   0.743   2.491  16.663  0.5583 -0.0229  0.0657
  443TMC3    C5 6654   0.642   2.530  16.750  0.6621 -0.6843 -0.4178
  443TMC3    C6 6655   0.556   2.642  16.733  0.1306  0.0533 -0.4626
  443TMC3     C 6656   0.833   2.523  16.435  0.3628 -0.1421 -0.3759
  443TMC3     O 6657   0.850   2.604  16.347 -0.0893  0.8115 -0.5133
  443TMC3     H 6658   0.694   2.746  16.444 -1.4289 -1.9214 -1.2566
  443TMC3    H1 6659   0.800   2.401  16.684  1.4405  0.4836 -0.1976
  443TMC3    H2 6660   0.474   2.667  16.800  1.5371  3.0580  0.1257
  443TMC3    C7 6661   0.606   2.441  16.865  0.8307 -0.6128  0.7253
  443TMC3    C8 6662   0.466   2.774  16.554  0.1192  0.2012  0.0669
  443TMC3    O1 6663   0.616   2.318  16.856  0.1160 -0.1191  0.1831
  443TMC3    O2 6664   0.496   2.878  16.501 -0.6742  0.6173 -0.4058
  444MPD2     C 6665   0.765   1.759  16.831  0.3016  0.0764  0.0750
  444MPD2    C1 6666   0.851   1.679  16.901  0.3048 -0.8990  1.0498
  444MPD2    C2 6667   0.978   1.636  16.856 -0.5352  0.0489 -0.6364
  444MPD2    C3 6668   1.008   1.655  16.725  0.1151 -0.1830 -0.3756
  444MPD2    C4 6669   0.926   1.740  16.650 -0.1121  0.0942 -0.2958
  444MPD2    C5 6670   0.804   1.773  16.701 -0.3809 -0.2518  0.1064
  444MPD2     H 6671   1.048   1.575  16.912 -1.4028  1.7685  2.2848
  444MPD2    H1 6672   0.944   1.777  16.550 -0.9857  3.2604  0.7168
  444MPD2    H2 6673   0.662   1.785  16.852 -0.1854  0.0930 -2.3179
  444MPD2    H3 6674   0.735   1.819  16.631  0.1418 -0.0334 -0.2616
  444MPD2     N 6675   1.110   1.575  16.668 -0.4199  0.7551 -0.3289
  444MPD2    H5 6676   1.155   1.500  16.720 -0.9482  1.0881  0.6025
  444MPD2    N1 6677   0.819   1.655  17.037  0.6510 -0.4700  0.4701
  444MPD2    H7 6678   0.881   1.595  17.090  1.6173  0.6393  0.5935
  445TMC3    C1 6679   1.190   1.462  16.478  0.3646 -0.1213 -0.6157
  445TMC3    C2 6680   1.136   1.416  16.363  0.3287  0.1000  0.2475
  445TMC3    C3 6681   1.140   1.286  16.341 -0.0058  0.1325  0.3587
  445TMC3    C4 6682   1.258   1.370  16.559 -0.3077 -0.3531  0.0107
  445TMC3    C5 6683   1.277   1.243  16.515 -0.5714 -0.0283 -0.4184
  445TMC3    C6 6684   1.216   1.200  16.408 -0.5956 -0.4942  0.0573
  445TMC3     C 6685   1.134   1.576  16.529 -0.3126  0.1091  0.5160
  445TMC3     O 6686   1.096   1.645  16.438  0.0572 -0.7315  0.1327
  445TMC3     H 6687   1.084   1.484  16.297  0.2043 -0.1766  0.0580
  445TMC3    H1 6688   1.303   1.402  16.652  1.2156  1.1388 -1.2452
  445TMC3    H2 6689   1.251   1.105  16.371  2.3315  0.8649 -0.6504
  445TMC3    C7 6690   1.418   1.224  16.492 -0.2640 -0.5186 -0.7867
  445TMC3    C8 6691   1.078   1.239  16.216  0.3948 -0.3363  0.4621
  445TMC3    O1 6692   1.473   1.291  16.403  0.2759  0.2860  0.2884
  445TMC3    O2 6693   1.075   1.317  16.124 -0.2869  0.1584 -0.1020
  446MPD2     C 6694   0.487   2.841  11.452 -0.6294 -0.4473  0.3567
  446MPD2    C1 6695   0.482   2.800  11.321 -0.3197 -0.4428  0.1707
  446MPD2    C2 6696   0.594   2.823  11.239 -0.3601 -0.2256 -0.2373
  446MPD2    C3 6697   0.702   2.897  11.289  0.5699  0.0370  0.5373
  446MPD2    C4 6698   0.698   2.936  11.419  0.2057 -0.3748  0.0074
  446MPD2    C5 6699   0.594   2.908  11.500  0.2088  0.4426 -0.1661
  446MPD2     H 6700   0.585   2.808  11.132 -2.8850 -0.8196  0.0572
  446MPD2    H1 6701   0.773   3.001  11.462 -0.6506  0.6148 -0.0159
  446MPD2    H2 6702   0.406   2.831  11.523 -0.3412 -2.6491  0.3916
  446MPD2    H3 6703   0.605   2.943  11.602  0.7614  1.2982 -0.5197
  446MPD2     N 6704   0.812   2.927  11.200  0.2974 -0.3210  0.3552
  446MPD2    H5 6705   0.807   2.884  11.108 -1.9369  3.4907 -1.3193
  446MPD2    N1 6706   0.369   2.737  11.260  0.0008 -0.2713  0.2201
  446MPD2    H7 6707   0.362   2.723  11.160  0.2443 -0.6851  0.2603
  447TMC3    C1 6708   1.034   2.955  11.134  0.6363  0.3118 -0.0340
  447TMC3    C2 6709   1.010   3.003  11.010 -0.0216  0.6065  0.4079
  447TMC3    C3 6710   1.109   3.054  10.940  0.3262 -0.5519 -1.1111
  447TMC3    C4 6711   1.161   2.948  11.180  0.4802 -0.2395  0.5548
  447TMC3    C5 6712   1.258   3.002  11.106  0.6448 -0.0998 -0.2546
  447TMC3    C6 6713   1.237   3.048  10.985  0.4502  0.0720  0.3277
  447TMC3     C 6714   0.934   2.974  11.241 -0.1470  1.0400  0.2829
  447TMC3     O 6715   0.963   3.017  11.351  0.3246 -0.0901 -0.8086
  447TMC3     H 6716   0.906   3.033  11.001 -0.4060 -1.4291 -2.2589
  447TMC3    H1 6717   1.175   2.916  11.283  2.3457  1.6887  0.8894
  447TMC3    H2 6718   1.316   3.092  10.924 -0.8745 -0.6406 -1.9237
  447TMC3    C7 6719   1.397   3.017  11.148  0.0387 -0.3833 -0.8561
  447TMC3    C8 6720   1.081   3.112  10.819 -0.2454  0.4583  0.3772
  447TMC3    O1 6721   1.480   3.019  11.061 -0.2312 -0.1859 -0.6656
  447TMC3    O2 6722   0.986   3.074  10.756  0.3092  0.2236 -0.6048
  448TMC3    C1 6723   4.173   2.809  16.955  0.4541 -0.1182  0.1250
  448TMC3    C2 6724   4.137   2.685  16.913  0.3749 -0.3158 -0.6651
  448TMC3    C3 6725   4.174   2.582  16.997  0.2813  0.2213 -0.1954
  448TMC3    C4 6726   4.255   2.827  17.062  0.7875 -0.3897  0.1929
  448TMC3    C5 6727   4.296   2.723  17.136  0.1840  0.3168 -0.2612
  448TMC3    C6 6728   4.250   2.596  17.113  0.8260  0.3812 -0.9206
  448TMC3     C 6729   4.083   2.920  16.923 -0.2604 -0.0026 -0.0778
  448TMC3     O 6730   4.019   2.966  17.021 -0.3158 -0.8847  0.5144
  448TMC3     H 6731   4.062   2.666  16.837 -1.2421  0.0854  0.8300
  448TMC3    H1 6732   4.289   2.928  17.081 -0.6524  0.2873 -0.9250
  448TMC3    H2 6733   4.284   2.515  17.176 -0.9558  1.8794  1.9227
  448TMC3    C7 6734   4.387   2.743  17.239 -0.5463  1.0771 -0.0416
  448TMC3    C8 6735   4.134   2.443  16.964 -0.2218 -0.6026 -0.1786
  448TMC3    O1 6736   4.463   2.840  17.238 -0.4096 -0.1114  0.3828
  448TMC3    O2 6737   4.191   2.359  17.029 -0.4151  0.0981 -0.7594
  449MPD2     C 6738   4.562   1.371  13.456 -0.8656  0.6405 -0.1820
  449MPD2    C1 6739   4.545   1.399  13.322  0.2199 -1.2470 -0.3880
  449MPD2    C2 6740   4.453   1.492  13.282  0.9444 -0.1297 -0.2037
  449MPD2    C3 6741   4.372   1.557  13.372 -0.3113 -0.5013  0.2067
  449MPD2    C4 6742   4.398   1.544  13.505 -0.2328  0.1152 -0.1504
  449MPD2    C5 6743   4.489   1.451  13.550 -0.0662 -0.2295 -0.8936
  449MPD2     H 6744   4.427   1.513  13.178  2.0929 -2.5017 -0.9618
  449MPD2    H1 6745   4.337   1.599  13.576 -1.4658 -2.5729  0.8709
  449MPD2    H2 6746   4.633   1.298  13.495 -0.8463  1.2188  0.8790
  449MPD2    H3 6747   4.495   1.438  13.657 -0.1061  2.3365 -0.5947
  449MPD2     N 6748   4.286   1.658  13.319  0.1694 -0.5670  0.4752
  449MPD2    H5 6749   4.290   1.676  13.220  2.5993 -2.0398  0.2879
  449MPD2    N1 6750   4.623   1.342  13.223 -0.1614 -0.0317 -0.0394
  449MPD2    H7 6751   4.601   1.365  13.127 -2.4548 -1.5674  0.1136
  450TMC3    C1 6752   0.079   1.267  13.109 -0.0104 -0.6169  0.2381
  450TMC3    C2 6753   0.198   1.323  13.101  0.4917  0.1454 -0.2375
  450TMC3    C3 6754   0.232   1.399  12.990  0.3323  0.4223  0.0920
  450TMC3    C4 6755   4.728   1.289  13.008 -0.2854  0.2218 -0.3444
  450TMC3    C5 6756   0.021   1.364  12.893 -0.3647 -0.6904 -0.2877
  450TMC3    C6 6757   0.142   1.426  12.886 -0.8094  0.2882 -0.2284
  450TMC3     C 6758   0.011   1.283  13.244  0.0093 -0.0742  0.0804
  450TMC3     O 6759   0.074   1.263  13.346 -0.3957 -0.0123 -0.1609
  450TMC3     H 6760   0.250   1.330  13.196 -0.1181  0.5347  0.0692
  450TMC3    H1 6761   4.638   1.229  13.005 -1.0196  1.2409  1.1101
  450TMC3    H2 6762   0.170   1.497  12.809 -0.8638 -0.0978 -0.6009
  450TMC3    C7 6763   4.640   1.446  12.859  0.2376  0.0937  0.1709
  450TMC3    C8 6764   0.327   1.504  13.007 -0.2086  0.2684 -0.5482
  450TMC3    O1 6765   4.543   1.433  12.929  0.3160 -0.3315 -0.4232
  450TMC3    O2 6766   0.308   1.608  12.953  0.3730 -0.4384 -0.0776
  451MPD2     C 6767   2.007   4.457   0.695  0.2195 -0.0097  0.7768
  451MPD2    C1 6768   2.118   4.489   0.772  0.0073  0.0050 -0.9904
  451MPD2    C2 6769   2.238   4.417   0.750  0.0672 -0.1055 -0.1614
  451MPD2    C3 6770   2.243   4.310   0.667 -0.1179  0.0721  0.1456
  451MPD2    C4 6771   2.134   4.287   0.589  0.2348  0.3617  0.3251
  451MPD2    C5 6772   2.017   4.358   0.603 -0.1530 -0.2151  0.5568
  451MPD2     H 6773   2.325   4.440   0.811 -0.5993  2.4201 -0.1585
  451MPD2    H1 6774   2.124   4.207   0.517 -2.7159  0.4932  0.6026
  451MPD2    H2 6775   1.912   4.509   0.694  0.0131 -0.4028  0.0568
  451MPD2    H3 6776   1.935   4.344   0.534  0.6201 -1.5990 -0.0972
  451MPD2     N 6777   2.355   4.233   0.641  0.6552 -0.6752  0.0921
  451MPD2    H5 6778   2.351   4.156   0.575 -0.4939 -0.8592  0.3738
  451MPD2    N1 6779   2.105   4.601   0.866  0.0764  0.0043 -1.0185
  451MPD2    H7 6780   2.191   4.617   0.918  0.2047 -0.2658 -1.1474
  452TMC3    C1 6781   2.595   4.187   0.611  0.5625 -0.1502 -0.2656
  452TMC3    C2 6782   2.576   4.058   0.559 -0.0745  0.1054 -0.1310
  452TMC3    C3 6783   2.673   4.004   0.486 -0.4433  0.5335 -0.1210
  452TMC3    C4 6784   2.720   4.240   0.611 -0.2119  0.1594 -0.5742
  452TMC3    C5 6785   2.820   4.179   0.537  0.2819  0.1177  0.1482
  452TMC3    C6 6786   2.795   4.062   0.474 -0.2246 -0.2199 -0.9383
  452TMC3     C 6787   2.488   4.266   0.672 -0.6755  0.1848 -0.3463
  452TMC3     O 6788   2.529   4.356   0.744  0.3010  0.1751 -0.3475
  452TMC3     H 6789   2.479   4.009   0.562  0.0475 -0.1454 -0.3262
  452TMC3    H1 6790   2.733   4.340   0.651 -1.7664  0.1064  0.0628
  452TMC3    H2 6791   2.876   4.027   0.411 -0.3146 -2.2926  0.1041
  452TMC3    C7 6792   2.931   4.263   0.508  0.2163 -0.3097 -0.6464
  452TMC3    C8 6793   2.643   3.879   0.422  0.3163 -0.1454 -0.0756
  452TMC3    O1 6794   2.987   4.284   0.400 -0.0934  0.3213  0.3573
  452TMC3    O2 6795   2.525   3.855   0.399  0.1251 -0.6185 -0.3315
  453TMC3    C1 6796   2.811   1.427  11.923 -1.0423 -0.3982 -0.3061
  453TMC3    C2 6797   2.712   1.334  11.937 -0.6172  0.5278 -0.1539
  453TMC3    C3 6798   2.630   1.310  11.832 -0.2083 -0.4891 -0.3806
  453TMC3    C4 6799   2.831   1.493  11.808 -0.3144  0.6811 -0.1116
  453TMC3    C5 6800   2.748   1.461  11.702 -0.5090 -0.1676 -0.1993
  453TMC3    C6 6801   2.643   1.378  11.715  0.6171  0.1851  0.7334
  453TMC3     C 6802   2.911   1.417  12.026  0.1523 -0.6941  0.5472
  453TMC3     O 6803   2.920   1.305  12.074  0.0452  0.3997  0.0497
  453TMC3     H 6804   2.693   1.281  12.030  0.4854 -1.9428 -1.3048
  453TMC3    H1 6805   2.918   1.558  11.798  1.2020 -1.3762 -0.2710
  453TMC3    H2 6806   2.581   1.362  11.628 -1.4285  1.7290  1.8985
  453TMC3    C7 6807   2.789   1.489  11.566  0.0553 -0.3966 -0.0725
  453TMC3    C8 6808   2.558   1.181  11.818 -0.1058 -0.0836 -0.5810
  453TMC3    O1 6809   2.710   1.462  11.473 -0.2657 -0.6427  0.0706
  453TMC3    O2 6810   2.501   1.156  11.713 -0.7677 -0.4028 -0.5188
  454MPD2     C 6811   1.808   1.089  16.030  0.2290  0.3424 -0.3864
  454MPD2    C1 6812   1.751   1.151  15.925 -0.2227 -0.3822  0.3261
  454MPD2    C2 6813   1.780   1.286  15.911 -0.1242 -0.0370 -0.4076
  454MPD2    C3 6814   1.869   1.355  16.001 -0.3397 -0.4899 -0.3242
  454MPD2    C4 6815   1.922   1.282  16.107 -0.5557 -0.8696  0.1470
  454MPD2    C5 6816   1.886   1.152  16.122  0.8425 -0.3055  0.5840
  454MPD2     H 6817   1.739   1.336  15.824 -1.2252  1.4494  0.9702
  454MPD2    H1 6818   1.980   1.335  16.182  0.9863 -0.8833 -1.0276
  454MPD2    H2 6819   1.788   0.986  16.056  0.4085 -0.3073 -2.7680
  454MPD2    H3 6820   1.915   1.098  16.212  1.7108 -1.8968 -0.6447
  454MPD2     N 6821   1.888   1.494  16.003  0.0591  0.2959 -0.8184
  454MPD2    H5 6822   1.936   1.539  16.081  0.4666  0.4878 -1.1824
  454MPD2    N1 6823   1.657   1.086  15.840  0.6225 -0.3594  0.4801
  454MPD2    H7 6824   1.619   1.134  15.760 -0.5804 -1.2573  0.5156
  455TMC3    C1 6825   1.675   1.577  16.014 -0.5766 -0.1347 -0.0303
  455TMC3    C2 6826   1.684   1.588  16.150  0.0638 -0.7069 -0.0922
  455TMC3    C3 6827   1.584   1.554  16.229 -0.4091  0.1148  0.1069
  455TMC3    C4 6828   1.571   1.499  15.958 -0.4732  0.1846  0.8791
  455TMC3    C5 6829   1.471   1.461  16.041 -0.3434  0.9913  0.3260
  455TMC3    C6 6830   1.472   1.495  16.170  0.3041 -0.0591  0.4916
  455TMC3     C 6831   1.793   1.570  15.935 -0.3551  0.0052  0.1809
  455TMC3     O 6832   1.792   1.594  15.814 -0.3638 -0.0502 -0.1284
  455TMC3     H 6833   1.769   1.641  16.191 -0.5665  0.1926  0.0351
  455TMC3    H1 6834   1.563   1.465  15.855  0.1785  0.1257  0.8495
  455TMC3    H2 6835   1.387   1.477  16.234 -3.2853  1.4027 -3.9278
  455TMC3    C7 6836   1.430   1.319  16.011 -0.5469  1.0829  0.2896
  455TMC3    C8 6837   1.557   1.647  16.337  0.6354 -0.2749  0.8070
  455TMC3    O1 6838   1.411   1.280  15.898 -0.2154 -0.1320  0.1728
  455TMC3    O2 6839   1.640   1.660  16.420  0.0220 -0.4739 -0.1306
  456MPD2     C 6840   4.473   1.412  16.029 -0.1735  0.1550 -0.3824
  456MPD2    C1 6841   4.516   1.332  16.132  0.0049  0.2565  0.5369
  456MPD2    C2 6842   4.505   1.384  16.260 -0.3053  0.2147 -0.0310
  456MPD2    C3 6843   4.455   1.511  16.276  0.5353  1.2050 -0.6018
  456MPD2    C4 6844   4.403   1.585  16.171  0.5365 -0.1542 -0.0875
  456MPD2    C5 6845   4.418   1.537  16.044  0.4774  0.0381  0.4468
  456MPD2     H 6846   4.527   1.320  16.345 -2.0075 -1.0202 -0.5342
  456MPD2    H1 6847   4.360   1.684  16.187  2.0257  0.9293 -2.7256
  456MPD2    H2 6848   4.489   1.380  15.927  0.3629 -2.6012  0.5688
  456MPD2    H3 6849   4.389   1.590  15.954  0.6138 -0.8090 -0.0968
  456MPD2     N 6850   4.449   1.563  16.411 -0.0756 -0.1322  0.0645
  456MPD2    H5 6851   4.462   1.497  16.487  0.1180  0.1091  0.2408
  456MPD2    N1 6852   4.570   1.206  16.106 -0.1573 -0.0017 -0.4385
  456MPD2    H7 6853   4.579   1.182  16.008  1.8465  0.0318 -0.2492
  457TMC3    C1 6854   4.390   1.703  16.582  0.2287  0.7957  0.5701
  457TMC3    C2 6855   4.306   1.804  16.607  0.2110 -0.0576 -0.0975
  457TMC3    C3 6856   4.298   1.852  16.734 -0.3367  0.0046  0.2995
  457TMC3    C4 6857   4.470   1.648  16.679 -0.5126 -0.0933 -0.6395
  457TMC3    C5 6858   4.466   1.702  16.805  0.2988  0.0832  0.2043
  457TMC3    C6 6859   4.375   1.801  16.835  0.4655  0.3542  0.0504
  457TMC3     C 6860   4.432   1.694  16.444 -0.0151  0.6504  0.5889
  457TMC3     O 6861   4.401   1.782  16.366 -0.0052  0.1886  0.2247
  457TMC3     H 6862   4.261   1.856  16.523 -1.0889 -1.1093 -0.0636
  457TMC3    H1 6863   4.555   1.584  16.659 -0.5331 -0.3937  0.2060
  457TMC3    H2 6864   4.359   1.839  16.935 -1.0957  0.6888 -0.3280
  457TMC3    C7 6865   4.549   1.658  16.913 -0.6844 -0.9487  0.2038
  457TMC3    C8 6866   4.230   1.977  16.764 -0.8177  0.1202  0.0668
  457TMC3    O1 6867   4.537   1.539  16.932  0.2061 -0.4073  0.5633
  457TMC3    O2 6868   4.290   2.046  16.844  0.1395 -0.8198 -0.3072
  458MPD2     C 6869   2.349   0.721  12.433 -0.3994 -0.4122  0.0402
  458MPD2    C1 6870   2.419   0.840  12.447  0.1574  0.7863  0.3806
  458MPD2    C2 6871   2.381   0.938  12.360  0.4090  0.7373 -0.1057
  458MPD2    C3 6872   2.306   0.916  12.242 -0.6926  0.1153 -0.2378
  458MPD2    C4 6873   2.248   0.797  12.233  0.6337  0.0604  0.3095
  458MPD2    C5 6874   2.267   0.700  12.324  0.5483 -0.3363 -0.1732
  458MPD2     H 6875   2.434   1.033  12.365  1.1813  0.4301 -2.4739
  458MPD2    H1 6876   2.179   0.780  12.150  1.5174 -1.4911 -0.1056
  458MPD2    H2 6877   2.365   0.643  12.506  1.5671 -0.7058 -0.6821
  458MPD2    H3 6878   2.231   0.598  12.310 -2.5691  1.0805 -2.3776
  458MPD2     N 6879   2.294   1.020  12.147  0.7012 -0.2813  0.0681
  458MPD2    H5 6880   2.332   1.112  12.168 -0.1491  0.3493 -1.1335
  458MPD2    N1 6881   2.518   0.853  12.547  0.2071 -0.6879 -0.0953
  458MPD2    H7 6882   2.528   0.777  12.614  0.9020 -0.1946  0.3486
  459TMC3    C1 6883   2.696   0.934  12.675 -0.1778 -0.7817 -0.5374
  459TMC3    C2 6884   2.830   0.964  12.663 -0.6980 -0.5234  0.2050
  459TMC3    C3 6885   2.905   0.970  12.775  0.3250  0.2582  0.0538
  459TMC3    C4 6886   2.626   0.925  12.800  0.0996  0.2012  0.7327
  459TMC3    C5 6887   2.711   0.945  12.904  0.5157  0.3506  0.2226
  459TMC3    C6 6888   2.849   0.960  12.897  0.9759 -0.8196  0.3789
  459TMC3     C 6889   2.602   0.962  12.567  0.0051 -0.5702  0.5153
  459TMC3     O 6890   2.613   1.066  12.501  0.1449  0.6501  0.2353
  459TMC3     H 6891   2.873   0.995  12.568 -1.7389  2.3005  0.6489
  459TMC3    H1 6892   2.523   0.893  12.808 -0.5106  2.2221  0.7063
  459TMC3    H2 6893   2.911   0.959  12.986  0.7268  2.0688  0.5779
  459TMC3    C7 6894   2.653   0.909  13.038  0.2529  0.1841  0.6967
  459TMC3    C8 6895   3.048   0.950  12.760  0.2271 -0.1223  0.0899
  459TMC3    O1 6896   2.537   0.872  13.041 -0.2293 -0.5209 -0.2900
  459TMC3    O2 6897   3.099   0.972  12.652 -0.0089  0.5961 -0.1901
  460MPD2     C 6898   1.201   3.441  10.710  0.3018  0.7307 -0.1103
  460MPD2    C1 6899   1.141   3.317  10.692  0.3481  0.8008 -0.2675
  460MPD2    C2 6900   1.059   3.300  10.578  0.0406  0.3711 -0.3313
  460MPD2    C3 6901   1.043   3.404  10.493 -0.2023 -0.3526 -0.4140
  460MPD2    C4 6902   1.094   3.528  10.524  0.5704 -0.0172  0.5386
  460MPD2    C5 6903   1.180   3.548  10.629 -0.1561 -0.6351  0.6023
  460MPD2     H 6904   1.012   3.206  10.552  0.1577 -0.1191  1.2288
  460MPD2    H1 6905   1.082   3.615  10.461 -1.3846 -1.7130 -1.4572
  460MPD2    H2 6906   1.267   3.452  10.795 -0.9713  0.1018  0.9648
  460MPD2    H3 6907   1.221   3.646  10.651 -1.0803 -0.3088  0.8879
  460MPD2     N 6908   0.964   3.378  10.377 -0.3740 -0.0513 -0.0276
  460MPD2    H5 6909   0.919   3.288  10.371 -1.3410  0.5760 -2.2942
  460MPD2    N1 6910   1.155   3.219  10.790 -0.2751 -0.1364  0.0628
  460MPD2    H7 6911   1.223   3.245  10.860  0.4459 -1.8678  0.0149
  461TMC3    C1 6912   0.851   3.414  10.180 -0.2068 -0.1480 -0.3866
  461TMC3    C2 6913   0.885   3.299  10.123  0.0759  0.0087  0.3603
  461TMC3    C3 6914   0.838   3.271   9.997 -1.3553 -0.3119 -0.1077
  461TMC3    C4 6915   0.766   3.504  10.132 -0.3671 -0.1581  0.3927
  461TMC3    C5 6916   0.717   3.484  10.004  0.2494 -0.1587 -0.1235
  461TMC3    C6 6917   0.741   3.361   9.942 -0.7614 -0.8428  0.6669
  461TMC3     C 6918   0.939   3.465  10.280 -0.7030  0.5085 -0.0979
  461TMC3     O 6919   0.972   3.579  10.261 -0.2673 -0.2989 -0.0258
  461TMC3     H 6920   0.969   3.240  10.160  1.8537  1.4929 -1.2997
  461TMC3    H1 6921   0.740   3.593  10.187  0.1242  1.0081 -1.2790
  461TMC3    H2 6922   0.720   3.351   9.837  0.1515 -1.0745  0.5067
  461TMC3    C7 6923   0.761   3.589   9.919 -0.0364  0.2564 -0.4341
  461TMC3    C8 6924   0.930   3.212   9.904 -0.0441  0.2179 -0.4381
  461TMC3    O1 6925   0.713   3.599   9.805 -0.0292 -0.5780 -1.1482
  461TMC3    O2 6926   1.040   3.188   9.956 -0.1398 -0.0532 -0.5092
  462TMC3    C1 6927   1.918   4.540   0.269  0.0031  0.7068  0.5999
  462TMC3    C2 6928   1.992   4.424   0.250  0.3170 -0.2168 -0.7810
  462TMC3    C3 6929   1.940   4.320   0.188 -0.4697  0.2045 -0.1003
  462TMC3    C4 6930   1.785   4.549   0.219 -0.1607 -0.0953 -0.4267
  462TMC3    C5 6931   1.736   4.441   0.149 -0.3891  0.3145  0.3777
  462TMC3    C6 6932   1.813   4.325   0.129  0.5379  0.1500  0.0177
  462TMC3     C 6933   1.978   4.666   0.324  0.4711 -0.0422 -0.2746
  462TMC3     O 6934   1.927   0.040   0.301 -0.4596 -0.0613 -0.1364
  462TMC3     H 6935   2.095   4.418   0.282  0.2551 -3.0208 -1.1701
  462TMC3    H1 6936   1.734   4.644   0.224 -1.0257 -0.4500 -2.5709
  462TMC3    H2 6937   1.762   4.237   0.092 -0.1800  0.2063  0.8565
  462TMC3    C7 6938   1.595   4.442   0.127  0.0347  0.4544  0.7636
  462TMC3    C8 6939   2.011   4.194   0.185 -0.3141  0.5069 -0.4140
  462TMC3    O1 6940   1.538   4.551   0.105  0.4850 -0.6942 -0.4104
  462TMC3    O2 6941   2.097   4.165   0.272  0.2578  0.2908 -0.4105
  463MPD2     C 6942   3.333   2.685   0.900 -0.3164  0.2892  0.1596
  463MPD2    C1 6943   3.253   2.791   0.949 -0.2579  0.1467  0.4115
  463MPD2    C2 6944   3.317   2.874   1.040  0.2966  0.1686  0.3262
  463MPD2    C3 6945   3.448   2.863   1.077  0.0284 -0.2014 -0.1686
  463MPD2    C4 6946   3.520   2.752   1.032 -0.4061 -0.0506 -0.8522
  463MPD2    C5 6947   3.459   2.663   0.945 -0.6924 -0.4574 -0.0548
  463MPD2     H 6948   3.254   2.952   1.082 -2.1555 -0.7150 -1.7437
  463MPD2    H1 6949   3.626   2.744   1.054 -0.3028 -1.1827 -1.7370
  463MPD2    H2 6950   3.292   2.611   0.831  1.3550 -1.3993  0.9730
  463MPD2    H3 6951   3.511   2.577   0.906  1.9543  0.9853  0.3326
  463MPD2     N 6952   3.516   2.950   1.169 -0.1747  0.5409  0.2647
  463MPD2    H5 6953   3.616   2.935   1.174  0.0864  1.2645 -2.3525
  463MPD2    N1 6954   3.117   2.812   0.922  0.6835  0.8332 -0.6998
  463MPD2    H7 6955   3.067   2.885   0.973 -1.2571 -1.4837  0.6837
  464TMC3    C1 6956   2.900   2.779   0.835  0.2365 -0.7996  0.4832
  464TMC3    C2 6957   2.859   2.905   0.853 -0.1303  0.3836 -1.2227
  464TMC3    C3 6958   2.724   2.935   0.869  0.2217  0.6132  0.0044
  464TMC3    C4 6959   2.808   2.678   0.820 -0.3179  0.4113  0.6075
  464TMC3    C5 6960   2.672   2.711   0.823 -0.1627 -0.4000  0.1113
  464TMC3    C6 6961   2.628   2.838   0.830 -0.0170  0.4829  0.4171
  464TMC3     C 6962   3.040   2.742   0.832  1.0692  0.6027  0.5000
  464TMC3     O 6963   3.070   2.639   0.770 -0.5754 -0.5447  0.0523
  464TMC3     H 6964   2.931   2.985   0.865  0.5285 -0.4229  0.1450
  464TMC3    H1 6965   2.835   2.575   0.798  2.1731  0.9601  1.1642
  464TMC3    H2 6966   2.522   2.857   0.826 -0.6342 -2.2369  4.3109
  464TMC3    C7 6967   2.581   2.606   0.782  0.2014  0.2550  0.1583
  464TMC3    C8 6968   2.663   3.067   0.890 -0.5286  0.2522  0.5537
  464TMC3    O1 6969   2.622   2.519   0.705 -0.3417  0.0243 -0.3840
  464TMC3    O2 6970   2.554   3.085   0.837 -0.4488  0.1639  0.4575
  465MPD2     C 6971   3.750   1.894  16.957 -0.2978 -0.0494 -0.6406
  465MPD2    C1 6972   3.679   1.801  17.031  0.3342  0.5839 -0.5617
  465MPD2    C2 6973   3.556   1.765  16.986 -0.0172 -0.1641 -0.0963
  465MPD2    C3 6974   3.519   1.803  16.855 -0.2777 -0.0425 -0.0584
  465MPD2    C4 6975   3.594   1.895  16.786  0.2306  0.0829 -0.1147
  465MPD2    C5 6976   3.702   1.950  16.842  0.3910 -0.7414 -0.3982
  465MPD2     H 6977   3.501   1.693  17.045 -0.3978 -1.5166 -2.0798
  465MPD2    H1 6978   3.574   1.926  16.684  2.9105 -1.4058 -1.0870
  465MPD2    H2 6979   3.842   1.931  17.000 -0.6331 -0.3078  0.2989
  465MPD2    H3 6980   3.764   2.028  16.799  1.6093 -0.3965  1.9990
  465MPD2     N 6981   3.397   1.750  16.805  0.1036  0.1730 -0.0355
  465MPD2    H5 6982   3.359   1.673  16.859 -0.5749  1.1988  0.9528
  465MPD2    N1 6983   3.730   1.744  17.147  0.2925  0.4463 -0.2975
  465MPD2    H7 6984   3.665   1.681  17.194 -2.0217  1.6310 -1.8907
  466TMC3    C1 6985   3.035   1.579  16.722 -0.5231  0.2308  0.1032
  466TMC3    C2 6986   2.976   1.582  16.600  0.2754 -0.7642  0.4466
  466TMC3    C3 6987   3.044   1.653  16.502  0.7181  0.1366  0.2507
  466TMC3    C4 6988   3.154   1.645  16.755 -0.1813 -0.0392  0.5349
  466TMC3    C5 6989   3.220   1.706  16.654 -0.2421  0.6379 -0.1523
  466TMC3    C6 6990   3.162   1.715  16.528  0.0459  0.5299  0.0290
  466TMC3     C 6991   2.950   1.541  16.835  0.1257 -0.4357  0.6798
  466TMC3     O 6992   2.972   1.577  16.954 -0.2714 -0.2262  0.3793
  466TMC3     H 6993   2.872   1.560  16.577  0.7621 -1.8149 -0.7495
  466TMC3    H1 6994   3.194   1.634  16.856  0.7047 -1.3510  0.0481
  466TMC3    H2 6995   3.207   1.773  16.448 -0.5182  3.1366  1.5980
  466TMC3    C7 6996   3.323   1.796  16.690  0.0174  0.5445  0.9749
  466TMC3    C8 6997   2.966   1.713  16.393  0.7874 -0.2522  0.6684
  466TMC3    O1 6998   3.352   1.887  16.617  0.5914 -0.3736  0.5275
  466TMC3    O2 6999   3.020   1.751  16.291  0.3298 -0.5510 -0.4659
  467TMC3    C1 7000   4.182   0.394  14.186  0.3097 -0.2165  0.3963
  467TMC3    C2 7001   4.134   0.481  14.088 -1.1790 -0.4623 -0.1620
  467TMC3    C3 7002   4.013   0.472  14.030  0.3734 -0.3557 -0.5244
  467TMC3    C4 7003   4.103   0.295  14.241  0.6025 -0.3196 -0.5230
  467TMC3    C5 7004   3.986   0.285  14.179 -0.3495 -0.8715 -0.5463
  467TMC3    C6 7005   3.933   0.366  14.078 -0.2507  0.6297 -0.0339
  467TMC3     C 7006   4.322   0.361  14.187 -0.2639  0.2863 -0.9258
  467TMC3     O 7007   4.361   0.270  14.263  0.6289  0.1628 -0.0288
  467TMC3     H 7008   4.191   0.570  14.061 -1.9781  0.3335  0.7683
  467TMC3    H1 7009   4.126   0.214  14.309 -1.6954  0.4439  1.1720
  467TMC3    H2 7010   3.829   0.365  14.046 -0.4635 -0.1133  0.6869
  467TMC3    C7 7011   3.925   0.154  14.180 -0.0887  0.6155  0.6331
  467TMC3    C8 7012   4.024   0.491  13.890  0.0412 -0.0144 -0.1421
  467TMC3    O1 7013   3.997   0.057  14.166 -0.3355 -0.4199  0.1613
  467TMC3    O2 7014   3.990   0.598  13.840 -0.0392 -0.6178 -0.3877
  468MPD2     C 7015   2.585   3.463  10.961  0.2501  0.2060  0.7114
  468MPD2    C1 7016   2.705   3.423  10.916 -0.3280  0.2378  0.3261
  468MPD2    C2 7017   2.761   3.295  10.939 -0.5223  0.5573 -0.3783
  468MPD2    C3 7018   2.683   3.207  11.013 -0.4275 -0.7450 -0.0864
  468MPD2    C4 7019   2.559   3.252  11.061  0.7161 -0.0368  1.0170
  468MPD2    C5 7020   2.509   3.377  11.034  0.7823 -0.0216  0.6894
  468MPD2     H 7021   2.860   3.275  10.899  0.5677  1.8546  1.6504
  468MPD2    H1 7022   2.486   3.193  11.114 -0.9480  2.6706  1.7280
  468MPD2    H2 7023   2.555   3.566  10.948 -1.1985 -0.5016 -1.5819
  468MPD2    H3 7024   2.409   3.405  11.066  0.3770 -0.7227  0.0492
  468MPD2     N 7025   2.732   3.087  11.062  0.3520  0.1713 -0.6622
  468MPD2    H5 7026   2.679   3.026  11.123 -1.3694  1.6980 -0.6317
  468MPD2    N1 7027   2.796   3.508  10.843  0.4679 -0.0368 -0.9728
  468MPD2    H7 7028   2.875   3.461  10.800  2.0512  2.0499 -0.3050
  469TMC3    C1 7029   2.872   3.684  10.711 -0.1987 -0.2867  0.5150
  469TMC3    C2 7030   2.929   3.584  10.632 -0.3932  0.6338  0.6621
  469TMC3    C3 7031   3.059   3.614  10.592  0.8564 -0.4502 -0.0318
  469TMC3    C4 7032   2.930   3.807  10.731 -0.9870  0.3537 -0.6101
  469TMC3    C5 7033   3.041   3.833  10.658  0.0746 -0.2063  0.3268
  469TMC3    C6 7034   3.113   3.737  10.594  0.5279  1.0437 -0.0772
  469TMC3     C 7035   2.772   3.642  10.808 -0.2457 -0.2478  0.2207
  469TMC3     O 7036   2.694   3.723  10.860 -0.4164 -0.2322 -0.5120
  469TMC3     H 7037   2.877   3.490  10.618 -0.4555  0.5615  1.3859
  469TMC3    H1 7038   2.871   3.884  10.780 -1.4433 -0.7782  0.6255
  469TMC3    H2 7039   3.207   3.755  10.543  0.5306 -1.0566 -0.7918
  469TMC3    C7 7040   3.108   3.953  10.679 -0.1278  0.0503  0.4354
  469TMC3    C8 7041   3.125   3.507  10.519 -0.0004  0.7157  0.0307
  469TMC3    O1 7042   3.178   3.995  10.587  0.2178  0.2629  0.9401
  469TMC3    O2 7043   3.068   3.428  10.439  0.3745  0.2176  0.0773
  470TMC3    C1 7044   0.869   3.819   0.689 -0.4154 -0.7500  0.1832
  470TMC3    C2 7045   0.978   3.888   0.718  0.5464  0.3663 -0.2006
  470TMC3    C3 7046   1.010   3.912   0.847 -0.0186 -0.0971 -0.0507
  470TMC3    C4 7047   0.779   3.788   0.786  0.3758  0.2450 -0.0038
  470TMC3    C5 7048   0.802   3.816   0.912 -0.4385 -0.3339 -0.0077
  470TMC3    C6 7049   0.920   3.868   0.947 -0.5195 -0.4621  0.4896
  470TMC3     C 7050   0.841   3.817   0.551 -0.1559 -0.8911 -0.3975
  470TMC3     O 7051   0.893   3.898   0.480  0.0074  0.0204  0.0559
  470TMC3     H 7052   1.049   3.913   0.640 -1.2585  1.1600 -1.5875
  470TMC3    H1 7053   0.679   3.760   0.755  0.9447 -0.6358 -1.0621
  470TMC3    H2 7054   0.951   3.868   1.051  0.5790  0.1722  0.1577
  470TMC3    C7 7055   0.712   3.743   1.004 -0.1354  0.0364  0.7011
  470TMC3    C8 7056   1.128   3.997   0.867 -0.1240  0.0688  0.2501
  470TMC3    O1 7057   0.623   3.671   0.957  0.0644 -0.2290 -0.1639
  470TMC3    O2 7058   1.214   4.004   0.782 -0.4736  0.5923  0.3685
  471MPD2     C 7059   0.889   0.723  16.684 -0.3142  0.4861  0.2709
  471MPD2    C1 7060   0.959   0.614  16.649  0.0995  0.1716 -0.0688
  471MPD2    C2 7061   1.064   0.580  16.734  0.0857  0.6727 -0.2224
  471MPD2    C3 7062   1.089   0.649  16.848  0.3909  0.2763  0.4677
  471MPD2    C4 7063   1.014   0.763  16.876  0.1232  0.1863  0.2109
  471MPD2    C5 7064   0.910   0.795  16.795  0.6566 -0.7728 -0.1026
  471MPD2     H 7065   1.126   0.494  16.710  0.7900  1.5444 -1.5209
  471MPD2    H1 7066   1.046   0.831  16.954  2.5547  1.2496 -1.7169
  471MPD2    H2 7067   0.797   0.758  16.638 -1.0991 -1.4764  0.3293
  471MPD2    H3 7068   0.848   0.883  16.807  1.0745 -0.7797  2.2060
  471MPD2     N 7069   1.192   0.611  16.943 -0.0044  0.5850 -0.0205
  471MPD2    H5 7070   1.195   0.640  17.040 -2.5012 -1.8363  0.7495
  471MPD2    N1 7071   0.940   0.545  16.531  0.6390 -0.2023  0.4572
  471MPD2    H7 7072   0.985   0.454  16.518  1.1787 -0.1209  1.7700
  472TMC3    C1 7073   0.887   0.530  16.302  0.6022 -0.2208  0.4191
  472TMC3    C2 7074   0.786   0.516  16.212  0.1864 -0.2249 -0.2168
  472TMC3    C3 7075   0.816   0.441  16.104 -0.5983 -0.4811 -0.1761
  472TMC3    C4 7076   1.006   0.464  16.289  1.0917  0.5278 -0.2323
  472TMC3    C5 7077   1.023   0.394  16.175 -0.2305 -0.6813  0.4413
  472TMC3    C6 7078   0.931   0.377  16.087  0.9988 -0.0363  0.3479
  472TMC3     C 7079   0.857   0.586  16.432  0.0243 -0.4608 -0.2566
  472TMC3     O 7080   0.765   0.664  16.435  0.3035 -0.4011 -0.1672
  472TMC3     H 7081   0.688   0.559  16.229 -0.5569 -1.3826 -1.5991
  472TMC3    H1 7082   1.089   0.497  16.350  1.4098  2.0693 -1.5347
  472TMC3    H2 7083   0.946   0.311  16.002 -1.1145 -0.1659  0.0708
  472TMC3    C7 7084   1.093   0.277  16.206  1.3718  0.0977 -0.0714
  472TMC3    C8 7085   0.708   0.358  16.054  0.1640 -0.1766 -0.5474
  472TMC3    O1 7086   1.116   0.259  16.326  0.3347  0.4801  0.0790
  472TMC3    O2 7087   0.713   0.325  15.936  0.5916 -0.0750 -0.3565
  473MPD2     C 7088   0.367   2.517  13.844 -0.2298 -0.1398  0.2086
  473MPD2    C1 7089   0.425   2.591  13.736 -0.1786 -0.1661  0.5365
  473MPD2    C2 7090   0.522   2.682  13.768  1.1762 -0.6873  0.1327
  473MPD2    C3 7091   0.566   2.712  13.898 -0.5214 -0.3053  0.1387
  473MPD2    C4 7092   0.509   2.643  14.005 -0.1969 -0.1442 -0.4875
  473MPD2    C5 7093   0.417   2.547  13.971 -0.4044  0.3730 -0.6916
  473MPD2     H 7094   0.564   2.739  13.686 -2.6491  0.7579 -0.8193
  473MPD2    H1 7095   0.546   2.657  14.106  1.4009 -2.8150 -0.6979
  473MPD2    H2 7096   0.296   2.436  13.832 -2.0311  1.3500  0.8638
  473MPD2    H3 7097   0.380   2.483  14.050 -1.0379  2.5308  0.7715
  473MPD2     N 7098   0.676   2.799  13.931  0.8690 -0.3240 -0.6643
  473MPD2    H5 7099   0.690   2.814  14.030 -0.0059 -1.4568 -0.3585
  473MPD2    N1 7100   0.385   2.573  13.600 -0.1468 -1.2683  0.0516
  473MPD2    H7 7101   0.426   2.641  13.536 -1.5064 -1.1779 -0.7136
  474TMC3    C1 7102   0.855   2.934  13.921  0.0307  0.1222 -0.5781
  474TMC3    C2 7103   0.866   3.065  13.887 -0.3651 -0.4468  0.5246
  474TMC3    C3 7104   0.905   3.144  13.987  0.0430  0.7296  0.3818
  474TMC3    C4 7105   0.875   2.887  14.049  0.4188  0.7703 -0.4337
  474TMC3    C5 7106   0.924   2.967  14.140  0.8585 -0.2184 -0.6926
  474TMC3    C6 7107   0.929   3.102  14.119 -1.0206  0.7495 -0.0217
  474TMC3     C 7108   0.756   2.866  13.848  0.1249 -0.8578 -0.2574
  474TMC3     O 7109   0.745   2.884  13.725 -0.5115  0.6022 -0.9613
  474TMC3     H 7110   0.835   3.102  13.790  2.7681 -0.4728 -0.4849
  474TMC3    H1 7111   0.873   2.780  14.064 -0.9896  0.8817  0.1983
  474TMC3    H2 7112   0.969   3.170  14.194 -1.3063  1.8085 -0.8337
  474TMC3    C7 7113   0.896   2.916  14.272 -0.0438  0.0674  0.4335
  474TMC3    C8 7114   0.915   3.287  13.963  0.2333 -0.5251  0.8468
  474TMC3    O1 7115   0.787   2.861  14.297  0.0007 -0.1702 -0.2382
  474TMC3    O2 7116   0.911   3.359  14.061  0.0095 -0.2526 -0.4197
  475MPD2     C 7117   4.059   0.484  10.563  0.3801 -0.9026 -0.2996
  475MPD2    C1 7118   4.033   0.514  10.694 -0.5841  0.7366  0.0305
  475MPD2    C2 7119   3.898   0.531  10.720  0.3867  0.0414  0.3862
  475MPD2    C3 7120   3.802   0.535  10.625  0.0034  0.1010  0.6059
  475MPD2    C4 7121   3.827   0.501  10.497  0.6926  0.5779  0.2992
  475MPD2    C5 7122   3.958   0.455  10.476  0.1072 -0.3063 -0.6415
  475MPD2     H 7123   3.868   0.574  10.815 -1.2492  0.3167 -0.2556
  475MPD2    H1 7124   3.752   0.499  10.419 -0.1543 -2.2150  1.2006
  475MPD2    H2 7125   4.161   0.474  10.526  0.7164 -0.8849  0.6182
  475MPD2    H3 7126   3.986   0.412  10.381  0.4805 -1.0438 -0.1982
  475MPD2     N 7127   3.673   0.587  10.664  0.2760  0.7501 -0.4486
  475MPD2    H5 7128   3.659   0.594  10.764 -3.1491 -0.5228 -0.8420
  475MPD2    N1 7129   4.130   0.559  10.792 -0.0659  0.1973 -0.1895
  475MPD2    H7 7130   4.089   0.589  10.880 -0.7812 -1.4079  0.0219
  476TMC3    C1 7131   4.348   0.603  10.876  0.2782  0.1513  0.9155
  476TMC3    C2 7132   4.461   0.670  10.834  0.3750 -0.0273  0.3470
  476TMC3    C3 7133   4.507   0.765  10.930 -0.4194 -0.2014  0.2157
  476TMC3    C4 7134   4.284   0.619  10.998  0.0308  0.0139 -0.2877
  476TMC3    C5 7135   4.321   0.729  11.075 -0.5817 -0.5494 -0.4656
  476TMC3    C6 7136   4.429   0.803  11.041  0.3140 -0.3290 -0.0980
  476TMC3     C 7137   4.264   0.554  10.766 -0.3779  0.0911  0.0366
  476TMC3     O 7138   4.321   0.517  10.662  0.3311 -0.2827 -0.0308
  476TMC3     H 7139   4.521   0.647  10.747 -1.8817  0.2397 -1.2680
  476TMC3    H1 7140   4.209   0.549  11.032 -2.3772  2.6652 -0.0532
  476TMC3    H2 7141   4.471   0.865  11.119 -1.6340  0.1191  0.5965
  476TMC3    C7 7142   4.233   0.777  11.179  0.4645  0.5944  0.6288
  476TMC3    C8 7143   4.574   0.886  10.869  0.0276 -0.0662 -0.0801
  476TMC3    O1 7144   4.156   0.695  11.230  0.0282 -0.2092  0.1356
  476TMC3    O2 7145   4.579   0.982  10.943  0.4540 -0.7027 -0.4128
  477MPD2     C 7146   1.357   2.115  11.701  0.7086 -0.0531  0.4703
  477MPD2    C1 7147   1.251   2.171  11.759  0.5177 -0.1237  0.4170
  477MPD2    C2 7148   1.250   2.179  11.898 -0.6671 -0.2831  0.2350
  477MPD2    C3 7149   1.366   2.155  11.972 -0.7952 -0.2614 -0.3038
  477MPD2    C4 7150   1.470   2.093  11.903 -0.9357 -0.0410 -0.6267
  477MPD2    C5 7151   1.464   2.076  11.768 -0.4924 -0.0302 -0.6255
  477MPD2     H 7152   1.158   2.208  11.948  0.2980  1.8783  0.7771
  477MPD2    H1 7153   1.562   2.053  11.946 -0.2903  3.3736  1.1228
  477MPD2    H2 7154   1.367   2.109  11.593  1.4626  2.1361  0.4179
  477MPD2    H3 7155   1.545   2.040  11.706  1.3442 -0.8777  2.2853
  477MPD2     N 7156   1.366   2.175  12.108 -0.1885 -0.4224  0.0254
  477MPD2    H5 7157   1.279   2.184  12.159 -0.2109 -1.8259  0.2522
  477MPD2    N1 7158   1.147   2.221  11.683  0.1914 -0.1006  0.1730
  477MPD2    H7 7159   1.153   2.215  11.582 -0.1425  3.0582 -0.0567
  478TMC3    C1 7160   1.000   2.387  11.639 -0.8602 -0.0381  0.3782
  478TMC3    C2 7161   0.880   2.458  11.666  0.0282 -0.9716 -0.3109
  478TMC3    C3 7162   0.860   2.574  11.610  0.0537  0.9660  0.1031
  478TMC3    C4 7163   1.096   2.429  11.550  0.3702  0.2623  0.5224
  478TMC3    C5 7164   1.054   2.538  11.481 -0.4950  0.6985  0.3146
  478TMC3    C6 7165   0.948   2.618  11.512  0.2189  1.0029  0.1139
  478TMC3     C 7166   1.041   2.285  11.735 -0.2334 -0.6547  0.5864
  478TMC3     O 7167   0.985   2.275  11.842  0.5364  0.1338  0.3166
  478TMC3     H 7168   0.808   2.429  11.742 -0.6179  1.2061 -0.0871
  478TMC3    H1 7169   1.196   2.391  11.541 -0.1569 -0.7088 -1.2749
  478TMC3    H2 7170   0.920   2.709  11.460  1.9414  1.2110 -0.4497
  478TMC3    C7 7171   1.116   2.553  11.347 -1.0524  0.3706 -0.1669
  478TMC3    C8 7172   0.772   2.664  11.684  0.0516  0.0423 -0.0975
  478TMC3    O1 7173   1.237   2.539  11.346 -0.1724  0.0210  0.0647
  478TMC3    O2 7174   0.687   2.621  11.759 -0.3351  0.2752 -0.2033
  479MPD2     C 7175   0.390   3.882  15.296  0.1776  0.3426 -0.1239
  479MPD2    C1 7176   0.277   3.958  15.319 -0.3920  0.1289 -0.4115
  479MPD2    C2 7177   0.287   4.094  15.338 -0.7571 -0.5605 -0.2561
  479MPD2    C3 7178   0.406   4.158  15.329  0.1169  0.1511  1.4247
  479MPD2    C4 7179   0.517   4.087  15.296  0.2917  0.1379 -0.2969
  479MPD2    C5 7180   0.508   3.947  15.293  0.7692 -0.0826 -0.7620
  479MPD2     H 7181   0.195   4.141  15.371 -0.6025 -0.4680  0.0425
  479MPD2    H1 7182   0.616   4.131  15.288 -0.4375  1.9812  0.6659
  479MPD2    H2 7183   0.387   3.774  15.293 -0.3944  0.3614 -0.3508
  479MPD2    H3 7184   0.599   3.888  15.294  1.5302  1.1319  2.4030
  479MPD2     N 7185   0.420   4.296  15.370 -0.3664  0.9034  0.0887
  479MPD2    H5 7186   0.511   4.335  15.347  0.0713 -0.8937 -1.2199
  479MPD2    N1 7187   0.161   3.884  15.341 -0.4823 -0.0313  0.3408
  479MPD2    H7 7188   0.177   3.785  15.358  0.7444  0.4878  2.2935
  480TMC3    C1 7189   0.456   4.616  15.675 -0.1532 -0.2065  0.4569
  480TMC3    C2 7190   0.529   4.702  15.598  0.1663 -0.1551  0.0082
  480TMC3    C3 7191   0.527   4.672  15.460  0.1217  0.4231 -0.3001
  480TMC3    C4 7192   0.363   4.522  15.625  0.3774 -0.0938 -0.2878
  480TMC3    C5 7193   0.371   4.494  15.487 -0.3284  0.3623 -0.5956
  480TMC3    C6 7194   0.464   4.558  15.411 -0.2740 -0.6748 -0.0148
  480TMC3     C 7195   0.492   4.577  15.808  0.5891 -0.0884  0.9153
  480TMC3     O 7196   0.424   4.485  15.852 -0.4674  0.4560  0.2940
  480TMC3     H 7197   0.599   0.036  15.642 -1.4818  2.1337 -1.0612
  480TMC3    H1 7198   0.294   4.467  15.688  0.4989  0.5413  0.4047
  480TMC3    H2 7199   0.458   4.526  15.307  2.3869  2.2373 -1.0492
  480TMC3    C7 7200   0.326   4.368  15.440 -0.2909  0.4333 -0.1722
  480TMC3    C8 7201   0.634   0.004  15.389  0.3985  0.0379 -0.1579
  480TMC3    O1 7202   0.230   4.321  15.503  0.5687  0.0835  0.3230
  480TMC3    O2 7203   0.728   0.041  15.453  0.8704 -0.6697 -0.2652
  481MPD2     C 7204   2.391   4.218  14.289  0.6300  0.4418  0.2247
  481MPD2    C1 7205   2.304   4.105  14.290 -0.4655  0.1742  0.0939
  481MPD2    C2 7206   2.317   4.010  14.390  0.0921  0.3195 -0.5493
  481MPD2    C3 7207   2.404   4.033  14.492 -0.4672  0.3674 -0.6999
  481MPD2    C4 7208   2.487   4.146  14.485 -0.0644  0.1894  0.5667
  481MPD2    C5 7209   2.472   4.241  14.390  0.8371 -0.4081 -0.3083
  481MPD2     H 7210   2.254   3.922  14.396  1.8272 -0.9218 -0.3727
  481MPD2    H1 7211   2.562   4.163  14.561  0.6722 -0.7084  0.0565
  481MPD2    H2 7212   2.374   4.297  14.218 -0.2310 -0.2825 -0.3809
  481MPD2    H3 7213   2.522   4.337  14.393  0.7088 -0.3617  0.3046
  481MPD2     N 7214   2.420   3.947  14.608  0.1956  0.1967  0.4409
  481MPD2    H5 7215   2.498   3.971  14.669  0.0867 -0.2722  0.7672
  481MPD2    N1 7216   2.203   4.094  14.193 -0.1802 -0.3785 -0.4286
  481MPD2    H7 7217   2.206   4.163  14.119 -0.6787  0.3051  0.1986
  482TMC3    C1 7218   1.983   4.050  14.116 -0.0770 -0.9395 -1.2384
  482TMC3    C2 7219   1.883   3.966  14.106 -0.0424  0.1118 -0.8012
  482TMC3    C3 7220   1.787   3.982  14.014 -0.1911  0.0845  0.6779
  482TMC3    C4 7221   1.991   4.163  14.037 -0.0516  0.1673  0.1945
  482TMC3    C5 7222   1.902   4.168  13.934 -0.2318  0.4851  0.6234
  482TMC3    C6 7223   1.800   4.084  13.920 -0.4653  0.4956  0.6005
  482TMC3     C 7224   2.083   4.027  14.212 -0.0986 -0.3107  0.2025
  482TMC3     O 7225   2.055   3.959  14.310 -0.4733  0.5531 -0.0762
  482TMC3     H 7226   1.887   3.878  14.170 -3.6233  0.8789  0.4914
  482TMC3    H1 7227   2.081   4.223  14.034 -0.3129  0.5763  0.5941
  482TMC3    H2 7228   1.735   4.107  13.836 -0.7078  0.9482  0.9086
  482TMC3    C7 7229   1.943   4.255  13.829  0.0859  0.2980 -0.1327
  482TMC3    C8 7230   1.732   3.857  13.960 -0.1667 -0.4887  0.2097
  482TMC3    O1 7231   2.005   4.358  13.864  0.6429 -0.8244 -0.4225
  482TMC3    O2 7232   1.785   3.756  14.006  0.1368  0.3415 -0.0360
  483TMC3    C1 7233   0.677   3.189   1.163 -0.2858 -0.5946 -0.1331
  483TMC3    C2 7234   0.725   3.302   1.102 -0.5764 -0.3862  0.3646
  483TMC3    C3 7235   0.841   3.359   1.142  0.0534  0.6580  0.8057
  483TMC3    C4 7236   0.748   3.135   1.260 -0.8938 -0.6024 -0.3979
  483TMC3    C5 7237   0.877   3.187   1.289  0.9334 -0.4085 -0.7449
  483TMC3    C6 7238   0.923   3.300   1.237  0.1464 -0.3156  0.4915
  483TMC3     C 7239   0.548   3.138   1.123  0.4487  0.6919 -0.8228
  483TMC3     O 7240   0.461   3.219   1.089  0.3509 -0.0167 -0.2253
  483TMC3     H 7241   0.666   3.342   1.021  0.7144  1.2676  0.2321
  483TMC3    H1 7242   0.716   3.042   1.307  0.8637 -0.7526  0.5179
  483TMC3    H2 7243   1.020   3.336   1.269  0.7680  0.1533 -1.9401
  483TMC3    C7 7244   0.966   3.122   1.376  0.4904  0.0527  0.8338
  483TMC3    C8 7245   0.905   3.435   1.033  0.0313  0.6974 -0.1470
  483TMC3    O1 7246   1.047   3.186   1.441 -0.2779  0.1438  0.2112
  483TMC3    O2 7247   0.841   3.460   0.930 -0.5175 -0.0757 -0.0518
  484MPD2     C 7248   3.280   0.816  13.004 -0.3558  0.1949  0.2312
  484MPD2    C1 7249   3.245   0.880  12.894 -0.5814  0.2929  0.3509
  484MPD2    C2 7250   3.346   0.904  12.797 -0.5168  0.4116 -0.1252
  484MPD2    C3 7251   3.481   0.867  12.823 -0.1140  0.4410  0.4982
  484MPD2    C4 7252   3.503   0.790  12.934  0.2496 -0.1010  0.0305
  484MPD2    C5 7253   3.403   0.762  13.026 -0.4733 -0.0145 -0.0472
  484MPD2     H 7254   3.322   0.970  12.714 -1.3089 -0.7658 -0.8316
  484MPD2    H1 7255   3.602   0.745  12.941  0.9124  1.4079  0.3640
  484MPD2    H2 7256   3.202   0.817  13.079  0.3883  0.5104  1.0181
  484MPD2    H3 7257   3.418   0.699  13.113  0.7114 -0.4490 -0.5769
  484MPD2     N 7258   3.591   0.890  12.736  0.4954 -0.3082  0.2826
  484MPD2    H5 7259   3.674   0.832  12.748  1.0440  0.7576  1.6327
  484MPD2    N1 7260   3.110   0.919  12.881  0.3149  0.4148  0.4540
  484MPD2    H7 7261   3.055   0.914  12.966 -1.1897  0.8693 -0.5013
  485TMC3    C1 7262   3.722   0.989  12.568  0.1208 -0.0542 -0.3146
  485TMC3    C2 7263   3.825   0.907  12.607 -0.0853 -0.2716  0.6713
  485TMC3    C3 7264   3.944   0.931  12.545 -0.4190 -0.2072 -0.7454
  485TMC3    C4 7265   3.736   1.080  12.470 -0.2984 -0.3421  0.7973
  485TMC3    C5 7266   3.855   1.108  12.415  0.8269  0.4732  0.3031
  485TMC3    C6 7267   3.966   1.039  12.457 -0.5330 -0.1069  0.1434
  485TMC3     C 7268   3.595   0.979  12.629  0.6303  0.7360  0.1078
  485TMC3     O 7269   3.504   1.044  12.575 -0.6751 -0.3188 -1.5597
  485TMC3     H 7270   3.829   0.835  12.688 -0.5669 -0.9700  0.0725
  485TMC3    H1 7271   3.650   1.140  12.442  2.5454  1.7007 -3.5024
  485TMC3    H2 7272   4.067   1.068  12.429 -0.1937 -1.0393  0.4042
  485TMC3    C7 7273   3.853   1.132  12.269  0.0007 -0.2170  0.0003
  485TMC3    C8 7274   4.012   0.820  12.485  0.1268  0.0309  0.3683
  485TMC3    O1 7275   3.748   1.185  12.228  0.5580  0.2297  0.7047
  485TMC3    O2 7276   4.074   0.841  12.383  0.3254  0.3281  0.2519
  486MPD2     C 7277   0.190   0.086  13.169 -0.4864  0.6749  0.1090
  486MPD2    C1 7278   0.136   0.020  13.058 -0.3082 -0.9848  0.5188
  486MPD2    C2 7279   0.061   0.092  12.968 -0.1930 -0.0667 -0.1212
  486MPD2    C3 7280   0.041   0.228  12.985 -0.5589  0.0305 -0.0395
  486MPD2    C4 7281   0.096   0.289  13.097  0.3732  0.1409 -0.0985
  486MPD2    C5 7282   0.163   0.220  13.187 -0.1017  0.1323  0.3413
  486MPD2     H 7283   0.012   0.046  12.883 -0.3673 -0.7327  0.3455
  486MPD2    H1 7284   0.082   0.393  13.122 -2.9855 -0.2682 -0.3067
  486MPD2    H2 7285   0.245   0.039  13.249 -0.7153 -1.4888 -0.9920
  486MPD2    H3 7286   0.202   0.272  13.274  1.5553  0.3135 -0.5077
  486MPD2     N 7287   4.708   0.306  12.885 -0.1978 -0.1735  0.1116
  486MPD2    H5 7288   4.696   0.403  12.910  1.2992  0.6573 -2.3041
  486MPD2    N1 7289   0.159   4.616  13.044  0.2291 -0.2358 -0.0070
  486MPD2    H7 7290   0.207   4.562  13.115 -1.6474 -0.6619  0.9358
  487TMC3    C1 7291   0.137   4.405  12.964  0.3622 -0.1427 -0.1133
  487TMC3    C2 7292   0.057   4.311  12.898  0.1899 -0.3319 -0.2683
  487TMC3    C3 7293   0.096   4.176  12.897  0.4057 -0.0581  0.5671
  487TMC3    C4 7294   0.239   4.367  13.052 -0.0260 -0.3272  0.1747
  487TMC3    C5 7295   0.269   4.233  13.055 -0.0088 -0.7685 -0.2491
  487TMC3    C6 7296   0.208   4.140  12.963  0.7457 -0.1741  0.3048
  487TMC3     C 7297   0.098   4.542  12.946  0.2146 -0.4684 -0.6337
  487TMC3     O 7298   0.004   4.561  12.873 -0.2254 -0.2400  0.0176
  487TMC3     H 7299   4.728   4.342  12.818 -0.5444 -2.1331 -0.3561
  487TMC3    H1 7300   0.303   4.438  13.104 -0.7968 -0.5257  1.3840
  487TMC3    H2 7301   0.242   4.038  12.954  0.1792 -0.1922 -1.6982
  487TMC3    C7 7302   0.305   4.176  13.182 -0.8769 -0.2317  0.1408
  487TMC3    C8 7303   4.733   4.063  12.922  0.3855  1.2482 -0.4487
  487TMC3    O1 7304   0.349   4.255  13.263  0.2181  0.7755  0.1751
  487TMC3    O2 7305   0.021   3.953  12.876 -0.4519 -0.5543 -0.5328
  488MPD2     C 7306   0.458   1.572  16.529 -0.2103 -0.4204 -0.6734
  488MPD2    C1 7307   0.444   1.705  16.560  0.0830  0.0363  1.2234
  488MPD2    C2 7308   0.429   1.737  16.692  0.2611  0.5369  0.2605
  488MPD2    C3 7309   0.435   1.649  16.792 -0.1657 -0.5280 -0.0790
  488MPD2    C4 7310   0.444   1.515  16.764 -0.2386 -0.0466 -0.7462
  488MPD2    C5 7311   0.458   1.483  16.630  0.4165  0.5522  0.8115
  488MPD2     H 7312   0.420   1.841  16.723  0.1834  0.0456  1.8598
  488MPD2    H1 7313   0.443   1.432  16.834  1.8966  2.1224  1.8385
  488MPD2    H2 7314   0.475   1.537  16.428 -0.4323 -2.6015  0.0451
  488MPD2    H3 7315   0.483   1.380  16.608  2.0416  1.2340 -0.5289
  488MPD2     N 7316   0.417   1.696  16.926 -0.1164  0.3863  0.2035
  488MPD2    H5 7317   0.410   1.795  16.950  0.2955  0.4828 -0.0774
  488MPD2    N1 7318   0.429   1.806  16.468  0.4698 -0.4555  0.6890
  488MPD2    H7 7319   0.433   1.898  16.509  0.9943  0.4337 -1.3295
  489TMC3    C1 7320   0.339   1.687  17.146  0.1178 -0.0932 -0.3255
  489TMC3    C2 7321   0.302   1.819  17.122  0.2387  0.1777  0.2173
  489TMC3    C3 7322   0.319   1.920  17.221  0.1594 -0.5794  0.1406
  489TMC3    C4 7323   0.365   1.646  17.273 -0.4279  0.1090 -0.7590
  489TMC3    C5 7324   0.368   1.743  17.376  0.1992  0.6526 -0.5082
  489TMC3    C6 7325   0.357   1.879  17.346 -0.1469  0.4268  0.5743
  489TMC3     C 7326   0.393   1.613  17.031  0.6751  0.1770 -0.3600
  489TMC3     O 7327   0.376   1.491  17.040 -0.4209 -0.1113  0.3420
  489TMC3     H 7328   0.270   1.852  17.024  0.0429 -0.2637  0.1299
  489TMC3    H1 7329   0.387   1.543  17.300 -1.1364  0.5369  1.4752
  489TMC3    H2 7330   0.360   1.948  17.429  1.3901 -1.5705  2.1907
  489TMC3    C7 7331   0.370   1.681  17.511  0.9286  0.0041 -0.1085
  489TMC3    C8 7332   0.374   2.043  17.170  0.0816  0.1231 -0.4633
  489TMC3    O1 7333   0.401   1.563  17.512 -0.0389  0.5116 -0.6522
  489TMC3    O2 7334   0.410   2.040  17.050  0.2220  0.0641  0.2443
  490MPD2     C 7335   1.001   1.312  17.489 -0.2811 -0.0029 -0.8299
  490MPD2    C1 7336   1.007   1.184  17.530  0.6747 -0.4087 -0.6443
  490MPD2    C2 7337   1.056   1.145  17.653  0.0257  0.3372  0.1513
  490MPD2    C3 7338   1.092   1.244   0.002 -0.2765  0.3835  0.2364
  490MPD2    C4 7339   1.095   1.371  17.697 -0.7545  0.1303  0.0990
  490MPD2    C5 7340   1.041   1.408  17.573 -0.0125 -0.1383 -0.2741
  490MPD2     H 7341   1.051   1.044  17.690  1.2123  0.4259  0.5490
  490MPD2    H1 7342   1.116   1.453   0.022  0.9055 -0.0413 -0.2199
  490MPD2    H2 7343   0.964   1.340  17.391 -1.0652  0.8730 -0.2867
  490MPD2    H3 7344   1.031   1.511  17.541 -1.6677 -0.0365  0.5813
  490MPD2     N 7345   1.127   1.224   0.134 -0.1894  0.3332  0.3176
  490MPD2    H5 7346   1.146   1.313   0.178  0.3991  0.3143  0.0926
  490MPD2    N1 7347   0.966   1.077  17.437 -0.0811  0.0441 -0.1509
  490MPD2    H7 7348   0.970   0.985  17.481  0.0823 -0.8824 -2.1050
  491TMC3    C1 7349   0.852   0.957  17.269 -0.3606  0.2258  0.1167
  491TMC3    C2 7350   0.919   0.843  17.320  0.1340  0.2598 -0.0260
  491TMC3    C3 7351   0.848   0.724  17.303  0.1550  0.5995 -0.9112
  491TMC3    C4 7352   0.747   0.950  17.179  0.2144 -0.5785  0.3195
  491TMC3    C5 7353   0.702   0.825  17.147  0.1131 -0.1460 -0.5346
  491TMC3    C6 7354   0.745   0.712  17.212 -0.5480 -0.2591 -0.2723
  491TMC3     C 7355   0.897   1.084  17.315  0.6972 -0.3799 -0.0557
  491TMC3     O 7356   0.873   1.176  17.238 -0.1364 -0.1300 -0.3232
  491TMC3     H 7357   1.004   0.844  17.387 -1.0027  0.7467  1.3788
  491TMC3    H1 7358   0.717   1.036  17.121  2.2923 -0.2304 -0.2408
  491TMC3    H2 7359   0.697   0.615  17.202  0.6273 -0.8582 -0.0368
  491TMC3    C7 7360   0.635   0.798  17.021  0.0090 -0.2046 -0.0950
  491TMC3    C8 7361   0.849   0.641  17.415 -0.0202  0.7015 -1.0300
  491TMC3    O1 7362   0.628   0.676  17.003 -0.2534  0.3319  0.1990
  491TMC3    O2 7363   0.888   0.690  17.519  0.1314 -0.7302 -0.0594
  492MPD2     C 7364   1.215   1.346  11.849 -0.7279 -0.0738  0.1263
  492MPD2    C1 7365   1.183   1.283  11.729  0.1368  0.0915  0.0407
  492MPD2    C2 7366   1.157   1.146  11.746 -0.6420 -0.0793 -0.3955
  492MPD2    C3 7367   1.131   1.088  11.870  0.0235  0.1515  0.9370
  492MPD2    C4 7368   1.144   1.166  11.980 -0.2063  0.3133  0.3146
  492MPD2    C5 7369   1.181   1.302  11.971 -1.0614  0.0671 -0.1062
  492MPD2     H 7370   1.142   1.086  11.657 -1.9408 -0.1804 -0.1163
  492MPD2    H1 7371   1.136   1.125  12.079 -0.7827  1.0688  0.5852
  492MPD2    H2 7372   1.255   1.447  11.844 -0.0704 -0.3272  0.2154
  492MPD2    H3 7373   1.193   1.354  12.065 -0.7888  0.4316 -0.3410
  492MPD2     N 7374   1.090   0.955  11.890 -0.3438  0.7135  0.4016
  492MPD2    H5 7375   1.063   0.930  11.985  3.7596 -2.1429  0.8043
  492MPD2    N1 7376   1.212   1.352  11.616  0.1080 -0.1772  0.8355
  492MPD2    H7 7377   1.255   1.442  11.631 -0.8126  0.7512 -1.9142
  493TMC3    C1 7378   1.263   1.393  11.382  0.0261  0.3208 -0.3221
  493TMC3    C2 7379   1.332   1.502  11.413  0.0842  0.3180  0.7577
  493TMC3    C3 7380   1.346   1.605  11.325  0.0715  0.1588 -0.8391
  493TMC3    C4 7381   1.220   1.380  11.256  0.1666 -0.9945  0.3956
  493TMC3    C5 7382   1.223   1.485  11.161 -0.2212 -0.2103  0.3336
  493TMC3    C6 7383   1.292   1.599  11.201  0.8212 -0.0396 -0.4290
  493TMC3     C 7384   1.203   1.304  11.486 -0.3037  1.4733  0.3523
  493TMC3     O 7385   1.145   1.204  11.452  0.1231  0.5275  0.1856
  493TMC3     H 7386   1.379   1.504  11.511 -0.4632  1.6263  0.9810
  493TMC3    H1 7387   1.177   1.286  11.223 -0.7970  0.1714 -1.6052
  493TMC3    H2 7388   1.290   1.695  11.151 -1.3448  0.7999  1.2337
  493TMC3    C7 7389   1.150   1.472  11.038 -0.2131  0.1320 -0.3737
  493TMC3    C8 7390   1.412   1.720  11.374 -0.4144 -0.4025 -0.1304
  493TMC3    O1 7391   1.091   1.365  11.019 -0.1841 -0.4510  0.0310
  493TMC3    O2 7392   1.369   1.752  11.485  0.6364  0.6245  1.0374
  494TMC3    C1 7393   1.747   2.946   0.461  1.1022 -0.3129 -0.3471
  494TMC3    C2 7394   1.767   2.824   0.522  1.2018  0.7189  0.1984
  494TMC3    C3 7395   1.773   2.718   0.437 -0.5215 -0.0901 -0.4341
  494TMC3    C4 7396   1.740   2.961   0.322 -0.5315 -0.2008  0.1301
  494TMC3    C5 7397   1.733   2.847   0.244 -0.2485  0.0608 -0.4786
  494TMC3    C6 7398   1.747   2.720   0.304  0.3181 -0.5865  0.0061
  494TMC3     C 7399   1.776   3.062   0.541  0.6947 -0.2003  0.5545
  494TMC3     O 7400   1.848   3.055   0.638 -0.3363 -0.3040  0.2964
  494TMC3     H 7401   1.790   2.816   0.627  0.2051 -0.8860  0.2887
  494TMC3    H1 7402   1.740   3.057   0.271 -0.4903 -0.4642 -0.3631
  494TMC3    H2 7403   1.748   2.627   0.249 -2.9327  0.7867 -2.3884
  494TMC3    C7 7404   1.741   2.857   0.099  1.0068 -0.1871 -0.4676
  494TMC3    C8 7405   1.787   2.593   0.503  0.0510  0.5240  0.3652
  494TMC3    O1 7406   1.785   2.958   0.047 -0.6273 -0.5892 -0.3037
  494TMC3    O2 7407   1.766   2.594   0.625 -0.3256  0.8361 -1.0495
  495TMC3    C1 7408   0.706   4.277  14.511  0.2964 -0.4296 -0.3644
  495TMC3    C2 7409   0.625   4.318  14.413 -0.0113 -0.0300  0.0278
  495TMC3    C3 7410   0.547   4.423  14.444 -0.4966 -1.2401  0.3844
  495TMC3    C4 7411   0.720   4.343  14.631  0.3121 -0.2451  0.4231
  495TMC3    C5 7412   0.657   4.463  14.644 -0.1069  0.2551  0.7774
  495TMC3    C6 7413   0.557   4.494  14.560 -0.9047 -0.2487  0.6210
  495TMC3     C 7414   0.769   4.147  14.502 -0.0697  0.0816 -0.3777
  495TMC3     O 7415   0.816   4.095  14.601 -0.3817 -0.7765  0.3006
  495TMC3     H 7416   0.609   4.272  14.317  4.1459 -0.3368 -0.5254
  495TMC3    H1 7417   0.769   4.306  14.720  2.2038 -2.5846 -1.6142
  495TMC3    H2 7418   0.490   4.573  14.591  0.3723  1.2680 -0.5171
  495TMC3    C7 7419   0.662   4.523  14.774 -0.3843 -0.5160 -0.4581
  495TMC3    C8 7420   0.421   4.440  14.379 -0.3068  0.4505  0.1291
  495TMC3    O1 7421   0.554   4.532  14.819  0.2774 -0.6197  0.2813
  495TMC3    O2 7422   0.330   4.479  14.452  0.2927  0.1699  0.6565
  496MPD2     C 7423   2.191   0.428  15.314 -0.7006  0.1936  0.1385
  496MPD2    C1 7424   2.246   0.367  15.427 -0.5817  0.2425  0.3531
  496MPD2    C2 7425   2.168   0.279  15.497  0.3010 -1.0421 -0.1459
  496MPD2    C3 7426   2.042   0.244  15.446  0.4608  0.3745 -0.0285
  496MPD2    C4 7427   1.998   0.295  15.325 -0.7199 -0.1289  0.6906
  496MPD2    C5 7428   2.069   0.382  15.255 -0.0889  0.3975  0.1578
  496MPD2     H 7429   2.213   0.212  15.569 -0.7516  0.3401  1.7841
  496MPD2    H1 7430   1.898   0.275  15.288 -0.6111 -1.8182  1.3253
  496MPD2    H2 7431   2.244   0.502  15.255  0.2991 -1.0363 -0.5028
  496MPD2    H3 7432   2.028   0.424  15.164  0.4803 -0.1594 -0.3556
  496MPD2     N 7433   1.953   0.166  15.519  0.1781  0.5640 -0.2006
  496MPD2    H5 7434   1.871   0.130  15.472 -0.9092  2.5189  0.2144
  496MPD2    N1 7435   2.382   0.396  15.454 -0.0991 -0.4638 -0.4385
  496MPD2    H7 7436   2.435   0.461  15.396  0.9877 -1.4557 -0.5667
  497TMC3    C1 7437   1.866   0.037  15.680  0.3791 -0.4068 -0.1135
  497TMC3    C2 7438   1.770   0.010  15.593  0.1244 -0.4075  0.7539
  497TMC3    C3 7439   1.719   4.624  15.600 -0.2805 -0.6721 -0.0312
  497TMC3    C4 7440   1.910   4.691  15.779 -0.3712  0.0428 -0.2754
  497TMC3    C5 7441   1.864   4.560  15.781  0.2782 -0.3250 -0.0411
  497TMC3    C6 7442   1.763   4.531  15.693 -0.2888 -0.1046 -0.3982
  497TMC3     C 7443   1.967   0.137  15.650 -0.3150  0.2252 -0.0967
  497TMC3     O 7444   2.054   0.173  15.724  0.4921 -0.2469 -0.0907
  497TMC3     H 7445   1.727   0.082  15.524  0.7037 -1.2126 -0.4311
  497TMC3    H1 7446   2.003   4.718  15.829 -0.5634 -0.5143  0.3707
  497TMC3    H2 7447   1.732   4.428  15.688 -0.4791 -0.0053 -1.4073
  497TMC3    C7 7448   1.969   4.457  15.787  0.0597  0.1481 -0.4037
  497TMC3    C8 7449   1.715   4.570  15.468  0.4040 -0.1546 -1.0769
  497TMC3    O1 7450   1.967   4.374  15.699 -0.1548  0.0911 -0.2819
  497TMC3    O2 7451   1.655   4.636  15.385 -0.1137  0.2051 -0.5543
  498MPD2     C 7452   2.769   1.315   9.689  0.1881  0.1109  0.3845
  498MPD2    C1 7453   2.862   1.275   9.782 -0.5332 -0.2152  0.0665
  498MPD2    C2 7454   2.835   1.175   9.874  0.1075 -0.3662  0.0995
  498MPD2    C3 7455   2.710   1.129   9.882 -0.5776  0.1108  0.2538
  498MPD2    C4 7456   2.615   1.158   9.784 -0.5756  0.0571  0.2633
  498MPD2    C5 7457   2.647   1.259   9.689  0.6913  0.0415  0.6332
  498MPD2     H 7458   2.916   1.138   9.936  0.5935  0.9168  0.2177
  498MPD2    H1 7459   2.523   1.102   9.790 -0.3793 -0.2701  0.2306
  498MPD2    H2 7460   2.784   1.389   9.613 -1.4983  0.8888  0.8149
  498MPD2    H3 7461   2.581   1.294   9.611  4.5256  2.3482 -1.6060
  498MPD2     N 7462   2.682   1.045   9.992 -0.0793 -0.1395  0.5386
  498MPD2    H5 7463   2.768   1.024  10.040  0.4914  0.3716 -0.2597
  498MPD2    N1 7464   2.990   1.337   9.793  0.7350 -0.0744 -0.7346
  498MPD2    H7 7465   3.031   1.327   9.886 -0.2574  1.1984 -0.1626
  499TMC3    C1 7466   3.155   1.504   9.738  0.2663  0.5928 -0.2853
  499TMC3    C2 7467   3.245   1.467   9.830 -0.2286  0.7988 -0.2053
  499TMC3    C3 7468   3.331   1.567   9.873 -0.0046  0.1796 -0.8293
  499TMC3    C4 7469   3.149   1.630   9.677 -0.2810  0.3374  0.4603
  499TMC3    C5 7470   3.235   1.724   9.731 -0.6112 -0.3788 -0.2398
  499TMC3    C6 7471   3.323   1.697   9.830 -0.3314 -0.0342 -0.0978
  499TMC3     C 7472   3.044   1.415   9.695 -0.1891  0.0312  0.2103
  499TMC3     O 7473   3.011   1.410   9.575 -0.4276 -0.1146 -0.8202
  499TMC3     H 7474   3.246   1.367   9.873 -1.0450  0.3453 -1.2435
  499TMC3    H1 7475   3.061   1.659   9.621 -1.0301  0.6229  1.8015
  499TMC3    H2 7476   3.393   1.773   9.862 -1.5802  0.6703  0.9937
  499TMC3    C7 7477   3.251   1.849   9.664 -0.9391  0.3622  0.4153
  499TMC3    C8 7478   3.440   1.518   9.948 -0.4904  0.1625  0.1597
  499TMC3    O1 7479   3.357   1.908   9.687  0.0799  0.0079  0.0086
  499TMC3    O2 7480   3.486   1.600  10.026 -0.0080  0.1204  0.3267
  500MPD2     C 7481   4.716   2.353  10.622  0.7347  0.0625  0.2200
  500MPD2    C1 7482   0.004   2.365  10.487  0.6934  0.5043  0.9883
  500MPD2    C2 7483   4.634   2.328  10.403 -0.2667 -0.2071 -0.4179
  500MPD2    C3 7484   4.525   2.272  10.448  0.1120 -0.1277  0.4908
  500MPD2    C4 7485   4.500   2.265  10.581 -0.7578 -0.1492  0.1807
  500MPD2    C5 7486   4.597   2.298  10.671  0.3984 -0.0443 -0.3148
  500MPD2     H 7487   4.646   2.332  10.295  2.0771 -0.3121 -0.1734
  500MPD2    H1 7488   4.410   2.213  10.612 -0.9162  0.6332  1.0591
  500MPD2    H2 7489   0.043   2.381  10.705 -1.6608  1.3721  1.5866
  500MPD2    H3 7490   4.576   2.291  10.777  0.2685 -2.0391 -0.4712
  500MPD2     N 7491   4.424   2.226  10.366  0.0618  0.0144 -0.5872
  500MPD2    H5 7492   4.346   2.179  10.410  0.1962 -1.6873 -2.1780
  500MPD2    N1 7493   0.129   2.415  10.441  0.3060 -0.5356  0.3481
  500MPD2    H7 7494   0.145   2.411  10.340  3.6981  1.6073  0.8056
  501TMC3    C1 7495   0.347   2.503  10.445 -0.2531  1.0644 -0.7630
  501TMC3    C2 7496   0.348   2.499  10.312  0.1469  0.0340  0.5190
  501TMC3    C3 7497   0.469   2.523  10.255  0.4408  0.9064 -0.1417
  501TMC3    C4 7498   0.461   2.511  10.520  0.1370  0.0347 -0.3017
  501TMC3    C5 7499   0.587   2.516  10.445  0.1713  0.8995  0.0913
  501TMC3    C6 7500   0.591   2.517  10.313 -0.0216 -0.5360  0.7473
  501TMC3     C 7501   0.223   2.482  10.521  0.0919 -0.0504 -0.6913
  501TMC3     O 7502   0.211   2.522  10.636 -0.0564  0.1784 -0.0431
  501TMC3     H 7503   0.261   2.523  10.252  1.2491 -3.4463 -2.4447
  501TMC3    H1 7504   0.459   2.530  10.626  2.0900 -0.2585 -0.2089
  501TMC3    H2 7505   0.675   2.541  10.249 -0.4000 -0.0661  0.4187
  501TMC3    C7 7506   0.706   2.464  10.524 -0.0097 -0.4470  0.1283
  501TMC3    C8 7507   0.452   2.537  10.112 -0.8839 -0.0757 -0.2223
  501TMC3    O1 7508   0.681   2.417  10.634  0.1112 -0.1449 -0.0675
  501TMC3    O2 7509   0.372   2.461  10.066 -0.0491 -0.3513  0.1015
  502TMC3    C1 7510   4.642   0.513  14.646 -0.0883 -0.0954  0.1120
  502TMC3    C2 7511   4.650   0.617  14.555  0.0033 -0.1180 -0.2875
  502TMC3    C3 7512   4.566   0.723  14.558  0.4634 -0.3711 -0.6194
  502TMC3    C4 7513   4.551   0.521  14.747 -0.0006  0.6301 -0.0573
  502TMC3    C5 7514   4.465   0.628  14.753 -1.2974  0.2249 -0.2144
  502TMC3    C6 7515   4.473   0.731  14.658  0.9468  0.6168  0.4026
  502TMC3     C 7516   0.039   0.500  14.697  0.2144 -0.6968  0.0528
  502TMC3     O 7517   0.124   0.542  14.619 -1.1339  0.1847  1.8824
  502TMC3     H 7518   4.720   0.610  14.472 -1.6426  2.3215 -1.8654
  502TMC3    H1 7519   4.520   0.433  14.802 -1.7220  1.2809 -0.0086
  502TMC3    H2 7520   4.419   0.824  14.668  2.1905  1.3755  0.0614
  502TMC3    C7 7521   4.386   0.656  14.873  0.6527 -0.6639  0.2211
  502TMC3    C8 7522   4.630   0.847  14.532  0.3658 -0.3875  0.3471
  502TMC3    O1 7523   4.314   0.753  14.872 -0.4936  0.2935  0.2872
  502TMC3    O2 7524   4.569   0.950  14.515 -0.3797 -0.4552  0.1987
  503MPD2     C 7525   1.986   1.304  16.867  0.6338  0.4012  0.8301
  503MPD2    C1 7526   2.014   1.384  16.978 -0.1989  0.2070 -0.5044
  503MPD2    C2 7527   2.089   1.336  17.079 -0.0964  0.2941  0.5558
  503MPD2    C3 7528   2.154   1.215  17.074  0.4426 -0.2976 -0.6926
  503MPD2    C4 7529   2.138   1.143  16.958 -0.7947 -0.1819  0.5278
  503MPD2    C5 7530   2.048   1.182  16.861  0.5117 -0.3230 -0.4123
  503MPD2     H 7531   2.114   1.414  17.149  0.5029  2.1063 -1.6799
  503MPD2    H1 7532   2.177   1.044  16.938 -1.0274 -0.1660  0.0053
  503MPD2    H2 7533   1.924   1.330  16.782  1.7293 -0.9847 -0.3985
  503MPD2    H3 7534   2.029   1.122  16.773  3.2376 -0.2896 -1.0416
  503MPD2     N 7535   2.240   1.176  17.177  0.1034  0.1959  0.5791
  503MPD2    H5 7536   2.260   1.242  17.252  1.1060 -0.1283  0.5939
  503MPD2    N1 7537   1.967   1.520  16.982  0.4244 -0.1354  0.3035
  503MPD2    H7 7538   1.989   1.574  17.065 -0.5852 -0.8745  1.0569
  504TMC3    C1 7539   2.380   1.042  17.304  0.1769  0.2422  0.8722
  504TMC3    C2 7540   2.370   0.948  17.401 -0.0101 -0.0741  0.0720
  504TMC3    C3 7541   2.464   0.942  17.500  0.0810  0.1026 -0.3887
  504TMC3    C4 7542   2.488   1.121  17.292 -0.4979  0.9238  0.3813
  504TMC3    C5 7543   2.588   1.104  17.386 -0.3919  0.8791  0.1416
  504TMC3    C6 7544   2.575   1.016  17.491 -0.0298  0.1095  1.0331
  504TMC3     C 7545   2.280   1.049  17.198  0.8349 -0.2207  0.3671
  504TMC3     O 7546   2.248   0.947  17.138  0.0747 -0.3946 -0.0414
  504TMC3     H 7547   2.283   0.887  17.421  0.3882 -0.9457 -0.8746
  504TMC3    H1 7548   2.508   1.190  17.211  0.7890 -0.1561 -0.2374
  504TMC3    H2 7549   2.649   1.010  17.571  0.7072  0.6512  0.3980
  504TMC3    C7 7550   2.718   1.144  17.342  0.5650  0.0051 -0.1219
  504TMC3    C8 7551   2.473   0.820  17.587  0.0015  0.4287 -0.2028
  504TMC3    O1 7552   2.730   1.169  17.222  0.1585 -0.2616 -0.1116
  504TMC3    O2 7553   2.416   0.713  17.553 -0.2184 -0.4339  0.3295
  505MPD2     C 7554   2.784   0.619  11.153 -0.0746 -0.1748 -0.0016
  505MPD2    C1 7555   2.715   0.497  11.159 -0.0390 -0.3059 -0.2502
  505MPD2    C2 7556   2.779   0.388  11.100  0.1917 -0.5006 -0.0226
  505MPD2    C3 7557   2.906   0.393  11.041 -0.2257 -0.2586  0.5479
  505MPD2    C4 7558   2.962   0.515  11.021  0.5242  0.6916  0.8622
  505MPD2    C5 7559   2.905   0.620  11.084 -0.2188  0.3917 -0.7998
  505MPD2     H 7560   2.726   0.293  11.096 -1.0790  0.2632 -1.1013
  505MPD2    H1 7561   3.058   0.528  10.972 -1.0999  2.5982 -1.7840
  505MPD2    H2 7562   2.746   0.709  11.202 -1.9650 -1.0807  0.2049
  505MPD2    H3 7563   2.956   0.715  11.072  1.5025 -0.3426  0.7697
  505MPD2     N 7564   2.972   0.280  10.979  0.5346 -0.7916  0.5489
  505MPD2    H5 7565   3.062   0.305  10.940  0.1128  0.2984  0.2824
  505MPD2    N1 7566   2.580   0.501  11.211  0.1440  0.0440  0.0270
  505MPD2    H7 7567   2.545   0.596  11.208 -0.1187  0.0138  1.9099
  506TMC3    C1 7568   2.359   0.400  11.261 -0.2906  0.3501  0.4525
  506TMC3    C2 7569   2.301   0.517  11.213 -0.0065 -1.5155 -0.5004
  506TMC3    C3 7570   2.176   0.500  11.164 -0.1641 -0.2279 -0.3368
  506TMC3    C4 7571   2.296   0.278  11.255 -0.5010 -0.3066 -0.0981
  506TMC3    C5 7572   2.178   0.267  11.194  0.1325 -0.3683  0.5067
  506TMC3    C6 7573   2.108   0.379  11.152 -0.0772 -0.3176  0.4057
  506TMC3     C 7574   2.509   0.385  11.233 -0.0410 -0.7661  0.1212
  506TMC3     O 7575   2.546   0.268  11.236 -0.8133 -0.7562 -0.2937
  506TMC3     H 7576   2.352   0.612  11.213 -2.2786 -0.2936  0.6521
  506TMC3    H1 7577   2.342   0.191  11.300  0.4907  0.1967 -0.1357
  506TMC3    H2 7578   2.023   0.373  11.085  0.5051 -2.5461 -0.1380
  506TMC3    C7 7579   2.186   0.177  11.083 -0.0147 -0.4654  0.6089
  506TMC3    C8 7580   2.127   0.614  11.093 -0.1210  0.1851  0.3816
  506TMC3    O1 7581   2.085   0.153  11.021  0.1212  0.2399  0.0867
  506TMC3    O2 7582   2.018   0.659  11.123 -1.1144 -0.0600 -0.4123
  507TMC3    C1 7583   3.420   1.171  14.598 -0.2645 -0.5625 -0.2367
  507TMC3    C2 7584   3.328   1.090  14.530  0.4240  0.1107  0.0795
  507TMC3    C3 7585   3.281   1.135  14.409  0.0279  0.2316 -0.0185
  507TMC3    C4 7586   3.473   1.281  14.538  0.6769  0.0575 -0.0550
  507TMC3    C5 7587   3.450   1.317  14.410  0.2745  0.3774  0.6452
  507TMC3    C6 7588   3.350   1.241  14.343 -0.3830  0.4349  0.2073
  507TMC3     C 7589   3.424   1.166  14.740  0.6529  0.1482  0.5039
  507TMC3     O 7590   3.509   1.234  14.796 -0.2440 -0.8986  0.2040
  507TMC3     H 7591   3.286   1.000  14.573 -0.9619  0.3413 -0.8145
  507TMC3    H1 7592   3.522   1.351  14.605  1.2357  0.0154 -0.4206
  507TMC3    H2 7593   3.333   1.269  14.240 -1.2469  2.4439  0.9067
  507TMC3    C7 7594   3.423   1.454  14.395 -0.2681 -0.1972 -0.0230
  507TMC3    C8 7595   3.138   1.158  14.405 -0.6804  0.4077  0.2648
  507TMC3    O1 7596   3.317   1.483  14.338 -0.3131 -0.9468  0.0797
  507TMC3    O2 7597   3.066   1.083  14.469 -0.2242  0.5060 -0.1497
  508MPD2     C 7598   4.292   3.282  16.238 -0.2814 -0.6702 -0.0334
  508MPD2    C1 7599   4.258   3.407  16.283  0.1787  0.0827  0.2450
  508MPD2    C2 7600   4.188   3.488  16.202 -0.3777  0.4235  0.7675
  508MPD2    C3 7601   4.159   3.453  16.068  0.3408  0.5635 -1.2031
  508MPD2    C4 7602   4.185   3.329  16.017  0.0526  0.5041  0.5957
  508MPD2    C5 7603   4.249   3.243  16.108  0.1267  0.1203  0.4353
  508MPD2     H 7604   4.145   3.576  16.248  1.1842  0.7071  1.6672
  508MPD2    H1 7605   4.164   3.306  15.913  1.1060  3.0224 -0.1591
  508MPD2    H2 7606   4.342   3.211  16.303  0.4747  0.9672  1.1832
  508MPD2    H3 7607   4.251   3.137  16.083  0.9289  0.4127 -0.7192
  508MPD2     N 7608   4.077   3.544  16.006  0.2170  0.2908 -0.1634
  508MPD2    H5 7609   4.074   3.637  16.046  2.2323  0.7889 -1.1592
  508MPD2    N1 7610   4.310   3.453  16.412 -0.1957  0.1452 -0.0421
  508MPD2    H7 7611   4.388   3.397  16.445 -1.0077 -1.7627 -1.3426
  509TMC3    C1 7612   3.943   3.756  15.622 -0.2498 -0.0604  0.7617
  509TMC3    C2 7613   4.038   3.851  15.629  0.6086  0.7287  0.5220
  509TMC3    C3 7614   4.130   3.842  15.725  0.0664 -0.3031 -0.1604
  509TMC3    C4 7615   3.923   3.659  15.723  0.1109 -0.1325 -0.2595
  509TMC3    C5 7616   4.013   3.658  15.821  0.2059 -0.0237  0.4053
  509TMC3    C6 7617   4.112   3.752  15.828  0.5992 -0.2077 -0.0934
  509TMC3     C 7618   3.820   3.799  15.554 -0.0560  0.5370 -0.9255
  509TMC3     O 7619   3.736   3.718  15.526  0.1666 -0.4400  0.1624
  509TMC3     H 7620   4.064   3.910  15.541  0.1794 -1.1596 -0.8625
  509TMC3    H1 7621   3.844   3.587  15.710  0.1415 -0.1538 -0.3274
  509TMC3    H2 7622   4.188   3.739  15.904 -0.3865 -0.6868  0.8067
  509TMC3    C7 7623   4.017   3.528  15.884 -0.5099  0.4493  0.3843
  509TMC3    C8 7624   4.261   3.892  15.717  0.3404 -0.0328  0.1853
  509TMC3    O1 7625   4.002   3.437  15.803 -0.2140  0.1361 -0.0028
  509TMC3    O2 7626   4.346   3.829  15.779 -0.1989  0.0194 -0.7001
  510MPD2     C 7627   1.856   0.617  14.855 -1.2175 -0.1376  0.4922
  510MPD2    C1 7628   1.893   0.482  14.870 -0.1599 -0.9820 -0.2610
  510MPD2    C2 7629   2.031   0.465  14.844 -0.0519 -0.1212 -0.0247
  510MPD2    C3 7630   2.117   0.565  14.800  0.3364 -0.1572  0.1512
  510MPD2    C4 7631   2.063   0.694  14.776  0.3530  0.3674  0.3507
  510MPD2    C5 7632   1.933   0.714  14.800  0.0809  0.2702  1.0893
  510MPD2     H 7633   2.069   0.364  14.858 -0.2722 -0.1268  0.5241
  510MPD2    H1 7634   2.119   0.776  14.733  2.5997 -1.1829  0.3051
  510MPD2    H2 7635   1.750   0.640  14.857 -0.9620  1.1764 -1.2697
  510MPD2    H3 7636   1.893   0.810  14.773 -1.0269 -0.0507  1.5944
  510MPD2     N 7637   2.253   0.533  14.765 -0.8739  0.2972 -0.5559
  510MPD2    H5 7638   2.288   0.438  14.777  4.3276  2.5393  1.7135
  510MPD2    N1 7639   1.803   0.380  14.899 -0.0936  0.9846  0.5634
  510MPD2    H7 7640   1.706   0.409  14.907  0.2754  2.2539  0.3896
  511TMC3    C1 7641   1.712   0.161  14.953  0.0431  0.4104 -0.5803
  511TMC3    C2 7642   1.614   0.201  15.047 -0.1839  0.0690  0.1911
  511TMC3    C3 7643   1.505   0.113  15.071  0.6132  0.1082  0.2667
  511TMC3    C4 7644   1.709   0.038  14.890 -0.1770  1.1034 -0.1008
  511TMC3    C5 7645   1.601   4.695  14.921  0.3430 -0.4711 -0.3795
  511TMC3    C6 7646   1.497   4.728  15.007 -0.2837  0.0967  0.5776
  511TMC3     C 7647   1.826   0.239  14.910 -0.4492 -0.3558  0.2443
  511TMC3     O 7648   1.934   0.182  14.886  0.0838 -0.7813  0.0247
  511TMC3     H 7649   1.624   0.292  15.105 -1.3372  0.8286 -0.7876
  511TMC3    H1 7650   1.793   0.003  14.832 -0.3038  2.2264 -0.9471
  511TMC3    H2 7651   1.406   4.669  15.008 -1.1974  1.4806 -0.4603
  511TMC3    C7 7652   1.596   4.574  14.854  0.3596  0.2613 -0.0952
  511TMC3    C8 7653   1.419   0.160  15.169  0.7111  0.8387  0.4461
  511TMC3    O1 7654   1.647   4.570  14.742  0.4141 -0.0143  0.0425
  511TMC3    O2 7655   1.439   0.267  15.227 -0.2016  0.0426  0.0430
  512TMC3    C1 7656   0.770   4.177  13.134 -0.6887 -0.1138 -0.1952
  512TMC3    C2 7657   0.856   4.221  13.227 -0.3313  0.7829  0.0685
  512TMC3    C3 7658   0.903   4.132  13.321  0.0001 -0.1767  0.4705
  512TMC3    C4 7659   0.732   4.050  13.118  0.4492  0.1288 -0.1157
  512TMC3    C5 7660   0.781   3.964  13.215 -0.0994  0.0905 -0.3626
  512TMC3    C6 7661   0.868   4.002  13.320 -0.0283 -0.3893 -0.4227
  512TMC3     C 7662   0.713   4.289  13.054  0.6137  0.2372 -0.0437
  512TMC3     O 7663   0.728   4.402  13.096  0.1349 -0.0947 -0.8984
  512TMC3     H 7664   0.889   4.324  13.225 -2.2546  1.3781 -0.6541
  512TMC3    H1 7665   0.668   4.005  13.043  0.4983  0.5600 -0.4171
  512TMC3    H2 7666   0.907   3.917  13.375  0.1417  0.5134  0.8607
  512TMC3    C7 7667   0.680   3.864  13.250  0.7064  0.2211  0.6841
  512TMC3    C8 7668   1.043   4.160  13.375  0.0381 -0.2074  0.1129
  512TMC3    O1 7669   0.564   3.878  13.206  0.0046 -0.0977 -0.1012
  512TMC3    O2 7670   1.113   4.070  13.414  0.2577 -0.2439  0.1754
  513MPD2     C 7671   2.589   4.442  13.404  0.0079  0.2458  0.4173
  513MPD2    C1 7672   2.709   4.505  13.396 -0.1354  0.1245  1.0802
  513MPD2    C2 7673   2.742   4.601  13.495 -0.3949  1.0872  0.3859
  513MPD2    C3 7674   2.652   4.625  13.600  0.2849  0.0128 -0.1246
  513MPD2    C4 7675   2.527   4.572  13.595  0.3322  0.4211 -0.1699
  513MPD2    C5 7676   2.494   4.484  13.491 -0.5024 -0.1175  0.5562
  513MPD2     H 7677   2.830   4.663  13.515  0.9347 -0.1653 -1.5753
  513MPD2    H1 7678   2.453   4.604  13.667  0.7839 -0.1806  0.5684
  513MPD2    H2 7679   2.568   4.362  13.334 -1.3425  1.0946 -0.1344
  513MPD2    H3 7680   2.392   4.446  13.487 -0.0299 -1.0204 -3.4764
  513MPD2     N 7681   2.697   4.714  13.698  0.8496  0.2805 -0.3437
  513MPD2    H5 7682   2.781   0.034  13.684  1.5892 -0.4978  0.8982
  513MPD2    N1 7683   2.808   4.456  13.308 -0.2926  0.1638  0.1444
  513MPD2    H7 7684   2.786   4.389  13.235  1.6099  0.4715 -0.7024
  514TMC3    C1 7685   3.014   4.430  13.214 -0.0484  0.5305  0.1878
  514TMC3    C2 7686   2.971   4.461  13.083 -0.1307 -0.7823  0.6226
  514TMC3    C3 7687   3.042   4.544  13.001  0.6330 -0.4000  0.7141
  514TMC3    C4 7688   3.146   4.460  13.236  0.5084 -0.9133 -0.8555
  514TMC3    C5 7689   3.211   4.544  13.157 -0.3085 -0.4141 -0.1304
  514TMC3    C6 7690   3.163   4.592  13.043  0.8709  0.3731 -0.2102
  514TMC3     C 7691   2.942   4.475  13.327 -0.2545  0.4247  0.0632
  514TMC3     O 7692   3.004   4.542  13.410 -0.0274 -0.0737  0.0272
  514TMC3     H 7693   2.874   4.423  13.053  0.1057  0.0422 -1.1883
  514TMC3    H1 7694   3.193   4.431  13.329 -0.8335 -1.4463 -0.3444
  514TMC3    H2 7695   3.220   4.657  12.977 -0.3696  1.2603 -0.4177
  514TMC3    C7 7696   3.306   4.632  13.228 -0.1836 -0.3293 -0.0181
  514TMC3    C8 7697   2.956   4.613  12.900  0.4452  0.3987  0.5601
  514TMC3    O1 7698   3.410   4.679  13.182  0.3313 -0.0440  0.2273
  514TMC3    O2 7699   2.836   4.615  12.928 -0.7047  0.7129  0.1781
  515MPD2     C 7700   0.679   1.640  14.629 -0.0698 -0.7622  0.1031
  515MPD2    C1 7701   0.744   1.520  14.637 -0.0281 -0.4414 -0.5668
  515MPD2    C2 7702   0.815   1.496  14.756 -0.0079  0.3234 -0.4080
  515MPD2    C3 7703   0.816   1.587  14.854  0.0788  0.1861 -0.4809
  515MPD2    C4 7704   0.746   1.703  14.850 -0.3970 -0.4989  0.2813
  515MPD2    C5 7705   0.683   1.735  14.733  0.5382 -0.1714  0.4011
  515MPD2     H 7706   0.865   1.401  14.773 -1.0885 -0.1184  0.3152
  515MPD2    H1 7707   0.725   1.764  14.937 -0.0857 -1.2939  0.9111
  515MPD2    H2 7708   0.621   1.672  14.543  0.3683 -0.2076  0.0131
  515MPD2    H3 7709   0.611   1.816  14.726  1.0051  0.1300 -0.9146
  515MPD2     N 7710   0.881   1.571  14.978 -0.0902  0.2848 -0.3216
  515MPD2    H5 7711   0.870   1.645  15.046  0.2296  0.8827 -0.9255
  515MPD2    N1 7712   0.746   1.418  14.541  0.1644  0.0796  0.4005
  515MPD2    H7 7713   0.776   1.327  14.575 -0.7914 -0.8699 -1.2782
  516TMC3    C1 7714   0.709   1.312  14.335 -0.0066  0.2037 -0.1259
  516TMC3    C2 7715   0.711   1.326  14.200  0.2200 -0.0727  0.1832
  516TMC3    C3 7716   0.713   1.214  14.123  0.6208  0.0178 -0.3558
  516TMC3    C4 7717   0.705   1.191  14.396 -0.3942  0.6572 -0.2615
  516TMC3    C5 7718   0.688   1.080  14.311  0.5065  0.2810  0.2510
  516TMC3    C6 7719   0.690   1.082  14.170  0.0071 -0.2813  0.9574
  516TMC3     C 7720   0.712   1.431  14.411 -0.7744  0.1034 -0.6428
  516TMC3     O 7721   0.667   1.531  14.353 -0.1909 -0.0100 -0.9395
  516TMC3     H 7722   0.728   1.424  14.156 -2.2570  0.2223 -0.1076
  516TMC3    H1 7723   0.715   1.181  14.503  1.4028  2.7334 -0.2249
  516TMC3    H2 7724   0.688   1.000  14.099 -2.0235  1.3256 -0.8427
  516TMC3    C7 7725   0.685   0.951  14.382 -0.1871 -0.3765 -0.8019
  516TMC3    C8 7726   0.687   1.236  13.987 -0.5498  0.1722 -0.0905
  516TMC3    O1 7727   0.714   0.955  14.499 -0.3075 -0.8732  0.7107
  516TMC3    O2 7728   0.599   1.176  13.932 -0.1418  0.2296  0.1535
  517MPD2     C 7729   0.646   3.287  17.474  0.0811  0.2766 -0.3587
  517MPD2    C1 7730   0.752   3.236  17.544 -1.2324 -0.8448 -0.5528
  517MPD2    C2 7731   0.809   3.303  17.652  0.6203 -0.2062 -0.3660
  517MPD2    C3 7732   0.767   3.432  17.688  0.3137  0.3236  0.0263
  517MPD2    C4 7733   0.660   3.488  17.615  0.0789 -0.1843  0.3885
  517MPD2    C5 7734   0.607   3.413  17.515 -0.2551 -0.7074 -0.9429
  517MPD2     H 7735   0.895   3.261  17.702  0.1476  0.4488  0.9773
  517MPD2    H1 7736   0.610   3.584  17.622  1.1016  0.1259  3.6431
  517MPD2    H2 7737   0.599   3.246  17.386  0.8785  2.0803 -1.6114
  517MPD2    H3 7738   0.533   3.459  17.450  0.4836  2.2035  0.3283
  517MPD2     N 7739   0.822   3.505   0.056  0.0136 -0.1148 -0.1821
  517MPD2    H5 7740   0.797   3.604   0.056 -1.2123 -0.4201  0.3372
  517MPD2    N1 7741   0.806   3.109  17.516 -0.0134 -0.1087  0.4401
  517MPD2    H7 7742   0.898   3.088  17.552 -0.0847 -0.8975  0.1553
  518TMC3    C1 7743   0.831   2.910  17.412 -0.5906  0.5128  0.1817
  518TMC3    C2 7744   0.761   2.791  17.403 -0.1406 -0.6880 -0.0887
  518TMC3    C3 7745   0.836   2.678  17.358 -0.4009 -0.2464 -0.5346
  518TMC3    C4 7746   0.955   2.922  17.347  0.2532 -0.3005 -0.2167
  518TMC3    C5 7747   1.029   2.812  17.306  0.6586 -0.0364  0.8503
  518TMC3    C6 7748   0.967   2.693  17.314  0.7339 -0.0235  0.5456
  518TMC3     C 7749   0.749   3.024  17.425 -0.3229 -0.0445  0.5010
  518TMC3     O 7750   0.634   3.025  17.384  0.1419 -0.3810  0.4684
  518TMC3     H 7751   0.662   2.781  17.446 -0.6020 -1.5647 -1.3361
  518TMC3    H1 7752   0.996   3.023  17.339  2.1971 -0.9638  1.4614
  518TMC3    H2 7753   1.017   2.604  17.276 -2.6503 -1.2101 -1.0997
  518TMC3    C7 7754   1.134   2.833  17.214  0.2674  0.0341 -0.3366
  518TMC3    C8 7755   0.786   2.544  17.380  0.1983  0.0396  0.7646
  518TMC3    O1 7756   1.155   2.942  17.162  0.2888  0.4233 -0.3355
  518TMC3    O2 7757   0.853   2.454  17.329 -0.5799 -0.0637  0.1823
  519MPD2     C 7758   2.149   1.400  14.829  0.5997  0.6677 -0.0897
  519MPD2    C1 7759   2.115   1.414  14.696 -0.4101 -0.1227 -0.1745
  519MPD2    C2 7760   2.177   1.337  14.600  0.3745  0.1272  0.5399
  519MPD2    C3 7761   2.282   1.251  14.635  0.6410 -0.8176  0.2634
  519MPD2    C4 7762   2.319   1.241  14.765 -0.6695  0.1866  0.1131
  519MPD2    C5 7763   2.250   1.315  14.860 -0.1068 -0.2043 -0.2679
  519MPD2     H 7764   2.153   1.347  14.495  0.3323  2.0186  0.7188
  519MPD2    H1 7765   2.406   1.183  14.791 -1.5862 -0.9310  0.6759
  519MPD2    H2 7766   2.097   1.458  14.905  0.5717  0.3584  0.1269
  519MPD2    H3 7767   2.285   1.327  14.962 -2.2532 -1.4657  0.6321
  519MPD2     N 7768   2.332   1.156  14.541  0.2042 -0.4760  0.1303
  519MPD2    H5 7769   2.400   1.088  14.574  0.0871 -0.1069  1.1384
  519MPD2    N1 7770   1.996   1.484  14.675 -0.3947 -0.6062  0.2064
  519MPD2    H7 7771   1.944   1.503  14.760 -1.7228 -0.0059 -0.7481
  520TMC3    C1 7772   2.371   1.042  14.347 -0.8732 -0.6943 -0.5659
  520TMC3    C2 7773   2.319   1.001  14.228 -0.3043  0.1719  0.4890
  520TMC3    C3 7774   2.409   0.986  14.120 -0.0801  0.2777  0.5090
  520TMC3    C4 7775   2.511   1.054  14.363  0.5289  0.2244 -0.2505
  520TMC3    C5 7776   2.596   1.014  14.259  0.1301 -0.4210  0.3002
  520TMC3    C6 7777   2.541   0.996  14.135 -0.1701 -0.1728  0.3350
  520TMC3     C 7778   2.286   1.133  14.414  0.4605  0.1962 -0.4568
  520TMC3     O 7779   2.178   1.163  14.363 -0.0672 -0.4332  0.3793
  520TMC3     H 7780   2.212   0.994  14.219 -0.1242  2.0353 -3.2886
  520TMC3    H1 7781   2.555   1.089  14.456 -1.1663 -0.3889  0.8014
  520TMC3    H2 7782   2.607   0.964  14.055 -2.4853 -4.1869  0.0122
  520TMC3    C7 7783   2.727   0.955  14.296  0.2234 -0.6009  0.0870
  520TMC3    C8 7784   2.363   0.985  13.986 -0.8843  0.3109 -0.3012
  520TMC3    O1 7785   2.726   0.887  14.402  0.7112 -0.0363 -0.0621
  520TMC3    O2 7786   2.441   1.042  13.910  0.1371  0.0927  0.3271
  521MPD2     C 7787   2.918   4.208  17.538  0.0949  0.2277  0.5480
  521MPD2    C1 7788   2.870   4.085  17.504  0.1180  0.2050 -0.6571
  521MPD2    C2 7789   2.957   3.985  17.468 -0.0200 -0.1038 -0.1250
  521MPD2    C3 7790   3.093   4.008  17.470  0.6351 -0.3929 -0.7720
  521MPD2    C4 7791   3.136   4.136  17.501 -0.4507 -0.9202  0.6861
  521MPD2    C5 7792   3.048   4.235  17.541  0.8117 -0.0895  0.3928
  521MPD2     H 7793   2.926   3.886  17.439 -0.5899  0.2584 -0.7370
  521MPD2    H1 7794   3.235   4.180  17.494 -0.8612 -0.1413 -0.3812
  521MPD2    H2 7795   2.848   4.290  17.548 -0.0188  0.4761 -2.3255
  521MPD2    H3 7796   3.088   4.335  17.553 -0.1138  0.3551 -0.2668
  521MPD2     N 7797   3.188   3.907  17.440  0.4950 -0.0343  0.4468
  521MPD2    H5 7798   3.161   3.817  17.401  1.1416  0.0602 -0.2136
  521MPD2    N1 7799   2.725   4.072  17.505  0.1019 -0.4327 -0.0473
  521MPD2    H7 7800   2.666   4.151  17.530  1.4801  1.0359 -1.4779
  522TMC3    C1 7801   3.406   3.809  17.416 -0.0517 -0.5337  0.1360
  522TMC3    C2 7802   3.529   3.796  17.482  0.2091 -0.2536 -0.3269
  522TMC3    C3 7803   3.623   3.711  17.422  0.1604 -0.3836 -0.4748
  522TMC3    C4 7804   3.382   3.743  17.297 -1.1331  0.6749 -0.6170
  522TMC3    C5 7805   3.478   3.663  17.249  0.8036 -0.3351  0.1694
  522TMC3    C6 7806   3.596   3.642  17.314 -0.1024 -0.6027 -0.2999
  522TMC3     C 7807   3.324   3.919  17.462 -0.0327 -0.3752  0.2253
  522TMC3     O 7808   3.389   4.008  17.515  0.0360 -0.0259  0.3550
  522TMC3     H 7809   3.554   3.860  17.567  0.9929 -2.5522  1.1689
  522TMC3    H1 7810   3.292   3.767  17.242 -0.7469 -0.2409 -1.6609
  522TMC3    H2 7811   3.670   3.586  17.259 -0.7698 -2.1888  0.4084
  522TMC3    C7 7812   3.438   3.566  17.141 -0.1891 -0.3078 -0.0381
  522TMC3    C8 7813   3.766   3.738  17.454  0.2185  0.1661 -0.6042
  522TMC3    O1 7814   3.468   3.450  17.154 -0.4121  0.1275  0.0625
  522TMC3    O2 7815   3.784   3.802  17.556 -0.1645 -0.3331  0.1292
  523MPD2     C 7816   1.025   3.830  10.010 -0.6042 -0.3722 -0.3257
  523MPD2    C1 7817   0.931   3.772   9.921 -0.1317 -0.1217  0.4576
  523MPD2    C2 7818   0.906   3.839   9.802 -0.6731  0.0223  0.3696
  523MPD2    C3 7819   0.965   3.968   9.784 -0.8153 -0.1786 -0.7406
  523MPD2    C4 7820   1.062   4.015   9.869  0.1422 -0.1063  0.4024
  523MPD2    C5 7821   1.093   3.945   9.982 -0.6585  0.6083  0.0499
  523MPD2     H 7822   0.826   3.797   9.743 -0.1619  2.1569 -1.8668
  523MPD2    H1 7823   1.116   4.109   9.861 -3.7051  2.1677  0.8984
  523MPD2    H2 7824   1.050   3.780  10.102 -0.5786 -0.3784 -0.3361
  523MPD2    H3 7825   1.162   3.983  10.057 -1.5869 -3.2918  2.8735
  523MPD2     N 7826   0.915   4.054   9.686  0.5291 -0.4026 -0.2172
  523MPD2    H5 7827   0.945   4.150   9.696 -0.3510 -0.1320 -0.1784
  523MPD2    N1 7828   0.869   3.656   9.975 -0.1475  0.5782  0.3318
  523MPD2    H7 7829   0.906   3.617  10.061 -2.8266 -0.9143  0.8033
  524TMC3    C1 7830   0.790   4.121   9.496 -0.3634  0.7179 -0.3855
  524TMC3    C2 7831   0.740   4.104   9.369  0.4096  0.0406 -0.5649
  524TMC3    C3 7832   0.698   4.217   9.295  0.0338  0.7086 -0.0064
  524TMC3    C4 7833   0.757   4.234   9.570 -0.7088 -0.3775 -0.6045
  524TMC3    C5 7834   0.693   4.333   9.500 -0.2429 -0.0436  0.1049
  524TMC3    C6 7835   0.666   4.337   9.361  0.2990  0.9418 -0.6023
  524TMC3     C 7836   0.834   4.010   9.583  0.1052 -0.5356  0.3123
  524TMC3     O 7837   0.809   3.895   9.549 -0.5817 -0.0423 -0.2833
  524TMC3     H 7838   0.766   4.019   9.308  1.8386  0.6953 -0.8866
  524TMC3    H1 7839   0.778   4.254   9.675 -2.8225 -2.0935  0.1519
  524TMC3    H2 7840   0.634   4.423   9.303 -0.3399  0.1378 -1.4377
  524TMC3    C7 7841   0.621   4.435   9.586 -0.7518 -0.3938 -0.0499
  524TMC3    C8 7842   0.642   4.186   9.158 -0.9269  0.1264  0.5286
  524TMC3    O1 7843   0.638   4.426   9.706 -0.6125 -0.2352 -0.6052
  524TMC3    O2 7844   0.581   4.283   9.113  0.6195  0.3934 -0.3316
  525MPD2     C 7845   3.568   0.691  14.704 -0.1329 -0.3972 -0.3783
  525MPD2    C1 7846   3.701   0.671  14.719 -0.0385 -0.4105 -0.2261
  525MPD2    C2 7847   3.793   0.755  14.645 -0.1372 -0.4548  0.6747
  525MPD2    C3 7848   3.744   0.863  14.568 -0.7049  0.4455 -0.3155
  525MPD2    C4 7849   3.610   0.873  14.563  0.1595  0.1563 -0.2381
  525MPD2    C5 7850   3.523   0.789  14.622 -0.0933  0.2714 -0.1138
  525MPD2     H 7851   3.900   0.745  14.662  0.0215  1.3779  0.7277
  525MPD2    H1 7852   3.573   0.966  14.520 -0.8322  0.5334  1.4300
  525MPD2    H2 7853   3.494   0.626  14.751 -0.5588 -0.2331 -0.8139
  525MPD2    H3 7854   3.417   0.792  14.599  0.0008  2.9343 -0.1887
  525MPD2     N 7855   3.820   0.949  14.494  0.0362  0.3929  0.1742
  525MPD2    H5 7856   3.766   1.026  14.455 -1.3622 -0.4433  0.4772
  525MPD2    N1 7857   3.747   0.564  14.803  0.3778  0.0391 -0.6203
  525MPD2    H7 7858   3.846   0.545  14.802  0.4443  0.2923  0.9479
  526TMC3    C1 7859   3.754   0.409  14.967 -0.2207 -0.1413 -0.5301
  526TMC3    C2 7860   3.707   0.361  15.088 -0.2570 -0.0455 -0.0016
  526TMC3    C3 7861   3.773   0.263  15.152  0.0270  0.4448  0.3750
  526TMC3    C4 7862   3.872   0.372  14.917  0.0072 -0.5467  0.4381
  526TMC3    C5 7863   3.952   0.298  15.001  0.1566 -0.0067 -0.1313
  526TMC3    C6 7864   3.903   0.241  15.119 -1.0325  0.5157  0.1111
  526TMC3     C 7865   3.673   0.500  14.896  0.1825  0.1068  0.2498
  526TMC3     O 7866   3.557   0.516  14.936  0.4155 -0.1727  0.0993
  526TMC3     H 7867   3.614   0.402  15.127  1.4316  4.6327 -0.8249
  526TMC3    H1 7868   3.913   0.401  14.821 -0.4599  1.3893  0.8269
  526TMC3    H2 7869   3.969   0.187  15.187 -0.3041  1.8520  0.4779
  526TMC3    C7 7870   4.078   0.249  14.942 -0.0869  0.2199 -0.3104
  526TMC3    C8 7871   3.742   0.232  15.288  0.2018  0.0964 -0.4988
  526TMC3    O1 7872   4.105   0.277  14.827 -0.3133  0.3574 -0.3447
  526TMC3    O2 7873   3.835   0.211  15.366 -0.2950 -0.6583 -0.7687
  527MPD2     C 7874   2.412   4.013   0.924  0.7209 -0.3440  0.0481
  527MPD2    C1 7875   2.354   3.933   0.835  0.5319  0.7939 -0.4344
  527MPD2    C2 7876   2.430   3.833   0.777 -0.2587  0.2346  0.0088
  527MPD2    C3 7877   2.557   3.794   0.817 -0.3881  0.3051 -0.3515
  527MPD2    C4 7878   2.614   3.876   0.909  0.6010 -0.0240 -0.1985
  527MPD2    C5 7879   2.542   3.989   0.961  0.1160 -0.3105 -0.4605
  527MPD2     H 7880   2.389   3.772   0.697 -0.7144  2.0607 -1.1510
  527MPD2    H1 7881   2.721   3.873   0.926  0.8182  1.1567 -1.3978
  527MPD2    H2 7882   2.364   4.101   0.964  1.5406  0.7947 -1.4914
  527MPD2    H3 7883   2.590   4.063   1.023 -1.6042  0.0206  0.4723
  527MPD2     N 7884   2.626   3.695   0.749  0.3886 -0.0227  0.0494
  527MPD2    H5 7885   2.568   3.648   0.681  0.5939  0.1668 -0.2590
  527MPD2    N1 7886   2.221   3.950   0.791 -0.4745  0.1000  0.3336
  527MPD2    H7 7887   2.192   3.887   0.718 -2.0116  0.3238  0.7576
  528TMC3    C1 7888   1.995   4.038   0.800  0.7262  0.1966  0.4146
  528TMC3    C2 7889   1.979   4.011   0.668  0.2688 -0.1210  0.0425
  528TMC3    C3 7890   1.860   3.955   0.632 -0.7203 -0.2639  1.2028
  528TMC3    C4 7891   1.889   4.028   0.895  0.2910 -0.1179 -0.5176
  528TMC3    C5 7892   1.769   3.985   0.853  0.1347  0.2639  0.1040
  528TMC3    C6 7893   1.752   3.952   0.715  0.4140 -0.2110 -0.7230
  528TMC3     C 7894   2.132   4.040   0.854  0.2886 -0.7463 -0.0472
  528TMC3     O 7895   2.152   4.115   0.945  0.4488 -0.4793 -0.0107
  528TMC3     H 7896   2.058   4.017   0.594  1.9331 -1.0320  1.7673
  528TMC3    H1 7897   1.927   4.023   0.996 -1.8438 -0.4571  0.2665
  528TMC3    H2 7898   1.658   3.907   0.685 -0.0256  0.2064  0.0404
  528TMC3    C7 7899   1.706   3.883   0.938 -0.3010 -0.4015 -0.0105
  528TMC3    C8 7900   1.859   3.862   0.522  0.4987  0.7409 -0.2446
  528TMC3    O1 7901   1.706   3.774   0.895  0.4503  0.0841  0.0266
  528TMC3    O2 7902   1.971   3.827   0.494  0.1309 -0.6106 -0.2225
  529MPD2     C 7903   4.256   2.063   1.083  0.3668 -0.7673  0.7408
  529MPD2    C1 7904   4.359   2.043   0.995 -0.3567 -0.1860  0.1325
  529MPD2    C2 7905   4.360   2.105   0.870  0.9000  0.2363  0.2600
  529MPD2    C3 7906   4.253   2.180   0.836 -0.1808  0.1252  0.1539
  529MPD2    C4 7907   4.155   2.198   0.924  0.4045 -0.0390 -0.8209
  529MPD2    C5 7908   4.160   2.142   1.051 -0.6130  0.0167 -0.2430
  529MPD2     H 7909   4.435   2.082   0.795  1.0990  4.0966 -0.7338
  529MPD2    H1 7910   4.068   2.258   0.899 -0.2819 -0.3859  0.6911
  529MPD2    H2 7911   4.234   1.999   1.168  0.3291  0.9898  2.0634
  529MPD2    H3 7912   4.078   2.161   1.120 -0.4751 -0.9712  0.1998
  529MPD2     N 7913   4.234   2.235   0.705 -0.2535 -0.1583  0.3805
  529MPD2    H5 7914   4.140   2.272   0.698 -1.5235 -3.7211 -1.3657
  529MPD2    N1 7915   4.463   1.947   1.020 -0.4326  0.4083 -0.1109
  529MPD2    H7 7916   4.531   1.943   0.945  1.4875  0.5872  1.6370
  530TMC3    C1 7917   4.572   1.762   1.099  0.6770  1.1917 -0.3568
  530TMC3    C2 7918   4.698   1.813   1.103  0.3943 -0.0496  0.2409
  530TMC3    C3 7919   0.061   1.715   1.097 -0.1562  0.0771  0.8703
  530TMC3    C4 7920   4.539   1.628   1.094  0.3499  0.1508  0.5779
  530TMC3    C5 7921   4.637   1.538   1.092  0.5211  0.3857  0.6262
  530TMC3    C6 7922   0.032   1.581   1.099  0.3487 -0.0953 -0.4202
  530TMC3     C 7923   4.463   1.843   1.111  0.0661 -0.0219  0.2002
  530TMC3     O 7924   4.378   1.802   1.187  0.3100  0.7791  0.3640
  530TMC3     H 7925   4.709   1.921   1.100  1.3032 -0.1177  0.7910
  530TMC3    H1 7926   4.435   1.600   1.084  0.2738  0.6034  0.0546
  530TMC3    H2 7927   0.109   1.510   1.124  0.5149  0.2098 -0.0622
  530TMC3    C7 7928   4.612   1.395   1.097 -0.2930 -0.1230  0.3027
  530TMC3    C8 7929   0.173   1.764   1.168 -0.0687  0.1430  0.3018
  530TMC3    O1 7930   4.700   1.325   1.047  0.8846 -0.5975 -0.0612
  530TMC3    O2 7931   0.154   1.863   1.238  0.7290 -0.1797  0.7141
  531MPD2     C 7932   3.380   0.182  13.668  0.4787 -0.5665  0.7516
  531MPD2    C1 7933   3.245   0.140  13.661  0.5266 -0.6142  0.4100
  531MPD2    C2 7934   3.209   0.066  13.544  0.3318 -0.0410 -0.0911
  531MPD2    C3 7935   3.302   0.022  13.444  0.2894 -0.3962  0.1056
  531MPD2    C4 7936   3.428   0.072  13.454 -0.6006  0.3518  0.3588
  531MPD2    C5 7937   3.470   0.147  13.565  0.7932  0.1502 -0.3911
  531MPD2     H 7938   3.104   0.038  13.543  0.1184  0.7471  0.1549
  531MPD2    H1 7939   3.503   0.054  13.379 -2.4746  1.0970 -1.6797
  531MPD2    H2 7940   3.420   0.255  13.737  2.8367  0.5098 -1.7188
  531MPD2    H3 7941   3.574   0.178  13.571  0.9063 -0.1634 -0.7281
  531MPD2     N 7942   3.250   4.668  13.346 -0.3284 -0.3954  0.3206
  531MPD2    H5 7943   3.155   4.634  13.360 -0.2675 -0.8054 -0.2417
  531MPD2    N1 7944   3.149   0.187  13.754 -0.0581 -0.1323  0.0626
  531MPD2    H7 7945   3.175   0.233  13.841  0.7413  0.4470 -0.4739
  532TMC3    C1 7946   2.927   0.192  13.845  0.1928  0.0906 -0.2361
  532TMC3    C2 7947   2.794   0.186  13.824  0.5318  0.4004 -0.5078
  532TMC3    C3 7948   2.715   0.094  13.895 -0.1803  0.0741 -0.5872
  532TMC3    C4 7949   2.986   0.125  13.953 -0.0167 -0.0758  0.2527
  532TMC3    C5 7950   2.909   0.043  14.024 -0.2444  0.2500 -0.2412
  532TMC3    C6 7951   2.777   0.030  14.003  1.3579  0.2145 -0.0640
  532TMC3     C 7952   3.013   0.195  13.723  0.5382 -0.3871 -0.4726
  532TMC3     O 7953   2.951   0.197  13.616  0.1751  0.3265 -0.5059
  532TMC3     H 7954   2.745   0.242  13.745 -1.4029  0.5477  0.7986
  532TMC3    H1 7955   3.092   0.119  13.977  0.1687 -1.6283 -0.9615
  532TMC3    H2 7956   2.711   4.705  14.062  1.2066  0.0080 -0.4454
  532TMC3    C7 7957   2.987   4.676  14.094  0.3343 -0.3274  0.0004
  532TMC3    C8 7958   2.636   4.732  13.817  0.3815  0.4345 -0.0672
  532TMC3    O1 7959   2.981   4.676  14.214  0.0978 -0.0801  0.0828
  532TMC3    O2 7960   2.542   4.684  13.880  0.3074 -0.2682  0.2870
  533TMC3    C1 7961   3.959   1.118  14.485  0.2384  0.2873  0.1535
  533TMC3    C2 7962   4.086   1.173  14.462 -0.2991  0.2225  0.6178
  533TMC3    C3 7963   4.091   1.314  14.470  1.2896 -0.2541 -0.0213
  533TMC3    C4 7964   3.866   1.190  14.556  0.2940 -0.0264  0.1839
  533TMC3    C5 7965   3.893   1.322  14.574 -0.7835 -0.8177  0.4521
  533TMC3    C6 7966   3.997   1.391  14.521  0.2058 -0.0005  0.7891
  533TMC3     C 7967   3.951   0.980  14.509 -0.2050 -0.1396  0.7350
  533TMC3     O 7968   4.045   0.905  14.536 -0.0470  0.7287  0.2918
  533TMC3     H 7969   4.172   1.117  14.428 -0.7780  0.5448 -1.1083
  533TMC3    H1 7970   3.785   1.149  14.615  0.1487  2.5209  1.7516
  533TMC3    H2 7971   4.013   1.496  14.542 -0.8329  0.3818 -0.3485
  533TMC3    C7 7972   3.828   1.378  14.694  0.2037  0.7504  0.2597
  533TMC3    C8 7973   4.218   1.362  14.436  0.3083  0.2310 -0.4629
  533TMC3    O1 7974   3.727   1.447  14.678 -0.5689  0.2879 -0.2517
  533TMC3    O2 7975   4.318   1.296  14.459 -0.3615 -0.3641  0.1684
  534MPD2     C 7976   2.340   2.447   0.740  0.4413 -0.6928 -0.1173
  534MPD2    C1 7977   2.365   2.520   0.854 -0.1690 -0.3732 -0.3588
  534MPD2    C2 7978   2.279   2.505   0.967  0.3212 -0.0804 -0.2232
  534MPD2    C3 7979   2.179   2.408   0.966  0.3870  0.2267 -0.3920
  534MPD2    C4 7980   2.144   2.349   0.848  0.7161 -0.5662 -0.7350
  534MPD2    C5 7981   2.229   2.363   0.738  0.3012 -0.2891  0.5222
  534MPD2     H 7982   2.300   2.565   1.054  0.5668 -1.2998  0.5472
  534MPD2    H1 7983   2.074   2.266   0.843  0.6925 -0.6405  0.8365
  534MPD2    H2 7984   2.394   2.454   0.646  0.2257  3.6679  0.0629
  534MPD2    H3 7985   2.213   2.313   0.644 -1.2102  2.2166 -0.5480
  534MPD2     N 7986   2.120   2.367   1.083  0.3256 -0.0765  0.5911
  534MPD2    H5 7987   2.060   2.286   1.091  2.8407 -2.1643 -1.7060
  534MPD2    N1 7988   2.474   2.606   0.866 -0.2387 -0.3432  0.4299
  534MPD2    H7 7989   2.477   2.663   0.950 -1.2683 -1.0768  0.9718
  535TMC3    C1 7990   2.035   2.377   1.310 -0.0814  0.0620  0.0306
  535TMC3    C2 7991   2.008   2.243   1.298 -0.0450  0.0777 -0.4149
  535TMC3    C3 7992   1.895   2.199   1.348  0.2243  0.6652 -0.3704
  535TMC3    C4 7993   1.948   2.466   1.361  0.7349  0.0060 -0.5539
  535TMC3    C5 7994   1.828   2.421   1.397 -0.1728 -0.5746 -1.2622
  535TMC3    C6 7995   1.796   2.285   1.401  0.6276  0.2664 -0.8736
  535TMC3     C 7996   2.120   2.443   1.207  0.3444  0.0500 -1.2023
  535TMC3     O 7997   2.164   2.552   1.237 -0.5954  0.4290 -0.2031
  535TMC3     H 7998   2.086   2.181   1.255  1.6106  1.0264  1.2418
  535TMC3    H1 7999   1.969   2.573   1.361 -0.1905  0.1800  0.9926
  535TMC3    H2 8000   1.696   2.250   1.425  1.0997  0.4207  1.3196
  535TMC3    C7 8001   1.728   2.506   1.354  0.0592 -0.1755 -0.3223
  535TMC3    C8 8002   1.843   2.079   1.299 -0.4601  0.1310  0.1208
  535TMC3    O1 8003   1.723   2.620   1.397 -0.3800  0.1004 -0.4515
  535TMC3    O2 8004   1.729   2.059   1.341 -0.5048  0.0410  0.3564
  536MPD2     C 8005   0.443   0.605  16.125 -0.4453  0.6235 -0.3724
  536MPD2    C1 8006   0.338   0.509  16.129  0.2944  0.2808 -0.2474
  536MPD2    C2 8007   0.259   0.486  16.020  0.6718  0.4935 -0.1442
  536MPD2    C3 8008   0.292   0.553  15.901 -0.4114 -0.4291 -0.0478
  536MPD2    C4 8009   0.406   0.625  15.894 -0.1825  0.3467 -0.5556
  536MPD2    C5 8010   0.480   0.660  16.006  0.2707  0.0876 -0.0552
  536MPD2     H 8011   0.170   0.426  16.007  0.4813  0.8306 -0.4128
  536MPD2    H1 8012   0.433   0.681  15.806 -1.2877  0.8614 -0.5654
  536MPD2    H2 8013   0.493   0.649  16.211  0.9708 -1.1256 -0.2861
  536MPD2    H3 8014   0.568   0.722  15.996  2.0473 -2.3965  0.1081
  536MPD2     N 8015   0.211   0.550  15.782 -0.0833  0.3257  0.3183
  536MPD2    H5 8016   0.244   0.606  15.705 -0.5104 -0.2061 -0.2494
  536MPD2    N1 8017   0.293   0.462  16.252 -0.6480  0.0801  0.0542
  536MPD2    H7 8018   0.340   0.499  16.335 -1.1854 -1.6940  1.1446
  537TMC3    C1 8019   0.185   0.361  16.412  0.1585  0.1539 -0.1891
  537TMC3    C2 8020   0.197   0.471  16.489 -0.4749  0.0493 -0.1078
  537TMC3    C3 8021   0.203   0.445  16.626  0.5244 -0.1590  1.0645
  537TMC3    C4 8022   0.196   0.232  16.452  0.1506 -0.0102 -0.3074
  537TMC3    C5 8023   0.205   0.215  16.585  0.7972 -0.5753  0.3524
  537TMC3    C6 8024   0.216   0.320  16.672  0.9338 -0.0518  0.2267
  537TMC3     C 8025   0.191   0.385  16.273 -0.2065  0.1644  0.0307
  537TMC3     O 8026   0.115   0.313  16.207  0.2648  0.1363  0.6527
  537TMC3     H 8027   0.199   0.571  16.447 -0.5964  0.0275 -0.1647
  537TMC3    H1 8028   0.169   0.152  16.384  2.0285 -0.2523 -0.7730
  537TMC3    H2 8029   0.228   0.288  16.775 -0.2212 -0.4803  0.2222
  537TMC3    C7 8030   0.185   0.077  16.641 -0.5557  0.0043  0.5253
  537TMC3    C8 8031   0.282   0.543  16.700  0.4234 -0.3964  0.7272
  537TMC3    O1 8032   0.122   4.732  16.573 -0.1786 -1.1036 -0.6149
  537TMC3    O2 8033   0.352   0.498  16.793 -0.6985 -0.0444 -0.7350
  538TMC3    C1 8034   1.627   3.620  10.911  0.3161 -0.0723 -0.3940
  538TMC3    C2 8035   1.764   3.619  10.905 -0.1849 -0.3569  0.5807
  538TMC3    C3 8036   1.837   3.621  10.792  0.0126  0.3494 -0.6928
  538TMC3    C4 8037   1.554   3.629  10.797 -0.1844  0.0658 -0.3528
  538TMC3    C5 8038   1.628   3.659  10.690  0.0340  0.1092  0.1251
  538TMC3    C6 8039   1.767   3.654  10.688 -0.0475 -0.2491  0.3697
  538TMC3     C 8040   1.562   3.583  11.035 -0.8077 -0.0556  0.6289
  538TMC3     O 8041   1.452   3.533  11.033  0.4169  0.4098 -0.0001
  538TMC3     H 8042   1.812   3.584  10.996  0.2418  2.3141  1.3927
  538TMC3    H1 8043   1.445   3.628  10.795 -0.1629 -0.7874 -1.1619
  538TMC3    H2 8044   1.813   3.662  10.590 -0.5960  2.8229  0.3793
  538TMC3    C7 8045   1.561   3.752  10.601  0.0682  0.4224 -0.1181
  538TMC3    C8 8046   1.973   3.553  10.794 -1.2733  0.0243  0.2492
  538TMC3    O1 8047   1.444   3.720  10.575  0.0886  0.1581 -0.0017
  538TMC3    O2 8048   1.988   3.470  10.886  0.2794 -0.2691  0.8527
  539MPD2     C 8049   0.747   2.885  11.884  0.1030 -0.5202 -0.4716
  539MPD2    C1 8050   0.812   2.894  11.766 -0.2403 -0.1307 -0.6623
  539MPD2    C2 8051   0.871   3.021  11.730 -0.4965  0.4699  0.1711
  539MPD2    C3 8052   0.865   3.129  11.819 -0.0337  0.4199  0.3011
  539MPD2    C4 8053   0.815   3.104  11.946 -0.0419 -0.0985 -0.1468
  539MPD2    C5 8054   0.746   2.995  11.967  0.0609 -0.1759 -0.0107
  539MPD2     H 8055   0.926   3.027  11.637  0.3408 -0.1090  0.6309
  539MPD2    H1 8056   0.815   3.189  12.014 -0.6545 -0.0219 -0.2371
  539MPD2    H2 8057   0.703   2.791  11.916  3.2932 -2.0693 -0.6298
  539MPD2    H3 8058   0.686   2.984  12.057 -0.5889  0.0115 -0.4220
  539MPD2     N 8059   0.912   3.256  11.792  0.3133  0.8715 -0.6590
  539MPD2    H5 8060   0.881   3.320  11.863  1.4400  0.5642  0.1201
  539MPD2    N1 8061   0.834   2.784  11.683 -0.3519 -0.1862 -0.2807
  539MPD2    H7 8062   0.921   2.797  11.633 -0.5883  0.4395 -0.5382
  540TMC3    C1 8063   0.929   3.445  11.636  0.2893 -0.0274  0.3592
  540TMC3    C2 8064   0.942   3.481  11.508 -0.3266  0.5465 -0.6212
  540TMC3    C3 8065   0.920   3.611  11.478 -0.3931 -0.6022 -0.9538
  540TMC3    C4 8066   0.890   3.530  11.737  0.4091 -0.2729 -0.6639
  540TMC3    C5 8067   0.876   3.662  11.701 -0.3608 -0.4598 -0.5176
  540TMC3    C6 8068   0.881   3.698  11.569 -0.0397  0.2815 -0.2052
  540TMC3     C 8069   0.951   3.300  11.665 -0.6096 -0.3664  0.6668
  540TMC3     O 8070   0.998   3.233  11.574  0.0896 -0.0954  0.4291
  540TMC3     H 8071   0.979   3.412  11.433  0.1372  0.0509  0.0678
  540TMC3    H1 8072   0.895   3.502  11.842  0.5256 -0.4044 -0.7035
  540TMC3    H2 8073   0.834   3.789  11.533 -0.1357 -0.1048 -1.0343
  540TMC3    C7 8074   0.771   3.738  11.769 -0.1411 -0.3065  0.2544
  540TMC3    C8 8075   0.903   3.649  11.343  0.3031  0.2534  0.1165
  540TMC3    O1 8076   0.704   3.676  11.848  0.0611  0.0614  0.1880
  540TMC3    O2 8077   0.912   3.766  11.319 -0.0127 -0.1431  0.1170
  541MPD2     C 8078   4.515   4.643  13.678 -0.3148  0.3537  0.3853
  541MPD2    C1 8079   4.445   4.560  13.597 -0.2050 -0.1277  0.3639
  541MPD2    C2 8080   4.436   4.589  13.462  0.1299  0.0388 -0.2525
  541MPD2    C3 8081   4.508   4.702  13.415  0.2197  0.5943  0.6585
  541MPD2    C4 8082   4.583   0.049  13.495  0.4862 -0.0883  0.0448
  541MPD2    C5 8083   4.577   0.021  13.627 -0.2702  0.3938 -0.0445
  541MPD2     H 8084   4.369   4.526  13.406 -0.6948  2.3241 -1.8269
  541MPD2    H1 8085   4.623   0.147  13.471  1.9845 -0.8991 -0.8045
  541MPD2    H2 8086   4.527   4.628  13.785 -2.1573 -3.0920  0.0892
  541MPD2    H3 8087   4.635   0.087  13.690 -1.3888  0.7571  0.6091
  541MPD2     N 8088   4.494   0.003  13.277 -0.2788 -0.6205  0.1608
  541MPD2    H5 8089   4.516   0.099  13.255 -2.0932  0.1235  1.6197
  541MPD2    N1 8090   4.389   4.436  13.644 -0.0821  0.4496  0.1667
  541MPD2    H7 8091   4.338   4.384  13.573  0.9088 -3.0141  1.9879
  542TMC3    C1 8092   4.444   0.003  13.049 -0.6879  0.4206 -0.3704
  542TMC3    C2 8093   4.459   4.677  12.927 -0.7021  0.4327  0.4620
  542TMC3    C3 8094   4.404   0.009  12.815 -0.6864 -0.0023 -0.6565
  542TMC3    C4 8095   4.390   0.129  13.063  0.4030 -0.3431 -0.2672
  542TMC3    C5 8096   4.342   0.192  12.950  0.1782  0.1948 -0.4220
  542TMC3    C6 8097   4.339   0.130  12.826  0.0377  0.0836 -0.5880
  542TMC3     C 8098   4.457   4.656  13.174 -0.2246  0.3767 -0.3355
  542TMC3     O 8099   4.458   4.532  13.178 -0.1426 -0.5357 -0.3643
  542TMC3     H 8100   4.514   4.584  12.928 -0.5779  0.5168  1.4057
  542TMC3    H1 8101   4.366   0.165  13.163 -0.6179  1.4239 -1.1316
  542TMC3    H2 8102   4.308   0.189  12.740 -0.5121  0.4646 -0.1283
  542TMC3    C7 8103   4.273   0.323  12.967 -0.2100 -0.3605 -0.2687
  542TMC3    C8 8104   4.419   4.689  12.686 -0.0081 -0.7740  0.3371
  542TMC3    O1 8105   4.270   0.404  12.877 -0.0572  0.1809  0.0949
  542TMC3    O2 8106   4.332   4.717  12.606  0.1007 -0.3485  0.1352
  543TMC3    C1 8107   4.303   1.568  17.180 -0.6327 -0.1955 -0.1713
  543TMC3    C2 8108   4.399   1.486  17.242  0.2269 -0.1111  0.2885
  543TMC3    C3 8109   4.424   1.517  17.372 -0.1216  0.3065  0.1674
  543TMC3    C4 8110   4.270   1.688  17.236  1.0254 -0.2982  0.4498
  543TMC3    C5 8111   4.307   1.716  17.369  0.0738 -0.2324 -0.0202
  543TMC3    C6 8112   4.371   1.624  17.441  0.4569  0.6449  0.6261
  543TMC3     C 8113   4.249   1.530  17.054  0.2745  0.5117 -0.5141
  543TMC3     O 8114   4.282   1.420  17.013 -0.4778  0.0324 -0.2713
  543TMC3     H 8115   4.434   1.393  17.199  1.6610  0.7649 -0.4085
  543TMC3    H1 8116   4.222   1.760  17.170 -0.7254  1.0223  3.1531
  543TMC3    H2 8117   4.387   1.644  17.546 -0.6740 -1.7815  1.2587
  543TMC3    C7 8118   4.235   1.819  17.432 -0.7865  0.0439 -0.0529
  543TMC3    C8 8119   4.458   1.395  17.453 -0.1462  0.4945  0.0863
  543TMC3    O1 8120   4.250   1.815  17.553  0.2410 -0.0647  0.0650
  543TMC3    O2 8121   4.470   1.288  17.395 -0.1054 -0.2959  1.1020
  544MPD2     C 8122   4.418   1.134   0.149  0.4549 -0.0372 -0.4778
  544MPD2    C1 8123   4.424   1.093   0.021 -0.4754  0.1390 -0.0019
  544MPD2    C2 8124   4.448   1.185  17.662  0.4800 -0.4035 -0.4542
  544MPD2    C3 8125   4.456   1.320  17.694 -1.2312  0.2201  0.1211
  544MPD2    C4 8126   4.440   1.362   0.079  0.3917  0.3430  0.7041
  544MPD2    C5 8127   4.429   1.268   0.175 -0.0025 -0.0695 -0.5627
  544MPD2     H 8128   4.481   1.149  17.565  0.3142  0.1935 -0.7307
  544MPD2    H1 8129   4.442   1.464   0.116 -1.7537  0.7220 -0.2265
  544MPD2    H2 8130   4.408   1.064   0.231  1.3296  0.1145 -0.2348
  544MPD2    H3 8131   4.432   1.302   0.278 -0.1181 -1.3189 -0.1446
  544MPD2     N 8132   4.471   1.420  17.591 -0.0727  0.4105 -0.3936
  544MPD2    H5 8133   4.493   1.516  17.612 -4.7766  1.2183  0.8047
  544MPD2    N1 8134   4.415   0.955  17.736  0.3094 -0.4592 -0.0763
  544MPD2    H7 8135   4.393   0.895   0.071  0.9726  0.8209  1.0949
  545TMC3    C1 8136   4.374   0.750  17.619 -0.4609  0.2853  0.1129
  545TMC3    C2 8137   4.343   0.694  17.501 -0.3841 -0.2836 -0.6196
  545TMC3    C3 8138   4.280   0.571  17.504  0.7689 -0.3151 -0.0877
  545TMC3    C4 8139   4.376   0.681  17.741 -0.4931 -0.1200 -0.1558
  545TMC3    C5 8140   4.314   0.559  17.734 -0.1933  0.2626 -0.5904
  545TMC3    C6 8141   4.268   0.504  17.616 -0.5488 -0.1052 -0.1044
  545TMC3     C 8142   4.406   0.891  17.616  0.3214 -0.1743 -0.1141
  545TMC3     O 8143   4.406   0.938  17.504  0.2973 -0.7874  0.1175
  545TMC3     H 8144   4.378   0.743  17.411 -3.4419  0.2441 -1.5318
  545TMC3    H1 8145   4.420   0.720   0.089  1.6571  0.2348 -1.3518
  545TMC3    H2 8146   4.217   0.408  17.618 -0.4015 -0.2276 -1.9036
  545TMC3    C7 8147   4.340   0.462   0.092 -0.1205 -0.0435 -0.4816
  545TMC3    C8 8148   4.290   0.492  17.388 -0.2225 -0.0680  0.1938
  545TMC3    O1 8149   4.355   0.501   0.208 -0.2236 -0.1584 -0.0271
  545TMC3    O2 8150   4.328   0.378  17.400 -0.1546  0.0833 -0.6000
  546MPD2     C 8151   0.508   0.966  17.510  0.4887 -0.4524  0.0509
  546MPD2    C1 8152   0.466   1.030  17.397  0.2748 -0.2035  0.6643
  546MPD2    C2 8153   0.515   1.159  17.364  0.4630  0.0012  0.2704
  546MPD2    C3 8154   0.605   1.219  17.458 -0.1166 -0.1334  0.1472
  546MPD2    C4 8155   0.638   1.155  17.573 -0.2133  0.9786  0.6278
  546MPD2    C5 8156   0.595   1.029  17.590  0.4462  0.3712  0.5726
  546MPD2     H 8157   0.483   1.219  17.280 -0.3632  0.0817  0.6425
  546MPD2    H1 8158   0.712   1.194  17.641  0.8181  0.0878  0.0283
  546MPD2    H2 8159   0.479   0.866  17.538  0.6004 -0.8738 -1.3177
  546MPD2    H3 8160   0.630   0.992  17.685 -0.3353  0.4778  0.9042
  546MPD2     N 8161   0.651   1.344  17.426  0.3545  0.5822 -0.2466
  546MPD2    H5 8162   0.621   1.378  17.335 -1.3642 -0.3350 -0.0258
  546MPD2    N1 8163   0.383   0.951  17.319 -0.1673  0.2805  0.0918
  546MPD2    H7 8164   0.367   0.857  17.354 -0.5530 -0.0657 -0.9939
  547TMC3    C1 8165   0.253   0.871  17.138  0.4619  0.1737  0.1776
  547TMC3    C2 8166   0.144   0.895  17.063 -0.5524 -0.5122  0.2880
  547TMC3    C3 8167   0.072   0.792  17.016  0.3305 -0.5742  0.5234
  547TMC3    C4 8168   0.299   0.740  17.157  0.4159  0.3747 -1.1323
  547TMC3    C5 8169   0.226   0.641  17.110  0.0322  0.5307  0.1351
  547TMC3    C6 8170   0.108   0.660  17.049 -0.2363  0.4115  0.2376
  547TMC3     C 8171   0.321   0.986  17.197  0.4138 -0.1759 -0.2785
  547TMC3     O 8172   0.329   1.089  17.138  0.5839 -0.6144 -0.0570
  547TMC3     H 8173   0.133   0.996  17.023 -0.9527 -0.2104  1.1534
  547TMC3    H1 8174   0.404   0.728  17.182 -0.1553 -1.7077  0.2430
  547TMC3    H2 8175   0.046   0.577  17.018  0.0171  0.0899  0.5820
  547TMC3    C7 8176   0.250   0.520  17.184  0.2132 -0.0395 -0.1926
  547TMC3    C8 8177   4.730   0.823  16.894 -0.6570  0.1487 -0.1197
  547TMC3    O1 8178   0.335   0.520  17.275 -0.2167 -0.3875 -0.0840
  547TMC3    O2 8179   4.669   0.928  16.888  0.3825 -0.1204  0.3220
  548MPD2     C 8180   0.039   1.625  12.224 -0.2406 -0.4306  0.0356
  548MPD2    C1 8181   4.735   1.516  12.297  0.2611  0.0014  0.2050
  548MPD2    C2 8182   0.085   1.408  12.305 -0.4458  0.6553  0.4484
  548MPD2    C3 8183   0.218   1.432  12.269 -0.5565  0.4473 -0.2950
  548MPD2    C4 8184   0.258   1.548  12.202  0.3091  0.0156 -0.4390
  548MPD2    C5 8185   0.160   1.640  12.165  0.3217  0.2137  0.1762
  548MPD2     H 8186   0.044   1.310  12.330 -1.4377  0.4177 -2.1109
  548MPD2    H1 8187   0.359   1.577  12.176  0.7140 -0.5454  0.5115
  548MPD2    H2 8188   4.709   1.705  12.194  1.3493  0.7993 -0.2491
  548MPD2    H3 8189   0.188   1.727  12.107  2.0793 -0.7476 -0.4088
  548MPD2     N 8190   0.320   1.339  12.311  0.0143  0.0994 -0.2245
  548MPD2    H5 8191   0.298   1.244  12.339 -0.5160  0.2451 -0.1353
  548MPD2    N1 8192   4.604   1.518  12.346  0.3156 -0.9528  0.5131
  548MPD2    H7 8193   4.553   1.601  12.320  0.8707 -0.2293  1.7504
  549TMC3    C1 8194   4.420   1.442  12.473  0.6322  0.0223 -0.0009
  549TMC3    C2 8195   4.352   1.558  12.439  0.4248  0.7182  0.0546
  549TMC3    C3 8196   4.227   1.564  12.497  0.3090 -0.3759 -0.7604
  549TMC3    C4 8197   4.375   1.346  12.561  0.5630 -0.6744 -0.1530
  549TMC3    C5 8198   4.246   1.363  12.614 -0.4434 -0.4075  0.1311
  549TMC3    C6 8199   4.170   1.469  12.582  0.0565  0.4606  0.4600
  549TMC3     C 8200   4.555   1.428  12.438  0.0197 -0.1610 -0.2166
  549TMC3     O 8201   4.611   1.324  12.476  0.0745  0.0935 -0.2292
  549TMC3     H 8202   4.387   1.635  12.371 -0.6361 -0.0956 -1.4319
  549TMC3    H1 8203   4.424   1.251  12.576 -1.6009 -1.6754  0.7251
  549TMC3    H2 8204   4.081   1.478  12.643  1.5001  0.7070  2.5272
  549TMC3    C7 8205   4.179   1.249  12.677  0.6296  0.2448 -0.1962
  549TMC3    C8 8206   4.142   1.683  12.490  0.6225  0.3632  0.5388
  549TMC3    O1 8207   4.060   1.237  12.696  0.1565  0.4532 -0.2820
  549TMC3    O2 8208   4.024   1.667  12.517  0.3963  0.4176  0.0986
  550TMC3    C1 8209   3.711   4.202  12.638  0.2780  0.2814  0.4332
  550TMC3    C2 8210   3.675   4.308  12.718 -0.0656  0.3712 -0.4419
  550TMC3    C3 8211   3.748   4.426  12.705 -0.0933 -0.7688 -0.0297
  550TMC3    C4 8212   3.788   4.231  12.530 -0.6416  0.5127  0.2285
  550TMC3    C5 8213   3.854   4.352  12.508 -0.5852  0.6255 -0.5457
  550TMC3    C6 8214   3.832   4.453  12.602  0.2726 -0.2965  0.0843
  550TMC3     C 8215   3.610   4.103  12.613 -0.1617  0.1261 -0.0784
  550TMC3     O 8216   3.568   4.043  12.713 -0.0897 -0.2583 -0.2729
  550TMC3     H 8217   3.600   4.295  12.795 -0.8170 -0.7142 -1.3621
  550TMC3    H1 8218   3.791   4.156  12.451 -0.6879 -0.4082  1.1065
  550TMC3    H2 8219   3.856   4.552  12.567  0.6294 -0.1831  0.6515
  550TMC3    C7 8220   3.808   4.385  12.377  0.0509  0.2946 -0.6253
  550TMC3    C8 8221   3.702   4.544  12.778  0.1746 -0.4765 -0.3983
  550TMC3    O1 8222   3.699   4.334  12.352 -0.5308  0.1135  0.3263
  550TMC3    O2 8223   3.584   4.543  12.812  0.2043 -0.0207 -0.3121
  551TMC3    C1 8224   1.393   2.212  13.085  0.1260  0.1452 -0.2723
  551TMC3    C2 8225   1.502   2.258  13.012 -0.4869 -0.2054 -0.5868
  551TMC3    C3 8226   1.608   2.328  13.067 -0.2028 -0.2291  0.2123
  551TMC3    C4 8227   1.381   2.244  13.221 -0.4618 -0.4077  0.4329
  551TMC3    C5 8228   1.482   2.318  13.276 -0.6393 -0.1991  0.8982
  551TMC3    C6 8229   1.598   2.353  13.204 -0.4999 -0.2139 -0.3764
  551TMC3     C 8230   1.295   2.138  13.008  0.1647 -0.3934 -0.0016
  551TMC3     O 8231   1.319   2.087  12.897  0.6978  0.5734  0.0877
  551TMC3     H 8232   1.508   2.219  12.911  2.0502 -0.0407 -0.5167
  551TMC3    H1 8233   1.298   2.213  13.282 -0.1933  0.2326  1.1184
  551TMC3    H2 8234   1.677   2.403  13.260 -1.0251 -0.7497  0.8443
  551TMC3    C7 8235   1.472   2.362  13.419 -0.4759  0.0112  0.3563
  551TMC3    C8 8236   1.712   2.372  12.980  0.6106  0.0655  0.0157
  551TMC3    O1 8237   1.572   2.408  13.471  0.0796  0.6001 -0.6437
  551TMC3    O2 8238   1.696   2.344  12.863  0.0545 -0.3060 -0.4727
  552MPD2     C 8239   2.862   4.446  14.370  0.1650  0.3466 -0.7650
  552MPD2    C1 8240   2.871   4.322  14.300  0.7232  0.8606 -0.1772
  552MPD2    C2 8241   2.965   4.232  14.355 -0.1597 -0.0517 -0.1905
  552MPD2    C3 8242   3.051   4.262  14.461  0.3867 -0.3603 -0.0572
  552MPD2    C4 8243   3.046   4.389  14.521 -0.6537 -0.1967 -1.1945
  552MPD2    C5 8244   2.951   4.474  14.474  0.1943  0.0182 -0.0609
  552MPD2     H 8245   2.979   4.136  14.307  0.7998 -0.4407  0.8409
  552MPD2    H1 8246   3.120   4.420  14.594 -1.2710  2.3582 -1.6552
  552MPD2    H2 8247   2.801   4.530  14.340  0.6709 -0.1721 -3.2404
  552MPD2    H3 8248   2.951   4.576  14.510 -0.6293  0.2024 -0.5884
  552MPD2     N 8249   3.166   4.190  14.485 -0.5256 -0.3701 -0.2986
  552MPD2    H5 8250   3.241   4.227  14.543 -0.2180  0.0857 -0.9872
  552MPD2    N1 8251   2.785   4.275  14.194  0.1789 -0.2610 -0.9765
  552MPD2    H7 8252   2.801   4.181  14.159 -3.0581 -1.5099  0.8846
  553TMC3    C1 8253   2.657   4.272  14.001  0.0587 -0.0086  0.8746
  553TMC3    C2 8254   2.664   4.341  13.883 -0.0400 -0.0828  0.3483
  553TMC3    C3 8255   2.668   4.278  13.763  0.0485 -0.2049  0.1206
  553TMC3    C4 8256   2.653   4.137  14.003 -0.1514 -0.2433  0.4354
  553TMC3    C5 8257   2.643   4.078  13.880  1.1139  0.5494  0.0225
  553TMC3    C6 8258   2.631   4.148  13.760  0.2940  0.1835  0.5300
  553TMC3     C 8259   2.700   4.343  14.122 -0.1477  0.0596  0.3129
  553TMC3     O 8260   2.654   4.455  14.131 -0.5404  0.0896 -0.0869
  553TMC3     H 8261   2.693   4.445  13.889  0.8803 -0.2323 -1.5091
  553TMC3    H1 8262   2.633   4.083  14.095  1.6213 -0.0071  0.9540
  553TMC3    H2 8263   2.615   4.085  13.672  1.2225 -0.2915  0.7005
  553TMC3    C7 8264   2.743   3.978  13.855  0.4157 -0.5850 -0.0318
  553TMC3    C8 8265   2.795   4.296  13.694 -0.1017 -1.1228  0.4071
  553TMC3    O1 8266   2.787   3.969  13.741  0.0234 -0.5508  0.5019
  553TMC3    O2 8267   2.879   4.375  13.737 -0.0653  0.2609 -0.0035
  554TMC3    C1 8268   0.498   3.579  11.290  0.7429 -0.1210  0.0317
  554TMC3    C2 8269   0.448   3.492  11.190  0.1112 -0.3779 -0.4186
  554TMC3    C3 8270   0.460   3.533  11.064 -0.3182 -0.5333  0.1888
  554TMC3    C4 8271   0.557   3.700  11.262 -0.2223 -0.4328 -0.1777
  554TMC3    C5 8272   0.570   3.731  11.130  0.5314 -0.1945 -0.3963
  554TMC3    C6 8273   0.517   3.649  11.032  0.0563  0.0088  0.1212
  554TMC3     C 8274   0.524   3.534  11.430 -0.0072 -0.0119 -0.7297
  554TMC3     O 8275   0.586   3.603  11.507 -0.5255 -0.2313  0.8046
  554TMC3     H 8276   0.407   3.396  11.217  0.3067  0.2675  2.2272
  554TMC3    H1 8277   0.585   3.775  11.336 -0.7479  1.7044 -2.1383
  554TMC3    H2 8278   0.541   3.663  10.927  1.3986  2.8091  0.8018
  554TMC3    C7 8279   0.624   3.847  11.068 -0.1066 -0.6864  0.8019
  554TMC3    C8 8280   0.384   3.477  10.952  0.3546  0.9291 -0.0742
  554TMC3    O1 8281   0.582   3.870  10.957  0.0205  0.0711  0.2838
  554TMC3    O2 8282   0.435   3.469  10.840  0.2788  0.0198 -0.1977
  555TMC3    C1 8283   4.247   2.692  15.055 -0.0357  0.0705  0.1189
  555TMC3    C2 8284   4.233   2.786  15.154  0.1792 -0.1178  0.2467
  555TMC3    C3 8285   4.237   2.744  15.288 -0.4528  0.3244  0.0469
  555TMC3    C4 8286   4.272   2.567  15.088  0.3129 -0.1006 -0.1357
  555TMC3    C5 8287   4.260   2.528  15.220 -0.0970 -0.2866  0.1134
  555TMC3    C6 8288   4.247   2.612  15.328 -0.0542 -0.0716  0.3156
  555TMC3     C 8289   4.215   2.721  14.919 -0.3779 -0.5872 -0.5662
  555TMC3     O 8290   4.261   2.643  14.838 -0.5754 -0.2047 -0.3963
  555TMC3     H 8291   4.201   2.884  15.124 -1.1934 -0.6494 -0.0436
  555TMC3    H1 8292   4.258   2.494  15.010 -0.4696  0.2219 -0.2930
  555TMC3    H2 8293   4.252   2.580  15.432  1.4023  1.3323  0.6645
  555TMC3    C7 8294   4.257   2.385  15.252 -0.0999  0.5388  0.2348
  555TMC3    C8 8295   4.289   2.842  15.375 -0.4529  0.2969 -0.4562
  555TMC3    O1 8296   4.226   2.310  15.163  0.1564 -0.0808 -0.3621
  555TMC3    O2 8297   4.290   2.950  15.317  0.5279  0.9456 -0.2754
  556MPD2     C 8298   2.681   4.312  10.934  0.8593 -0.0775  0.1249
  556MPD2    C1 8299   2.570   4.230  10.904 -0.0490 -0.3553  0.0985
  556MPD2    C2 8300   2.576   4.140  10.794  0.5969  0.5347  0.0918
  556MPD2    C3 8301   2.690   4.135  10.714  0.8998  1.0993 -0.9413
  556MPD2    C4 8302   2.804   4.198  10.751 -0.3972  0.1802  0.4945
  556MPD2    C5 8303   2.800   4.282  10.866  0.1786 -0.3525 -0.2600
  556MPD2     H 8304   2.489   4.080  10.769 -1.0365  2.5972  0.7821
  556MPD2    H1 8305   2.901   4.182  10.705 -1.3152  1.9101 -2.0768
  556MPD2    H2 8306   2.682   4.387  11.012 -3.0941 -0.5991  0.6711
  556MPD2    H3 8307   2.886   4.340  10.898 -0.1684  0.2447 -0.3948
  556MPD2     N 8308   2.677   4.046  10.605 -0.1930  0.8520 -0.0622
  556MPD2    H5 8309   2.593   3.995  10.581  0.0267  0.0813  0.8357
  556MPD2    N1 8310   2.451   4.261  10.975  0.0284  0.2260 -0.3319
  556MPD2    H7 8311   2.459   4.339  11.040  3.6202  0.0274 -0.5199
  557TMC3    C1 8312   2.713   3.957  10.383  0.9958  0.0038  0.3482
  557TMC3    C2 8313   2.710   4.016  10.259 -0.1298  0.7115 -0.4955
  557TMC3    C3 8314   2.613   3.971  10.173  1.2918  0.9056 -0.1024
  557TMC3    C4 8315   2.621   3.863  10.417 -0.8621 -0.0799 -0.8696
  557TMC3    C5 8316   2.524   3.823  10.327 -0.2634 -0.3286 -0.0799
  557TMC3    C6 8317   2.515   3.880  10.208 -0.5330  1.0837  0.2505
  557TMC3     C 8318   2.773   4.037  10.495  0.6500 -0.5435 -0.2176
  557TMC3     O 8319   2.871   4.110  10.475 -0.0886 -0.3865  0.5010
  557TMC3     H 8320   2.789   4.083  10.227 -0.2695  0.6833 -0.8995
  557TMC3    H1 8321   2.624   3.824  10.518 -0.0960  0.9712 -0.4918
  557TMC3    H2 8322   2.436   3.856  10.138  0.4671  1.0666 -0.8788
  557TMC3    C7 8323   2.415   3.753  10.376  0.4791 -0.0337  0.4860
  557TMC3    C8 8324   2.613   4.038  10.037 -0.0385 -0.2667 -0.4150
  557TMC3    O1 8325   2.309   3.769  10.310 -0.1976  0.2174  0.4009
  557TMC3    O2 8326   2.677   4.143  10.035  0.1843 -0.2023 -0.2953
  558TMC3    C1 8327   4.337   2.135  10.167 -0.4269  0.1762  0.7310
  558TMC3    C2 8328   4.274   2.040  10.243 -0.4687  0.1167 -0.1383
  558TMC3    C3 8329   4.178   1.961  10.191 -0.0383  1.0758 -0.0126
  558TMC3    C4 8330   4.303   2.158  10.035  0.3477 -0.4267  0.0714
  558TMC3    C5 8331   4.208   2.065   9.988  0.1684 -0.2080  0.4139
  558TMC3    C6 8332   4.144   1.966  10.059 -0.3799 -0.3725  0.0104
  558TMC3     C 8333   4.429   2.229  10.228  0.2608 -0.7073 -0.4144
  558TMC3     O 8334   4.494   2.293  10.142 -0.2870  0.0585  0.7000
  558TMC3     H 8335   4.308   2.019  10.344 -0.1531  0.2761 -0.2104
  558TMC3    H1 8336   4.338   2.242   9.976 -2.5213  0.6606 -0.0964
  558TMC3    H2 8337   4.057   1.912  10.022 -0.4761 -1.3756  1.7224
  558TMC3    C7 8338   4.176   2.056   9.849 -1.0622  0.3275  0.0732
  558TMC3    C8 8339   4.119   1.851  10.260 -0.2324 -0.3520 -0.2705
  558TMC3    O1 8340   4.134   1.949   9.797 -0.1463 -0.6129 -0.0781
  558TMC3    O2 8341   4.055   1.767  10.199 -0.0649 -0.1779 -0.3208
  559MPD2     C 8342   4.491   2.731  10.479 -0.7304  0.2803  0.0141
  559MPD2    C1 8343   4.429   2.661  10.580  0.3715 -0.4233 -0.1842
  559MPD2    C2 8344   4.497   2.614  10.688  0.4108 -0.0939  0.2510
  559MPD2    C3 8345   4.625   2.639  10.708 -0.2426 -0.1005  0.3455
  559MPD2    C4 8346   4.693   2.714  10.611 -0.2491 -0.0606 -0.2188
  559MPD2    C5 8347   4.629   2.749  10.494 -0.1229  0.0500  0.2753
  559MPD2     H 8348   4.436   2.572  10.766 -0.0273  0.4025  0.1781
  559MPD2    H1 8349   0.063   2.733  10.620  0.0132 -1.2579 -0.7613
  559MPD2    H2 8350   4.440   2.775  10.394 -3.0539 -0.7890  0.8535
  559MPD2    H3 8351   4.692   2.792  10.418  0.4670 -1.8139 -0.2982
  559MPD2     N 8352   4.668   2.609  10.838  0.5907 -0.3113  0.5485
  559MPD2    H5 8353   4.604   2.554  10.893 -2.0078  2.2777  0.1118
  559MPD2    N1 8354   4.282   2.659  10.581  0.2074  0.0253 -0.4306
  559MPD2    H7 8355   4.228   2.716  10.517  0.1866  0.9587  0.4014
  560TMC3    C1 8356   0.073   2.591  11.033  0.1705  0.0105 -0.2137
  560TMC3    C2 8357   0.011   2.468  11.059 -0.1825  0.7409 -0.1546
  560TMC3    C3 8358   0.043   2.416  11.185  1.0108  0.2101  0.0164
  560TMC3    C4 8359   0.160   2.657  11.115 -0.0171 -1.1491 -0.2376
  560TMC3    C5 8360   0.182   2.601  11.237 -0.2797  0.2398  0.7360
  560TMC3    C6 8361   0.107   2.490  11.280  0.2204  0.2107  0.4636
  560TMC3     C 8362   0.047   2.649  10.903  0.4964 -0.4205 -0.1529
  560TMC3     O 8363   0.128   2.730  10.863 -0.6981  0.2272 -0.0715
  560TMC3     H 8364   4.695   2.412  10.983 -0.1000 -1.7105  1.5835
  560TMC3    H1 8365   0.208   2.750  11.089  0.8279 -1.2212  1.0393
  560TMC3    H2 8366   0.131   2.449  11.377  1.8251  4.2209  1.7534
  560TMC3    C7 8367   0.271   2.675  11.330  0.6909 -0.7360  0.2404
  560TMC3    C8 8368   4.696   2.307  11.224  0.0550  0.8125 -0.0009
  560TMC3    O1 8369   0.271   2.634  11.443  0.0699  0.1745  0.1409
  560TMC3    O2 8370   4.665   2.230  11.132 -0.0914 -0.3063  0.4464
  561TMC3    C1 8371   2.367   2.233  11.906 -0.1413  0.2375 -0.4157
  561TMC3    C2 8372   2.367   2.197  12.040  0.1875  0.0269 -0.1655
  561TMC3    C3 8373   2.376   2.296  12.137 -0.0909  0.2966 -0.2368
  561TMC3    C4 8374   2.341   2.368  11.872  0.1109 -0.1253  0.0736
  561TMC3    C5 8375   2.351   2.464  11.970 -0.3907 -0.7365 -0.6540
  561TMC3    C6 8376   2.358   2.429  12.104 -0.8587  0.2978  0.3911
  561TMC3     C 8377   2.358   2.137  11.794 -0.2461  0.4094  0.2796
  561TMC3     O 8378   2.281   2.043  11.800  0.2256 -0.0951 -0.8244
  561TMC3     H 8379   2.389   2.095  12.069  0.2328  0.2616  0.6396
  561TMC3    H1 8380   2.326   2.399  11.769  2.6380  0.6072 -0.0797
  561TMC3    H2 8381   2.366   2.499  12.186 -1.8665  1.9899 -0.9418
  561TMC3    C7 8382   2.361   2.603  11.949 -0.7636 -0.2206 -0.0547
  561TMC3    C8 8383   2.363   2.264  12.280 -0.9432 -0.0649 -0.9451
  561TMC3    O1 8384   2.311   2.683  12.028 -0.3639 -0.4340  0.8479
  561TMC3    O2 8385   2.437   2.176  12.324 -0.1972  0.3102 -0.2177
  562TMC3    C1 8386   4.093   3.194  16.521 -0.0562  0.1581 -0.1891
  562TMC3    C2 8387   4.005   3.300  16.504 -0.4340 -0.1774  0.2692
  562TMC3    C3 8388   3.933   3.288  16.387 -0.6475  0.5563 -0.4489
  562TMC3    C4 8389   4.113   3.090  16.436 -0.5623  0.0512 -0.7155
  562TMC3    C5 8390   4.028   3.080  16.334 -0.1925  0.2378  0.2740
  562TMC3    C6 8391   3.945   3.177  16.306  0.1225 -0.1355  0.1140
  562TMC3     C 8392   4.187   3.207  16.625 -0.3312 -0.1999  0.4743
  562TMC3     O 8393   4.299   3.163  16.601 -0.0824  0.3010  0.0011
  562TMC3     H 8394   3.997   3.386  16.569 -2.9797  0.5344 -1.0033
  562TMC3    H1 8395   4.196   3.021  16.446  0.0993  0.6406 -2.0045
  562TMC3    H2 8396   3.881   3.167  16.219  0.5898  1.2985 -0.3911
  562TMC3    C7 8397   4.045   2.978  16.228  0.9598 -0.3739 -0.4878
  562TMC3    C8 8398   3.832   3.388  16.358  0.2161 -0.3784 -0.1525
  562TMC3    O1 8399   4.007   3.005  16.114 -0.1950 -0.3616  0.4743
  562TMC3    O2 8400   3.804   3.458  16.453 -0.4068  0.0171 -0.3651
  563MPD2     C 8401   1.647   4.161  15.437 -0.7286  0.2481 -0.0394
  563MPD2    C1 8402   1.638   4.185  15.569 -0.2612 -0.6585 -0.9884
  563MPD2    C2 8403   1.726   4.124  15.652  0.4340  0.0738  0.2063
  563MPD2    C3 8404   1.835   4.054  15.604 -0.2834 -0.4045 -0.2409
  563MPD2    C4 8405   1.856   4.048  15.468 -1.7560 -0.3606  0.2431
  563MPD2    C5 8406   1.752   4.087  15.385  0.2197  0.5712  0.9868
  563MPD2     H 8407   1.728   4.139  15.759  2.8639  3.2654 -0.3007
  563MPD2    H1 8408   1.932   3.999  15.410  0.3067  1.2778  1.5710
  563MPD2    H2 8409   1.587   4.200  15.357  1.2845  2.1670 -0.6216
  563MPD2    H3 8410   1.752   4.062  15.280  4.1849 -2.8634  1.8157
  563MPD2     N 8411   1.925   4.002  15.699  0.3705  0.1401 -0.2179
  563MPD2    H5 8412   1.896   4.014  15.796  1.2293  3.8134 -0.4248
  563MPD2    N1 8413   1.536   4.265  15.633 -0.2741  0.4338 -0.0443
  563MPD2    H7 8414   1.539   4.270  15.734 -1.7743 -0.6923  0.0414
  564TMC3    C1 8415   1.344   4.378  15.694 -0.4538  0.0042  0.0258
  564TMC3    C2 8416   1.220   4.322  15.665  0.2140  0.7915 -0.2378
  564TMC3    C3 8417   1.141   4.258  15.762  0.3057  0.3500  0.2656
  564TMC3    C4 8418   1.397   4.347  15.819 -0.0556  1.1324  0.6545
  564TMC3    C5 8419   1.321   4.269  15.905 -0.4764  0.2155  0.4993
  564TMC3    C6 8420   1.194   4.237  15.883  1.3329 -0.3010 -0.0964
  564TMC3     C 8421   1.433   4.333  15.583  0.1585 -0.9410  1.0305
  564TMC3     O 8422   1.398   4.344  15.465  0.2532  0.5429  0.1348
  564TMC3     H 8423   1.192   4.316  15.560 -0.0634  2.2892 -0.2616
  564TMC3    H1 8424   1.499   4.362  15.855  0.5383  0.5543 -0.8013
  564TMC3    H2 8425   1.141   4.179  15.958  3.0982 -0.5022  0.9860
  564TMC3    C7 8426   1.406   4.157  15.944  0.1625 -0.1230 -0.5088
  564TMC3    C8 8427   1.073   4.140  15.720 -0.3309 -0.5971 -0.1566
  564TMC3    O1 8428   1.523   4.185  15.957  0.6462  0.2501  0.1409
  564TMC3    O2 8429   1.114   4.044  15.780  0.3837 -0.1188  0.5106
  565TMC3    C1 8430   2.335   1.375  10.514 -0.8448  0.1779 -0.5603
  565TMC3    C2 8431   2.238   1.312  10.583  1.0379 -0.6526  0.1072
  565TMC3    C3 8432   2.106   1.307  10.539 -0.0437 -0.3572 -0.6305
  565TMC3    C4 8433   2.297   1.467  10.421  0.0275  0.4465 -0.1231
  565TMC3    C5 8434   2.167   1.458  10.375  0.1061 -0.0850 -0.6203
  565TMC3    C6 8435   2.072   1.376  10.423 -0.6068 -0.4433 -0.1134
  565TMC3     C 8436   2.464   1.399  10.578 -0.0629  0.1029  0.2494
  565TMC3     O 8437   2.544   1.460  10.510  0.3208 -0.3467  0.5623
  565TMC3     H 8438   2.257   1.230  10.652 -0.1302 -2.2173 -1.4260
  565TMC3    H1 8439   2.370   1.535  10.378  0.3960 -0.0184 -0.2341
  565TMC3    H2 8440   1.966   1.387  10.400 -0.4234 -0.8200 -1.1480
  565TMC3    C7 8441   2.127   1.519  10.253  0.0499  0.0062  0.3226
  565TMC3    C8 8442   2.003   1.275  10.628 -0.0752  0.2853  0.2204
  565TMC3    O1 8443   2.030   1.469  10.196  0.5881 -0.4444  0.2777
  565TMC3    O2 8444   2.027   1.281  10.746 -0.2944  0.3175 -0.1923
  566MPD2     C 8445   3.683   3.345  13.769 -0.0300 -0.3476  0.5549
  566MPD2    C1 8446   3.699   3.228  13.843  0.4948  0.1042  0.9698
  566MPD2    C2 8447   3.599   3.140  13.859  0.1808 -0.0511  0.0927
  566MPD2    C3 8448   3.472   3.162  13.805 -0.0732  0.1659 -0.0480
  566MPD2    C4 8449   3.456   3.280  13.731  0.1055 -0.5939  0.1388
  566MPD2    C5 8450   3.562   3.360  13.703  0.0720  0.3655 -0.0860
  566MPD2     H 8451   3.619   3.050  13.917 -1.6935 -0.8320 -0.5041
  566MPD2    H1 8452   3.361   3.302  13.683 -0.6571  2.3968  3.0075
  566MPD2    H2 8453   3.762   3.415  13.744  1.9650 -1.7847  2.9061
  566MPD2    H3 8454   3.552   3.449  13.642  0.7561  0.8221  0.4725
  566MPD2     N 8455   3.366   3.069  13.817  0.4544  0.0969 -0.4394
  566MPD2    H5 8456   3.284   3.094  13.763 -2.5309 -3.5691  2.4145
  566MPD2    N1 8457   3.827   3.190  13.881  0.2871 -0.0465 -0.3837
  566MPD2    H7 8458   3.902   3.251  13.850 -0.1599  1.7554  2.0987
  567TMC3    C1 8459   4.001   3.031  13.898 -0.1912  0.3209 -0.1387
  567TMC3    C2 8460   4.018   3.041  13.765 -0.0539 -0.1026 -0.0988
  567TMC3    C3 8461   4.102   2.948  13.703  0.8342 -0.2254  0.3287
  567TMC3    C4 8462   4.058   2.936  13.974 -0.1795  0.0364  1.2176
  567TMC3    C5 8463   4.139   2.842  13.914  0.3290 -0.5735  0.0299
  567TMC3    C6 8464   4.168   2.850  13.778  0.3836 -1.0080 -0.6925
  567TMC3     C 8465   3.865   3.071  13.945  0.2598 -0.3459  0.0083
  567TMC3     O 8466   3.824   3.023  14.047  0.2249 -0.5463  0.2779
  567TMC3     H 8467   3.976   3.122  13.706  0.7937 -0.4397 -1.1712
  567TMC3    H1 8468   4.045   2.935  14.082 -0.5051  0.1108  1.1816
  567TMC3    H2 8469   4.234   2.782  13.726  3.5965  0.9233  0.9205
  567TMC3    C7 8470   4.217   2.747  14.001 -0.3856  0.8090  0.6116
  567TMC3    C8 8471   4.105   2.946  13.557 -0.0676  0.9935 -0.0431
  567TMC3    O1 8472   4.312   2.692  13.951  0.0041 -0.0581 -0.1777
  567TMC3    O2 8473   4.077   3.051  13.499 -0.0409 -0.2272 -0.4643
  568MPD2     C 8474   1.253   2.763  15.782  0.0357 -0.4608 -0.1428
  568MPD2    C1 8475   1.214   2.790  15.911  0.0765 -0.2629 -0.7065
  568MPD2    C2 8476   1.130   2.894  15.933 -0.4602 -0.6089 -0.2335
  568MPD2    C3 8477   1.086   2.974  15.828  0.0547 -0.6005  0.3876
  568MPD2    C4 8478   1.128   2.953  15.699 -0.3434  0.1340 -0.4251
  568MPD2    C5 8479   1.211   2.845  15.676  0.4661  0.5955  0.1972
  568MPD2     H 8480   1.077   2.912  16.026 -0.6505 -0.5802 -0.3463
  568MPD2    H1 8481   1.100   3.012  15.613 -0.5033 -1.4597 -1.4470
  568MPD2    H2 8482   1.331   2.691  15.762  1.9375  1.6067 -0.2391
  568MPD2    H3 8483   1.250   2.833  15.575 -4.5741 -0.7864 -1.6150
  568MPD2     N 8484   0.999   3.084  15.864 -0.2562 -0.6530 -0.5280
  568MPD2    H5 8485   0.990   3.101  15.964 -0.8395 -2.2670 -0.2987
  568MPD2    N1 8486   1.243   2.693  16.015 -0.7072 -0.6574 -0.2486
  568MPD2    H7 8487   1.307   2.619  15.986 -1.0163 -0.9754 -0.1147
  569TMC3    C1 8488   0.911   3.288  15.839 -0.0583  0.0983  0.2473
  569TMC3    C2 8489   0.999   3.337  15.930  0.0378  0.3937  0.2257
  569TMC3    C3 8490   0.985   3.467  15.965  0.8442  0.6066  0.1170
  569TMC3    C4 8491   0.822   3.372  15.779  0.8687  0.4897 -0.2064
  569TMC3    C5 8492   0.810   3.502  15.825 -0.3842  0.1708 -0.0100
  569TMC3    C6 8493   0.893   3.553  15.920  0.1557  0.6832 -0.6277
  569TMC3     C 8494   0.941   3.167  15.775 -0.5230  0.1893  0.1323
  569TMC3     O 8495   0.924   3.151  15.655 -0.6959  0.5051  0.0395
  569TMC3     H 8496   1.085   3.278  15.960  0.4286 -0.2134 -2.0664
  569TMC3    H1 8497   0.767   3.339  15.692  1.8508  0.5019 -0.8360
  569TMC3    H2 8498   0.886   3.657  15.951 -3.5113 -0.7101  3.1847
  569TMC3    C7 8499   0.736   3.592  15.740 -0.5256  0.5986 -0.3370
  569TMC3    C8 8500   1.066   3.496  16.086  0.0138 -0.1847  0.2218
  569TMC3    O1 8501   0.637   3.546  15.684 -0.0149  0.1516  0.3057
  569TMC3    O2 8502   1.117   3.403  16.142  0.4231  0.2898  0.0652
  570TMC3    C1 8503   0.444   1.924  16.268  0.4711  0.4124  0.0121
  570TMC3    C2 8504   0.502   1.934  16.145 -0.3630  0.3478  0.2248
  570TMC3    C3 8505   0.557   2.056  16.107 -0.1730  0.5109 -0.3548
  570TMC3    C4 8506   0.414   2.035  16.350  0.3132  0.0431 -0.1939
  570TMC3    C5 8507   0.473   2.156  16.308 -0.0010 -0.1830  0.3129
  570TMC3    C6 8508   0.546   2.171  16.190 -0.3970 -0.2747  0.3116
  570TMC3     C 8509   0.434   1.789  16.329  0.3276  0.0036 -0.6302
  570TMC3     O 8510   0.463   1.690  16.265 -0.1756 -0.1699 -0.3341
  570TMC3     H 8511   0.543   1.847  16.096 -1.9217 -0.5027  0.4415
  570TMC3    H1 8512   0.364   2.031  16.446  0.3188 -0.3743 -0.2074
  570TMC3    H2 8513   0.605   2.261  16.174  0.2505 -0.7919 -0.1591
  570TMC3    C7 8514   0.442   2.283  16.374  0.7615 -0.0935 -0.0723
  570TMC3    C8 8515   0.612   2.061  15.968  0.3946  0.9567 -0.3689
  570TMC3    O1 8516   0.501   2.378  16.325 -0.1954  0.1617 -0.1596
  570TMC3    O2 8517   0.690   2.154  15.946  0.2488  0.3474  0.2048
  571MPD2     C 8518   3.553   3.868   0.126 -0.3805 -0.1671  0.6045
  571MPD2    C1 8519   3.454   3.962   0.132 -0.9164  0.3334  0.1978
  571MPD2    C2 8520   3.489   4.099   0.137  0.2635  0.7618 -0.7583
  571MPD2    C3 8521   3.618   4.133   0.114  0.0562  0.2795  0.1331
  571MPD2    C4 8522   3.716   4.036   0.095 -0.3553  0.0417  0.4516
  571MPD2    C5 8523   3.679   3.908   0.109  0.5248  0.3330 -0.4779
  571MPD2     H 8524   3.413   4.175   0.157  0.7074  1.0245 -0.0602
  571MPD2    H1 8525   3.818   4.063   0.070  0.1683 -2.3424  0.0686
  571MPD2    H2 8526   3.531   3.762   0.114 -2.5712  0.4571 -0.7946
  571MPD2    H3 8527   3.750   3.829   0.088 -0.0725  0.3816 -2.6338
  571MPD2     N 8528   3.667   4.268   0.118 -0.0054  0.2200 -0.2732
  571MPD2    H5 8529   3.768   4.278   0.131  0.0970  1.6848 -2.3570
  571MPD2    N1 8530   3.316   3.916   0.141  0.1317 -0.0531  0.2192
  571MPD2    H7 8531   3.296   3.821   0.111 -1.5074  0.5412 -0.5742
  572TMC3    C1 8532   3.666   4.500   0.118 -0.3442 -0.0099 -0.1954
  572TMC3    C2 8533   3.771   4.501   0.209  0.0080 -0.1734  0.2084
  572TMC3    C3 8534   3.848   4.608   0.207  0.0603  0.5827 -0.5191
  572TMC3    C4 8535   3.626   4.617   0.056  1.0978 -0.6129  0.4064
  572TMC3    C5 8536   3.703   4.730   0.061 -0.0215 -0.2293  0.5056
  572TMC3    C6 8537   3.817   4.723   0.137  0.0558 -0.2446  0.4798
  572TMC3     C 8538   3.590   4.378   0.106  0.1618  0.1515 -0.1345
  572TMC3     O 8539   3.482   4.390   0.050  0.4548 -0.3599 -0.1444
  572TMC3     H 8540   3.819   4.410   0.244  2.6582  0.4495 -1.8581
  572TMC3    H1 8541   3.538   4.607  17.737  1.0374 -2.1433  0.7507
  572TMC3    H2 8542   3.894   0.064   0.145  0.1079 -0.3121  0.6169
  572TMC3    C7 8543   3.674   0.103  17.715 -0.4452 -0.0955  0.5487
  572TMC3    C8 8544   3.967   4.612   0.282  0.7608  0.5129  0.2378
  572TMC3    O1 8545   3.579   0.079  17.644  0.5005 -0.0288  0.2552
  572TMC3    O2 8546   4.066   4.668   0.239  0.5218 -0.6752  0.1909
  573MPD2     C 8547   4.649   3.895   0.619 -0.1156 -0.2793 -0.3474
  573MPD2    C1 8548   0.001   3.997   0.620 -0.4760  0.0663  0.1530
  573MPD2    C2 8549   0.026   4.060   0.497  0.1616  0.0611  0.2458
  573MPD2    C3 8550   4.695   4.020   0.381 -0.0132  0.3284 -0.4281
  573MPD2    C4 8551   4.604   3.919   0.389 -0.5359  0.9015  0.4023
  573MPD2    C5 8552   4.580   3.854   0.504  0.9174 -0.4158  0.1405
  573MPD2     H 8553   0.082   4.152   0.486 -0.7364  0.8362  2.0934
  573MPD2    H1 8554   4.576   3.870   0.296  0.0503 -0.8208  1.1365
  573MPD2    H2 8555   4.620   3.845   0.710 -2.7541  0.0327 -1.0204
  573MPD2    H3 8556   4.522   3.762   0.498  1.7225 -0.9502  0.4655
  573MPD2     N 8557   4.705   4.077   0.256 -0.3736 -0.0534  0.5495
  573MPD2    H5 8558   4.641   4.049   0.183  0.0420 -0.0852  0.1999
  573MPD2    N1 8559   0.056   4.037   0.745  1.0323 -1.2475 -0.8640
  573MPD2    H7 8560   0.018   3.992   0.828 -0.1887 -0.4410 -0.9862
  574TMC3    C1 8561   0.030   4.225   0.086  0.0412  0.2894 -0.0828
  574TMC3    C2 8562   4.638   4.281   0.086  0.6566  0.2799  0.5768
  574TMC3    C3 8563   4.632   4.409   0.036  0.0919  0.5982  0.6410
  574TMC3    C4 8564   0.133   4.298   0.028  0.2137 -0.4804  0.0829
  574TMC3    C5 8565   0.116   4.417  17.718 -0.8055  0.1516  0.4452
  574TMC3    C6 8566   4.734   4.479  17.723  0.2760  0.1662 -0.1390
  574TMC3     C 8567   0.070   4.158   0.210  0.0643 -0.8988  0.2622
  574TMC3     O 8568   0.176   4.193   0.257  0.3877  0.0901  0.1117
  574TMC3     H 8569   4.552   4.237   0.134  0.2846  1.1040  0.6603
  574TMC3    H1 8570   0.231   4.251   0.024  0.4818 -0.1827  2.9460
  574TMC3    H2 8571   0.001   4.578  17.679  2.2275 -0.0659 -0.5276
  574TMC3    C7 8572   0.227   4.501  17.700 -0.2082 -0.1710 -0.5426
  574TMC3    C8 8573   4.554   4.496   0.119 -0.4648  1.0329 -0.8727
  574TMC3    O1 8574   0.230   4.574  17.604 -0.2418  0.9327 -0.1981
  574TMC3    O2 8575   4.524   4.458   0.229 -0.1052 -0.4089  0.6593
  575TMC3    C1 8576   1.785   0.777  11.324 -0.0819  0.1072  0.2054
  575TMC3    C2 8577   1.717   0.658  11.309 -0.5862 -0.8039 -0.2259
  575TMC3    C3 8578   1.655   0.644  11.193 -0.5563  0.1471 -0.1306
  575TMC3    C4 8579   1.796   0.876  11.238  0.4275 -0.3323  0.2602
  575TMC3    C5 8580   1.734   0.855  11.121 -0.1588  1.1796 -0.5779
  575TMC3    C6 8581   1.659   0.740  11.093  0.1561  0.3678 -0.5304
  575TMC3     C 8582   1.878   0.772  11.432  0.0044 -0.0236  0.1080
  575TMC3     O 8583   1.912   0.880  11.481 -0.3320  0.7250 -0.3484
  575TMC3     H 8584   1.711   0.590  11.393  4.1090  0.4884  1.1524
  575TMC3    H1 8585   1.870   0.954  11.252 -0.4317  0.3124  1.1425
  575TMC3    H2 8586   1.615   0.723  10.995  1.0130  0.5956 -0.9561
  575TMC3    C7 8587   1.762   0.945  11.015 -0.4746  0.0775  0.0893
  575TMC3    C8 8588   1.574   0.529  11.157  0.4284  0.3096  0.3901
  575TMC3    O1 8589   1.848   1.028  11.030  0.2092 -0.4593 -0.1131
  575TMC3    O2 8590   1.531   0.530  11.042  0.0426  0.0670  0.3380
  576MPD2     C 8591   1.190   2.419  12.825  0.1582  0.0950  0.1246
  576MPD2    C1 8592   1.315   2.421  12.762  0.7613  0.1949 -0.0318
  576MPD2    C2 8593   1.410   2.503  12.817  0.3708 -0.8660 -0.7007
  576MPD2    C3 8594   1.392   2.571  12.940  0.0193 -0.7764 -0.0362
  576MPD2    C4 8595   1.272   2.565  13.002  0.3765  0.3956 -0.6073
  576MPD2    C5 8596   1.171   2.490  12.947  0.2272 -0.7717 -0.0791
  576MPD2     H 8597   1.505   2.525  12.771 -0.7404  1.2220 -1.9753
  576MPD2    H1 8598   1.242   2.611  13.095  1.4316 -0.3467  0.1051
  576MPD2    H2 8599   1.110   2.357  12.787  0.0320  0.4303 -0.1502
  576MPD2    H3 8600   1.076   2.483  12.999  0.0435 -1.3364 -0.4897
  576MPD2     N 8601   1.499   2.653  12.986 -0.4562 -0.1168  0.6489
  576MPD2    H5 8602   1.579   2.650  12.924 -0.1448 -0.1398  1.0491
  576MPD2    N1 8603   1.355   2.338  12.657  0.2431 -0.7011 -0.1615
  576MPD2    H7 8604   1.454   2.347  12.636 -0.2493  1.9798 -1.3684
  577TMC3    C1 8605   1.368   2.153  12.516 -0.3495 -0.2344 -0.6160
  577TMC3    C2 8606   1.486   2.123  12.582  0.3914  0.2664 -0.8232
  577TMC3    C3 8607   1.597   2.103  12.510  0.1414  0.1100  0.8261
  577TMC3    C4 8608   1.370   2.184  12.379 -0.0884 -0.4424  0.1764
  577TMC3    C5 8609   1.486   2.158  12.314 -0.2889  0.1242 -0.3592
  577TMC3    C6 8610   1.599   2.117  12.373  0.1719  0.5646 -0.6582
  577TMC3     C 8611   1.281   2.241  12.589 -0.0146 -0.1771 -0.9720
  577TMC3     O 8612   1.162   2.212  12.590  0.3799 -0.1858 -0.1980
  577TMC3     H 8613   1.486   2.108  12.689 -0.4728  4.3735 -0.2390
  577TMC3    H1 8614   1.279   2.223  12.335  0.7642  1.3574  0.0126
  577TMC3    H2 8615   1.680   2.084  12.308  0.8185 -0.6560  0.7705
  577TMC3    C7 8616   1.482   2.193  12.174  0.4451 -0.0447 -0.0886
  577TMC3    C8 8617   1.732   2.108  12.573 -0.3558 -0.1723 -0.0546
  577TMC3    O1 8618   1.587   2.217  12.119  0.3277 -0.0866 -0.4338
  577TMC3    O2 8619   1.743   2.057  12.684 -0.1068  0.2537  0.9095
  578MPD2     C 8620   0.882   2.150   1.401  0.0395  0.8343  0.1271
  578MPD2    C1 8621   0.813   2.066   1.313 -0.0025  0.1712  0.2087
  578MPD2    C2 8622   0.882   1.961   1.255 -0.4977  0.3465 -0.0199
  578MPD2    C3 8623   1.018   1.938   1.295 -0.0669 -0.5044  0.9788
  578MPD2    C4 8624   1.082   2.022   1.384  0.1789  0.2701 -0.2652
  578MPD2    C5 8625   1.009   2.119   1.447 -0.1415 -0.0899 -0.6293
  578MPD2     H 8626   0.829   1.894   1.188  0.6588 -0.3013 -0.3086
  578MPD2    H1 8627   1.183   2.003   1.417  0.7389  2.6438 -0.6279
  578MPD2    H2 8628   0.840   2.235   1.454 -1.0109  0.5046 -0.1743
  578MPD2    H3 8629   1.053   2.179   1.526  1.3763 -3.7154  1.2718
  578MPD2     N 8630   1.095   1.834   1.234  0.1874 -0.2845  0.6259
  578MPD2    H5 8631   1.196   1.842   1.244  0.0687  0.3674  1.3132
  578MPD2    N1 8632   0.677   2.088   1.273 -0.1439 -0.0869 -0.3239
  578MPD2    H7 8633   0.648   2.024   1.199  1.5492 -0.6044 -0.5330
  579TMC3    C1 8634   1.142   1.644   1.099 -0.2820  0.0729 -0.3194
  579TMC3    C2 8635   1.271   1.684   1.067  0.3069  0.7332 -0.5601
  579TMC3    C3 8636   1.369   1.600   1.028 -0.3011  0.5796 -0.7595
  579TMC3    C4 8637   1.103   1.517   1.070 -0.2606  0.6271 -0.8027
  579TMC3    C5 8638   1.195   1.442   1.008  0.3621 -0.4667  0.3414
  579TMC3    C6 8639   1.333   1.480   0.987 -0.0334 -0.7892  0.1405
  579TMC3     C 8640   1.041   1.728   1.168 -0.2988 -0.1852  0.2402
  579TMC3     O 8641   0.926   1.689   1.162 -0.1671  0.0232  0.5268
  579TMC3     H 8642   1.288   1.791   1.062  1.6072  0.6007  1.1542
  579TMC3    H1 8643   0.999   1.493   1.087  0.5920 -1.2626  1.7755
  579TMC3    H2 8644   1.392   1.409   0.931 -1.0049 -1.3546 -0.1582
  579TMC3    C7 8645   1.183   1.297   1.013  0.8684 -0.3270 -0.3053
  579TMC3    C8 8646   1.480   1.656   0.956 -0.0861 -0.1075 -0.0633
  579TMC3    O1 8647   1.290   1.236   1.030 -0.3042  0.0366 -0.0843
  579TMC3    O2 8648   1.512   1.615   0.848  0.4380 -0.1640 -0.0645
  580TMC3    C1 8649   4.505   1.288  12.027  0.4141  0.3007 -0.6592
  580TMC3    C2 8650   4.618   1.336  11.974  0.0302 -0.3178 -0.0873
  580TMC3    C3 8651   4.699   1.252  11.905  0.1961 -0.6080  0.4465
  580TMC3    C4 8652   4.467   1.157  12.019 -0.0398  0.8509 -0.0771
  580TMC3    C5 8653   4.555   1.065  11.957 -0.0824  0.1022 -0.0632
  580TMC3    C6 8654   4.669   1.114  11.900 -0.2292  0.0606  0.2875
  580TMC3     C 8655   4.408   1.386  12.064 -0.0229  0.2787 -0.0661
  580TMC3     O 8656   4.435   1.498  12.020  0.3796 -0.3172 -0.1657
  580TMC3     H 8657   4.650   1.437  11.994 -1.2524  0.0375  0.2151
  580TMC3    H1 8658   4.377   1.126  12.072  0.2858 -2.2561 -1.3551
  580TMC3    H2 8659   4.724   1.065  11.820 -0.2967  3.0760 -1.6489
  580TMC3    C7 8660   4.536   0.916  11.977 -0.6119  0.2066  1.5724
  580TMC3    C8 8661   0.046   1.313  11.802 -0.3599 -0.0373  0.0733
  580TMC3    O1 8662   4.435   0.884  12.035  0.3983  0.3008 -0.2520
  580TMC3    O2 8663   0.039   1.256  11.690 -0.7143 -0.9117  0.4532
  581MPD2     C 8664   2.343   0.976  15.005 -0.1202  0.9871 -0.2877
  581MPD2    C1 8665   2.331   1.063  15.113 -0.3140  0.6060  0.4049
  581MPD2    C2 8666   2.202   1.114  15.135 -0.6185 -0.2226  0.1968
  581MPD2    C3 8667   2.093   1.090  15.054  0.6723 -0.0391  1.1149
  581MPD2    C4 8668   2.111   1.014  14.939  0.0117 -0.3754  0.3787
  581MPD2    C5 8669   2.231   0.948  14.931 -0.7684 -0.0551  0.1718
  581MPD2     H 8670   2.173   1.169  15.225 -0.6846  0.3632 -0.1828
  581MPD2    H1 8671   2.037   0.991  14.862  0.3186 -2.4629  0.7097
  581MPD2    H2 8672   2.441   0.949  14.967 -1.8430 -2.0116 -2.6135
  581MPD2    H3 8673   2.236   0.888  14.840 -2.6487 -0.6429  0.4569
  581MPD2     N 8674   1.971   1.157  15.084 -0.3472  0.2339 -0.1012
  581MPD2    H5 8675   1.971   1.234  15.150  1.2839  1.2298 -1.2523
  581MPD2    N1 8676   2.449   1.086  15.193 -0.1734  0.0018  0.3989
  581MPD2    H7 8677   2.532   1.032  15.173 -0.4865 -0.2885 -0.1139
  582TMC3    C1 8678   2.579   1.163  15.368 -0.7809 -0.2883  0.0088
  582TMC3    C2 8679   2.577   1.212  15.494  0.2770  0.0883  0.0653
  582TMC3    C3 8680   2.660   1.149  15.583  0.3681  0.2557 -0.3091
  582TMC3    C4 8681   2.669   1.073  15.324  0.4061  0.0073 -0.0031
  582TMC3    C5 8682   2.731   1.004  15.419 -0.6886  0.3112  0.8189
  582TMC3    C6 8683   2.734   1.037  15.549  0.1953  1.1422  0.5762
  582TMC3     C 8684   2.455   1.180  15.293  0.5809 -0.4122  0.8317
  582TMC3     O 8685   2.374   1.258  15.336 -0.2682 -0.2198 -0.0824
  582TMC3     H 8686   2.488   1.269  15.521  1.1023  1.3341  0.1716
  582TMC3    H1 8687   2.694   1.053  15.220  1.7327 -0.0641  0.3262
  582TMC3    H2 8688   2.780   0.964  15.615 -0.3883 -0.2199 -0.5105
  582TMC3    C7 8689   2.811   0.880  15.381 -0.0305 -0.2144  0.2923
  582TMC3    C8 8690   2.646   1.187  15.720 -0.0735  0.2301  0.4194
  582TMC3    O1 8691   2.918   0.865  15.441 -0.5117 -0.1948  0.5095
  582TMC3    O2 8692   2.602   1.297  15.742 -0.0868 -0.0312 -0.0655
  583MPD2     C 8693   2.313   2.423  16.545 -1.6243  0.0957 -0.2941
  583MPD2    C1 8694   2.322   2.554  16.503 -0.4685  0.2567 -0.6665
  583MPD2    C2 8695   2.275   2.661  16.581 -0.1081  0.1555 -0.0203
  583MPD2    C3 8696   2.219   2.640  16.708  0.2773  0.2154 -0.4738
  583MPD2    C4 8697   2.203   2.506  16.736  0.6651  0.4479  0.0999
  583MPD2    C5 8698   2.246   2.405  16.660  0.0040  0.4467  0.3789
  583MPD2     H 8699   2.295   2.763  16.549 -1.3750 -0.3105 -2.2660
  583MPD2    H1 8700   2.183   2.465  16.834 -1.7420  1.5123  0.0619
  583MPD2    H2 8701   2.350   2.344  16.480 -1.1735 -0.6380  0.8636
  583MPD2    H3 8702   2.253   2.304  16.701 -0.3557 -0.3784 -1.5884
  583MPD2     N 8703   2.182   2.742  16.806  0.5213 -0.2153 -0.3914
  583MPD2    H5 8704   2.177   2.839  16.775 -1.4042 -0.3167 -0.3829
  583MPD2    N1 8705   2.394   2.581  16.382  0.1737 -0.0533 -0.6483
  583MPD2    H7 8706   2.387   2.672  16.337  4.4863  0.5346 -0.1621
  584TMC3    C1 8707   2.079   2.829  17.003  0.4380  0.0867  0.2859
  584TMC3    C2 8708   2.124   2.955  16.973  0.2085  0.2938 -1.0815
  584TMC3    C3 8709   2.111   3.051  17.064 -0.6584 -0.5762 -0.1360
  584TMC3    C4 8710   2.032   2.798  17.129 -0.3572 -0.1288 -0.2275
  584TMC3    C5 8711   2.037   2.897  17.217  0.4230  0.2863 -0.9769
  584TMC3    C6 8712   2.078   3.026  17.193  0.1079 -0.2431  0.0556
  584TMC3     C 8713   2.130   2.711  16.926 -0.1764 -0.1439  0.0809
  584TMC3     O 8714   2.119   2.607  16.992  0.2025  0.1738  0.2611
  584TMC3     H 8715   2.174   2.970  16.879  2.2638 -1.2015 -0.2295
  584TMC3    H1 8716   1.988   2.700  17.144  2.6175 -1.3949  0.1208
  584TMC3    H2 8717   2.074   3.096  17.276  1.8699  1.7867 -1.5601
  584TMC3    C7 8718   1.954   2.881  17.338 -0.2857 -0.7263 -0.1874
  584TMC3    C8 8719   2.128   3.184  17.014 -0.1742 -0.2428 -0.0359
  584TMC3    O1 8720   1.963   2.963  17.428 -0.1987  0.3930 -0.1756
  584TMC3    O2 8721   2.124   3.203  16.895 -1.0748  0.1704 -0.2204
  585MPD2     C 8722   1.032   1.806   0.778 -0.6950 -0.4461  0.3497
  585MPD2    C1 8723   1.127   1.822   0.684  0.8354 -0.2137  0.0339
  585MPD2    C2 8724   1.166   1.716   0.601 -0.3247  0.1410  0.4220
  585MPD2    C3 8725   1.110   1.588   0.619 -0.1133 -0.5406 -0.1567
  585MPD2    C4 8726   1.023   1.569   0.720 -0.8728  0.5632 -0.5645
  585MPD2    C5 8727   0.979   1.681   0.788  0.2927 -1.2403  0.6571
  585MPD2     H 8728   1.236   1.733   0.520 -0.2326  1.1419  0.7104
  585MPD2    H1 8729   0.991   1.472   0.757 -1.6404  1.0520  0.0533
  585MPD2    H2 8730   0.988   1.888   0.834  0.8605  1.9314 -1.8657
  585MPD2    H3 8731   0.915   1.660   0.872  0.1854  0.4987  1.0227
  585MPD2     N 8732   1.155   1.480   0.541  0.6910 -0.0253  0.1575
  585MPD2    H5 8733   1.103   1.397   0.566 -2.5065  1.7384 -0.5973
  585MPD2    N1 8734   1.180   1.954   0.677 -0.2256 -0.5112  0.3515
  585MPD2    H7 8735   1.135   2.031   0.726 -0.4144 -1.0255  0.9760
  586TMC3    C1 8736   1.302   1.352   0.406 -0.1363  0.0239 -0.4370
  586TMC3    C2 8737   1.426   1.339   0.336  0.4928 -0.3152  0.3330
  586TMC3    C3 8738   1.462   1.223   0.274  0.4184  0.5254 -0.0643
  586TMC3    C4 8739   1.203   1.260   0.372  0.3029  0.1456 -0.7314
  586TMC3    C5 8740   1.245   1.143   0.309 -0.0939  0.2478 -0.1424
  586TMC3    C6 8741   1.379   1.117   0.282 -0.1551 -1.0098  0.2215
  586TMC3     C 8742   1.271   1.479   0.459 -0.5307  0.9988 -0.3289
  586TMC3     O 8743   1.351   1.564   0.438 -0.4574 -0.1298 -0.9143
  586TMC3     H 8744   1.495   1.422   0.331  0.2456 -0.0823  0.7751
  586TMC3    H1 8745   1.096   1.273   0.383  0.7230  0.8092  2.6380
  586TMC3    H2 8746   1.397   1.039   0.210 -1.5761 -2.5081  1.4900
  586TMC3    C7 8747   1.166   1.106   0.194 -0.1454  0.4253 -0.0527
  586TMC3    C8 8748   1.534   1.227   0.153  0.2486 -0.7921 -0.6486
  586TMC3    O1 8749   1.188   0.996   0.144 -0.3220 -0.1447  0.1398
  586TMC3    O2 8750   1.603   1.136   0.120  0.5695 -0.2863  0.1008
  587TMC3    C1 8751   3.528   0.233  16.465 -0.5653  0.4295  0.8778
  587TMC3    C2 8752   3.607   0.334  16.530 -0.0710 -0.0404  0.4637
  587TMC3    C3 8753   3.740   0.305  16.548  0.2769  0.1950  0.2554
  587TMC3    C4 8754   3.574   0.106  16.436 -0.1276  0.2190  0.4581
  587TMC3    C5 8755   3.716   0.090  16.455 -0.4613 -0.0984  0.3218
  587TMC3    C6 8756   3.792   0.181  16.517 -0.8099  0.1121 -0.8872
  587TMC3     C 8757   3.387   0.272  16.449  0.4568 -0.8360  0.8424
  587TMC3     O 8758   3.356   0.389  16.436 -0.2496 -0.3024  0.3749
  587TMC3     H 8759   3.572   0.436  16.544 -0.3038 -0.2654  1.5773
  587TMC3    H1 8760   3.516   0.033  16.380  1.7097 -0.7753 -0.1489
  587TMC3    H2 8761   3.900   0.165  16.522 -0.5037  2.7654  1.1915
  587TMC3    C7 8762   3.778   4.701  16.411  0.1211 -0.3232  0.3276
  587TMC3    C8 8763   3.815   0.383  16.646  0.3024  0.2235 -0.5716
  587TMC3    O1 8764   3.898   4.705  16.391 -0.4431  0.0992 -0.0510
  587TMC3    O2 8765   3.902   0.324  16.706 -0.3335 -0.1755 -0.2665
  588TMC3    C1 8766   1.529   3.100  10.012  0.1560 -0.3588  0.5340
  588TMC3    C2 8767   1.496   2.960  10.003  0.5477  0.0214  0.0556
  588TMC3    C3 8768   1.551   2.877  10.096  0.3278  0.0353 -0.8745
  588TMC3    C4 8769   1.589   3.143  10.129 -0.2003  0.2745 -0.3590
  588TMC3    C5 8770   1.634   3.057  10.225 -0.3713  0.4535  0.3236
  588TMC3    C6 8771   1.619   2.923  10.207 -0.6715  0.3989  0.3893
  588TMC3     C 8772   1.463   3.193   9.922  0.0045  0.2543 -0.1636
  588TMC3     O 8773   1.368   3.150   9.855 -0.0686  0.0942  0.4627
  588TMC3     H 8774   1.444   2.915   9.920  2.9001 -1.7340 -0.4924
  588TMC3    H1 8775   1.620   3.246  10.133 -1.4589  0.6217  0.7246
  588TMC3    H2 8776   1.668   2.859  10.280 -0.0296 -1.4664 -1.6814
  588TMC3    C7 8777   1.752   3.099  10.293 -0.6804 -0.4288  0.4610
  588TMC3    C8 8778   1.492   2.739  10.094 -0.3757 -0.0094 -0.2201
  588TMC3    O1 8779   1.855   3.027  10.305 -0.0857 -0.3443 -0.1101
  588TMC3    O2 8780   1.404   2.716  10.012 -0.5591  0.5794  0.1493
  589TMC3    C1 8781   0.883   0.031   1.503 -0.5556 -0.1081  0.5326
  589TMC3    C2 8782   0.994   0.099   1.546 -0.5187  0.0123  0.1772
  589TMC3    C3 8783   1.116   0.046   1.513 -0.2379 -0.8730  0.2709
  589TMC3    C4 8784   0.896   4.659   1.422  0.0383 -0.5598 -0.5784
  589TMC3    C5 8785   1.019   4.608   1.384 -0.1098  0.2401 -0.1935
  589TMC3    C6 8786   1.132   4.673   1.437  0.3176 -0.2806 -0.5425
  589TMC3     C 8787   0.752   0.080   1.530  0.1313  0.0694 -0.8327
  589TMC3     O 8788   0.657   0.001   1.527 -0.2029 -0.1119  0.0473
  589TMC3     H 8789   0.988   0.180   1.618  1.3293  0.1386  0.1874
  589TMC3    H1 8790   0.803   4.616   1.388  0.7301 -2.2796 -0.2993
  589TMC3    H2 8791   1.232   4.636   1.422  0.8759 -0.1436  2.8904
  589TMC3    C7 8792   1.033   4.486   1.307 -0.3717  0.3808 -0.0004
  589TMC3    C8 8793   1.242   0.116   1.546  0.1138  0.3300 -0.2549
  589TMC3    O1 8794   0.934   4.439   1.257 -0.5280  0.5211  0.0849
  589TMC3    O2 8795   1.231   0.198   1.635 -0.7501  0.3557 -0.2129
  590MPD2     C 8796   0.157   3.767  16.998  0.2671 -0.5377 -0.1034
  590MPD2    C1 8797   0.105   3.728  16.872 -0.3037  0.1732 -0.2357
  590MPD2    C2 8798   0.184   3.753  16.756 -0.0602 -0.8891  0.3715
  590MPD2    C3 8799   0.312   3.809  16.774  0.6513  0.1517 -0.2159
  590MPD2    C4 8800   0.367   3.805  16.896  0.5750 -0.2729 -0.1132
  590MPD2    C5 8801   0.287   3.791  17.013  0.1684  0.9759  0.3850
  590MPD2     H 8802   0.152   3.737  16.654  0.2279  0.8550  0.0170
  590MPD2    H1 8803   0.473   3.815  16.913  0.8035 -1.1150 -1.0323
  590MPD2    H2 8804   0.100   3.756  17.089  2.2464 -0.0938  1.2039
  590MPD2    H3 8805   0.322   3.784  17.115 -2.7779 -0.7761  1.2534
  590MPD2     N 8806   0.380   3.834  16.654 -0.5172  0.0371  0.3154
  590MPD2    H5 8807   0.335   3.805  16.568 -1.5987  0.2855  0.8042
  590MPD2    N1 8808   4.711   3.675  16.871  0.4211  0.6684  0.3490
  590MPD2    H7 8809   4.655   3.700  16.951  1.1268  1.5982  0.5600
  591TMC3    C1 8810   0.534   3.955  16.518  0.4336 -0.5850  0.1282
  591TMC3    C2 8811   0.489   3.884  16.408 -0.5727 -0.5454  1.2619
  591TMC3    C3 8812   0.509   3.937  16.281  0.0675  0.2531  0.1505
  591TMC3    C4 8813   0.608   4.070  16.498  0.4544  0.9233 -0.3943
  591TMC3    C5 8814   0.630   4.126  16.374  0.4878 -0.2413 -0.1579
  591TMC3    C6 8815   0.576   4.057  16.263  0.2746 -0.0684 -0.1323
  591TMC3     C 8816   0.489   3.917  16.653 -0.8040 -0.2563 -0.7184
  591TMC3     O 8817   0.529   3.979  16.749  0.5728 -0.0100  0.0364
  591TMC3     H 8818   0.423   3.798  16.417 -0.8371 -0.8373 -3.3620
  591TMC3    H1 8819   0.643   4.137  16.575 -0.0985 -0.1915  0.8241
  591TMC3    H2 8820   0.593   4.095  16.163 -1.8709  0.3685 -0.3317
  591TMC3    C7 8821   0.659   4.263  16.364  0.0410  1.2307 -0.2516
  591TMC3    C8 8822   0.448   3.870  16.167 -0.3125 -0.2538  0.7439
  591TMC3    O1 8823   0.717   4.313  16.464  0.2918  0.0869 -0.3311
  591TMC3    O2 8824   0.418   3.753  16.172 -0.4836 -0.2219  0.2447
  592MPD2     C 8825   0.844   0.717  11.412  0.0462  0.1657  0.8045
  592MPD2    C1 8826   0.784   0.763  11.531  0.3049 -0.4051  0.9902
  592MPD2    C2 8827   0.695   0.678  11.600  0.6636 -0.8066 -0.2351
  592MPD2    C3 8828   0.664   0.554  11.543  0.3596 -0.4002 -0.3795
  592MPD2    C4 8829   0.715   0.523  11.416  0.3071  0.0376  0.5922
  592MPD2    C5 8830   0.805   0.605  11.351 -0.3867 -0.2300 -0.0560
  592MPD2     H 8831   0.648   0.694  11.697  1.4208  0.1693 -0.0250
  592MPD2    H1 8832   0.678   0.440  11.355  1.6080 -0.0009 -0.1449
  592MPD2    H2 8833   0.906   0.784  11.353 -0.1540 -0.6775 -0.3587
  592MPD2    H3 8834   0.844   0.575  11.254 -0.5235  1.1362 -0.5349
  592MPD2     N 8835   0.577   0.469  11.605 -0.0460  0.2195  0.4026
  592MPD2    H5 8836   0.543   0.496  11.697 -2.8360  1.9836 -1.1645
  592MPD2    N1 8837   0.816   0.898  11.563  0.5429 -0.8106  0.5850
  592MPD2    H7 8838   0.860   0.957  11.493  2.3541 -2.6449  0.1652
  593TMC3    C1 8839   0.816   1.097  11.704 -0.8253  0.1481  0.1857
  593TMC3    C2 8840   0.813   1.141  11.829 -0.2385  1.2237 -0.2416
  593TMC3    C3 8841   0.824   1.282  11.842  0.7294  0.4174 -0.3312
  593TMC3    C4 8842   0.839   1.174  11.594 -0.3769 -0.4056 -0.4249
  593TMC3    C5 8843   0.856   1.312  11.615 -0.1400  1.0851  0.3343
  593TMC3    C6 8844   0.852   1.369  11.741  0.2229  0.4485 -0.4539
  593TMC3     C 8845   0.773   0.954  11.685 -1.1846  0.1289  0.4751
  593TMC3     O 8846   0.741   0.891  11.787 -0.0479  0.0172  0.3567
  593TMC3     H 8847   0.796   1.077  11.915  0.9719  0.7817 -0.3355
  593TMC3    H1 8848   0.858   1.123  11.501  0.4102 -3.1993  1.2724
  593TMC3    H2 8849   0.859   1.476  11.756 -2.1877  0.4540  0.6945
  593TMC3    C7 8850   0.883   1.397  11.501  0.3035 -0.5193 -1.2287
  593TMC3    C8 8851   0.810   1.343  11.975 -0.4418  0.2071 -0.6570
  593TMC3    O1 8852   0.950   1.490  11.529  0.5641 -0.1269 -0.0748
  593TMC3    O2 8853   0.734   1.289  12.058 -0.1516  0.4289  0.0203
  594MPD2     C 8854   3.726   4.179  14.109  0.5368  0.0549 -0.5629
  594MPD2    C1 8855   3.736   4.195  14.240  0.3220  0.4717  0.2193
  594MPD2    C2 8856   3.858   4.251  14.284 -0.9490 -0.4082 -0.3509
  594MPD2    C3 8857   3.957   4.305  14.200 -0.0717 -0.4625 -1.5648
  594MPD2    C4 8858   3.933   4.294  14.066  0.2159  0.2912  0.1588
  594MPD2    C5 8859   3.820   4.226  14.021 -0.3072 -0.2810 -0.4591
  594MPD2     H 8860   3.890   4.262  14.387  1.6851  1.4172 -1.3529
  594MPD2    H1 8861   4.000   4.325  13.987 -0.8327 -0.1156 -0.9028
  594MPD2    H2 8862   3.630   4.145  14.072  0.2459  1.0082 -0.6771
  594MPD2    H3 8863   3.799   4.215  13.915  0.3494 -0.4036 -0.5803
  594MPD2     N 8864   4.073   4.362  14.261 -0.2766  1.1458  0.1716
  594MPD2    H5 8865   4.075   4.358  14.362  0.9772  3.5032  0.2177
  594MPD2    N1 8866   3.630   4.147  14.331  0.1554  0.2882 -0.0366
  594MPD2    H7 8867   3.543   4.113  14.293 -0.6113  0.0180  1.9243
  595TMC3    C1 8868   4.503   4.518  14.324 -0.4708  0.8525  0.2065
  595TMC3    C2 8869   4.411   4.470  14.232 -0.4524  0.0270 -0.4270
  595TMC3    C3 8870   4.286   4.476  14.277  0.3601 -0.6136 -0.3246
  595TMC3    C4 8871   4.474   4.579  14.442 -0.6846  0.5230 -0.1858
  595TMC3    C5 8872   4.338   4.589  14.475 -0.4922 -0.7349  0.2583
  595TMC3    C6 8873   4.245   4.537  14.394 -0.0138  0.6189 -0.3978
  595TMC3     C 8874   4.638   4.486  14.306 -0.2392 -0.4484  0.2554
  595TMC3     O 8875   4.699   4.450  14.405 -0.4163 -0.1288  0.0409
  595TMC3     H 8876   4.436   4.409  14.146  0.6659  1.7283 -1.3195
  595TMC3    H1 8877   4.560   4.599  14.505 -0.1488 -1.7827 -0.1989
  595TMC3    H2 8878   4.142   4.553  14.425 -0.4510 -1.5150 -0.7530
  595TMC3    C7 8879   4.296   4.633  14.609  0.1992 -0.5245 -0.3355
  595TMC3    C8 8880   4.180   4.413  14.194 -0.0197 -0.5587 -0.0673
  595TMC3    O1 8881   4.185   4.679  14.621  0.3720  0.7374  0.2834
  595TMC3    O2 8882   4.213   4.404  14.074 -0.3185 -0.2538  0.0079
  596MPD2     C 8883   3.003   2.303  16.587 -0.0244  0.2738 -0.4647
  596MPD2    C1 8884   3.033   2.418  16.512 -0.4814  0.2369  0.2011
  596MPD2    C2 8885   3.075   2.405  16.380  0.6083 -0.0291  0.0658
  596MPD2    C3 8886   3.074   2.277  16.317  0.3192 -0.6007 -0.2843
  596MPD2    C4 8887   3.042   2.169  16.396  0.1039 -0.7445 -0.3865
  596MPD2    C5 8888   3.014   2.186  16.527 -0.1253  0.1093  0.1764
  596MPD2     H 8889   3.097   2.489  16.314  3.0460 -0.7038  0.0358
  596MPD2    H1 8890   3.029   2.076  16.343 -0.4602 -0.9246  0.0683
  596MPD2    H2 8891   2.974   2.309  16.691 -1.3949  3.2188 -1.0260
  596MPD2    H3 8892   2.995   2.101  16.591  0.2056  0.5200  0.8188
  596MPD2     N 8893   3.089   2.264  16.177  0.1253  0.2511  0.2303
  596MPD2    H5 8894   3.053   2.181  16.131  0.8522  1.4714 -2.5678
  596MPD2    N1 8895   3.018   2.552  16.566  0.2605  0.1638 -0.0369
  596MPD2    H7 8896   3.054   2.621  16.501  0.9413 -0.2971 -0.1593
  597TMC3    C1 8897   3.013   2.724  16.725  0.5444  0.1264  0.2891
  597TMC3    C2 8898   3.068   2.811  16.632  0.5724 -0.4781 -0.5126
  597TMC3    C3 8899   3.036   2.946  16.634  0.0738  0.4920  0.5574
  597TMC3    C4 8900   2.929   2.762  16.828  0.0268 -0.2260 -0.4245
  597TMC3    C5 8901   2.895   2.893  16.819  0.6505 -0.3482 -0.8544
  597TMC3    C6 8902   2.947   2.987  16.728  0.2178 -0.5597 -0.0171
  597TMC3     C 8903   3.010   2.578  16.696  0.0165  0.9244 -0.3760
  597TMC3     O 8904   2.997   2.514  16.798  0.1912  0.1661 -0.0961
  597TMC3     H 8905   3.151   2.779  16.570  0.7089 -0.9249 -0.0942
  597TMC3    H1 8906   2.890   2.692  16.900  1.1788 -0.4259  0.0100
  597TMC3    H2 8907   2.925   3.092  16.741  0.5845 -0.8873  3.2213
  597TMC3    C7 8908   2.786   2.933  16.899 -0.0743  0.2411  0.4847
  597TMC3    C8 8909   3.117   3.043  16.564  0.1892  0.0912 -1.0788
  597TMC3    O1 8910   2.726   2.834  16.948  0.0919 -0.2628  0.0906
  597TMC3    O2 8911   3.064   3.153  16.541 -0.7090  0.1126 -0.6009
  598TMC3    C1 8912   1.322   3.805  15.365  0.0665  0.4111 -0.6885
  598TMC3    C2 8913   1.222   3.707  15.367  0.1072  0.6977  0.1925
  598TMC3    C3 8914   1.190   3.651  15.241  0.2828  0.2104 -0.1179
  598TMC3    C4 8915   1.367   3.876  15.255 -0.1942 -0.1740 -0.0685
  598TMC3    C5 8916   1.315   3.829  15.131 -0.4171 -0.4379  0.2796
  598TMC3    C6 8917   1.236   3.710  15.123 -0.0725 -0.7534  0.5012
  598TMC3     C 8918   1.400   3.806  15.490 -0.6782  0.0514 -0.0018
  598TMC3     O 8919   1.340   3.798  15.598 -0.3981  0.8395 -0.1705
  598TMC3     H 8920   1.190   3.655  15.456 -0.8452 -1.1892 -1.2568
  598TMC3    H1 8921   1.447   3.949  15.256 -0.2028 -0.1556 -0.6294
  598TMC3    H2 8922   1.195   3.692  15.025 -0.4774 -0.4291  0.6116
  598TMC3    C7 8923   1.337   3.902  15.011 -0.5145  0.0078  0.0173
  598TMC3    C8 8924   1.120   3.523  15.235 -0.1733  0.4064 -0.3075
  598TMC3    O1 8925   1.318   3.846  14.904  0.1235 -0.3868  0.2105
  598TMC3    O2 8926   1.082   3.465  15.334 -0.2990  0.7585  0.3462
  599MPD2     C 8927   1.030   1.226  15.539  0.1566  0.0030  0.3838
  599MPD2    C1 8928   1.111   1.220  15.651 -0.6141 -0.3468 -0.4989
  599MPD2    C2 8929   1.096   1.300  15.759  0.1259 -0.6027 -0.0212
  599MPD2    C3 8930   0.997   1.390  15.765 -0.3412 -0.3543  0.1847
  599MPD2    C4 8931   0.905   1.393  15.658 -0.0532 -0.8305  0.2740
  599MPD2    C5 8932   0.932   1.319  15.544  0.1929 -0.5239 -0.3476
  599MPD2     H 8933   1.167   1.293  15.841  0.5870 -0.9867 -0.4519
  599MPD2    H1 8934   0.813   1.448  15.674  0.1245  0.3750 -2.8822
  599MPD2    H2 8935   1.050   1.166  15.451 -4.0092 -0.8928  0.0391
  599MPD2    H3 8936   0.864   1.323  15.459 -2.5778 -1.8283  1.8344
  599MPD2     N 8937   0.978   1.454  15.892 -0.3497 -0.2525 -0.1798
  599MPD2    H5 8938   1.019   1.413  15.975  1.3700  0.0652 -0.8723
  599MPD2    N1 8939   1.209   1.123  15.665 -0.1071 -0.8122  0.3707
  599MPD2    H7 8940   1.260   1.123  15.752  0.3320 -3.4144  0.1257
  600TMC3    C1 8941   0.850   1.586  16.040  0.5718  0.5874 -0.3665
  600TMC3    C2 8942   0.821   1.479  16.114 -0.7259 -0.2907 -0.5045
  600TMC3    C3 8943   0.781   1.513  16.246  0.0805 -0.2089  0.0958
  600TMC3    C4 8944   0.856   1.720  16.083 -0.5178  0.4237 -0.0976
  600TMC3    C5 8945   0.820   1.742  16.212 -0.4574  0.1742 -0.0455
  600TMC3    C6 8946   0.772   1.640  16.294  0.0854  0.2811 -0.3388
  600TMC3     C 8947   0.893   1.566  15.902 -0.2404 -0.1281  0.1990
  600TMC3     O 8948   0.846   1.643  15.820  0.0913 -0.1600  0.2447
  600TMC3     H 8949   0.837   1.377  16.080  0.0585 -0.7253  1.1212
  600TMC3    H1 8950   0.880   1.801  16.015  1.6350 -0.9954 -1.0305
  600TMC3    H2 8951   0.738   1.664  16.394  0.5235 -0.3016 -0.0536
  600TMC3    C7 8952   0.841   1.871  16.272  0.3156 -0.0897 -0.2484
  600TMC3    C8 8953   0.727   1.399  16.330 -0.6567  0.1118  0.5843
  600TMC3    O1 8954   0.768   1.906  16.366  0.2842 -0.1373 -0.1703
  600TMC3    O2 8955   0.749   1.408  16.449 -0.5598  0.8179 -0.3639
  601MPD2     C 8956   3.806   0.524  17.448  0.5978 -0.3172  0.0041
  601MPD2    C1 8957   3.693   0.448  17.449 -0.5176 -0.5012  0.5492
  601MPD2    C2 8958   3.667   0.352  17.548 -0.1437 -0.0542  0.4652
  601MPD2    C3 8959   3.771   0.318  17.627  0.0431  0.9055  0.3110
  601MPD2    C4 8960   3.891   0.383  17.621 -0.2956  0.0703 -0.3670
  601MPD2    C5 8961   3.910   0.486  17.533  0.5022  0.2422  0.8005
  601MPD2     H 8962   3.572   0.299  17.547  0.3870 -1.0062  0.5743
  601MPD2    H1 8963   3.975   0.361  17.686 -0.0545 -0.6930 -0.9395
  601MPD2    H2 8964   3.819   0.606  17.379 -1.4405  0.1297  0.1334
  601MPD2    H3 8965   4.000   0.546  17.533  2.0609 -2.0742  3.9982
  601MPD2     N 8966   3.771   0.202  17.707 -0.6854  0.3302  0.1505
  601MPD2    H5 8967   3.856   0.187   0.017  0.6674  1.5451 -1.6819
  601MPD2    N1 8968   3.586   0.470  17.353  0.1611  0.1893  0.0908
  601MPD2    H7 8969   3.515   0.398  17.359 -0.4157  0.6419 -1.3991
  602TMC3    C1 8970   3.438   0.566  17.198  0.2184 -0.5448 -0.5601
  602TMC3    C2 8971   3.380   0.670  17.141 -0.4257 -0.1296 -0.7207
  602TMC3    C3 8972   3.270   0.652  17.071 -0.0102  1.3408  0.3953
  602TMC3    C4 8973   3.385   0.441  17.185  0.1837  0.4893  0.1326
  602TMC3    C5 8974   3.266   0.432  17.120  0.3384 -0.0624 -0.5026
  602TMC3    C6 8975   3.204   0.535  17.058  0.3100  0.0799 -0.0243
  602TMC3     C 8976   3.563   0.582  17.275 -0.4840 -0.2348  0.3102
  602TMC3     O 8977   3.619   0.688  17.257 -0.2565 -0.1284 -0.7020
  602TMC3     H 8978   3.415   0.771  17.156 -0.6642 -0.2612  0.7124
  602TMC3    H1 8979   3.426   0.350  17.227  0.0520  0.9044  1.1592
  602TMC3    H2 8980   3.130   0.517  16.981  1.0550 -0.7808 -0.5370
  602TMC3    C7 8981   3.173   0.320  17.157 -0.4305  0.1356 -0.1297
  602TMC3    C8 8982   3.198   0.772  17.023  0.3214  0.0709  0.4773
  602TMC3    O1 8983   3.225   0.213  17.174 -0.3832  0.0099 -0.0265
  602TMC3    O2 8984   3.261   0.848  16.949  0.8814  0.8351  0.6712
  603TMC3    C1 8985   1.218   0.528  11.477  0.4370  0.0981  0.2272
  603TMC3    C2 8986   1.258   0.432  11.561  0.3811  0.1237 -0.4249
  603TMC3    C3 8987   1.340   0.468  11.661  0.2686  0.1169 -0.0571
  603TMC3    C4 8988   1.271   0.654  11.476 -0.0191  0.4326  0.7014
  603TMC3    C5 8989   1.373   0.681  11.569 -0.2310  0.0875 -0.4102
  603TMC3    C6 8990   1.399   0.593  11.671 -0.8156 -0.6886  0.9409
  603TMC3     C 8991   1.138   0.498  11.359 -0.0708  0.6515 -0.5541
  603TMC3     O 8992   1.160   0.567  11.258  0.0934 -0.4613 -0.0885
  603TMC3     H 8993   1.206   0.337  11.560  0.8482 -0.1461  0.9549
  603TMC3    H1 8994   1.225   0.725  11.408  0.8212 -1.4382 -1.8162
  603TMC3    H2 8995   1.485   0.603  11.736 -0.6182 -1.3234  0.7776
  603TMC3    C7 8996   1.447   0.806  11.560 -0.2265 -0.0928  0.2371
  603TMC3    C8 8997   1.350   0.370  11.775  0.2340 -0.4032  0.4045
  603TMC3    O1 8998   1.504   0.842  11.660  0.1449 -0.2130  0.1225
  603TMC3    O2 8999   1.294   0.261  11.761  0.3532  0.4371 -0.0999
  604MPD2     C 9000   2.224   3.129  16.049  0.0186 -0.6386 -0.3849
  604MPD2    C1 9001   2.206   3.264  16.051 -0.2086  0.4142  0.1433
  604MPD2    C2 9002   2.280   3.334  15.954  0.1823 -0.1996 -0.0673
  604MPD2    C3 9003   2.370   3.276  15.864  0.1315  0.1897  0.0430
  604MPD2    C4 9004   2.384   3.140  15.859 -0.4137  0.2363  0.2689
  604MPD2    C5 9005   2.311   3.072  15.960  0.4519  0.4225 -0.4128
  604MPD2     H 9006   2.279   3.442  15.951  0.3826 -0.2372 -1.7790
  604MPD2    H1 9007   2.445   3.079  15.793 -1.8013 -1.3712  0.4754
  604MPD2    H2 9008   2.163   3.079  16.124  2.4849  0.2845  2.2149
  604MPD2    H3 9009   2.329   2.966  15.973  1.0571  0.4119 -1.3641
  604MPD2     N 9010   2.436   3.361  15.769  0.3929 -0.8087 -0.3784
  604MPD2    H5 9011   2.407   3.458  15.774  0.0127 -0.9711  0.5211
  604MPD2    N1 9012   2.103   3.323  16.127  0.1275  0.1598  0.0807
  604MPD2    H7 9013   2.065   3.283  16.212  2.7900 -1.0776  0.6636
  605TMC3    C1 9014   1.975   3.506  16.204  0.0133  0.9080  0.1620
  605TMC3    C2 9015   2.031   3.515  16.328 -0.5017 -0.7953  0.4723
  605TMC3    C3 9016   2.008   3.620  16.410  0.6259  0.5522 -0.1378
  605TMC3    C4 9017   1.886   3.608  16.167  0.2059 -0.3805 -0.3505
  605TMC3    C5 9018   1.854   3.705  16.256  0.0033  0.0362 -0.0934
  605TMC3    C6 9019   1.917   3.715  16.375  0.7747 -0.1164 -0.7379
  605TMC3     C 9020   2.061   3.450  16.103  0.6288 -0.0400  0.1390
  605TMC3     O 9021   2.062   3.520  16.004  0.4927 -0.7294  0.1502
  605TMC3     H 9022   2.110   3.445  16.354 -0.1737 -0.1084  1.3132
  605TMC3    H1 9023   1.863   3.615  16.062  0.3889 -2.6276 -0.5289
  605TMC3    H2 9024   1.884   3.784  16.453 -0.8456  0.3307 -1.8157
  605TMC3    C7 9025   1.740   3.789  16.223  0.0104  0.0183 -0.2412
  605TMC3    C8 9026   2.125   3.652  16.492 -0.3705  0.4378 -0.1620
  605TMC3    O1 9027   1.748   3.910  16.249 -0.4626 -0.0776  0.3816
  605TMC3    O2 9028   2.226   3.582  16.487  0.1121 -0.1537  0.0835
  606TMC3    C1 9029   3.503   2.178  17.305  0.1540 -0.6404  0.2488
  606TMC3    C2 9030   3.508   2.243  17.429  0.7196 -0.4078  1.1254
  606TMC3    C3 9031   3.491   2.171  17.543  0.0591  0.8036  0.3538
  606TMC3    C4 9032   3.462   2.044  17.301  0.0631 -0.3686 -0.5487
  606TMC3    C5 9033   3.427   1.980  17.420  0.5114 -0.1719 -0.4271
  606TMC3    C6 9034   3.444   2.041  17.547 -0.1796  0.3999 -0.6061
  606TMC3     C 9035   3.557   2.245  17.190  0.3853  0.4294 -0.8277
  606TMC3     O 9036   3.597   2.361  17.214 -0.5733 -0.2738 -0.4223
  606TMC3     H 9037   3.539   2.346  17.438  1.6242 -0.5175 -0.8087
  606TMC3    H1 9038   3.463   1.987  17.209  1.1143  1.9555 -1.9642
  606TMC3    H2 9039   3.432   1.972  17.630  1.1961  0.7924 -0.0749
  606TMC3    C7 9040   3.367   1.852  17.402 -0.8963  0.0962 -0.4408
  606TMC3    C8 9041   3.545   2.235  17.664  0.5438  0.3832 -0.2427
  606TMC3    O1 9042   3.418   1.771  17.326  0.2017 -0.2907  0.0551
  606TMC3    O2 9043   3.621   2.332  17.647  0.9170  0.2335 -0.0672
  607MPD2     C 9044   0.764   0.133  11.673 -0.3022 -0.0206 -0.3586
  607MPD2    C1 9045   0.768   0.202  11.800 -0.4214  0.6250  0.6481
  607MPD2    C2 9046   0.697   0.158  11.909 -0.4828 -0.7984  0.6393
  607MPD2    C3 9047   0.624   0.039  11.902  0.0332 -0.4815 -0.6151
  607MPD2    C4 9048   0.625   4.704  11.785  0.2352  0.6484  1.0857
  607MPD2    C5 9049   0.691   0.014  11.667 -0.0748 -0.3334 -0.2673
  607MPD2     H 9050   0.701   0.208  12.006  2.2695  0.3014 -0.0487
  607MPD2    H1 9051   0.581   4.605  11.778  0.7819  0.5833 -1.4862
  607MPD2    H2 9052   0.815   0.162  11.582  2.8380  3.4757  2.5141
  607MPD2    H3 9053   0.685   4.691  11.576  1.9873  2.0887 -1.9747
  607MPD2     N 9054   0.586   4.722  12.029 -0.8707 -0.5330 -0.0376
  607MPD2    H5 9055   0.599   0.045  12.111 -1.5554 -0.2159 -0.1564
  607MPD2    N1 9056   0.843   0.324  11.819  0.7764 -0.2464 -0.1952
  607MPD2    H7 9057   0.849   0.368  11.910 -0.5657  0.8398 -0.6396
  608TMC3    C1 9058   1.003   0.492  11.801  1.0153  0.2594  0.2382
  608TMC3    C2 9059   1.047   0.455  11.924 -0.3421  0.1031  0.1430
  608TMC3    C3 9060   1.079   0.559  12.008  0.2990 -0.0159 -0.3012
  608TMC3    C4 9061   1.004   0.622  11.758  0.3478  0.2458 -0.1573
  608TMC3    C5 9062   1.039   0.725  11.843 -0.2876 -0.2975 -0.2188
  608TMC3    C6 9063   1.069   0.692  11.970  0.2265  0.3963 -0.4012
  608TMC3     C 9064   0.927   0.384  11.731  0.3033  0.0237 -0.3648
  608TMC3     O 9065   0.949   0.363  11.615  0.0368  0.0966 -0.1745
  608TMC3     H 9066   1.035   0.352  11.956  1.2910  0.0756  0.6782
  608TMC3    H1 9067   0.961   0.652  11.664 -0.8420  1.7943  0.8694
  608TMC3    H2 9068   1.094   0.767  12.044 -0.1439 -0.1276  0.2482
  608TMC3    C7 9069   1.081   0.856  11.790  0.0894 -0.5296 -0.1810
  608TMC3    C8 9070   1.095   0.534  12.152  0.2984  0.4838  0.1964
  608TMC3    O1 9071   1.092   0.861  11.669  1.1729  0.1518 -0.0841
  608TMC3    O2 9072   1.168   0.607  12.221  0.1681  0.1282 -0.3129
  609TMC3    C1 9073   4.336   4.087   8.544 -0.2024  0.2284  0.5220
  609TMC3    C2 9074   4.238   3.987   8.513 -0.3633 -0.1568 -0.1414
  609TMC3    C3 9075   4.284   3.855   8.504  0.4022  0.4252 -0.2026
  609TMC3    C4 9076   4.455   4.064   8.585  0.6585 -0.3401  0.5383
  609TMC3    C5 9077   4.495   3.935   8.582 -0.0749  0.2160  0.6561
  609TMC3    C6 9078   4.421   3.827   8.535 -0.6559  0.3966 -0.1273
  609TMC3     C 9079   4.289   4.193   8.624  0.2580  0.5436 -0.1395
  609TMC3     O 9080   4.348   4.234   8.725 -0.2261  0.5097 -0.2929
  609TMC3     H 9081   4.136   4.021   8.498  0.3706  2.0258 -0.1946
  609TMC3    H1 9082   4.526   4.142   8.607  0.8545  0.2255 -2.1489
  609TMC3    H2 9083   4.455   3.726   8.557  1.9477  1.3480  0.1515
  609TMC3    C7 9084   4.623   3.903   8.631 -0.0790  0.5847 -0.3973
  609TMC3    C8 9085   4.206   3.770   8.413 -0.3558 -0.0585  0.2465
  609TMC3    O1 9086   4.689   3.986   8.694 -0.1833  0.5639 -0.2355
  609TMC3    O2 9087   4.111   3.825   8.362  0.8284 -0.0365  0.3446
  610TMC3    C1 9088   1.273   0.169  12.482 -0.0563 -0.0240 -0.2315
  610TMC3    C2 9089   1.230   0.178  12.351  0.3461 -0.3767  0.0769
  610TMC3    C3 9090   1.158   0.069  12.300  0.5091  0.6480 -0.2123
  610TMC3    C4 9091   1.244   0.063  12.562  0.7805 -0.5915 -0.6128
  610TMC3    C5 9092   1.185   4.690  12.508 -0.3556 -0.0955  0.3210
  610TMC3    C6 9093   1.141   4.690  12.381 -0.2043  0.4495  0.0264
  610TMC3     C 9094   1.362   0.268  12.542  0.5745  0.3153  0.3457
  610TMC3     O 9095   1.400   0.255  12.658  0.3933 -0.0615 -0.3940
  610TMC3     H 9096   1.246   0.262  12.285  0.0754  0.2983  0.8753
  610TMC3    H1 9097   1.269   0.059  12.667 -1.2891  0.9293 -0.0627
  610TMC3    H2 9098   1.093   4.599  12.348  0.6464  0.7946 -2.1050
  610TMC3    C7 9099   1.209   4.566  12.585  0.7914 -0.1619 -0.0686
  610TMC3    C8 9100   1.113   0.081  12.164 -0.0660  0.5113 -0.7506
  610TMC3    O1 9101   1.280   4.575  12.686  0.1819  0.1859  0.4059
  610TMC3    O2 9102   1.131   0.189  12.109  0.1432 -0.5981 -0.5585
  611MPD2     C 9103   0.666   0.995  10.836  0.6568  0.7786 -0.4397
  611MPD2    C1 9104   0.730   0.999  10.716 -0.9853 -0.5422 -0.4545
  611MPD2    C2 9105   0.853   1.060  10.707 -0.1649 -0.0254 -0.5551
  611MPD2    C3 9106   0.918   1.122  10.817 -0.1328 -0.1761  0.7529
  611MPD2    C4 9107   0.844   1.119  10.937 -0.6396  0.1738 -0.3649
  611MPD2    C5 9108   0.714   1.070  10.941 -0.0041 -0.0699  0.0418
  611MPD2     H 9109   0.906   1.058  10.612 -1.1803 -2.1138 -1.0699
  611MPD2    H1 9110   0.893   1.152  11.028  1.5674 -2.4879 -0.5897
  611MPD2    H2 9111   0.576   0.935  10.844  0.3036  1.5176  1.2835
  611MPD2    H3 9112   0.654   1.068  11.031 -1.7566 -0.2741 -1.1315
  611MPD2     N 9113   1.040   1.194  10.809 -0.2395  0.1477  0.1606
  611MPD2    H5 9114   1.078   1.231  10.896  0.5303  2.3131 -1.1029
  611MPD2    N1 9115   0.662   0.949  10.609  0.0180  0.1446 -0.0957
  611MPD2    H7 9116   0.572   0.905  10.626 -1.3851  1.8386 -3.0921
  612TMC3    C1 9117   1.238   1.294  10.745  0.0523  0.7328 -0.1233
  612TMC3    C2 9118   1.311   1.233  10.843 -0.3126 -0.3404 -0.1125
  612TMC3    C3 9119   1.437   1.280  10.863  0.9452 -0.1222  0.0061
  612TMC3    C4 9120   1.284   1.398  10.670  0.3922  0.0736 -0.2150
  612TMC3    C5 9121   1.411   1.444  10.703 -0.6159 -0.0556 -0.4358
  612TMC3    C6 9122   1.491   1.383  10.791 -0.3085 -0.3297  0.5207
  612TMC3     C 9123   1.105   1.237  10.699 -1.0050  0.2118  0.2937
  612TMC3     O 9124   1.085   1.233  10.579 -0.4261 -0.1440  0.1515
  612TMC3     H 9125   1.260   1.157  10.902  0.5769 -2.2099 -1.7852
  612TMC3    H1 9126   1.210   1.449  10.609  0.9418  0.3168 -0.6762
  612TMC3    H2 9127   1.590   1.422  10.813  0.9191 -3.4885  0.5795
  612TMC3    C7 9128   1.430   1.589  10.678 -0.6385 -0.0204  0.1659
  612TMC3    C8 9129   1.506   1.259  10.992  0.6634  0.2720  0.2131
  612TMC3    O1 9130   1.498   1.644  10.762 -0.2167  0.0055 -0.4305
  612TMC3    O2 9131   1.592   1.347  11.019  0.3309  0.5063  0.1477
  613MPD2     C 9132   4.597   2.795  16.852  0.0165  0.0240  0.0084
  613MPD2    C1 9133   4.523   2.782  16.740  0.4639  0.5297  0.1430
  613MPD2    C2 9134   4.448   2.668  16.713 -0.2191 -0.1819  0.7297
  613MPD2    C3 9135   4.466   2.558  16.797 -0.1271 -0.1374 -0.0184
  613MPD2    C4 9136   4.542   2.566  16.903 -0.3137  0.0856 -0.4139
  613MPD2    C5 9137   4.605   2.686  16.931  0.5055  0.1332 -0.6866
  613MPD2     H 9138   4.388   2.649  16.625  0.7422 -2.2181  0.5203
  613MPD2    H1 9139   4.560   2.481  16.968 -0.1399  0.0660 -0.4882
  613MPD2    H2 9140   4.654   2.886  16.872 -1.2936  0.8324  0.0490
  613MPD2    H3 9141   4.653   2.679  17.028 -2.1639  1.2621  0.7033
  613MPD2     N 9142   4.409   2.436  16.767  0.2605  0.2529 -0.3038
  613MPD2    H5 9143   4.424   2.353  16.824  1.0643  2.0859  2.1415
  613MPD2    N1 9144   4.530   2.893  16.650  0.3416  0.2171  0.1566
  613MPD2    H7 9145   4.590   2.974  16.666 -2.0661  2.2016 -0.7806
  614TMC3    C1 9146   4.555   2.900  16.425 -0.3897  0.1446 -0.0777
  614TMC3    C2 9147   4.640   2.792  16.434  0.4327  0.0181  0.1822
  614TMC3    C3 9148   4.666   2.723  16.328  0.0987  0.0964  0.4889
  614TMC3    C4 9149   4.481   2.915  16.311 -0.5809 -0.7302 -0.3815
  614TMC3    C5 9150   4.522   2.845  16.199  0.3253  0.6503 -0.0363
  614TMC3    C6 9151   4.616   2.744  16.205  0.0326  0.4018  0.1382
  614TMC3     C 9152   4.456   2.907  16.535  0.2680  0.3537 -0.3802
  614TMC3     O 9153   4.347   2.866  16.500  0.2018  0.2753  0.5277
  614TMC3     H 9154   4.682   2.757  16.528 -0.0455 -0.1075  0.3538
  614TMC3    H1 9155   4.401   2.989  16.308  0.1098  0.0905  1.1274
  614TMC3    H2 9156   4.643   2.682  16.120 -0.0205  1.4310 -0.6294
  614TMC3    C7 9157   4.521   2.920  16.078  0.8743 -0.1830 -0.3852
  614TMC3    C8 9158   4.683   2.585  16.361 -0.9899  0.5718  0.3769
  614TMC3    O1 9159   4.515   3.042  16.090  0.8482 -0.0196  0.1518
  614TMC3    O2 9160   4.614   2.538  16.458 -0.2531 -0.9510  0.0574
  615MPD2     C 9161   3.832   3.932  15.967 -0.3194  0.3036  0.4547
  615MPD2    C1 9162   3.935   4.028  15.966 -0.1801  0.4279 -0.7147
  615MPD2    C2 9163   3.906   4.164  15.939 -0.0603  0.0256  0.4770
  615MPD2    C3 9164   3.774   4.192  15.896  0.2419  0.2826  0.5644
  615MPD2    C4 9165   3.680   4.098  15.871 -0.5956 -0.6856  0.3874
  615MPD2    C5 9166   3.708   3.973  15.912  0.5994  0.3320  0.7124
  615MPD2     H 9167   3.981   4.239  15.960  0.2551  0.1750 -1.1926
  615MPD2    H1 9168   3.585   4.112  15.820  0.0402  0.6418 -0.3997
  615MPD2    H2 9169   3.850   3.831  16.002  1.3623  0.0129 -1.1859
  615MPD2    H3 9170   3.635   3.894  15.896  0.2910  0.7877 -0.0908
  615MPD2     N 9171   3.721   4.321  15.881  0.0844  0.2784  0.2826
  615MPD2    H5 9172   3.627   4.328  15.844  0.2307 -0.2892 -0.2002
  615MPD2    N1 9173   4.061   4.017  16.023  0.2479 -0.3354  0.2921
  615MPD2    H7 9174   4.122   4.097  16.009 -1.4190  0.8572 -0.2917
  616TMC3    C1 9175   4.242   3.932  16.134  0.4394  0.0981  0.0049
  616TMC3    C2 9176   4.289   3.869  16.250  0.1684  0.8756 -0.7323
  616TMC3    C3 9177   4.427   3.872  16.278 -0.4842 -0.0316  0.1212
  616TMC3    C4 9178   4.326   3.994  16.057  0.4569  0.3113 -0.4688
  616TMC3    C5 9179   4.467   3.989  16.078  0.9014  0.2678  0.5800
  616TMC3    C6 9180   4.511   3.940  16.198  0.0872 -0.6123 -0.4064
  616TMC3     C 9181   4.103   3.918  16.103 -0.3638 -0.3459 -0.1120
  616TMC3     O 9182   4.042   3.822  16.147  0.1019 -0.7862 -1.0420
  616TMC3     H 9183   4.220   3.828  16.323 -0.2880  0.0244 -1.6489
  616TMC3    H1 9184   4.292   4.035  15.962 -1.6339  1.0738  0.6151
  616TMC3    H2 9185   4.618   3.952  16.212 -0.4795  0.7375  2.6693
  616TMC3    C7 9186   4.545   4.086  16.010  0.3057  0.9204 -0.5083
  616TMC3    C8 9187   4.455   3.876  16.417 -0.6368 -0.2639  0.4519
  616TMC3    O1 9188   4.665   4.058  15.993 -0.3286 -0.2602  0.1127
  616TMC3    O2 9189   4.371   3.836  16.495 -0.3908 -0.5789  0.4782
  617MPD2     C 9190   1.892   2.376  13.969  0.5016  0.6046 -0.1618
  617MPD2    C1 9191   1.900   2.314  14.087 -0.7610  0.3094  0.0842
  617MPD2    C2 9192   1.791   2.234  14.129 -0.3045  0.0754 -0.5241
  617MPD2    C3 9193   1.676   2.225  14.050 -0.7129  0.5299  0.6502
  617MPD2    C4 9194   1.677   2.285  13.924 -0.0880  0.1112 -0.1864
  617MPD2    C5 9195   1.783   2.361  13.886  0.2940 -0.6277  0.0886
  617MPD2     H 9196   1.784   2.197  14.230 -3.1335  0.2003 -0.6560
  617MPD2    H1 9197   1.592   2.268  13.858  0.1654 -2.5970  0.2124
  617MPD2    H2 9198   1.972   2.444  13.942  1.0868 -0.4372 -1.0312
  617MPD2    H3 9199   1.774   2.422  13.796  2.5511  1.4532  1.2854
  617MPD2     N 9200   1.556   2.163  14.093 -0.0383 -0.3885  0.8264
  617MPD2    H5 9201   1.485   2.158  14.020  1.4938  0.9699 -0.7508
  617MPD2    N1 9202   2.020   2.341  14.160  0.6379 -0.0265 -0.1564
  617MPD2    H7 9203   2.095   2.396  14.119  0.4677 -0.5082 -1.1074
  618TMC3    C1 9204   2.175   2.333  14.336 -0.0044  0.8831  0.1757
  618TMC3    C2 9205   2.269   2.241  14.366  0.2882 -0.1373 -0.1557
  618TMC3    C3 9206   2.402   2.271  14.339  0.5667 -0.3237 -0.0348
  618TMC3    C4 9207   2.215   2.465  14.309 -0.1222  0.1757 -0.0607
  618TMC3    C5 9208   2.344   2.490  14.278 -0.4793  0.3956  0.2664
  618TMC3    C6 9209   2.441   2.399  14.304 -0.7503  0.3036 -0.8342
  618TMC3     C 9210   2.042   2.285  14.285 -0.2449  0.3244 -0.1550
  618TMC3     O 9211   1.988   2.201  14.350  0.0638 -0.1019  0.1002
  618TMC3     H 9212   2.233   2.139  14.372 -0.8092  0.2676  0.1396
  618TMC3    H1 9213   2.143   2.542  14.284 -1.0836 -1.1713 -1.4825
  618TMC3    H2 9214   2.547   2.423  14.306 -0.4616 -1.0782  0.5627
  618TMC3    C7 9215   2.346   2.522  14.134 -0.2814 -0.5292  0.2621
  618TMC3    C8 9216   2.481   2.154  14.302  0.2172  0.1558  0.2462
  618TMC3    O1 9217   2.234   2.508  14.081  0.1066 -0.5669  0.2208
  618TMC3    O2 9218   2.435   2.049  14.339  0.4576  0.8765  0.2797
  619MPD2     C 9219   3.498   3.640  13.923  0.0064 -0.6865  0.1306
  619MPD2    C1 9220   3.400   3.720  13.865 -0.4237 -0.2805  0.3644
  619MPD2    C2 9221   3.269   3.688  13.876  0.1712  0.1657 -0.0262
  619MPD2    C3 9222   3.238   3.566  13.927  0.4668 -0.4542 -0.1164
  619MPD2    C4 9223   3.330   3.484  13.982 -0.7098  0.3243 -0.2066
  619MPD2    C5 9224   3.462   3.524  13.980 -0.5298  0.1588  0.3589
  619MPD2     H 9225   3.192   3.738  13.820  0.4186 -0.1681 -0.6659
  619MPD2    H1 9226   3.301   3.391  14.028 -0.5523  0.6931  0.6352
  619MPD2    H2 9227   3.603   3.666  13.921  0.4177 -2.4321 -1.1014
  619MPD2    H3 9228   3.536   3.457  14.022 -0.1126  0.7685  0.5927
  619MPD2     N 9229   3.103   3.517  13.933 -0.3887 -0.5770 -0.0159
  619MPD2    H5 9230   3.086   3.422  13.965  0.1341  0.8124  4.4752
  619MPD2    N1 9231   3.432   3.825  13.781 -0.3349 -0.0427  0.2285
  619MPD2    H7 9232   3.348   3.856  13.732  0.3560 -2.2684 -2.4046
  620TMC3    C1 9233   3.543   4.006  13.684 -0.4664  0.0135 -0.3101
  620TMC3    C2 9234   3.495   3.990  13.560  0.5555 -0.0451  0.8609
  620TMC3    C3 9235   3.473   4.105  13.490 -0.0408 -0.2525 -0.5631
  620TMC3    C4 9236   3.569   4.123  13.744  0.0838  0.4854 -0.0306
  620TMC3    C5 9237   3.536   4.240  13.674  0.8303 -0.1876 -0.4758
  620TMC3    C6 9238   3.499   4.229  13.545  0.3905 -0.3359 -0.1732
  620TMC3     C 9239   3.548   3.893  13.776  0.5382 -0.0396  0.0458
  620TMC3     O 9240   3.644   3.887  13.852 -0.5849  0.2801 -0.5395
  620TMC3     H 9241   3.485   3.891  13.516  0.0113  0.9635 -1.2862
  620TMC3    H1 9242   3.596   4.124  13.849 -1.6923  1.4076  0.4224
  620TMC3    H2 9243   3.484   4.319  13.487  0.7529 -0.5819 -0.6473
  620TMC3    C7 9244   3.435   4.325  13.746  0.6859 -0.7869 -0.1217
  620TMC3    C8 9245   3.357   4.093  13.405 -0.2394  0.1480  0.4755
  620TMC3    O1 9246   3.340   4.372  13.677  0.3521  0.3383 -1.0780
  620TMC3    O2 9247   3.341   3.989  13.342  0.0660  0.6244 -0.1154
  621MPD2     C 9248   3.992   3.201   9.612  0.2180  0.5911 -0.1778
  621MPD2    C1 9249   4.086   3.254   9.520 -0.1976 -0.6564 -0.1344
  621MPD2    C2 9250   4.146   3.368   9.541  0.2528 -0.0496  0.6443
  621MPD2    C3 9251   4.103   3.449   9.641  0.1807  0.2809  0.5805
  621MPD2    C4 9252   3.992   3.415   9.719 -0.7672 -0.1894  0.3922
  621MPD2    C5 9253   3.946   3.284   9.712  0.1871  0.2940  0.7303
  621MPD2     H 9254   4.228   3.393   9.474  0.7434 -0.2210  1.1772
  621MPD2    H1 9255   3.953   3.483   9.794 -1.5335 -0.0431 -0.1512
  621MPD2    H2 9256   3.943   3.104   9.610 -3.0936  2.2790 -1.6144
  621MPD2    H3 9257   3.868   3.244   9.775 -2.5740  3.2427 -0.7973
  621MPD2     N 9258   4.171   3.574   9.666 -0.2562 -0.3771  0.1461
  621MPD2    H5 9259   4.256   3.590   9.613 -0.5735 -1.4153 -0.6529
  621MPD2    N1 9260   4.127   3.187   9.399 -0.1285  0.2220  0.2138
  621MPD2    H7 9261   4.205   3.225   9.345 -0.2191 -1.9159 -1.4570
  622TMC3    C1 9262   4.126   3.030   9.225 -0.5920 -0.4282  0.3248
  622TMC3    C2 9263   4.048   2.936   9.157 -0.5222 -0.6480 -0.7600
  622TMC3    C3 9264   4.033   2.952   9.017 -0.1483 -0.0863 -0.4298
  622TMC3    C4 9265   4.201   3.124   9.158 -0.0133  0.5043  0.5491
  622TMC3    C5 9266   4.190   3.130   9.019 -0.2596  0.0661 -0.7488
  622TMC3    C6 9267   4.113   3.040   8.952  0.1422 -0.4467  0.4755
  622TMC3     C 9268   4.067   3.075   9.348  0.2692 -0.3016 -0.7112
  622TMC3     O 9269   3.974   3.010   9.391 -0.1934  0.6225  0.0744
  622TMC3     H 9270   3.984   2.863   9.205  0.3756 -0.8944  0.0763
  622TMC3    H1 9271   4.258   3.203   9.205  1.3123  0.5760 -1.2040
  622TMC3    H2 9272   4.100   3.043   8.845  0.4523  1.5484  0.5021
  622TMC3    C7 9273   4.184   3.270   8.980  0.8413 -0.4383 -1.5809
  622TMC3    C8 9274   3.931   2.878   8.940 -0.8746 -0.2813 -0.6886
  622TMC3    O1 9275   4.268   3.347   9.021  0.1148  0.3905 -0.5678
  622TMC3    O2 9276   3.967   2.838   8.831 -0.3267  0.3493  0.0013
  623MPD2     C 9277   2.602   4.110  15.847 -0.5042  0.3643  0.2164
  623MPD2    C1 9278   2.580   3.987  15.888  0.1022  0.1922  0.2685
  623MPD2    C2 9279   2.646   3.942  16.002 -0.2919 -0.1981  0.1028
  623MPD2    C3 9280   2.753   4.011  16.062 -0.5619 -0.4798 -1.1106
  623MPD2    C4 9281   2.783   4.138  16.011 -0.0572  0.0565 -0.0189
  623MPD2    C5 9282   2.701   4.180  15.906 -0.0489 -0.1233  0.0167
  623MPD2     H 9283   2.618   3.847  16.046  0.0986 -0.2764  0.1763
  623MPD2    H1 9284   2.846   4.208  16.065  0.9600 -0.5993 -0.3767
  623MPD2    H2 9285   2.535   4.161  15.779  2.0183  0.0394 -2.4906
  623MPD2    H3 9286   2.719   4.283  15.877  2.4772 -1.5327 -3.4771
  623MPD2     N 9287   2.792   3.971  16.186 -0.2319 -0.5251 -0.3005
  623MPD2    H5 9288   2.737   3.897  16.230  1.1287 -1.4591 -0.1582
  623MPD2    N1 9289   2.482   3.912  15.826  0.1306 -0.1085 -0.3950
  623MPD2    H7 9290   2.412   3.961  15.771  0.1163 -0.8020 -0.9979
  624TMC3    C1 9291   2.981   3.805  16.521 -0.0708  0.3404  0.4616
  624TMC3    C2 9292   2.863   3.737  16.544 -0.3046 -1.2697 -0.7433
  624TMC3    C3 9293   2.749   3.796  16.507  0.3492  0.2588 -0.7992
  624TMC3    C4 9294   2.984   3.924  16.449 -0.0226  0.2108  0.0593
  624TMC3    C5 9295   2.862   3.973  16.405 -0.1611  0.3659 -0.1169
  624TMC3    C6 9296   2.743   3.919  16.446  0.2382  0.6635 -0.1305
  624TMC3     C 9297   3.103   3.766  16.591 -0.2701  0.5643  0.0791
  624TMC3     O 9298   3.194   3.845  16.582  0.1308  0.3945  0.2038
  624TMC3     H 9299   2.860   3.653  16.613 -3.2646 -0.3331  0.2627
  624TMC3    H1 9300   3.076   3.966  16.408 -1.3955  0.8322 -2.3592
  624TMC3    H2 9301   2.646   3.959  16.420  0.0843  0.0392 -0.5118
  624TMC3    C7 9302   2.884   4.032  16.270 -0.0948 -0.1444  0.1086
  624TMC3    C8 9303   2.627   3.766  16.576  0.5939  0.1932 -0.2908
  624TMC3    O1 9304   2.952   4.135  16.269  0.0809  0.0733 -0.0779
  624TMC3    O2 9305   2.587   3.651  16.575  0.4245  0.8832 -0.1610
  625MPD2     C 9306   3.283   0.514   0.890  0.0267  0.1301  0.2710
  625MPD2    C1 9307   3.313   0.641   0.852  0.8272  0.8699  0.5005
  625MPD2    C2 9308   3.426   0.705   0.897  0.5558 -0.2267 -0.0133
  625MPD2    C3 9309   3.514   0.639   0.982 -0.0727 -0.2778 -0.4448
  625MPD2    C4 9310   3.480   0.513   1.025 -0.1160  0.0938  0.4312
  625MPD2    C5 9311   3.374   0.450   0.966  0.2361 -0.6731  0.2071
  625MPD2     H 9312   3.437   0.809   0.871 -2.5957  0.7380  2.4464
  625MPD2    H1 9313   3.533   0.460   1.104  2.2037  1.6052 -0.1059
  625MPD2    H2 9314   3.200   0.452   0.857  0.1975 -1.2455  2.4145
  625MPD2    H3 9315   3.349   0.350   0.999 -2.0460  0.7113  2.6843
  625MPD2     N 9316   3.635   0.707   1.010  0.6288 -0.1843  0.1396
  625MPD2    H5 9317   3.652   0.791   0.955 -0.1274 -0.5058 -0.5859
  625MPD2    N1 9318   3.223   0.713   0.768 -0.1241 -0.3159 -0.1062
  625MPD2    H7 9319   3.243   0.811   0.747 -0.6536  0.0439  1.0876
  626TMC3    C1 9320   3.041   0.793   0.658 -0.4534  0.3232 -0.0447
  626TMC3    C2 9321   2.955   0.784   0.551  1.2557  0.6606  0.2986
  626TMC3    C3 9322   2.872   0.886   0.531 -0.2396  0.0362 -0.2694
  626TMC3    C4 9323   3.048   0.900   0.736 -0.2266 -0.0953 -0.2455
  626TMC3    C5 9324   2.963   1.008   0.708 -0.5106 -0.4836 -0.9245
  626TMC3    C6 9325   2.867   1.001   0.603 -0.3058  0.1973  0.3378
  626TMC3     C 9326   3.108   0.675   0.701 -0.6737  0.0934  0.1041
  626TMC3     O 9327   3.053   0.564   0.692  0.2622  0.1869  0.8693
  626TMC3     H 9328   2.961   0.697   0.486 -1.6844  1.4523 -1.0633
  626TMC3    H1 9329   3.103   0.898   0.830  1.7529 -0.7072 -1.4408
  626TMC3    H2 9330   2.822   1.092   0.565  0.5377  0.0097 -1.1324
  626TMC3    C7 9331   2.997   1.125   0.783  0.0705 -0.7357 -0.0947
  626TMC3    C8 9332   2.783   0.881   0.416  0.5217 -0.2461 -0.0668
  626TMC3    O1 9333   3.108   1.124   0.837 -0.2147  0.5557  0.0063
  626TMC3    O2 9334   2.737   0.985   0.374  0.4678 -0.3971  0.7014
  627MPD2     C 9335   1.171   1.011  14.826  0.4287 -0.2651 -0.4873
  627MPD2    C1 9336   1.305   0.971  14.819  0.0889 -0.1454  0.5345
  627MPD2    C2 9337   1.319   0.846  14.758 -0.5831 -0.4400  1.0067
  627MPD2    C3 9338   1.215   0.773  14.701  0.0915 -0.0762 -0.5734
  627MPD2    C4 9339   1.089   0.825  14.697 -0.4151 -0.8877  0.4227
  627MPD2    C5 9340   1.069   0.939  14.769 -0.1207  1.0678 -0.1655
  627MPD2     H 9341   1.422   0.812  14.751 -0.6476 -0.9201  2.3434
  627MPD2    H1 9342   1.004   0.789  14.640  0.0163 -0.1516 -0.6760
  627MPD2    H2 9343   1.144   1.102  14.878  2.0059 -1.1527  1.8893
  627MPD2    H3 9344   0.968   0.976  14.785 -0.1088  0.9674  0.1481
  627MPD2     N 9345   1.249   0.649  14.634  0.1186  0.0733 -0.2410
  627MPD2    H5 9346   1.346   0.620  14.643  0.4308  0.4189 -2.4315
  627MPD2    N1 9347   1.412   1.045  14.869  0.4695  0.6688 -0.4691
  627MPD2    H7 9348   1.505   1.005  14.871  0.7221  1.3284  0.8493
  628TMC3    C1 9349   1.522   1.233  14.970  0.4314  0.0772  0.2143
  628TMC3    C2 9350   1.624   1.147  15.006 -0.4748 -0.1426  0.3369
  628TMC3    C3 9351   1.742   1.193  15.060 -0.0006  0.6362 -0.6744
  628TMC3    C4 9352   1.541   1.371  14.963 -0.8803 -0.2965 -0.8151
  628TMC3    C5 9353   1.664   1.413  15.007  0.4529  0.4447 -0.2014
  628TMC3    C6 9354   1.758   1.330  15.072  0.8454 -0.5671  1.1371
  628TMC3     C 9355   1.406   1.178  14.904 -0.3169 -0.3223 -0.7819
  628TMC3     O 9356   1.315   1.262  14.900 -0.1905 -0.0898  0.1228
  628TMC3     H 9357   1.606   1.040  15.000 -0.6450 -0.1494  0.9995
  628TMC3    H1 9358   1.463   1.431  14.917 -2.2619 -1.5496 -0.1015
  628TMC3    H2 9359   1.860   1.364  15.088  0.2578  1.4295  0.6953
  628TMC3    C7 9360   1.734   1.529  14.935 -0.0948 -0.4844 -0.6327
  628TMC3    C8 9361   1.849   1.109  15.036  0.2865  0.3118  0.0957
  628TMC3    O1 9362   1.858   1.520  14.920  0.3457  0.1772  0.2620
  628TMC3    O2 9363   1.829   1.012  14.965  0.4794  0.7593  0.5692
  629MPD2     C 9364   0.001   4.059  16.809 -0.4105 -0.2509  0.3939
  629MPD2    C1 9365   0.061   4.084  16.694 -0.5108 -0.3149 -0.3209
  629MPD2    C2 9366   0.014   4.033  16.572  0.5910  0.5374 -0.1114
  629MPD2    C3 9367   4.629   3.960  16.571 -0.0865 -0.7956  0.0305
  629MPD2    C4 9368   4.563   3.939  16.688  0.5691  0.8706  0.1329
  629MPD2    C5 9369   4.617   3.986  16.806  0.0669 -0.1100 -0.2523
  629MPD2     H 9370   0.076   4.045  16.484  0.1381  1.8845 -0.2434
  629MPD2    H1 9371   4.467   3.891  16.698  0.4180  0.9080 -1.1013
  629MPD2    H2 9372   0.047   4.089  16.902  0.4499  0.3282 -0.2139
  629MPD2    H3 9373   4.562   3.964  16.896 -2.6826 -0.9197 -2.1169
  629MPD2     N 9374   4.581   3.922  16.445  0.1909 -0.1053  0.0783
  629MPD2    H5 9375   4.635   3.959  16.368 -1.7495 -0.8048 -1.6129
  629MPD2    N1 9376   0.180   4.171  16.700 -0.1892 -0.3060 -0.1201
  629MPD2    H7 9377   0.204   4.195  16.795 -2.4331  1.6884 -0.0606
  630TMC3    C1 9378   0.339   4.334  16.626 -0.4957  0.5140 -0.1129
  630TMC3    C2 9379   0.343   4.438  16.536 -0.2613 -0.6833  0.0840
  630TMC3    C3 9380   0.453   4.518  16.552  0.2226 -0.6081  0.1679
  630TMC3    C4 9381   0.428   4.313  16.734 -0.3496 -0.0875 -0.5376
  630TMC3    C5 9382   0.536   4.384  16.728 -0.5053  0.2209  0.2174
  630TMC3    C6 9383   0.545   4.497  16.652  0.3135 -0.2568 -0.2527
  630TMC3     C 9384   0.228   4.244  16.591  0.8070 -0.0468 -0.0278
  630TMC3     O 9385   0.190   4.239  16.476  0.0889 -0.2958  0.0841
  630TMC3     H 9386   0.280   4.452  16.449  2.1626  0.8673 -1.4110
  630TMC3    H1 9387   0.421   4.216  16.783 -0.2262  0.3026  0.2401
  630TMC3    H2 9388   0.632   4.560  16.661 -0.2660  0.4831  0.1657
  630TMC3    C7 9389   0.645   4.344  16.819  0.5467 -0.1581 -1.0750
  630TMC3    C8 9390   0.478   4.635  16.466 -0.2653  0.5640 -0.6168
  630TMC3    O1 9391   0.620   4.260  16.897 -1.1291 -0.5282 -0.1313
  630TMC3    O2 9392   0.564   4.711  16.505  0.5363  0.2713 -0.5075
  631MPD2     C 9393   2.892   4.703  15.613 -0.2768 -0.2578 -0.0636
  631MPD2    C1 9394   2.939   0.082  15.671  0.2198 -0.7616 -0.2852
  631MPD2    C2 9395   3.075   0.093  15.698  0.1107 -0.7445  0.4958
  631MPD2    C3 9396   3.162   4.721  15.680  0.8459  0.2851 -0.2525
  631MPD2    C4 9397   3.104   4.607  15.624  0.5653  0.5097  0.4503
  631MPD2    C5 9398   2.970   4.595  15.590  0.7202 -0.5805 -0.0817
  631MPD2     H 9399   3.123   0.176  15.749 -0.6238  0.4254 -0.6833
  631MPD2    H1 9400   3.159   4.517  15.601 -3.0318 -1.0172 -2.3084
  631MPD2    H2 9401   2.787   4.691  15.589 -0.0645  0.4775 -1.3821
  631MPD2    H3 9402   2.933   4.512  15.531 -0.2096 -0.0877 -0.1995
  631MPD2     N 9403   3.299   4.733  15.707 -0.3384  1.0572 -0.1885
  631MPD2    H5 9404   3.322   0.077  15.766  2.2051  1.2333 -1.4486
  631MPD2    N1 9405   2.853   0.191  15.700 -0.7045  0.1857  0.8851
  631MPD2    H7 9406   2.753   0.171  15.693 -0.2068 -1.3189 -1.7064
  632TMC3    C1 9407   2.800   0.420  15.672  0.1499  0.4572 -0.2603
  632TMC3    C2 9408   2.673   0.371  15.670  0.0483 -0.3918 -0.3247
  632TMC3    C3 9409   2.587   0.411  15.566  0.5212  0.4399 -0.2005
  632TMC3    C4 9410   2.853   0.489  15.565 -0.0121  1.1363  0.8546
  632TMC3    C5 9411   2.778   0.488  15.450  0.5062 -0.8177 -0.7172
  632TMC3    C6 9412   2.641   0.460  15.448  0.2094 -0.3499  0.4198
  632TMC3     C 9413   2.901   0.320  15.715  0.6694  0.2455  0.6052
  632TMC3     O 9414   3.019   0.359  15.710 -0.0359  0.2035  0.3253
  632TMC3     H 9415   2.641   0.319  15.760 -0.3104 -1.1627 -0.8955
  632TMC3    H1 9416   2.953   0.531  15.570  1.1547 -1.7615  2.0329
  632TMC3    H2 9417   2.603   0.437  15.350 -0.4696 -0.8754  0.8047
  632TMC3    C7 9418   2.848   0.443  15.331  0.2394 -0.2805 -0.0223
  632TMC3    C8 9419   2.448   0.361  15.568  0.1969  0.8492  0.1384
  632TMC3    O1 9420   2.823   0.497  15.224 -0.1323  0.2927 -0.4624
  632TMC3    O2 9421   2.416   0.297  15.669  0.0577  0.1429  0.0102
  633MPD2     C 9422   2.523   2.400  17.340 -0.1317 -0.0948 -0.2843
  633MPD2    C1 9423   2.574   2.312  17.245 -0.0934  0.4717 -0.2942
  633MPD2    C2 9424   2.595   2.178  17.281  0.2060  0.6757  0.3818
  633MPD2    C3 9425   2.546   2.135  17.397  0.6647 -0.5814 -0.0602
  633MPD2    C4 9426   2.490   2.224  17.483 -0.2917 -0.6129  0.7674
  633MPD2    C5 9427   2.487   2.361  17.460  0.5762 -0.1820  0.7377
  633MPD2     H 9428   2.621   2.099  17.211  2.3619  1.3470  0.4046
  633MPD2    H1 9429   2.457   2.189  17.580  0.3667  0.8229  1.5134
  633MPD2    H2 9430   2.507   2.504  17.314  0.7176  0.3756  1.0515
  633MPD2    H3 9431   2.440   2.431  17.529  0.8824 -1.9912  2.7983
  633MPD2     N 9432   2.558   2.001  17.423 -0.0115  0.0065  0.2517
  633MPD2    H5 9433   2.629   1.950  17.372  0.8745 -0.4175  1.8916
  633MPD2    N1 9434   2.594   2.343  17.107 -0.4719 -0.5093 -0.2602
  633MPD2    H7 9435   2.635   2.271  17.048  1.0178  0.1894 -0.0873
  634TMC3    C1 9436   2.577   2.452  16.900 -0.2278 -0.1617  1.0282
  634TMC3    C2 9437   2.597   2.330  16.834 -0.2492 -0.4992  0.2282
  634TMC3    C3 9438   2.624   2.337  16.700 -0.4719  0.0337  0.0416
  634TMC3    C4 9439   2.590   2.574  16.832 -0.0636 -0.2004 -0.9041
  634TMC3    C5 9440   2.619   2.570  16.698  0.1464  0.4262 -1.0849
  634TMC3    C6 9441   2.639   2.453  16.635 -0.7478 -0.8342  0.3230
  634TMC3     C 9442   2.556   2.462  17.047  0.5007 -0.1844  0.4430
  634TMC3     O 9443   2.506   2.564  17.088 -0.8215 -0.6014  0.8915
  634TMC3     H 9444   2.565   2.239  16.883  0.8405 -0.9577  0.0911
  634TMC3    H1 9445   2.570   2.664  16.890 -0.1973  0.3133 -1.7527
  634TMC3    H2 9446   2.666   2.450  16.530  1.7753  1.6250  0.9154
  634TMC3    C7 9447   2.632   2.692  16.618  0.1300  0.5554  0.3555
  634TMC3    C8 9448   2.628   2.206  16.633 -0.1874  0.6373 -0.5552
  634TMC3    O1 9449   2.703   2.696  16.518  0.5642  0.1050  0.0985
  634TMC3    O2 9450   2.641   2.124  16.717 -0.0758  0.1223 -0.0022
  635TMC3    C1 9451   3.089   3.944   0.138 -0.4674  0.3308  0.6245
  635TMC3    C2 9452   3.076   3.815   0.098  0.7339  1.1561  0.0109
  635TMC3    C3 9453   2.959   3.774   0.046 -0.0386  0.2713  0.5966
  635TMC3    C4 9454   2.986   4.031   0.132 -0.2884 -0.2862 -0.1159
  635TMC3    C5 9455   2.862   3.982   0.102  0.2075 -0.3498  0.0664
  635TMC3    C6 9456   2.848   3.854   0.060 -0.4785 -0.2300 -0.0700
  635TMC3     C 9457   3.216   3.998   0.169  0.1858  0.4103  0.0220
  635TMC3     O 9458   3.221   4.115   0.209  0.2531  0.0301 -0.0025
  635TMC3     H 9459   3.156   3.742   0.106  0.3525  0.9027  1.4710
  635TMC3    H1 9460   3.006   4.132   0.166  0.2119 -0.1036 -0.9749
  635TMC3    H2 9461   2.762   3.828  17.743  1.0243 -1.7371 -1.5543
  635TMC3    C7 9462   2.737   4.059   0.118  0.1881 -0.3035  1.0407
  635TMC3    C8 9463   2.944   3.633   0.010 -0.1094 -0.3269 -0.2760
  635TMC3    O1 9464   2.637   3.994   0.082 -0.3125 -1.2313 -0.3641
  635TMC3    O2 9465   3.038   3.553   0.024 -0.2757  0.2881 -0.4151
  636MPD2     C 9466   4.138   2.728  16.080 -0.0119 -0.5917 -0.2983
  636MPD2    C1 9467   4.155   2.749  16.215  0.9528 -1.2824 -0.0427
  636MPD2    C2 9468   4.213   2.645  16.286 -0.0349 -0.6450 -0.1972
  636MPD2    C3 9469   4.225   2.519  16.230  0.1800 -0.4764 -0.5616
  636MPD2    C4 9470   4.194   2.493  16.101  0.9009 -0.0317  0.0294
  636MPD2    C5 9471   4.146   2.602  16.028  1.3970  0.5922  0.5336
  636MPD2     H 9472   4.242   2.645  16.391 -2.6174 -0.1149  0.5130
  636MPD2    H1 9473   4.196   2.393  16.059 -1.3635  0.1294 -0.5108
  636MPD2    H2 9474   4.089   2.799  16.014 -0.5896 -1.0498 -0.3584
  636MPD2    H3 9475   4.103   2.590  15.929  2.8972  0.0144 -0.0582
  636MPD2     N 9476   4.266   2.416  16.315 -0.0978  0.4770 -0.6498
  636MPD2    H5 9477   4.266   2.447  16.412 -1.7818  2.0325 -1.1312
  636MPD2    N1 9478   4.118   2.869  16.277 -0.5923 -0.5838  0.4519
  636MPD2    H7 9479   4.135   2.884  16.375 -1.1291  1.6863  0.1877
  637TMC3    C1 9480   4.316   2.202  16.389  0.2711  0.9804  0.0021
  637TMC3    C2 9481   4.256   2.252  16.503  0.0046  0.3695  0.3143
  637TMC3    C3 9482   4.327   2.267  16.618  0.9712 -0.0426  0.2232
  637TMC3    C4 9483   4.448   2.160  16.395  0.0399  0.3694  0.7829
  637TMC3    C5 9484   4.513   2.167  16.513 -0.1606  0.3314 -0.0154
  637TMC3    C6 9485   4.451   2.217  16.627 -0.2471  0.5547 -0.1685
  637TMC3     C 9486   4.300   2.291  16.271 -0.0404 -0.1302 -0.5929
  637TMC3     O 9487   4.344   2.249  16.168 -0.8145 -0.0700  0.0390
  637TMC3     H 9488   4.158   2.297  16.489 -0.6473 -0.5291  1.9430
  637TMC3    H1 9489   4.497   2.127  16.304  0.0993 -1.3885  1.4526
  637TMC3    H2 9490   4.524   2.233  16.706 -1.0269 -2.8969  1.2457
  637TMC3    C7 9491   4.619   2.067  16.528  0.2014 -0.1789  0.1903
  637TMC3    C8 9492   4.324   2.408  16.662  0.1396 -0.2315  0.2381
  637TMC3    O1 9493   4.607   1.988  16.617  0.1736 -0.0796  0.0798
  637TMC3    O2 9494   4.240   2.481  16.603  0.4921  0.4461 -0.0033
  638MPD2     C 9495   3.747   1.424  14.983 -0.5200  0.2785  0.1319
  638MPD2    C1 9496   3.829   1.317  14.938  0.2928 -0.0270  0.2465
  638MPD2    C2 9497   3.854   1.217  15.030  0.5370  0.4247 -0.6668
  638MPD2    C3 9498   3.789   1.216  15.151  0.1431  0.7406 -0.0436
  638MPD2    C4 9499   3.709   1.322  15.190 -0.6491 -0.0841  0.3718
  638MPD2    C5 9500   3.694   1.424  15.103 -0.4954  0.3272 -0.1845
  638MPD2     H 9501   3.912   1.129  15.002  0.3810  0.3098 -0.6307
  638MPD2    H1 9502   3.654   1.338  15.282 -1.4289  0.5994 -0.2104
  638MPD2    H2 9503   3.737   1.512  14.920 -1.8894 -1.0453 -1.5053
  638MPD2    H3 9504   3.621   1.499  15.131  0.2064 -0.0051  2.5377
  638MPD2     N 9505   3.805   1.091  15.225 -0.5211 -0.3157  0.5250
  638MPD2    H5 9506   3.844   1.013  15.174 -2.8065 -0.7824 -0.5292
  638MPD2    N1 9507   3.874   1.308  14.805 -0.1090 -0.6681  0.6415
  638MPD2    H7 9508   3.956   1.248  14.802  0.8442  0.6434  0.3848
  639TMC3    C1 9509   3.762   0.935  15.386 -0.3820 -0.3132  0.1960
  639TMC3    C2 9510   3.646   0.883  15.445 -0.4349 -0.1817 -0.4364
  639TMC3    C3 9511   3.648   0.743  15.482  0.0931 -0.0229  0.2934
  639TMC3    C4 9512   3.885   0.865  15.384 -0.3257  0.3070 -0.2324
  639TMC3    C5 9513   3.877   0.738  15.426 -0.1250  0.0998  0.7019
  639TMC3    C6 9514   3.766   0.678  15.476 -0.8541 -0.3523  0.2092
  639TMC3     C 9515   3.768   1.075  15.352 -0.3612 -0.2054 -0.2643
  639TMC3     O 9516   3.713   1.151  15.425  0.0660 -0.0216 -0.2552
  639TMC3     H 9517   3.546   0.924  15.438  0.0758  0.7001 -2.4559
  639TMC3    H1 9518   3.980   0.910  15.357  0.2576 -1.1958 -0.6910
  639TMC3    H2 9519   3.773   0.572  15.496 -1.4407 -1.0047 -3.0072
  639TMC3    C7 9520   3.995   0.661  15.428 -0.2756 -0.5987 -0.7807
  639TMC3    C8 9521   3.556   0.662  15.402  0.5556  0.3215  0.1126
  639TMC3    O1 9522   4.003   0.570  15.513  0.2715 -0.0827  0.0907
  639TMC3    O2 9523   3.608   0.579  15.325 -0.0438  0.2551  0.3424
  640MPD2     C 9524   0.176   0.213   9.952 -0.5624 -0.2044  0.1091
  640MPD2    C1 9525   0.089   0.272   9.859  0.0575 -0.2624 -0.2814
  640MPD2    C2 9526   0.064   0.405   9.866 -0.4364 -0.0772  0.1876
  640MPD2    C3 9527   0.125   0.485   9.965  0.9506 -0.7700 -0.1163
  640MPD2    C4 9528   0.202   0.426  10.062  0.8394 -0.7824 -0.5607
  640MPD2    C5 9529   0.228   0.288  10.049 -0.3002  0.4938  0.0442
  640MPD2     H 9530   0.000   0.455   9.794  0.5057 -0.5000 -0.9298
  640MPD2    H1 9531   0.253   0.479  10.142  0.1108 -0.8248 -0.0736
  640MPD2    H2 9532   0.181   0.104   9.952 -0.2111 -0.1857 -2.2273
  640MPD2    H3 9533   0.294   0.247  10.125  0.3305 -0.1778 -0.8763
  640MPD2     N 9534   0.093   0.624   9.971  0.3514  0.5892  0.2881
  640MPD2    H5 9535   0.123   0.670  10.056  2.5705  1.7990 -1.1466
  640MPD2    N1 9536   0.023   0.182   9.778  0.3191  0.4382 -0.0852
  640MPD2    H7 9537   0.043   0.083   9.789  0.8745  0.5944  0.2847
  641TMC3    C1 9538   4.631   0.096   9.602  0.1213 -0.5805 -0.8228
  641TMC3    C2 9539   4.725   4.733   9.573 -0.5424  0.2413 -0.1819
  641TMC3    C3 9540   4.713   4.645   9.463  0.6087  0.2475  0.6821
  641TMC3    C4 9541   4.521   0.109   9.522  0.4567 -0.5902  0.1466
  641TMC3    C5 9542   4.511   0.027   9.410 -0.6201 -0.1387  0.3371
  641TMC3    C6 9543   4.605   4.670   9.379 -0.2820 -0.0953  0.1272
  641TMC3     C 9544   4.668   0.215   9.683 -0.1497  0.0665  0.3748
  641TMC3     O 9545   4.628   0.325   9.646  0.6939 -0.1901  0.0562
  641TMC3     H 9546   0.079   4.722   9.632 -0.7298 -2.2221 -0.3513
  641TMC3    H1 9547   4.457   0.196   9.531 -2.7844 -2.9433  0.0694
  641TMC3    H2 9548   4.599   4.612   9.288  0.5201 -1.0625  0.6896
  641TMC3    C7 9549   4.402   0.070   9.328  0.4764  0.1134  0.5326
  641TMC3    C8 9550   0.067   4.532   9.437  0.5699 -0.1489  0.0160
  641TMC3    O1 9551   4.338   0.170   9.349 -0.3758 -0.0595 -0.1991
  641TMC3    O2 9552   0.076   4.482   9.325 -0.1280 -0.1310 -0.2417
  642TMC3    C1 9553   0.545   1.255  12.343  0.2112  0.2996  0.6753
  642TMC3    C2 9554   0.636   1.257  12.442  0.4727  0.0439  0.2419
  642TMC3    C3 9555   0.687   1.142  12.500  0.3919 -0.0243 -0.7760
  642TMC3    C4 9556   0.509   1.136  12.285 -0.8227  0.2705  0.1780
  642TMC3    C5 9557   0.555   1.019  12.346  0.0387  0.6281 -0.9555
  642TMC3    C6 9558   0.645   1.017  12.454 -0.6070 -0.2718  0.1053
  642TMC3     C 9559   0.458   1.369  12.329  0.1690 -0.0846 -0.0064
  642TMC3     O 9560   0.510   1.480  12.345 -0.5488 -0.3586 -0.3401
  642TMC3     H 9561   0.666   1.359  12.467  0.3979  0.5104 -1.5907
  642TMC3    H1 9562   0.435   1.137  12.205  0.4044  0.4485 -0.9572
  642TMC3    H2 9563   0.697   0.925  12.478  0.3599  0.9586  2.7022
  642TMC3    C7 9564   0.519   0.898  12.286 -0.2009  0.0985  0.2581
  642TMC3    C8 9565   0.800   1.148  12.592 -0.0035 -0.1137  0.5980
  642TMC3    O1 9566   0.500   0.900  12.165  0.1141 -0.0140 -0.2552
  642TMC3    O2 9567   0.843   1.035  12.619 -0.1869 -0.2868  0.2013
  643TMC3    C1 9568   0.205   0.349   0.118  0.3717  0.5988 -0.5080
  643TMC3    C2 9569   0.085   0.357   0.072 -0.4010 -0.0397 -0.0876
  643TMC3    C3 9570   0.033   0.260  17.741  0.5678  0.1166  0.4307
  643TMC3    C4 9571   0.292   0.255   0.070 -0.2510  0.0875 -0.0705
  643TMC3    C5 9572   0.244   0.160  17.723 -0.6610  0.6208  0.6990
  643TMC3    C6 9573   0.103   0.148  17.703 -0.3365  0.6948  0.4092
  643TMC3     C 9574   0.261   0.449   0.209 -0.4154  0.5897 -0.0062
  643TMC3     O 9575   0.242   0.567   0.187 -0.5200 -0.1028  0.3285
  643TMC3     H 9576   0.020   0.430   0.119  1.0892  0.7973  0.6728
  643TMC3    H1 9577   0.399   0.266   0.083 -0.4282  1.3034  0.3502
  643TMC3    H2 9578   0.056   0.087  17.627 -0.8406 -1.0205  2.0932
  643TMC3    C7 9579   0.313   0.171  17.605 -0.4290  0.3434  0.6329
  643TMC3    C8 9580   4.699   0.313  17.623 -0.2665 -0.9216  0.1842
  643TMC3    O1 9581   0.375   0.273  17.583 -0.3493 -0.1057 -0.0372
  643TMC3    O2 9582   4.651   0.231  17.549 -0.2333  0.2670 -0.5162
  644MPD2     C 9583   4.431   0.611   9.677 -0.4786 -1.1211 -0.1897
  644MPD2    C1 9584   4.419   0.595   9.537 -0.6945 -0.4109 -0.3744
  644MPD2    C2 9585   4.332   0.690   9.481 -0.1164  0.0743 -0.6215
  644MPD2    C3 9586   4.264   0.784   9.554  0.0984 -0.5477 -0.3315
  644MPD2    C4 9587   4.265   0.784   9.691 -0.3602  0.4427 -0.0925
  644MPD2    C5 9588   4.354   0.695   9.755  0.1832  0.2812 -0.2080
  644MPD2     H 9589   4.314   0.681   9.374  1.7492 -1.5774 -0.7819
  644MPD2    H1 9590   4.208   0.848   9.758 -1.1543  0.0393 -0.3975
  644MPD2    H2 9591   4.498   0.536   9.718  0.9301  0.5161  0.5215
  644MPD2    H3 9592   4.366   0.696   9.862  1.9378 -0.8231 -0.4073
  644MPD2     N 9593   4.181   0.874   9.483 -0.1081 -0.5309  0.1042
  644MPD2    H5 9594   4.201   0.881   9.383  1.2712  0.2644  0.4501
  644MPD2    N1 9595   4.503   0.505   9.465  0.7274  0.5540 -0.0023
  644MPD2    H7 9596   4.574   0.456   9.519 -0.0985 -1.2513 -0.5532
  645TMC3    C1 9597   3.993   1.014   9.454 -0.4567 -0.2398 -0.3913
  645TMC3    C2 9598   3.924   1.123   9.497  0.4860 -0.3219  0.3079
  645TMC3    C3 9599   3.810   1.160   9.425 -0.4835 -0.4220  0.5325
  645TMC3    C4 9600   3.951   0.945   9.341 -0.2305  0.1029 -0.1778
  645TMC3    C5 9601   3.836   0.986   9.275 -0.2667 -0.0424 -0.5769
  645TMC3    C6 9602   3.760   1.094   9.314 -0.0287  0.3346  0.0398
  645TMC3     C 9603   4.080   0.950   9.544 -0.6139 -0.5402 -0.2188
  645TMC3     O 9604   4.056   0.960   9.665  0.9898 -0.2996  0.2749
  645TMC3     H 9605   3.961   1.168   9.589 -0.5884  0.8689  0.1536
  645TMC3    H1 9606   3.996   0.850   9.318 -0.0891  0.1102  0.0677
  645TMC3    H2 9607   3.685   1.140   9.251  2.4629 -0.6155 -3.6135
  645TMC3    C7 9608   3.822   0.934   9.145 -0.2556  0.0226 -0.6164
  645TMC3    C8 9609   3.731   1.274   9.464 -0.8656 -0.3570 -0.4882
  645TMC3    O1 9610   3.923   0.885   9.098  0.1400  0.0529  0.4905
  645TMC3    O2 9611   3.629   1.292   9.401 -0.6522 -0.0785 -0.2613
  646MPD2     C 9612   3.873   4.691  14.719 -0.2584 -0.3581 -0.0975
  646MPD2    C1 9613   3.803   4.725  14.832  0.4967 -0.4569 -0.5302
  646MPD2    C2 9614   3.704   0.088  14.823  0.2311  0.4907  0.1272
  646MPD2    C3 9615   3.680   0.145  14.702 -0.1221  0.1988 -0.6059
  646MPD2    C4 9616   3.755   0.123  14.594  0.2678 -0.3277 -0.2421
  646MPD2    C5 9617   3.847   0.026  14.606  0.0644  0.1104 -0.1936
  646MPD2     H 9618   3.653   0.126  14.911  0.2559  1.0063 -0.0882
  646MPD2    H1 9619   3.748   0.184  14.504 -1.6119 -0.8545 -0.4336
  646MPD2    H2 9620   3.950   4.615  14.726 -0.7883 -0.9443 -0.5962
  646MPD2    H3 9621   3.920   0.006  14.529 -1.2323 -0.3352 -1.3015
  646MPD2     N 9622   3.562   0.225  14.702  0.1503  0.9148 -0.3282
  646MPD2    H5 9623   3.493   0.211  14.775  1.0291 -1.3257  0.0578
  646MPD2    N1 9624   3.827   4.654  14.954 -0.1154 -0.5875 -0.7163
  646MPD2    H7 9625   3.907   4.594  14.941  1.2603  1.0413  0.1836
  647TMC3    C1 9626   3.831   4.630  15.180 -0.1803  0.2839 -0.2785
  647TMC3    C2 9627   3.767   4.631  15.306 -0.1249  0.2739 -0.0984
  647TMC3    C3 9628   3.838   4.579  15.411  0.6038 -0.8816  0.2222
  647TMC3    C4 9629   3.960   4.583  15.168  0.5284  0.7435  0.8796
  647TMC3    C5 9630   4.029   4.550  15.279  0.2049 -0.3052  0.8091
  647TMC3    C6 9631   3.969   4.560  15.402  0.0581  0.5087 -0.6609
  647TMC3     C 9632   3.761   4.679  15.070  0.3817  0.0382  0.3566
  647TMC3     O 9633   3.658   0.001  15.089 -0.2101  0.4774  0.2060
  647TMC3     H 9634   3.661   4.650  15.314 -0.2566 -0.9680  1.0099
  647TMC3    H1 9635   4.023   4.586  15.079 -0.9354  0.4594 -0.1738
  647TMC3    H2 9636   4.024   4.517  15.486  1.9162  1.3223 -1.4615
  647TMC3    C7 9637   4.111   4.435  15.270  0.6480 -0.2048  0.6510
  647TMC3    C8 9638   3.790   4.454  15.474 -0.3452 -0.1811  0.4626
  647TMC3    O1 9639   4.201   4.419  15.352  0.1544 -0.2929 -0.2050
  647TMC3    O2 9640   3.846   4.412  15.575 -0.1985  0.0494  1.1041
  648TMC3    C1 9641   3.148   2.337  15.962  0.1163  0.5837  0.2447
  648TMC3    C2 9642   3.144   2.210  15.907  0.4556  0.6844 -1.2522
  648TMC3    C3 9643   3.176   2.188  15.776  0.0262  0.2070  0.4639
  648TMC3    C4 9644   3.196   2.439  15.888  0.1764 -0.8030  0.5795
  648TMC3    C5 9645   3.220   2.421  15.758  0.1496  0.2507 -0.0707
  648TMC3    C6 9646   3.205   2.298  15.696 -0.1877 -0.8198 -0.1263
  648TMC3     C 9647   3.170   2.350  16.104  0.1246  0.4653 -0.1272
  648TMC3     O 9648   3.244   2.439  16.139  0.2941  0.1831 -0.0602
  648TMC3     H 9649   3.114   2.127  15.969  2.2747  1.0186  0.0902
  648TMC3    H1 9650   3.214   2.531  15.943 -1.7944 -0.2005  0.2479
  648TMC3    H2 9651   3.239   2.277  15.595 -1.1248  0.9666 -0.7998
  648TMC3    C7 9652   3.183   2.531  15.679 -0.8000  0.3737  0.2748
  648TMC3    C8 9653   3.170   2.054  15.730  0.3474  0.6083 -0.5023
  648TMC3    O1 9654   3.241   2.543  15.572  0.4475 -0.3285  0.4080
  648TMC3    O2 9655   3.119   1.970  15.801  0.1911  0.5440  0.0003
  649TMC3    C1 9656   1.968   3.376  12.836 -0.3856  0.2081 -0.1548
  649TMC3    C2 9657   2.098   3.416  12.805 -0.4184  0.2323  0.3005
  649TMC3    C3 9658   2.190   3.420  12.908 -0.2069  0.4495  0.0653
  649TMC3    C4 9659   1.941   3.332  12.963 -0.2820 -0.3367  0.4270
  649TMC3    C5 9660   2.036   3.330  13.059 -0.0768  0.8744  0.2985
  649TMC3    C6 9661   2.164   3.378  13.037  0.0813  0.3802  0.4611
  649TMC3     C 9662   1.852   3.414  12.756  0.1160 -0.4915  0.1446
  649TMC3     O 9663   1.749   3.424  12.827  0.1302  0.2748  0.3534
  649TMC3     H 9664   2.117   3.453  12.704  1.7137 -1.2429  0.1547
  649TMC3    H1 9665   1.845   3.283  12.981  0.1200 -1.1389  0.4046
  649TMC3    H2 9666   2.245   3.377  13.109  1.9303  1.7958 -1.5921
  649TMC3    C7 9667   1.995   3.270  13.186 -0.1204 -0.7275 -0.3811
  649TMC3    C8 9668   2.326   3.473  12.893 -0.8271  0.0152  0.0800
  649TMC3    O1 9669   1.873   3.277  13.213  0.2717  0.4651 -0.2628
  649TMC3    O2 9670   2.382   3.519  12.989  0.3064 -0.2784 -0.7375
  650TMC3    C1 9671   4.608   0.335  12.673  0.4705  0.1581  0.1708
  650TMC3    C2 9672   4.538   0.445  12.716 -0.2492 -0.3729 -0.1354
  650TMC3    C3 9673   4.441   0.496  12.632  0.6625  0.5302  0.2002
  650TMC3    C4 9674   4.601   0.297  12.541 -0.0422  0.8969  0.4681
  650TMC3    C5 9675   4.523   0.368  12.454 -0.3827 -0.2345 -0.0993
  650TMC3    C6 9676   4.440   0.468  12.501 -0.1676  0.0274  0.1297
  650TMC3     C 9677   4.697   0.261  12.758 -0.3361 -0.0993 -0.2882
  650TMC3     O 9678   0.021   0.168  12.704 -0.0852  0.0959  0.0330
  650TMC3     H 9679   4.562   0.489  12.812 -1.1085 -1.7231  0.6874
  650TMC3    H1 9680   4.674   0.223  12.511  0.0002  0.5521  1.4093
  650TMC3    H2 9681   4.381   0.530  12.435 -0.2473 -3.3265 -2.9023
  650TMC3    C7 9682   4.580   0.368  12.329  0.6268  0.5632 -0.0345
  650TMC3    C8 9683   4.409   0.635  12.650 -0.0821 -1.1976  0.4295
  650TMC3    O1 9684   4.639   0.267  12.293  0.6007 -0.0712  0.1260
  650TMC3    O2 9685   4.479   0.705  12.576 -0.1673  0.5447 -0.0075
  651MPD2     C 9686   3.349   2.492  11.151  0.2399 -0.9233  0.3609
  651MPD2    C1 9687   3.354   2.627  11.119 -0.0004  0.3638 -0.3476
  651MPD2    C2 9688   3.453   2.676  11.041  0.5459 -0.4739  0.4179
  651MPD2    C3 9689   3.561   2.594  11.023  0.0115 -0.0971 -0.4999
  651MPD2    C4 9690   3.565   2.470  11.074  0.2014  0.7284 -0.2611
  651MPD2    C5 9691   3.458   2.420  11.136  0.1918  0.7516  0.0947
  651MPD2     H 9692   3.443   2.777  11.002 -0.3778 -0.4352  0.7527
  651MPD2    H1 9693   3.644   2.396  11.068 -0.3179  0.4560 -3.6831
  651MPD2    H2 9694   3.261   2.437  11.182 -1.4624  0.6310 -1.6200
  651MPD2    H3 9695   3.458   2.317  11.168 -1.9597  1.2952  1.8181
  651MPD2     N 9696   3.672   2.647  10.947 -0.0513  0.2604  0.0015
  651MPD2    H5 9697   3.650   2.732  10.896  1.1663  0.7036  0.2279
  651MPD2    N1 9698   3.242   2.711  11.154 -0.2064  0.6547 -0.4669
  651MPD2    H7 9699   3.247   2.805  11.117  0.1744  0.0997 -1.8112
  652TMC3    C1 9700   4.100   2.661  10.724 -0.5214 -0.1855 -0.2190
  652TMC3    C2 9701   4.007   2.593  10.797  0.0067 -0.2636 -0.3179
  652TMC3    C3 9702   3.891   2.657  10.844  0.5516 -0.8706  0.0949
  652TMC3    C4 9703   4.078   2.794  10.699  0.0187 -0.6751  0.4304
  652TMC3    C5 9704   3.964   2.858  10.739 -0.8946  0.2310 -0.3221
  652TMC3    C6 9705   3.872   2.788  10.812  0.2370  0.7097 -0.1156
  652TMC3     C 9706   4.213   2.590  10.675  0.0760 -1.1681  0.0644
  652TMC3     O 9707   4.238   2.479  10.727 -1.0318  0.3199  0.0705
  652TMC3     H 9708   4.020   2.485  10.800  1.3232 -0.1435 -1.9657
  652TMC3    H1 9709   4.156   2.846  10.645 -0.2853 -0.4051  0.2488
  652TMC3    H2 9710   3.790   2.849  10.848 -1.6675 -3.7055  3.1169
  652TMC3    C7 9711   3.930   2.980  10.678 -0.7798 -1.1626 -0.1315
  652TMC3    C8 9712   3.798   2.585  10.927 -0.0328  0.7119  0.2261
  652TMC3    O1 9713   3.812   3.014  10.666 -0.0492  0.3455  0.0357
  652TMC3    O2 9714   3.836   2.474  10.953  0.3504 -0.1295 -0.0152
  653MPD2     C 9715   1.896   2.384  17.471  0.1469  0.2794  0.5923
  653MPD2    C1 9716   2.006   2.393  17.397 -0.0756 -0.4262  0.8488
  653MPD2    C2 9717   2.022   2.313  17.281  0.0725 -0.4568 -0.2611
  653MPD2    C3 9718   1.934   2.207  17.256 -0.1044  0.6456 -0.5247
  653MPD2    C4 9719   1.825   2.195  17.344  0.3800  0.5843 -0.0287
  653MPD2    C5 9720   1.802   2.287  17.444 -0.2295  0.5757 -0.2246
  653MPD2     H 9721   2.110   2.319  17.218 -0.7007  1.2425 -1.1796
  653MPD2    H1 9722   1.752   2.115  17.339  2.1906 -0.9743 -1.1243
  653MPD2    H2 9723   1.863   2.460  17.541 -1.1865  0.4502 -0.2237
  653MPD2    H3 9724   1.713   2.281  17.505  0.6398  0.4185  1.0313
  653MPD2     N 9725   1.960   2.113  17.157 -0.8232  0.5429  0.1759
  653MPD2    H5 9726   2.015   2.144  17.077  0.1346  0.1562  0.6831
  653MPD2    N1 9727   2.108   2.491  17.413 -0.0331 -0.0675  0.1237
  653MPD2    H7 9728   2.181   2.490  17.342  0.1580 -1.7489  0.3343
  654TMC3    C1 9729   1.927   1.929  17.025  0.3756  0.4285 -0.3159
  654TMC3    C2 9730   1.900   2.003  16.910  0.6745  0.0037 -1.2079
  654TMC3    C3 9731   1.893   1.942  16.790 -0.1870  0.1979 -0.3726
  654TMC3    C4 9732   1.928   1.799  17.013  1.2639 -0.1093  0.1920
  654TMC3    C5 9733   1.907   1.728  16.892 -0.2515 -0.6169  0.2807
  654TMC3    C6 9734   1.889   1.805  16.777 -0.2025 -0.1836 -0.0722
  654TMC3     C 9735   1.910   1.984  17.154 -0.0022  0.2911 -0.1337
  654TMC3     O 9736   1.853   1.915  17.241  0.0166 -0.1464  0.0874
  654TMC3     H 9737   1.879   2.109  16.917  1.0216  0.0679 -1.1306
  654TMC3    H1 9738   1.935   1.752  17.110  1.9835 -0.7097 -0.1477
  654TMC3    H2 9739   1.873   1.756  16.682  0.7512 -1.5957  0.4840
  654TMC3    C7 9740   1.926   1.589  16.872  0.6444 -0.1567 -0.5504
  654TMC3    C8 9741   1.840   2.021  16.678 -0.7371 -0.4474  0.3464
  654TMC3    O1 9742   1.924   1.549  16.754  0.0808  0.5629  0.2779
  654TMC3    O2 9743   1.786   2.128  16.710 -0.5004 -0.2577  0.1211
  655MPD2     C 9744   3.834   2.406  15.537  0.6346  0.6956  0.7448
  655MPD2    C1 9745   3.777   2.500  15.450  1.0171  0.0776  0.6282
  655MPD2    C2 9746   3.808   2.498  15.321 -0.0519  0.3251 -0.3976
  655MPD2    C3 9747   3.880   2.393  15.275  0.6735 -0.6603 -0.2782
  655MPD2    C4 9748   3.920   2.292  15.359 -0.2590 -0.3697 -0.0160
  655MPD2    C5 9749   3.907   2.301  15.491  0.5464  0.3909 -0.3371
  655MPD2     H 9750   3.773   2.582  15.262 -0.2348  1.0870  0.7955
  655MPD2    H1 9751   3.980   2.211  15.320  0.1836 -0.6394  1.2576
  655MPD2    H2 9752   3.822   2.399  15.644 -0.0649  0.5428  0.6544
  655MPD2    H3 9753   3.947   2.240  15.571 -1.0894  0.1547  0.2974
  655MPD2     N 9754   3.915   2.373  15.137  0.5717  0.0057  0.3218
  655MPD2    H5 9755   3.938   2.282  15.097  0.8884  0.5594 -0.7838
  655MPD2    N1 9756   3.699   2.608  15.507  0.1861 -0.0105  0.3500
  655MPD2    H7 9757   3.679   2.681  15.440  1.2321  0.0419  0.0873
  656TMC3    C1 9758   3.561   2.732  15.659  0.0129 -0.2709 -0.7557
  656TMC3    C2 9759   3.497   2.733  15.783 -0.5029  0.2701  0.0283
  656TMC3    C3 9760   3.428   2.848  15.824  0.6969  0.0208 -0.0983
  656TMC3    C4 9761   3.564   2.845  15.580  0.1936  0.6918  0.0030
  656TMC3    C5 9762   3.489   2.958  15.622 -0.9981  0.9842  0.6479
  656TMC3    C6 9763   3.424   2.961  15.739  0.1144 -0.2378 -0.8292
  656TMC3     C 9764   3.654   2.619  15.635 -0.3285  0.2135  0.5145
  656TMC3     O 9765   3.672   2.544  15.731 -0.6547  0.0568 -0.0363
  656TMC3     H 9766   3.503   2.648  15.851 -2.0090  0.5607  0.5191
  656TMC3    H1 9767   3.620   2.840  15.487 -1.2263 -0.0355 -0.8110
  656TMC3    H2 9768   3.353   3.039  15.764 -1.5600 -1.9550 -0.2015
  656TMC3    C7 9769   3.457   3.058  15.518  0.1801 -0.6247 -0.2147
  656TMC3    C8 9770   3.354   2.835  15.953  0.3990  0.5182  0.2452
  656TMC3    O1 9771   3.497   3.034  15.405 -0.1212  0.0896 -0.5456
  656TMC3    O2 9772   3.361   2.727  16.010  0.3658 -0.6243 -0.5899
  657TMC3    C1 9773   2.285   2.064  15.292  0.0428 -0.1350 -0.0131
  657TMC3    C2 9774   2.387   2.154  15.263  0.5542  0.1283  0.2122
  657TMC3    C3 9775   2.359   2.277  15.213  0.5407  0.5368  0.0339
  657TMC3    C4 9776   2.156   2.089  15.270 -0.4553 -0.4069 -0.1051
  657TMC3    C5 9777   2.125   2.217  15.234 -0.2923 -0.5911 -0.0230
  657TMC3    C6 9778   2.224   2.313  15.204  0.5632  0.1037 -0.4972
  657TMC3     C 9779   2.317   1.928  15.324 -0.5620 -0.1619  0.3334
  657TMC3     O 9780   2.226   1.854  15.353 -0.6998  0.1798  0.2612
  657TMC3     H 9781   2.493   2.133  15.270 -0.0371 -1.7332  3.5453
  657TMC3    H1 9782   2.079   2.014  15.284  0.0337 -1.1119 -1.2360
  657TMC3    H2 9783   2.207   2.420  15.194  1.4472  0.0819 -2.2825
  657TMC3    C7 9784   1.998   2.249  15.181 -0.4768  0.2368 -0.0975
  657TMC3    C8 9785   2.456   2.383  15.226 -0.7115 -0.0634 -0.5255
  657TMC3    O1 9786   1.912   2.165  15.203 -0.3467 -0.1102  0.0463
  657TMC3    O2 9787   2.435   2.481  15.157 -0.3361  0.0494 -0.1944
  658MPD2     C 9788   4.308   2.540  14.477 -0.3423  0.8268  0.2033
  658MPD2    C1 9789   4.163   2.563  14.457  0.0564 -0.6769 -0.2151
  658MPD2    C2 9790   4.123   2.617  14.331  0.9373  0.0831 -0.7626
  658MPD2    C3 9791   4.209   2.647  14.222 -0.6886 -0.5379  0.0413
  658MPD2    C4 9792   4.344   2.629  14.243 -0.3995  0.7253  0.5873
  658MPD2    C5 9793   4.389   2.577  14.368 -0.1675  0.2237  0.7449
  658MPD2     H 9794   4.018   2.633  14.308  0.6540 -0.9789 -0.2376
  658MPD2    H1 9795   4.425   2.661  14.178 -1.7376 -1.8063 -2.3242
  658MPD2    H2 9796   4.358   2.498  14.563 -2.3739  0.6293  1.2988
  658MPD2    H3 9797   4.492   2.560  14.396 -0.4194 -0.5735  1.2055
  658MPD2     N 9798   4.157   2.713  14.113  0.5496  1.1080 -0.2118
  658MPD2    H5 9799   4.060   2.739  14.127  0.5922  2.5136 -2.5109
  658MPD2    N1 9800   4.078   2.515  14.564 -0.0591 -0.0806  0.4729
  658MPD2    H7 9801   4.128   2.479  14.644 -0.6451 -2.0766 -0.0645
  659TMC3    C1 9802   3.871   2.485  14.686 -0.8219  0.2386  1.0445
  659TMC3    C2 9803   3.929   2.491  14.808 -0.2359  0.2254 -0.2634
  659TMC3    C3 9804   3.869   2.420  14.911  0.7595 -0.4934  0.2333
  659TMC3    C4 9805   3.758   2.406  14.669 -0.7665  0.3796 -0.2830
  659TMC3    C5 9806   3.709   2.335  14.776 -0.3911  0.4358  0.0606
  659TMC3    C6 9807   3.766   2.335  14.898 -0.6773  0.2774  0.2904
  659TMC3     C 9808   3.940   2.530  14.566 -0.4123  0.7345 -0.3849
  659TMC3     O 9809   3.871   2.583  14.483 -0.1150  0.0872  0.2979
  659TMC3     H 9810   4.005   2.565  14.829 -0.2518  0.9813 -2.9035
  659TMC3    H1 9811   3.708   2.399  14.573 -2.4032  0.1099  0.6019
  659TMC3    H2 9812   3.730   2.280  14.984  0.4685  2.0985  1.9232
  659TMC3    C7 9813   3.567   2.322  14.775 -0.0212 -0.3573  0.2085
  659TMC3    C8 9814   3.893   2.469  15.045  0.9199  0.7022  0.5599
  659TMC3    O1 9815   3.507   2.414  14.719 -0.2348  0.4638  0.0398
  659TMC3    O2 9816   3.910   2.589  15.055 -0.4466  0.3095  0.4207
  660MPD2     C 9817   1.779   1.601  12.864 -0.4241 -0.0701  0.3641
  660MPD2    C1 9818   1.649   1.639  12.838 -0.1351 -0.2090  0.4051
  660MPD2    C2 9819   1.549   1.634  12.941  0.5402  0.1309 -0.0843
  660MPD2    C3 9820   1.580   1.567  13.056  0.1615 -0.4715 -0.2260
  660MPD2    C4 9821   1.707   1.535  13.078 -0.1102 -0.2308  0.4651
  660MPD2    C5 9822   1.806   1.542  12.985 -0.4902 -0.1899  0.4248
  660MPD2     H 9823   1.446   1.664  12.931  0.5507  0.1077 -0.2566
  660MPD2    H1 9824   1.735   1.478  13.167 -1.9400 -0.8238  0.6579
  660MPD2    H2 9825   1.859   1.623  12.794 -1.9471 -0.2499 -1.4266
  660MPD2    H3 9826   1.904   1.500  13.003 -0.2507 -0.5814 -1.7709
  660MPD2     N 9827   1.487   1.519  13.152  0.7863  0.3475  0.1372
  660MPD2    H5 9828   1.517   1.455  13.225  0.1300  1.8473  1.7269
  660MPD2    N1 9829   1.618   1.688  12.702  0.2538  0.3206  0.2145
  660MPD2    H7 9830   1.689   1.708  12.633  0.5766 -2.3789 -0.2272
  661TMC3    C1 9831   1.479   1.777  12.541  0.2658  0.3113  0.0456
  661TMC3    C2 9832   1.561   1.747  12.433 -0.6268  0.4350  1.4336
  661TMC3    C3 9833   1.519   1.771  12.306  0.5618  0.4349  0.0755
  661TMC3    C4 9834   1.355   1.822  12.516  0.4304 -0.0473  0.7971
  661TMC3    C5 9835   1.309   1.840  12.390 -0.4487  0.3235  0.6365
  661TMC3    C6 9836   1.395   1.825  12.282  0.9827 -0.6082  0.9670
  661TMC3     C 9837   1.489   1.716  12.670  0.3583 -0.2550  0.6862
  661TMC3     O 9838   1.387   1.684  12.727  0.0555 -0.4386  0.1548
  661TMC3     H 9839   1.648   1.683  12.441 -0.7801 -0.4933 -4.0833
  661TMC3    H1 9840   1.292   1.840  12.603 -0.0533 -2.0101  0.8702
  661TMC3    H2 9841   1.368   1.836  12.178 -0.6436  0.9492  1.5484
  661TMC3    C7 9842   1.168   1.831  12.381 -0.9232 -0.4450  0.3360
  661TMC3    C8 9843   1.620   1.791  12.204  0.1364 -0.9355  0.1776
  661TMC3    O1 9844   1.105   1.866  12.475 -0.2647 -0.1237  0.8209
  661TMC3    O2 9845   1.583   1.803  12.089  0.2181  0.4168 -0.0167
  662MPD2     C 9846   1.529   1.358  17.406 -0.5444 -0.2992 -0.1843
  662MPD2    C1 9847   1.605   1.265  17.469  0.1542  0.3362  0.0941
  662MPD2    C2 9848   1.598   1.257  17.606 -0.0849 -0.5025  0.4662
  662MPD2    C3 9849   1.514   1.338  17.677  0.3566 -0.7022  0.2459
  662MPD2    C4 9850   1.433   1.428  17.607 -0.1715  0.8055  0.0709
  662MPD2    C5 9851   1.443   1.439  17.473 -0.1319 -0.1242  0.4125
  662MPD2     H 9852   1.661   1.186  17.659 -0.0806 -1.1253 -0.3685
  662MPD2    H1 9853   1.366   1.501  17.649  2.7112  2.7397  1.2979
  662MPD2    H2 9854   1.525   1.369  17.298  1.1949 -1.6956 -0.4033
  662MPD2    H3 9855   1.369   1.496  17.417 -0.8973 -1.3010  0.2243
  662MPD2     N 9856   1.493   1.330   0.076 -0.1468 -0.4868  0.4741
  662MPD2    H5 9857   1.423   1.396   0.110  2.2786  2.2992  0.1506
  662MPD2    N1 9858   1.681   1.173  17.399 -0.1199  0.0849 -0.4343
  662MPD2    H7 9859   1.733   1.110  17.459  0.3350  1.0712  0.2000
  663TMC3    C1 9860   1.789   1.056  17.220 -0.2335  0.3275 -0.2599
  663TMC3    C2 9861   1.879   1.003  17.313 -0.0110  0.7640  0.6413
  663TMC3    C3 9862   1.975   0.912  17.269  0.2924  0.5819 -0.0865
  663TMC3    C4 9863   1.786   1.017  17.090 -0.1226 -0.4361 -0.0976
  663TMC3    C5 9864   1.874   0.922  17.052 -0.3030 -0.1980 -0.1226
  663TMC3    C6 9865   1.962   0.866  17.141  0.1739  0.1414 -0.6606
  663TMC3     C 9866   1.689   1.157  17.262  0.6663  0.2453  0.4565
  663TMC3     O 9867   1.606   1.195  17.180  0.0705 -0.1037 -0.0063
  663TMC3     H 9868   1.891   1.053  17.409 -2.7410  2.1316  0.2878
  663TMC3    H1 9869   1.710   1.045  17.018  0.6143  0.8123 -0.4142
  663TMC3    H2 9870   2.043   0.804  17.105 -1.3229 -1.5570 -1.1532
  663TMC3    C7 9871   1.793   0.814  16.990  0.1647  0.1770  1.0827
  663TMC3    C8 9872   2.011   0.804  17.360  0.9272 -0.2854  0.2243
  663TMC3    O1 9873   1.689   0.839  16.928  0.2836  0.5193 -0.2089
  663TMC3    O2 9874   2.019   0.693  17.317 -1.4420 -0.5908 -0.2610
  664MPD2     C 9875   0.304   4.018  17.540  0.0732 -0.6561  0.3589
  664MPD2    C1 9876   0.397   4.085  17.614  0.2254 -0.1765 -0.1256
  664MPD2    C2 9877   0.432   4.032  17.737  0.0718 -0.0740  0.2818
  664MPD2    C3 9878   0.346   3.934   0.052 -0.7581 -0.3804  0.3696
  664MPD2    C4 9879   0.250   3.877  17.722 -0.3026  0.3176 -0.4402
  664MPD2    C5 9880   0.234   3.913  17.594 -0.0376  0.0877  0.1728
  664MPD2     H 9881   0.503   4.090   0.052  1.7077 -1.6310 -0.2067
  664MPD2    H1 9882   0.171   3.818   0.024 -0.2191  0.1699 -0.4845
  664MPD2    H2 9883   0.273   4.045  17.439  1.0864  0.3853  0.3294
  664MPD2    H3 9884   0.154   3.872  17.532 -1.1554  2.5854 -0.0732
  664MPD2     N 9885   0.352   3.925   0.194  0.3001  0.0377 -0.2041
  664MPD2    H5 9886   0.445   3.953   0.223 -0.6348  5.4761 -2.2842
  664MPD2    N1 9887   0.463   4.195  17.564 -0.4395  0.4629 -0.3701
  664MPD2    H7 9888   0.540   4.234  17.617  0.4603 -1.7833 -0.0556
  665TMC3    C1 9889   0.317   3.850   0.412  0.2438 -0.5818  0.3574
  665TMC3    C2 9890   0.244   3.777   0.498 -0.0055  0.2287 -0.0131
  665TMC3    C3 9891   0.289   3.774   0.625  0.2363  0.5167 -0.5809
  665TMC3    C4 9892   0.407   3.942   0.456 -0.6896 -0.3620 -0.6299
  665TMC3    C5 9893   0.450   3.942   0.586 -0.8579 -0.2800  0.1248
  665TMC3    C6 9894   0.395   3.851   0.667  0.1070  0.1805  0.3080
  665TMC3     C 9895   0.263   3.858   0.277  0.4875  0.1750  0.0174
  665TMC3     O 9896   0.166   3.795   0.251  0.1164  0.1457 -0.2327
  665TMC3     H 9897   0.159   3.720   0.463  0.7631 -1.3944  0.7615
  665TMC3    H1 9898   0.417   4.029   0.393  3.0704  0.4637  1.0613
  665TMC3    H2 9899   0.423   3.837   0.771 -1.3359  0.8456  0.7738
  665TMC3    C7 9900   0.549   4.032   0.626 -0.1985  0.2948 -0.3431
  665TMC3    C8 9901   0.212   3.722   0.733 -0.2285  0.2745 -0.4057
  665TMC3    O1 9902   0.636   4.066   0.544 -0.8770  0.4298 -0.1443
  665TMC3    O2 9903   0.238   3.764   0.840  0.2247 -0.1264  0.5313
  666TMC3    C1 9904   4.189   3.804   9.732  0.0547  0.1761  0.7484
  666TMC3    C2 9905   4.328   3.793   9.733 -0.2682 -0.7026 -0.1806
  666TMC3    C3 9906   4.398   3.905   9.764  0.3838 -0.4802 -0.0086
  666TMC3    C4 9907   4.122   3.922   9.747  0.8452  0.5132 -0.1514
  666TMC3    C5 9908   4.199   4.034   9.770 -0.1192 -0.0534  0.2390
  666TMC3    C6 9909   4.334   4.023   9.785  0.7616 -0.0198 -0.3916
  666TMC3     C 9910   4.109   3.680   9.733  0.1954  0.1616  0.0089
  666TMC3     O 9911   3.989   3.702   9.750 -0.2440  0.3304  0.0383
  666TMC3     H 9912   4.381   3.700   9.718  0.7360 -0.0102 -0.9160
  666TMC3    H1 9913   4.015   3.936   9.739  0.4646 -1.8446  0.7451
  666TMC3    H2 9914   4.385   4.109   9.826 -1.3167  1.6103 -1.2591
  666TMC3    C7 9915   4.145   4.168   9.761  0.3608 -0.1887 -0.3272
  666TMC3    C8 9916   4.507   3.876   9.853  0.0699 -0.0044 -0.5181
  666TMC3    O1 9917   4.218   4.253   9.817 -0.5094 -0.1529 -0.1463
  666TMC3    O2 9918   4.494   3.768   9.911  0.4259  0.4301  0.3863
  667MPD2     C 9919   1.045   3.491  14.417 -0.1092  0.9131 -0.0208
  667MPD2    C1 9920   0.994   3.554  14.529  0.8812 -0.1543  0.7246
  667MPD2    C2 9921   0.894   3.491  14.604  0.2840  0.1404  0.4101
  667MPD2    C3 9922   0.841   3.366  14.562 -0.3179  0.3486  0.7273
  667MPD2    C4 9923   0.907   3.303  14.453  0.2741 -0.6979 -0.7175
  667MPD2    C5 9924   1.004   3.367  14.386  0.1048  0.6029 -0.6112
  667MPD2     H 9925   0.850   3.545  14.687  2.1413  0.3644  1.2446
  667MPD2    H1 9926   0.880   3.202  14.425  1.7723 -1.3172  0.0819
  667MPD2    H2 9927   1.124   3.529  14.354  0.7065 -0.1068  0.3843
  667MPD2    H3 9928   1.065   3.329  14.304  1.2854 -0.0032  0.5520
  667MPD2     N 9929   0.735   3.294  14.624  0.1140  0.0477 -1.0730
  667MPD2    H5 9930   0.717   3.199  14.594  2.4493 -0.3786 -1.1821
  667MPD2    N1 9931   1.027   3.685  14.566  0.0713  0.2477  0.4636
  667MPD2    H7 9932   0.978   3.718  14.648  0.6035 -3.4366  2.2989
  668TMC3    C1 9933   1.105   3.904  14.549  0.0809 -0.2046 -0.1664
  668TMC3    C2 9934   1.120   4.006  14.465 -0.5531  0.3121 -0.1213
  668TMC3    C3 9935   1.138   4.127  14.524  0.3453 -0.6030  0.0891
  668TMC3    C4 9936   1.081   3.915  14.684  0.6094  0.2991  0.3356
  668TMC3    C5 9937   1.098   4.044  14.728  0.0129  0.4530 -0.0482
  668TMC3    C6 9938   1.130   4.152  14.656  0.2059  1.0512  0.5017
  668TMC3     C 9939   1.100   3.771  14.494 -0.3584 -0.7957  0.4933
  668TMC3     O 9940   1.154   3.758  14.384  0.4835 -0.0345 -0.2811
  668TMC3     H 9941   1.146   3.985  14.362 -2.5383  0.7821 -0.7172
  668TMC3    H1 9942   1.092   3.830  14.749  0.0370  1.2382  1.6635
  668TMC3    H2 9943   1.131   4.252  14.697  0.7452  1.5914 -0.8624
  668TMC3    C7 9944   1.063   4.075  14.863 -0.1852 -0.8503 -0.0873
  668TMC3    C8 9945   1.166   4.242  14.437  0.5384  0.5222 -0.9441
  668TMC3    O1 9946   1.104   4.181  14.910 -0.6003  0.5159  0.2784
  668TMC3    O2 9947   1.114   4.249  14.326 -0.2947 -0.0396  0.7593
  669TMC3    C1 9948   3.442   3.944  14.691  0.1885  0.0699 -0.5966
  669TMC3    C2 9949   3.320   3.940  14.625  0.0095  0.0877  0.4184
  669TMC3    C3 9950   3.304   4.011  14.512 -0.0670 -0.3151  0.3986
  669TMC3    C4 9951   3.547   4.029  14.650  0.1001  0.1430  0.5014
  669TMC3    C5 9952   3.527   4.104  14.535  0.7099  0.4306  0.0704
  669TMC3    C6 9953   3.405   4.094  14.468  0.6599 -0.8312 -0.7526
  669TMC3     C 9954   3.453   3.858  14.806  0.5896  0.2923 -0.5504
  669TMC3     O 9955   3.362   3.834  14.876  0.1296 -0.0170 -0.1219
  669TMC3     H 9956   3.236   3.889  14.670  1.1469 -1.5697  0.6399
  669TMC3    H1 9957   3.643   4.029  14.700  0.8402 -0.6723 -0.9042
  669TMC3    H2 9958   3.384   4.161  14.385  0.7511 -0.4132 -0.4366
  669TMC3    C7 9959   3.649   4.131  14.467  0.8137  0.5352  0.1423
  669TMC3    C8 9960   3.175   4.054  14.466  0.0440 -0.0084 -0.5601
  669TMC3    O1 9961   3.755   4.123  14.522 -0.0851 -0.2174 -0.4619
  669TMC3    O2 9962   3.086   3.979  14.423 -0.4308 -0.3884  0.5612
  670MPD2     C 9963   1.605   1.827  13.764 -0.6897  0.5903 -0.8268
  670MPD2    C1 9964   1.690   1.899  13.850  1.0037  0.6148 -0.1012
  670MPD2    C2 9965   1.722   1.856  13.975 -0.7564  0.1600 -0.3159
  670MPD2    C3 9966   1.651   1.754  14.034 -0.0531  0.1340  0.1029
  670MPD2    C4 9967   1.565   1.686  13.951 -0.7846 -0.7137 -0.2148
  670MPD2    C5 9968   1.551   1.711  13.819 -0.8740 -0.1813  0.1885
  670MPD2     H 9969   1.796   1.909  14.035  0.3993 -0.8668 -0.8553
  670MPD2    H1 9970   1.518   1.598  13.993 -2.7928  0.1976 -0.5358
  670MPD2    H2 9971   1.581   1.847  13.661  2.2379 -0.2955 -1.6798
  670MPD2    H3 9972   1.503   1.641  13.752 -0.2289 -0.2210 -0.2263
  670MPD2     N 9973   1.666   1.721  14.170  0.4680  0.4376 -0.4517
  670MPD2    H5 9974   1.738   1.767  14.225  1.0254  0.0571 -0.8645
  670MPD2    N1 9975   1.764   2.006  13.796  0.0743 -0.0775 -0.0506
  670MPD2    H7 9976   1.839   2.039  13.855 -1.3808 -0.5783  2.0663
  671TMC3    C1 9977   1.645   1.607  14.378 -0.8070 -0.4909 -0.2920
  671TMC3    C2 9978   1.779   1.612  14.414  0.2634 -0.3763  0.4952
  671TMC3    C3 9979   1.814   1.548  14.530 -0.2464  0.4370  0.1470
  671TMC3    C4 9980   1.554   1.524  14.440 -0.5143 -0.6662  0.2380
  671TMC3    C5 9981   1.605   1.453  14.540 -0.0847 -0.5908 -0.5244
  671TMC3    C6 9982   1.727   1.464  14.592  0.6329 -0.2988  0.4133
  671TMC3     C 9983   1.600   1.625  14.242  0.3752  0.0328  1.1933
  671TMC3     O 9984   1.515   1.545  14.210  0.5336 -0.0085  0.5005
  671TMC3     H 9985   1.846   1.686  14.372 -1.0675  0.4761 -0.1200
  671TMC3    H1 9986   1.448   1.514  14.417 -0.2310  0.0802 -1.4061
  671TMC3    H2 9987   1.768   1.387  14.657  1.6221 -0.2038 -0.0993
  671TMC3    C7 9988   1.550   1.318  14.556 -0.4268 -0.6893 -0.0776
  671TMC3    C8 9989   1.957   1.517  14.550 -0.3453  0.3165 -0.8468
  671TMC3    O1 9990   1.609   1.234  14.624 -0.0544  0.2070 -0.1278
  671TMC3    O2 9991   2.032   1.548  14.456 -0.2762 -0.6332  0.0203
  672MPD2     C 9992   2.786   2.324   0.007  0.1713  0.3369 -0.7963
  672MPD2    C1 9993   2.808   2.254   0.121 -0.6013 -0.0683  0.2007
  672MPD2    C2 9994   2.923   2.290   0.200 -0.8816 -0.3539  0.1420
  672MPD2    C3 9995   3.011   2.393   0.161 -0.6724  0.3465  0.4464
  672MPD2    C4 9996   2.986   2.455   0.036  0.4419 -0.6690  0.0852
  672MPD2    C5 9997   2.876   2.419  17.706  0.1362  0.0624 -0.3575
  672MPD2     H 9998   2.946   2.238   0.292 -0.1222  2.7641  1.7148
  672MPD2    H1 9999   3.047   2.533  17.736 -1.7435  0.1682 -1.4598
  672MPD2    H210000   2.708   2.302  17.678 -0.1641  1.5406 -0.8033
  672MPD2    H310001   2.857   2.458  17.607  0.2103  2.6574  0.6335
  672MPD2     N10002   3.130   2.436   0.229 -0.0234 -0.1060 -0.1877
  672MPD2    H510003   3.183   2.510   0.183 -0.6430  0.2441 -0.3406
  672MPD2    N110004   2.715   2.152   0.166  0.0171  0.4106 -0.6397
  672MPD2    H710005   2.745   2.089   0.240 -0.2475 -0.4860 -1.2951
  673TMC3    C110006   2.517   2.044   0.200 -0.8041  0.5156 -0.1485
  673TMC3    C210007   2.579   1.922   0.218 -0.4096  0.3298 -0.6093
  673TMC3    C310008   2.495   1.819   0.257 -0.0092  0.0278  0.3210
  673TMC3    C410009   2.392   2.074   0.243 -0.4352  0.0819 -0.0883
  673TMC3    C510010   2.314   1.968   0.284 -0.1193 -0.1792 -0.0056
  673TMC3    C610011   2.366   1.837   0.289 -0.3145 -0.5535 -0.5295
  673TMC3     C10012   2.584   2.151   0.124 -0.1457  0.0951 -0.4274
  673TMC3     O10013   2.513   2.230   0.065  0.2431  0.6721  0.3285
  673TMC3     H10014   2.675   1.900   0.172 -0.1054  1.7897 -0.6888
  673TMC3    H110015   2.359   2.177   0.246 -0.3854  0.1121 -0.5393
  673TMC3    H210016   2.302   1.762   0.334  0.7321 -1.0770  0.0841
  673TMC3    C710017   2.190   1.995   0.358 -0.2749  0.2625  0.0580
  673TMC3    C810018   2.548   1.685   0.270 -0.4438 -0.0776  0.2142
  673TMC3    O110019   2.136   1.902   0.419  0.4487 -0.0471 -0.0017
  673TMC3    O210020   2.473   1.589   0.267 -0.0799 -0.3500 -0.7304
  674MPD2     C10021   1.851   2.258   0.031 -0.2593 -0.0170 -0.0143
  674MPD2    C110022   1.831   2.149   0.111 -0.5157 -0.2186  0.3685
  674MPD2    C210023   1.743   2.154   0.219  0.1980  0.0845  0.0641
  674MPD2    C310024   1.679   2.268   0.243  0.0559  0.5862 -0.3946
  674MPD2    C410025   1.694   2.377   0.162  0.0628  0.0063 -0.1473
  674MPD2    C510026   1.783   2.374   0.056 -0.0830 -0.5173 -0.6644
  674MPD2     H10027   1.737   2.074   0.291  1.5071 -1.7563 -1.8911
  674MPD2    H110028   1.636   2.468   0.168 -0.0915 -0.2655  2.5040
  674MPD2    H210029   1.919   2.252  17.690 -1.1657 -1.4087 -0.6398
  674MPD2    H310030   1.778   2.463  17.738  0.5630  0.2643  0.4290
  674MPD2     N10031   1.590   2.266   0.348  0.6160  0.1100 -0.1519
  674MPD2    H510032   1.589   2.180   0.403  1.1522  1.6023  2.1918
  674MPD2    N110033   1.889   2.022   0.068 -0.1272 -1.2421 -0.6552
  674MPD2    H710034   1.966   2.040   0.004  0.5304  0.7017  0.7028
  675TMC3    C110035   1.966   1.795   0.088  0.2722  0.4759  0.3925
  675TMC3    C210036   1.997   1.704   0.180  0.7834  0.4144 -0.4096
  675TMC3    C310037   2.093   1.611   0.146  0.0438 -0.1105 -0.6400
  675TMC3    C410038   2.027   1.806  17.709 -0.5439 -0.2553  0.1628
  675TMC3    C510039   2.120   1.706  17.674 -0.4360  0.3209 -0.0114
  675TMC3    C610040   2.156   1.610   0.024 -0.8500 -0.7448 -0.3676
  675TMC3     C10041   1.888   1.901   0.139 -0.3538  0.0337  0.5495
  675TMC3     O10042   1.809   1.871   0.226  0.2887 -0.3428  0.7576
  675TMC3     H10043   1.945   1.685   0.274  3.4682  0.7413  1.1418
  675TMC3    H110044   1.984   1.874  17.636 -0.4476 -0.0255  0.3204
  675TMC3    H210045   2.220   1.525   0.003 -1.6463 -0.9692 -1.8988
  675TMC3    C710046   2.156   1.696  17.543  0.5792 -0.0718  0.5041
  675TMC3    C810047   2.115   1.489   0.226  0.0970  0.2879  0.2163
  675TMC3    O110048   2.197   1.587  17.513 -0.1114  0.0400  0.4899
  675TMC3    O210049   2.154   1.390   0.168  0.7682  0.0831 -0.6215
  676MPD2     C10050   0.764   0.703  10.979  0.0667 -0.0079 -0.2447
  676MPD2    C110051   0.665   0.616  11.012 -0.7184  0.0938  0.4691
  676MPD2    C210052   0.638   0.503  10.935 -0.0132  0.4301  0.0216
  676MPD2    C310053   0.708   0.471  10.824 -0.7244  0.5132 -0.4524
  676MPD2    C410054   0.805   0.558  10.785 -0.1807 -0.2552 -0.4895
  676MPD2    C510055   0.833   0.667  10.867  0.0547  0.5579 -0.3473
  676MPD2     H10056   0.561   0.435  10.971  1.6704 -1.4536  0.0769
  676MPD2    H110057   0.866   0.536  10.698 -0.3624 -2.9253  0.0787
  676MPD2    H210058   0.786   0.795  11.032 -3.2047 -0.4012  1.7546
  676MPD2    H310059   0.903   0.737  10.823 -0.2514  1.3147  0.3624
  676MPD2     N10060   0.692   0.350  10.746 -0.0476 -0.2223  0.6929
  676MPD2    H510061   0.731   0.350  10.653  1.3549  0.9641  1.2714
  676MPD2    N110062   0.570   0.640  11.116 -0.3676  0.5039  0.0046
  676MPD2    H710063   0.507   0.564  11.139  1.4255 -0.5876  1.3004
  677TMC3    C110064   0.456   0.766  11.276 -0.2154  0.7517  0.1128
  677TMC3    C210065   0.361   0.664  11.294  0.0739  0.1584  0.0119
  677TMC3    C310066   0.290   0.664  11.410  0.0024  0.0481  0.0841
  677TMC3    C410067   0.470   0.869  11.368  0.3865 -0.2077  1.0180
  677TMC3    C510068   0.397   0.861  11.484 -0.6106 -0.2730 -0.6079
  677TMC3    C610069   0.311   0.755  11.506  0.9506 -0.3034 -0.6334
  677TMC3     C10070   0.557   0.765  11.179 -1.6342  0.0369 -0.2368
  677TMC3     O10071   0.613   0.873  11.169 -0.0440 -0.5828 -0.2983
  677TMC3     H10072   0.348   0.589  11.218 -0.3987  0.3817 -0.1278
  677TMC3    H110073   0.545   0.947  11.378  2.2579 -2.0471  1.4834
  677TMC3    H210074   0.268   0.745  11.605 -0.5810  0.9141 -1.1739
  677TMC3    C710075   0.430   0.940  11.605 -0.3281 -0.3168 -0.0120
  677TMC3    C810076   0.201   0.553  11.439  0.2005  0.4797  0.2496
  677TMC3    O110077   0.415   0.883  11.715  0.2719  0.0210  0.2982
  677TMC3    O210078   0.206   0.453  11.371  0.1150 -0.6998  0.0360
  678MPD2     C10079   1.727   0.280   1.500  0.5533 -0.0560  0.9866
  678MPD2    C110080   1.695   0.209   1.384  0.1393  0.3907  0.3444
  678MPD2    C210081   1.567   0.158   1.378 -0.7212  0.2085 -0.0409
  678MPD2    C310082   1.473   0.158   1.482 -0.2594  0.9306  0.0861
  678MPD2    C410083   1.500   0.224   1.593  0.8029 -0.2628 -0.4361
  678MPD2    C510084   1.629   0.271   1.608  0.6807  0.2986 -0.1201
  678MPD2     H10085   1.545   0.100   1.289  0.1241 -0.2146  0.0283
  678MPD2    H110086   1.447   0.221   1.687  0.0100  0.2574 -0.8696
  678MPD2    H210087   1.818   0.337   1.518  0.6712  0.4514 -1.2546
  678MPD2    H310088   1.650   0.315   1.705  2.0310 -0.7056  0.0460
  678MPD2     N10089   1.343   0.096   1.462 -0.6786 -0.3562 -0.1204
  678MPD2    H510090   1.344   0.039   1.378 -1.7077 -1.1884  0.4420
  678MPD2    N110091   1.782   0.195   1.269  0.4760 -0.1386 -0.4225
  678MPD2    H710092   1.750   0.136   1.193 -1.3211  0.7646 -0.3581
  679TMC3    C110093   2.025   0.058   0.961 -0.7821 -0.1681 -0.1276
  679TMC3    C210094   1.941   0.088   1.062 -0.8464  0.0796  0.2574
  679TMC3    C310095   1.976   0.205   1.134 -0.7255 -0.0170 -0.0005
  679TMC3    C410096   2.135   0.132   0.926  0.7569  0.3375  0.0150
  679TMC3    C510097   2.171   0.244   0.999 -0.0409 -0.3858  0.0179
  679TMC3    C610098   2.093   0.275   1.106 -0.4939  0.0195 -0.6734
  679TMC3     C10099   1.994   4.685   0.877 -0.4063  0.1171  0.4125
  679TMC3     O10100   1.878   4.656   0.861  0.3039  0.2583 -0.0058
  679TMC3     H10101   1.846   0.037   1.076  0.4466 -2.4374 -0.1345
  679TMC3    H110102   2.195   0.095   0.844 -0.4601 -1.5753 -0.0215
  679TMC3    H210103   2.120   0.369   1.153 -0.6891 -0.0119 -0.4966
  679TMC3    C710104   2.185   0.355   0.920 -0.3905  0.3148 -0.3372
  679TMC3    C810105   1.899   0.254   1.250  0.3139 -0.0816 -0.0017
  679TMC3    O110106   2.084   0.420   0.894 -0.2933 -0.2477 -0.4038
  679TMC3    O210107   1.956   0.336   1.322 -0.3251  0.6305 -0.7858
  680MPD2     C10108   1.369   3.588  13.719 -0.3014 -0.4856  0.3066
  680MPD2    C110109   1.470   3.548  13.800 -0.6070 -0.3714  0.5515
  680MPD2    C210110   1.560   3.642  13.849  0.5651 -0.0954  0.9802
  680MPD2    C310111   1.541   3.776  13.825 -0.0794 -0.2039  0.5288
  680MPD2    C410112   1.439   3.817  13.751 -0.9540 -0.3647  0.4942
  680MPD2    C510113   1.353   3.725  13.700  0.4167  0.5168 -1.3695
  680MPD2     H10114   1.636   3.608  13.920  1.0239 -0.4600  0.3151
  680MPD2    H110115   1.417   3.923  13.740  0.4688 -0.0034  1.2122
  680MPD2    H210116   1.288   3.526  13.682 -0.3150  1.1404 -2.4551
  680MPD2    H310117   1.263   3.754  13.647 -0.3523 -1.2063 -1.0078
  680MPD2     N10118   1.622   3.877  13.880  0.0735 -0.1860  0.2781
  680MPD2    H510119   1.608   3.972  13.847  1.2745  0.0885  0.5656
  680MPD2    N110120   1.495   3.414  13.823 -0.4261  0.0026  0.4501
  680MPD2    H710121   1.574   3.388  13.882  0.1122 -0.1183 -0.3136
  681TMC3    C110122   1.479   3.183  13.815 -0.0159  0.2681 -0.1256
  681TMC3    C210123   1.416   3.092  13.886 -0.6072 -0.8141  0.5799
  681TMC3    C310124   1.484   2.977  13.928 -0.2170 -0.6162 -0.1287
  681TMC3    C410125   1.608   3.165  13.776  0.1770 -0.1478  0.1046
  681TMC3    C510126   1.679   3.062  13.823 -0.2857  0.4237 -0.5758
  681TMC3    C610127   1.623   2.969  13.909  0.4938  0.0740 -0.3086
  681TMC3     C10128   1.411   3.306  13.801  0.1864  0.2056  0.0730
  681TMC3     O10129   1.293   3.300  13.769 -0.3355  0.1629 -0.3181
  681TMC3     H10130   1.315   3.092  13.926 -0.8919  1.7102 -0.0969
  681TMC3    H110131   1.655   3.241  13.713 -0.7067 -1.8571 -2.6369
  681TMC3    H210132   1.670   2.877  13.944 -1.8631 -0.3798  1.6666
  681TMC3    C710133   1.809   3.030  13.767  0.0450  0.5428  0.3087
  681TMC3    C810134   1.422   2.911  14.045 -0.5508 -0.3769  0.2686
  681TMC3    O110135   1.876   2.949  13.832  0.7874 -0.3679 -0.1169
  681TMC3    O210136   1.301   2.882  14.039  0.6941 -0.7657 -0.7045
  682MPD2     C10137   3.427   0.391  10.329  0.1310 -0.3854 -0.4924
  682MPD2    C110138   3.538   0.322  10.365  0.1657 -0.3924 -0.0327
  682MPD2    C210139   3.557   0.283  10.499 -0.0726  0.3864  0.0349
  682MPD2    C310140   3.458   0.311  10.594  0.0259  0.1982  0.3727
  682MPD2    C410141   3.347   0.384  10.554 -0.0529  0.3257 -0.2302
  682MPD2    C510142   3.337   0.423  10.425 -0.1360 -0.0041  0.0111
  682MPD2     H10143   3.641   0.215  10.512 -2.1736 -2.0015  1.0142
  682MPD2    H110144   3.276   0.411  10.631 -1.0554  0.5037 -1.2127
  682MPD2    H210145   3.416   0.449  10.238 -0.8367  0.9089  0.4488
  682MPD2    H310146   3.256   0.484  10.385 -0.8400 -0.5871  0.5531
  682MPD2     N10147   3.472   0.271  10.728 -0.2926  0.6278 -0.6534
  682MPD2    H510148   3.393   0.297  10.786  0.5090 -0.6159  0.9990
  682MPD2    N110149   3.638   0.286  10.270 -0.3223 -0.4678 -0.1914
  682MPD2    H710150   3.723   0.253  10.315 -0.6550 -0.2093  0.6374
  683TMC3    C110151   3.661   0.083  11.119 -0.6545  0.2264  0.1188
  683TMC3    C210152   3.549   0.018  11.155  0.1258 -0.3283 -0.2471
  683TMC3    C310153   3.439   0.032  11.075  0.0572 -0.3603 -0.3682
  683TMC3    C410154   3.670   0.157  11.003 -0.4901  0.1888 -0.2193
  683TMC3    C510155   3.562   0.170  10.927 -0.0733  0.5475 -0.3595
  683TMC3    C610156   3.443   0.103  10.955  0.7556  0.0358 -0.1085
  683TMC3     C10157   3.767   0.101  11.210 -0.2865 -0.1429  0.0137
  683TMC3     O10158   3.846   0.193  11.188  0.2422 -0.2284 -0.7296
  683TMC3     H10159   3.533   4.704  11.250 -0.9568  0.7595  0.1429
  683TMC3    H110160   3.761   0.212  10.980 -0.2324 -0.0629  0.1879
  683TMC3    H210161   3.360   0.106  10.886  1.8761  1.8511 -1.3795
  683TMC3    C710162   3.585   0.227  10.796  0.3038 -0.2606 -0.3140
  683TMC3    C810163   3.328   4.677  11.077 -0.4524  0.1391  0.6699
  683TMC3    O110164   3.698   0.208  10.757 -0.5692 -0.0297  0.4677
  683TMC3    O210165   3.256   4.676  10.975  0.5608 -0.0234  0.2909
  684MPD2     C10166   2.092   4.062  16.380  0.5437 -0.3899 -0.4198
  684MPD2    C110167   2.050   4.103  16.249 -0.1289 -0.4576  0.2994
  684MPD2    C210168   1.992   4.227  16.233  0.5393  0.7858  0.2049
  684MPD2    C310169   1.979   4.315  16.340  0.3379  0.1758 -0.3171
  684MPD2    C410170   2.022   4.276  16.465 -0.4665 -0.0125 -0.5927
  684MPD2    C510171   2.079   4.152  16.481  0.1829  0.0769  0.1721
  684MPD2     H10172   1.960   4.254  16.134  0.7385 -1.1217 -0.3759
  684MPD2    H110173   2.016   4.349  16.545  2.5699 -0.8145  0.3509
  684MPD2    H210174   2.145   3.971  16.408  1.0869  0.0624  0.0262
  684MPD2    H310175   2.114   4.135  16.582 -0.4376  1.2380  0.5910
  684MPD2     N10176   1.921   4.446  16.335 -0.0713  0.1656 -0.2042
  684MPD2    H510177   1.896   4.480  16.428  0.1929 -1.3898  0.4398
  684MPD2    N110178   2.071   4.027  16.132  0.2139  0.5663  0.3076
  684MPD2    H710179   2.032   4.066  16.047  0.5007  2.8414  1.2143
  685TMC3    C110180   2.136   3.827  16.010 -0.1774  0.0395  0.2552
  685TMC3    C210181   2.061   3.893  15.909  0.2262  0.3885 -0.8584
  685TMC3    C310182   2.117   3.895  15.783  0.5945 -0.2795 -0.1691
  685TMC3    C410183   2.249   3.759  15.978  0.0760  0.0999  0.5741
  685TMC3    C510184   2.300   3.770  15.852 -0.0319  0.4133  0.3343
  685TMC3    C610185   2.240   3.844  15.753 -0.0413  0.4924  0.9439
  685TMC3     C10186   2.137   3.902  16.137 -0.1310 -0.0945  0.5440
  685TMC3     O10187   2.201   3.857  16.232  0.6566 -0.0463 -0.1095
  685TMC3     H10188   1.963   3.937  15.926  1.0393  2.0184 -0.3791
  685TMC3    H110189   2.308   3.725  16.062 -1.2947  0.1702  1.5748
  685TMC3    H210190   2.276   3.841  15.651 -1.6201  0.0642  0.3998
  685TMC3    C710191   2.446   3.788  15.859 -0.9622  0.5197  0.3556
  685TMC3    C810192   2.047   3.951  15.669 -1.2869 -1.1104  0.1247
  685TMC3    O110193   2.511   3.703  15.918  0.2363  0.5743 -0.0043
  685TMC3    O210194   2.114   3.946  15.562 -0.3557 -0.2947  0.1494
  686MPD2     C10195   3.125   0.057  16.063 -0.0332  0.1399 -0.6352
  686MPD2    C110196   3.231   4.712  16.068  0.1949  0.1053 -0.1757
  686MPD2    C210197   3.356   0.018  16.083 -0.1606 -0.7862 -0.1892
  686MPD2    C310198   3.375   0.155  16.080  0.3735  0.2893  0.1298
  686MPD2    C410199   3.270   0.247  16.087  0.3302 -0.3931  0.7462
  686MPD2    C510200   3.141   0.195  16.076  0.4969 -0.2412 -1.2242
  686MPD2     H10201   3.442   4.688  16.076  0.7850  0.3210  1.1240
  686MPD2    H110202   3.282   0.354  16.079  1.8337 -0.6201  0.0024
  686MPD2    H210203   3.023   0.023  16.052 -0.0554 -0.0138  0.0574
  686MPD2    H310204   3.059   0.262  16.052  0.9988 -0.1783 -2.7187
  686MPD2     N10205   3.503   0.212  16.070  0.3535  0.5595  0.0936
  686MPD2    H510206   3.513   0.310  16.095  0.1813  0.7459 -0.5509
  686MPD2    N110207   3.211   4.575  16.037  0.2862 -0.3021 -0.1684
  686MPD2    H710208   3.115   4.545  16.025  0.8261 -1.6267 -1.1132
  687TMC3    C110209   3.612   0.033  15.944  0.8878 -0.1360 -1.0851
  687TMC3    C210210   3.529   0.038  15.837 -0.0870 -0.0362 -0.2497
  687TMC3    C310211   3.524   4.662  15.757  0.4003  0.2523  0.7224
  687TMC3    C410212   3.691   4.662  15.977  0.4370  0.1725  0.6929
  687TMC3    C510213   3.691   4.551  15.892  0.0232  0.2275  0.2684
  687TMC3    C610214   3.602   4.554  15.787  0.5965 -0.1433  0.3053
  687TMC3     C10215   3.620   0.151  16.033 -0.0891  0.3883  0.4552
  687TMC3     O10216   3.731   0.204  16.042  0.0006  0.0571 -0.8479
  687TMC3     H10217   3.470   0.124  15.807 -2.9362 -2.1314 -0.7148
  687TMC3    H110218   3.764   4.659  16.057 -0.3154 -1.0559  1.3404
  687TMC3    H210219   3.606   4.463  15.728  1.6054 -0.7112  1.2389
  687TMC3    C710220   3.773   4.436  15.927 -0.2546  0.7653 -0.4200
  687TMC3    C810221   3.399   4.639  15.683  0.3538 -0.2273 -0.4217
  687TMC3    O110222   3.863   4.459  16.001  0.9932 -0.4406  0.2091
  687TMC3    O210223   3.404   4.535  15.619  0.5695  0.2798  0.1315
  688MPD2     C10224   2.475   3.222  17.179  0.1717 -0.3884  0.5823
  688MPD2    C110225   2.492   3.084  17.175 -0.4671  0.4143 -0.2022
  688MPD2    C210226   2.573   3.024  17.084  0.3074 -0.2340  0.3118
  688MPD2    C310227   2.641   3.109  16.990  0.0004 -0.6386  0.0404
  688MPD2    C410228   2.613   3.243  16.983 -0.0435  0.2617 -0.4409
  688MPD2    C510229   2.532   3.292  17.079 -0.1381  0.6672 -0.4688
  688MPD2     H10230   2.576   2.916  17.076 -1.4152 -0.2598  0.0157
  688MPD2    H110231   2.658   3.310  16.911  2.5754 -0.1357  0.8445
  688MPD2    H210232   2.410   3.275  17.248 -1.3491  0.0937 -1.2260
  688MPD2    H310233   2.503   3.397  17.072 -0.9401  0.3792 -1.4236
  688MPD2     N10234   2.750   3.068  16.905 -0.1523  0.5208 -0.5203
  688MPD2    H510235   2.795   3.145  16.856 -0.7119  0.9915 -0.2949
  688MPD2    N110236   2.426   3.014  17.276 -0.1957 -0.4195 -0.4668
  688MPD2    H710237   2.397   3.069  17.356 -1.7853  1.2032 -2.1562
  689TMC3    C110238   2.355   2.826  17.388  0.2088  0.7745 -0.0476
  689TMC3    C210239   2.397   2.882  17.506 -0.9913 -0.2495 -0.2404
  689TMC3    C310240   2.348   2.832  17.620  0.2302 -0.6053 -0.0756
  689TMC3    C410241   2.258   2.724  17.389  0.5993  0.7941  0.1326
  689TMC3    C510242   2.212   2.682  17.510 -0.5420 -0.4153 -0.6077
  689TMC3    C610243   2.248   2.740  17.630  0.2918  0.8701 -0.5767
  689TMC3     C10244   2.404   2.878  17.262  0.9484 -0.0753 -0.0945
  689TMC3     O10245   2.392   2.812  17.163  0.2985  0.2444  0.3956
  689TMC3     H10246   2.487   2.942  17.511 -0.1128 -1.4225 -1.8415
  689TMC3    H110247   2.227   2.681  17.294  1.1104 -0.9072  0.7268
  689TMC3    H210248   2.202   2.711  17.724  0.1163  0.0998 -0.8992
  689TMC3    C710249   2.111   2.575  17.518  0.4840  0.5834 -0.1352
  689TMC3    C810250   2.398   2.891  17.742  0.0941  0.1049 -0.0849
  689TMC3    O110251   2.054   2.572  17.626 -0.5509 -0.4523  0.0433
  689TMC3    O210252   2.517   2.920   0.012 -0.5449 -0.1821  0.6509
  690MPD2     C10253   0.272   0.258  15.568 -0.0563  0.0796  0.5345
  690MPD2    C110254   0.217   0.213  15.448 -0.1262 -0.0474 -0.5485
  690MPD2    C210255   0.278   0.246  15.342 -0.1216 -0.2884  0.2710
  690MPD2    C310256   0.406   0.296  15.341 -0.6895  0.3603 -0.1765
  690MPD2    C410257   0.467   0.333  15.460 -0.3619 -0.0107  0.6443
  690MPD2    C510258   0.392   0.318  15.580  0.6804 -0.6627 -0.4574
  690MPD2     H10259   0.227   0.216  15.251  0.4673  1.1288 -0.5303
  690MPD2    H110260   0.557   0.390  15.476 -2.8653  4.4841 -1.1954
  690MPD2    H210261   0.211   0.244  15.657  0.0471  1.4479  0.8177
  690MPD2    H310262   0.430   0.356  15.674 -0.7221 -1.1066  0.2829
  690MPD2     N10263   0.470   0.292  15.225  0.3067 -0.7168  0.4353
  690MPD2    H510264   0.423   0.273  15.137  0.4635  0.7005  0.0425
  690MPD2    N110265   0.088   0.152  15.433  0.1123  0.1189 -0.0856
  690MPD2    H710266   0.054   0.118  15.344 -0.6800 -0.3534  0.4014
  691TMC3    C110267   4.609   0.068  15.504 -1.0015 -0.1289 -0.4627
  691TMC3    C210268   4.498   0.083  15.590  0.2390  0.1683 -0.9325
  691TMC3    C310269   4.389   4.731  15.576 -0.5574  0.3542  0.0434
  691TMC3    C410270   4.611   4.705  15.414  0.5907  0.7260  0.4393
  691TMC3    C510271   4.503   4.613  15.410  0.3021 -0.1227  0.3885
  691TMC3    C610272   4.393   4.623  15.495 -0.2007 -0.4060  0.1201
  691TMC3     C10273   4.729   0.155  15.532  0.3186  0.2832  0.0812
  691TMC3     O10274   4.714   0.225  15.631  0.6516  0.3605 -0.5714
  691TMC3     H10275   4.501   0.166  15.660 -3.1629  0.6412 -1.3023
  691TMC3    H110276   4.693   4.684  15.347 -2.1245  0.0797 -2.6659
  691TMC3    H210277   4.301   4.568  15.482 -0.1980 -0.3690 -0.0530
  691TMC3    C710278   4.568   4.485  15.413  0.3789 -0.4883  0.2287
  691TMC3    C810279   4.283   4.727  15.676  0.1773  0.2166  0.5283
  691TMC3    O110280   4.683   4.462  15.381  0.3725 -0.4632 -0.0302
  691TMC3    O210281   4.202   4.639  15.678 -0.5984 -0.1474 -0.1479
  692TMC3    C110282   1.352   0.938  15.628 -0.5366  0.1705 -0.3717
  692TMC3    C210283   1.454   0.994  15.704  0.0522 -0.0456  0.2362
  692TMC3    C310284   1.556   0.914  15.727  0.1700 -0.4038  0.1140
  692TMC3    C410285   1.337   0.807  15.592  0.4622  0.5092 -0.4931
  692TMC3    C510286   1.427   0.720  15.649  0.0248 -0.0500 -0.4053
  692TMC3    C610287   1.534   0.774  15.724 -0.3304 -0.2172  0.3333
  692TMC3     C10288   1.236   1.020  15.578 -0.2122  0.2727 -0.4648
  692TMC3     O10289   1.172   0.971  15.487  0.0679  0.4828  0.0474
  692TMC3     H10290   1.463   1.102  15.696  2.1670 -0.0762  1.9912
  692TMC3    H110291   1.250   0.762  15.547 -0.3834  0.3023  1.3322
  692TMC3    H210292   1.609   0.702  15.755  1.4552  1.4260 -0.2259
  692TMC3    C710293   1.408   0.577  15.624  0.7711 -0.2242  0.6549
  692TMC3    C810294   1.636   0.952  15.841 -0.4143 -0.2519 -0.5313
  692TMC3    O110295   1.352   0.536  15.523  0.0927 -0.7450  0.3459
  692TMC3    O210296   1.669   0.863  15.917 -0.2723  0.0768  0.2557
  693MPD2     C10297   1.498   4.211  10.388 -0.5557  0.5852  0.5839
  693MPD2    C110298   1.414   4.106  10.386 -0.0818  0.5293 -0.6673
  693MPD2    C210299   1.456   3.986  10.443 -0.8235 -0.3672  0.0871
  693MPD2    C310300   1.587   3.978  10.496 -0.1365  0.0426  0.6332
  693MPD2    C410301   1.670   4.086  10.493 -0.0753 -0.4979 -0.5932
  693MPD2    C510302   1.621   4.201  10.443  0.3420 -0.1675  0.4050
  693MPD2     H10303   1.386   3.903  10.449  0.2638 -1.4017 -1.3970
  693MPD2    H110304   1.766   4.074  10.542 -0.6829 -0.9394  0.4868
  693MPD2    H210305   1.455   4.307  10.363 -0.4785  0.4656 -0.0137
  693MPD2    H310306   1.679   4.291  10.455  0.4776 -0.2375  0.2767
  693MPD2     N10307   1.634   3.865  10.566 -0.0898 -0.7746  0.2354
  693MPD2    H510308   1.733   3.874  10.589  0.2331 -2.6372 -0.4057
  693MPD2    N110309   1.286   4.139  10.340 -0.7620  0.2107 -0.6093
  693MPD2    H710310   1.280   4.234  10.305  0.3241  0.3381 -0.4380
  694TMC3    C110311   1.057   4.150  10.331 -0.3868 -0.0838  0.5681
  694TMC3    C210312   0.955   4.077  10.283  0.2486 -0.1333 -0.1963
  694TMC3    C310313   0.846   4.059  10.366 -0.5054 -0.5310 -0.1445
  694TMC3    C410314   1.046   4.218  10.444  0.5321 -0.4557 -0.0700
  694TMC3    C510315   0.930   4.206  10.524 -0.3537 -0.3956 -0.0915
  694TMC3    C610316   0.833   4.121  10.482  0.5333  0.1362  0.1895
  694TMC3     C10317   1.173   4.063  10.337 -0.1656  0.3780  0.3168
  694TMC3     O10318   1.166   3.944  10.344  0.2058 -0.6958 -0.0225
  694TMC3     H10319   0.979   4.005  10.206 -4.6953 -0.0060 -1.8700
  694TMC3    H110320   1.125   4.284  10.477  0.4293  0.3428 -1.4406
  694TMC3    H210321   0.734   4.123  10.528  0.6890  1.3304  0.4581
  694TMC3    C710322   0.949   4.229  10.669 -0.5614  0.6125 -0.3096
  694TMC3    C810323   0.733   3.988  10.309 -0.2655 -0.3050 -0.3029
  694TMC3    O110324   1.035   4.311  10.706 -0.3542  0.9077  0.0014
  694TMC3    O210325   0.657   3.937  10.390 -0.4768 -0.4997 -0.1686
  695MPD2     C10326   2.236   0.949  13.725 -0.6208 -0.5129  0.5360
  695MPD2    C110327   2.174   0.925  13.841  0.7195  0.2158 -0.2778
  695MPD2    C210328   2.034   0.908  13.838  0.0122  0.0391  0.3252
  695MPD2    C310329   1.965   0.931  13.715 -0.2163 -0.6513 -0.3744
  695MPD2    C410330   2.036   0.965  13.600  0.0739  0.2420  0.0055
  695MPD2    C510331   2.170   0.963  13.603  0.1008  0.5329 -0.1491
  695MPD2     H10332   1.967   0.917  13.923 -1.1273 -1.0085 -0.4717
  695MPD2    H110333   1.991   0.994  13.506  2.4403 -1.4381 -1.6353
  695MPD2    H210334   2.342   0.971  13.725 -0.2603 -2.1990  0.1580
  695MPD2    H310335   2.228   1.002  13.520  0.9746  0.3692  0.3902
  695MPD2     N10336   1.822   0.951  13.722 -0.6279  0.0618 -0.3095
  695MPD2    H510337   1.788   0.942  13.817  1.9454 -0.2147  0.5990
  695MPD2    N110338   2.238   0.937  13.969  0.0232 -0.3285 -0.9959
  695MPD2    H710339   2.180   0.904  14.045  0.4918 -0.0980 -0.5372
  696TMC3    C110340   1.599   1.022  13.658  0.3935  0.1424 -0.3449
  696TMC3    C210341   1.549   0.950  13.767  0.3462 -0.2988 -0.2627
  696TMC3    C310342   1.446   1.008  13.836  0.0064 -0.7347 -0.2083
  696TMC3    C410343   1.542   1.138  13.618  0.0150  0.5665 -0.0805
  696TMC3    C510344   1.441   1.200  13.693  0.2902  0.6744 -0.2799
  696TMC3    C610345   1.397   1.138  13.807  0.6191 -0.5157 -0.5652
  696TMC3     C10346   1.739   1.002  13.620  0.3831  0.5536  0.0178
  696TMC3     O10347   1.771   1.051  13.513  0.5973 -0.2933  0.5516
  696TMC3     H10348   1.585   0.850  13.789 -1.0970 -0.3413  1.8808
  696TMC3    H110349   1.596   1.197  13.545  1.5621 -1.0540 -0.2466
  696TMC3    H210350   1.314   1.186  13.858  0.8109  0.0379 -0.7789
  696TMC3    C710351   1.402   1.330  13.657  0.0152 -0.0755  0.6962
  696TMC3    C810352   1.418   0.952  13.966  0.7932  0.1180  0.3526
  696TMC3    O110353   1.434   1.370  13.546 -0.1000 -0.4634 -0.1780
  696TMC3    O210354   1.415   0.832  13.973  0.5273 -0.3769  0.4260
  697MPD2     C10355   1.497   2.637  15.534 -0.1029 -0.1048 -0.8109
  697MPD2    C110356   1.406   2.611  15.431  0.7602 -0.0021  0.7664
  697MPD2    C210357   1.400   2.711  15.326 -0.3718  0.9997 -0.1876
  697MPD2    C310358   1.469   2.828  15.338 -0.4727  0.6081 -0.2106
  697MPD2    C410359   1.550   2.855  15.447 -0.0196  0.3784 -0.0943
  697MPD2    C510360   1.554   2.759  15.548  0.2432  0.7756 -0.0192
  697MPD2     H10361   1.339   2.687  15.239  0.2502  1.0843 -0.6427
  697MPD2    H110362   1.607   2.946  15.461 -0.7126  0.6258  1.1536
  697MPD2    H210363   1.508   2.562  15.612  0.8017 -0.0797 -0.9099
  697MPD2    H310364   1.613   2.775  15.637 -1.3860  2.2466  0.7969
  697MPD2     N10365   1.455   2.916  15.227  0.0683 -0.3036 -0.0898
  697MPD2    H510366   1.386   2.888  15.158 -1.3915  1.0679  0.8233
  697MPD2    N110367   1.339   2.487  15.408 -0.0343 -0.1818 -0.2714
  697MPD2    H710368   1.286   2.474  15.322 -2.4983 -0.2340  1.2506
  698TMC3    C110369   1.485   3.112  15.098 -0.3140 -0.8560 -0.0258
  698TMC3    C210370   1.514   3.243  15.105  0.1673  0.4753  0.2161
  698TMC3    C310371   1.460   3.316  15.011 -0.0738  0.0395 -0.6919
  698TMC3    C410372   1.414   3.052  14.996  0.3041  0.8044 -0.2893
  698TMC3    C510373   1.373   3.134  14.892  0.4950  0.3234 -0.2401
  698TMC3    C610374   1.383   3.266  14.906  0.0600  0.2630  0.3735
  698TMC3     C10375   1.527   3.035  15.214 -0.1309  0.0020 -0.1451
  698TMC3     O10376   1.587   3.100  15.302  0.4713  0.2827 -0.2496
  698TMC3     H10377   1.558   3.296  15.189 -0.0134 -1.0190  1.2712
  698TMC3    H110378   1.402   2.944  14.985 -0.0201  0.9397 -1.2240
  698TMC3    H210379   1.357   3.330  14.823 -0.1411 -1.2400 -0.7369
  698TMC3    C710380   1.308   3.084  14.771 -0.0599  0.1516 -0.6772
  698TMC3    C810381   1.499   3.452  14.993 -0.6117  0.0400 -0.4915
  698TMC3    O110382   1.330   3.152  14.669 -0.3351  0.1421  0.3843
  698TMC3    O210383   1.415   3.523  14.936  0.4418 -0.2733 -0.4198
  699TMC3    C110384   1.279   1.448  13.229  0.2740  0.4922  0.2925
  699TMC3    C210385   1.316   1.320  13.240 -0.6764  0.1025  0.1865
  699TMC3    C310386   1.226   1.236  13.296 -0.1110 -0.1742  0.3958
  699TMC3    C410387   1.159   1.499  13.274  0.0450 -1.1876 -0.1209
  699TMC3    C510388   1.063   1.417  13.325 -0.6468  0.1533  0.1115
  699TMC3    C610389   1.100   1.285  13.332  0.4386 -0.0376 -0.8676
  699TMC3     C10390   1.349   1.541  13.148  0.4093  0.3986  0.6096
  699TMC3     O10391   1.282   1.627  13.091  0.0997  0.7360 -0.1461
  699TMC3     H10392   1.401   1.274  13.192 -1.0479  0.2524 -0.6178
  699TMC3    H110393   1.116   1.591  13.236 -1.6797 -1.3299  1.4797
  699TMC3    H210394   1.026   1.214  13.367  0.6996  0.1789  0.1190
  699TMC3    C710395   0.934   1.427  13.257 -0.1090  0.2490 -0.1472
  699TMC3    C810396   1.260   1.090  13.324  0.2163 -0.2799 -0.5437
  699TMC3    O110397   0.892   1.322  13.212 -0.2947  0.2796  0.5780
  699TMC3    O210398   1.175   1.016  13.367 -0.0580  0.5512 -0.0704
  700TMC3    C110399   0.714   3.335  16.819  0.3435 -0.4882  0.3755
  700TMC3    C210400   0.770   3.208  16.835  0.1874  0.1285  0.1936
  700TMC3    C310401   0.799   3.160  16.958 -0.6237  0.2387  0.0984
  700TMC3    C410402   0.696   3.414  16.926  0.3433  0.1992  1.2042
  700TMC3    C510403   0.723   3.362  17.047 -0.2765  1.3113  0.1027
  700TMC3    C610404   0.775   3.231  17.069  0.3734 -0.1576  0.4919
  700TMC3     C10405   0.719   3.381  16.683  1.0766 -0.4020  0.2541
  700TMC3     O10406   0.700   3.295  16.600  0.2425  0.1767  0.1211
  700TMC3     H10407   0.803   3.157  16.745  1.5174 -0.0631  0.7794
  700TMC3    H110408   0.675   3.520  16.914  0.8630  0.2724  0.9186
  700TMC3    H210409   0.811   3.203  17.167  1.3330  2.5941  0.9182
  700TMC3    C710410   0.754   3.462  17.142 -0.0119 -0.3768  0.4649
  700TMC3    C810411   0.834   3.021  16.975  0.4193  0.5686 -0.2039
  700TMC3    O110412   0.872   3.459  17.184 -0.3569 -0.4914  0.9418
  700TMC3    O210413   0.802   2.973  17.083  0.2804  0.4356 -0.1182
  701TMC3    C110414   0.472   2.254  15.487 -0.3533 -0.5904  0.6716
  701TMC3    C210415   0.512   2.212  15.362  0.6604  0.2331 -0.0481
  701TMC3    C310416   0.607   2.288  15.300  0.1472  0.2755  1.0084
  701TMC3    C410417   0.536   2.352  15.559  0.1054 -0.8404 -0.0016
  701TMC3    C510418   0.620   2.430  15.486 -0.9491 -0.7232  0.1402
  701TMC3    C610419   0.667   2.394  15.364  0.3621 -0.1558 -0.1756
  701TMC3     C10420   0.353   2.193  15.539  0.4569  0.8572 -0.0911
  701TMC3     O10421   0.344   2.195  15.661  0.0227  0.0907  0.0496
  701TMC3     H10422   0.471   2.120  15.320  0.3828  0.0331  0.6622
  701TMC3    H110423   0.495   2.379  15.656 -0.6320 -0.0602 -0.5283
  701TMC3    H210424   0.749   2.445  15.316  0.1232 -0.7893 -1.2528
  701TMC3    C710425   0.623   2.568  15.526 -0.1357 -0.3801  0.1633
  701TMC3    C810426   0.631   2.278  15.160 -0.6682  0.0188 -0.5903
  701TMC3    O110427   0.605   2.652  15.431  0.5089 -0.7897  0.1458
  701TMC3    O210428   0.715   2.352  15.105 -0.1084  0.4234  0.1102
  702MPD2     C10429   0.609   0.225  10.034 -1.1103 -0.2988  0.6168
  702MPD2    C110430   0.613   0.294  10.154  0.3819  0.6881 -0.4233
  702MPD2    C210431   0.631   0.430  10.145 -0.2807  0.7208 -0.2996
  702MPD2    C310432   0.606   0.498  10.029  0.3138  1.1240 -0.3867
  702MPD2    C410433   0.591   0.428   9.909 -0.2650 -0.9381  0.5504
  702MPD2    C510434   0.596   0.290   9.916  0.5795  0.5243  0.9441
  702MPD2     H10435   0.629   0.492  10.234  0.9058  0.1959  0.0967
  702MPD2    H110436   0.576   0.488   9.820 -1.3485 -0.7009  0.8856
  702MPD2    H210437   0.606   0.116  10.033  2.4191 -0.4023 -0.1753
  702MPD2    H310438   0.583   0.233   9.824 -1.4822  1.8591  0.3874
  702MPD2     N10439   0.601   0.641  10.020 -0.1429 -0.6950  0.4580
  702MPD2    H510440   0.526   0.681   9.964 -0.9981 -0.8304  1.4982
  702MPD2    N110441   0.611   0.244  10.285  0.4030  0.3003  0.5142
  702MPD2    H710442   0.608   0.312  10.361 -2.3361  0.1355  0.5607
  703TMC3    C110443   0.602   0.825  10.151 -0.1710  0.4614  0.3226
  703TMC3    C210444   0.464   0.810  10.165 -0.4889  0.0540 -0.1580
  703TMC3    C310445   0.411   0.829  10.290 -0.0689  0.6231 -0.4418
  703TMC3    C410446   0.671   0.881  10.258 -0.2503  0.2092  0.5879
  703TMC3    C510447   0.613   0.906  10.381 -0.2654  0.2096 -0.3231
  703TMC3    C610448   0.476   0.880  10.401 -0.1157  0.3562  0.7348
  703TMC3     C10449   0.682   0.714  10.096 -0.3825  0.5952  0.1750
  703TMC3     O10450   0.781   0.681  10.167  0.4977  0.4360 -0.2335
  703TMC3     H10451   0.402   0.765  10.088 -1.7220  1.3004  0.1049
  703TMC3    H110452   0.778   0.891  10.242  0.1434 -2.3318  1.5991
  703TMC3    H210453   0.433   0.885  10.500 -2.1784  0.2588 -0.1590
  703TMC3    C710454   0.700   0.964  10.478  0.0952  0.6943  0.3993
  703TMC3    C810455   0.279   0.771  10.307  0.5183 -0.6957 -0.1402
  703TMC3    O110456   0.788   1.031  10.429 -0.4813 -0.0590  0.4435
  703TMC3    O210457   0.219   0.741  10.207  0.2321  0.0343  0.1667
  704TMC3    C110458   2.575   2.878  12.168 -0.0973  0.1622 -1.0849
  704TMC3    C210459   2.663   2.849  12.063 -0.7436 -0.2384 -0.8176
  704TMC3    C310460   2.743   2.740  12.087  0.0338  0.3515  0.3494
  704TMC3    C410461   2.573   2.792  12.283  0.4878 -0.1832  0.1211
  704TMC3    C510462   2.673   2.715  12.307  0.4411  0.1408 -0.2135
  704TMC3    C610463   2.761   2.676  12.209 -1.0297  0.7983 -0.3477
  704TMC3     C10464   2.475   2.987  12.168  0.5391 -1.3393 -0.0486
  704TMC3     O10465   2.392   2.970  12.259 -0.0801 -0.4671  0.0193
  704TMC3     H10466   2.657   2.903  11.969 -0.3679  1.8940  0.3919
  704TMC3    H110467   2.489   2.800  12.351 -0.3365  1.8650 -1.1349
  704TMC3    H210468   2.812   2.582  12.226 -0.1858  1.1827 -0.7961
  704TMC3    C710469   2.633   2.602  12.388  0.0653 -0.6278  0.3648
  704TMC3    C810470   2.824   2.687  11.982 -0.1619 -0.1176 -0.6003
  704TMC3    O110471   2.527   2.549  12.357 -0.5431 -0.3972 -0.2578
  704TMC3    O210472   2.805   2.734  11.868 -0.0655  0.0856 -0.5189
  705MPD2     C10473   1.868   0.995  16.570 -0.8092  0.6548  0.1497
  705MPD2    C110474   1.843   1.125  16.529  0.0391 -0.3937 -0.5767
  705MPD2    C210475   1.711   1.162  16.517 -0.4447 -0.1390 -0.3934
  705MPD2    C310476   1.608   1.074  16.553  0.5272 -0.4680  0.2627
  705MPD2    C410477   1.633   0.939  16.576 -0.2583  0.1115  0.8301
  705MPD2    C510478   1.765   0.904  16.592  0.0025  0.3499 -0.0097
  705MPD2     H10479   1.691   1.267  16.499 -1.4415 -0.0055  1.4140
  705MPD2    H110480   1.559   0.864  16.601  0.2346 -0.3662  0.8664
  705MPD2    H210481   1.970   0.960  16.581 -0.9532  0.0350 -0.4830
  705MPD2    H310482   1.790   0.799  16.596 -1.9940 -0.1317  0.0134
  705MPD2     N10483   1.471   1.113  16.559 -0.6759 -0.4784 -0.4722
  705MPD2    H510484   1.409   1.043  16.598 -1.3218  1.0947  1.3454
  705MPD2    N110485   1.935   1.225  16.503  0.1294  0.1802  0.0010
  705MPD2    H710486   1.902   1.320  16.493  0.2323  0.2062 -0.0973
  706TMC3    C110487   2.364   1.364  16.387 -0.1728  0.2141  0.5664
  706TMC3    C210488   2.317   1.469  16.313 -0.8493 -0.0548 -0.2845
  706TMC3    C310489   2.185   1.494  16.318 -0.0149 -0.6787 -0.7123
  706TMC3    C410490   2.288   1.297  16.475  0.7795 -0.9501  0.5074
  706TMC3    C510491   2.156   1.325  16.478  0.6498 -0.5477 -0.3708
  706TMC3    C610492   2.103   1.422  16.403 -0.1709 -0.0027 -0.6635
  706TMC3     C10493   2.491   1.298  16.354 -0.1134  0.0213  1.0609
  706TMC3     O10494   2.548   1.249  16.450  0.4445 -0.6540  0.1072
  706TMC3     H10495   2.383   1.531  16.253  0.8552 -0.5786  1.0838
  706TMC3    H110496   2.326   1.208  16.524  1.7904 -1.8738 -1.9435
  706TMC3    H210497   1.997   1.437  16.385 -0.5823 -0.5100  1.3608
  706TMC3    C710498   2.072   1.202  16.488  0.1889 -0.3345 -0.3464
  706TMC3    C810499   2.140   1.619  16.251 -0.2591  0.3584  0.4146
  706TMC3    O110500   2.128   1.092  16.491 -0.1678 -0.2016  0.6656
  706TMC3    O210501   2.020   1.618  16.228  0.2028  0.5121  0.6780
  707TMC3    C110502   4.236   4.668   0.927  0.3030  0.5279 -0.0131
  707TMC3    C210503   4.168   4.591   1.020  0.3162  0.4685 -0.9145
  707TMC3    C310504   4.029   4.598   1.025 -0.0868  0.2022 -0.2179
  707TMC3    C410505   4.174   0.004   0.833 -0.7820 -0.6738  0.0647
  707TMC3    C510506   4.036   4.731   0.832  1.1693  0.1281 -0.3623
  707TMC3    C610507   3.961   4.668   0.927  0.4383  0.2808  0.1987
  707TMC3     C10508   4.377   4.639   0.922  0.0164  0.3047  0.3815
  707TMC3     O10509   4.404   4.526   0.963  0.1911 -0.7415  0.4171
  707TMC3     H10510   4.234   4.543   1.092 -0.7181 -1.8020 -1.4808
  707TMC3    H110511   4.229   0.044   0.748  0.2102  1.8694  1.9145
  707TMC3    H210512   3.854   4.673   0.914  0.2322  0.3235  1.9968
  707TMC3    C710513   3.967   0.035   0.706  0.4317  0.0675 -0.1039
  707TMC3    C810514   3.960   4.500   1.099 -0.0938  0.0964 -0.3650
  707TMC3    O110515   3.853   4.726   0.686  0.6390  0.0856 -0.2098
  707TMC3    O210516   3.845   4.517   1.128 -0.3468  0.2032 -0.3438
  708MPD2     C10517   0.572   3.804  13.920 -0.1984  0.7798 -0.0030
  708MPD2    C110518   0.473   3.824  14.013  0.6440  0.4852  0.1889
  708MPD2    C210519   0.437   3.731  14.111  0.7874 -0.1530 -1.1045
  708MPD2    C310520   0.486   3.602  14.087 -0.4198 -0.5901  0.7166
  708MPD2    C410521   0.586   3.584  13.990 -0.5258 -1.1476  0.2770
  708MPD2    C510522   0.642   3.687  13.918  0.5387 -0.7060  0.0834
  708MPD2     H10523   0.362   3.752  14.187  1.3316 -1.7376 -0.1322
  708MPD2    H110524   0.618   3.482  13.974  4.1342 -0.1050  3.1180
  708MPD2    H210525   0.598   3.876  13.843 -2.5364 -1.0199 -2.5036
  708MPD2    H310526   0.724   3.670  13.850 -1.0604  2.2849 -2.5985
  708MPD2     N10527   0.437   3.502  14.182  0.7244 -1.0560  0.2997
  708MPD2    H510528   0.492   3.418  14.195  0.4269 -1.5105 -1.3173
  708MPD2    N110529   0.405   3.952  14.013 -0.1676  0.0334 -0.1555
  708MPD2    H710530   0.442   4.022  13.950 -0.4586 -0.5113 -0.9317
  709TMC3    C110531   0.242   4.109  14.061 -0.3655  0.5605 -0.0313
  709TMC3    C210532   0.215   4.110  13.923  0.1038 -0.0572 -0.2169
  709TMC3    C310533   0.085   4.133  13.873 -0.1369 -0.3937 -0.0200
  709TMC3    C410534   0.142   4.151  14.149  0.1902  0.1055 -0.1806
  709TMC3    C510535   0.021   4.181  14.093  0.4782 -0.2117 -0.1070
  709TMC3    C610536   4.729   4.180  13.959 -0.0017  0.6055 -0.1496
  709TMC3     C10537   0.306   3.990  14.105  0.1804  0.3813  0.6749
  709TMC3     O10538   0.244   3.937  14.201  0.6067  0.6082  0.3700
  709TMC3     H10539   0.287   4.070  13.853  1.1443  0.2936  0.6440
  709TMC3    H110540   0.155   4.165  14.256 -0.0093  2.5430 -0.4716
  709TMC3    H210541   4.625   4.184  13.928 -0.6373 -0.2374  1.8353
  709TMC3    C710542   4.647   4.119  14.166 -0.1230  0.1201  0.2243
  709TMC3    C810543   0.050   4.041  13.775 -1.1227 -0.1468  0.9194
  709TMC3    O110544   4.532   4.140  14.124 -0.4257  0.0745  0.2708
  709TMC3    O210545   4.681   3.972  13.785 -0.9410  0.0889 -0.5610
  710TMC3    C110546   1.880   1.044   0.561  0.2581 -0.4374 -0.5328
  710TMC3    C210547   1.920   1.061   0.435 -0.2530  0.4672 -0.9319
  710TMC3    C310548   2.030   0.992   0.393  0.4656  0.0012  0.1824
  710TMC3    C410549   1.950   0.981   0.657  0.0140 -0.0343  0.4920
  710TMC3    C510550   2.061   0.920   0.614  0.4089 -0.5451 -0.4047
  710TMC3    C610551   2.101   0.927   0.484 -0.0303  0.5612  0.8068
  710TMC3     C10552   1.753   1.091   0.604 -0.2688 -0.4006 -0.0499
  710TMC3     O10553   1.756   1.144   0.715 -0.5735  0.4401  0.4056
  710TMC3     H10554   1.855   1.121   0.373 -0.2548  1.0564 -0.3491
  710TMC3    H110555   1.920   0.982   0.761 -0.6744 -3.8345  0.3341
  710TMC3    H210556   2.199   0.894   0.454 -0.1103  1.8745 -0.9572
  710TMC3    C710557   2.132   0.831   0.701  0.1394 -0.0714  0.1315
  710TMC3    C810558   2.027   0.956   0.255 -0.0003  0.7370 -0.1267
  710TMC3    O110559   2.066   0.797   0.801  0.4592  0.5070  0.8097
  710TMC3    O210560   1.960   1.031   0.185  0.7712 -0.4435 -0.4029
  711TMC3    C110561   1.040   1.499  15.137 -0.2207  0.1526 -0.5560
  711TMC3    C210562   1.026   1.610  15.206 -0.2537 -0.1196 -0.0514
  711TMC3    C310563   1.113   1.633  15.307  0.1143 -0.1687  0.1384
  711TMC3    C410564   1.144   1.409  15.164 -0.3471 -0.3067 -0.1911
  711TMC3    C510565   1.211   1.422  15.282  0.0477  0.2370 -0.7140
  711TMC3    C610566   1.204   1.540  15.353  0.1801 -0.7381  0.3725
  711TMC3     C10567   0.962   1.468  15.014 -0.0222  0.4503  0.1633
  711TMC3     O10568   0.988   1.364  14.953 -0.0735  0.0318  0.0763
  711TMC3     H10569   0.947   1.682  15.189 -0.3673 -1.2127 -4.1845
  711TMC3    H110570   1.148   1.311  15.116  1.4132 -0.8399  1.0640
  711TMC3    H210571   1.260   1.545  15.446 -1.3420 -1.2170  1.3149
  711TMC3    C710572   1.309   1.321  15.322 -0.2448 -0.6225  0.1533
  711TMC3    C810573   1.083   1.748  15.397 -0.5548  0.1983  0.4694
  711TMC3    O110574   1.381   1.357  15.415 -0.1642 -0.2288 -0.2711
  711TMC3    O210575   0.982   1.815  15.373 -0.1857  0.4114 -0.1006
  712MPD2     C10576   2.914   2.709  13.812 -0.0975  0.3064  1.2382
  712MPD2    C110577   2.820   2.778  13.735  0.2489 -0.1230 -0.0159
  712MPD2    C210578   2.795   2.913  13.766 -0.3942 -0.1353  0.3508
  712MPD2    C310579   2.864   2.980  13.867 -1.1105  0.2578  0.3073
  712MPD2    C410580   2.964   2.911  13.929  0.6680  0.0488 -0.2581
  712MPD2    C510581   2.972   2.780  13.910  0.5006 -0.0749  0.0582
  712MPD2     H10582   2.721   2.969  13.710 -1.3685 -2.8091 -0.9998
  712MPD2    H110583   3.023   2.970  13.998 -1.8633  0.4321  1.5987
  712MPD2    H210584   2.929   2.603  13.799 -0.5035  0.4880 -0.6971
  712MPD2    H310585   3.042   2.726  13.972 -1.3375 -0.0775  2.1240
  712MPD2     N10586   2.839   3.121  13.900  0.2009 -0.1798  0.4696
  712MPD2    H510587   2.908   3.181  13.945  1.5247  0.4818 -2.4420
  712MPD2    N110588   2.750   2.718  13.632  0.3308  0.2188 -0.6716
  712MPD2    H710589   2.676   2.773  13.588  0.4642  0.0429 -1.1115
  713TMC3    C110590   2.735   3.326  13.862  0.0935 -0.0658  0.4184
  713TMC3    C210591   2.860   3.380  13.881 -0.1253  0.1278  0.3488
  713TMC3    C310592   2.867   3.512  13.927 -0.1463 -1.0919  0.1435
  713TMC3    C410593   2.622   3.395  13.897 -0.5994  0.0717 -0.0145
  713TMC3    C510594   2.638   3.526  13.941  0.8986 -0.6746  0.5201
  713TMC3    C610595   2.761   3.587  13.964  0.7780  0.2333  0.7087
  713TMC3     C10596   2.727   3.186  13.869  0.0496  0.3492  0.5270
  713TMC3     O10597   2.613   3.141  13.866  0.7718 -0.1234  0.2648
  713TMC3     H10598   2.958   3.337  13.865 -0.3238  0.1780 -1.0100
  713TMC3    H110599   2.525   3.348  13.900 -1.8385  2.3128 -4.3502
  713TMC3    H210600   2.777   3.691  13.987 -0.8731  0.9899 -1.5839
  713TMC3    C710601   2.535   3.617  13.955 -0.0847  0.6548  0.1649
  713TMC3    C810602   2.988   3.582  13.902 -0.1343  0.2132  0.8141
  713TMC3    O110603   2.560   3.707  14.029  0.5618  0.7449  0.1509
  713TMC3    O210604   2.970   3.681  13.833 -0.6471  0.0792  0.5063
  714MPD2     C10605   0.619   1.696   1.396  0.2893  0.1069 -0.3196
  714MPD2    C110606   0.590   1.584   1.322  0.3362  0.2038  0.3246
  714MPD2    C210607   0.474   1.586   1.242 -0.4606 -0.2860 -0.0932
  714MPD2    C310608   0.383   1.682   1.250 -0.1580  0.3781 -0.3894
  714MPD2    C410609   0.416   1.784   1.336  0.3490 -0.5115 -0.0990
  714MPD2    C510610   0.528   1.792   1.409 -0.5375 -0.3349  0.3748
  714MPD2     H10611   0.455   1.509   1.168 -0.0050  0.5621 -1.0876
  714MPD2    H110612   0.345   1.865   1.353  1.0938 -0.0493  0.7706
  714MPD2    H210613   0.712   1.700   1.452 -0.2569  0.0915  0.5781
  714MPD2    H310614   0.546   1.872   1.480  0.7753 -0.3138  0.0237
  714MPD2     N10615   0.268   1.674   1.170  0.3193  0.5264 -0.5868
  714MPD2    H510616   0.262   1.589   1.114 -1.7136  0.0052  0.4348
  714MPD2    N110617   0.683   1.477   1.315 -0.6841 -0.2952 -0.5363
  714MPD2    H710618   0.775   1.490   1.356 -0.4534  1.8590 -1.7894
  715TMC3    C110619   0.748   1.244   1.293 -0.8421 -0.3718  0.0461
  715TMC3    C210620   0.704   1.115   1.296  0.4943 -0.5562  0.1168
  715TMC3    C310621   0.784   1.019   1.352 -0.8235  0.2603 -0.2683
  715TMC3    C410622   0.866   1.281   1.337  0.5018  0.9769 -0.0139
  715TMC3    C510623   0.944   1.178   1.386  0.6314  0.6058  0.1399
  715TMC3    C610624   0.912   1.048   1.400 -0.6301 -0.7508  0.4137
  715TMC3     C10625   0.647   1.347   1.266  0.0598  0.3050  0.1604
  715TMC3     O10626   0.542   1.321   1.211  0.0940  0.2193 -0.1028
  715TMC3     H10627   0.607   1.089   1.255 -0.4001  1.4187  0.9864
  715TMC3    H110628   0.905   1.377   1.306 -1.2903  1.9488  0.7339
  715TMC3    H210629   0.984   0.980   1.443 -1.2178 -1.8680 -0.3412
  715TMC3    C710630   1.091   1.203   1.394 -0.0777  0.7050  0.2975
  715TMC3    C810631   0.759   0.875   1.321  0.4727  0.8704 -0.0607
  715TMC3    O110632   1.164   1.107   1.403 -0.1445 -0.6138  0.0610
  715TMC3    O210633   0.650   0.842   1.274 -0.1870 -0.0992  0.5310
  716MPD2     C10634   0.264   4.381   9.703 -0.2200 -0.2285  0.1211
  716MPD2    C110635   0.215   4.391   9.576  1.0792 -0.1330 -0.7216
  716MPD2    C210636   0.257   4.296   9.486  0.1147  0.0246  0.4027
  716MPD2    C310637   0.327   4.182   9.524  0.3317  0.3454  0.3632
  716MPD2    C410638   0.357   4.159   9.657 -0.5639  0.2786  0.3177
  716MPD2    C510639   0.320   4.265   9.739  0.5326 -0.4684 -0.7436
  716MPD2     H10640   0.234   4.299   9.380  0.6103  1.4737  0.3372
  716MPD2    H110641   0.393   4.061   9.688 -1.3007 -0.4279 -1.0492
  716MPD2    H210642   0.249   4.462   9.773 -1.6607 -1.0629  0.7826
  716MPD2    H310643   0.340   4.257   9.845 -1.5437  1.3629 -0.2143
  716MPD2     N10644   0.354   4.088   9.426  0.3109 -0.0980  0.0877
  716MPD2    H510645   0.336   4.123   9.332 -0.7080 -0.7541  0.0341
  716MPD2    N110646   0.124   4.496   9.558 -0.1152  0.0614 -0.8520
  716MPD2    H710647   0.106   4.558   9.637 -0.3842  0.2546 -1.0694
  717TMC3    C110648   0.449   3.889   9.323 -0.6520 -0.2495 -0.2559
  717TMC3    C210649   0.356   3.878   9.223 -0.0725  0.5177  0.2873
  717TMC3    C310650   0.381   3.792   9.112  0.1579  0.0627  0.6454
  717TMC3    C410651   0.563   3.809   9.316 -0.5012  0.4402 -0.3324
  717TMC3    C510652   0.578   3.723   9.212 -0.2865 -0.5660 -0.1903
  717TMC3    C610653   0.491   3.712   9.110  0.1816 -0.2289 -0.2381
  717TMC3     C10654   0.430   3.970   9.439  0.0915  0.4530 -0.1363
  717TMC3     O10655   0.478   3.924   9.540 -0.4398  0.2585  0.9486
  717TMC3     H10656   0.264   3.930   9.248 -0.0705  1.1094 -0.9500
  717TMC3    H110657   0.636   3.812   9.395  1.2686 -1.1739 -1.9143
  717TMC3    H210658   0.518   3.647   9.027 -1.2085 -0.3395 -0.6128
  717TMC3    C710659   0.701   3.645   9.206  0.0291 -0.6260 -0.2479
  717TMC3    C810660   0.285   3.794   9.001  0.6336 -0.7093  0.3694
  717TMC3    O110661   0.738   3.596   9.099 -0.0317  0.0110 -0.4371
  717TMC3    O210662   0.211   3.889   9.007 -0.4079  0.3875  0.3686
  718MPD2     C10663   4.376   3.520  12.664  0.1338 -0.6640  0.6833
  718MPD2    C110664   4.241   3.500  12.644 -0.5177 -0.1680  0.3464
  718MPD2    C210665   4.194   3.375  12.602  0.6710 -0.2263 -0.1849
  718MPD2    C310666   4.294   3.279  12.573  0.3580 -0.6381 -0.4555
  718MPD2    C410667   4.427   3.297  12.596  0.0528 -0.1580 -0.1776
  718MPD2    C510668   4.466   3.420  12.635  0.0597  0.3314 -0.5202
  718MPD2     H10669   4.090   3.356  12.579  0.8738 -1.9303  0.3247
  718MPD2    H110670   4.507   3.227  12.575  0.7661  0.6002  0.0149
  718MPD2    H210671   4.413   3.617  12.693 -1.7853  0.3508 -0.2587
  718MPD2    H310672   4.570   3.445  12.655 -0.3587  1.3739  0.3987
  718MPD2     N10673   4.245   3.157  12.523 -0.1150 -1.0620 -0.3025
  718MPD2    H510674   4.145   3.141  12.527  0.0452 -2.2683 -1.1213
  718MPD2    N110675   4.151   3.612  12.670  0.0224  0.4439 -0.0652
  718MPD2    H710676   4.197   3.702  12.673 -1.3529  1.1425 -0.2669
  719TMC3    C110677   3.932   3.710  12.639 -0.3723 -0.5278  0.2489
  719TMC3    C210678   3.845   3.673  12.545 -0.0324 -0.5187 -0.0477
  719TMC3    C310679   3.812   3.760  12.443  0.7951  0.4661  0.4536
  719TMC3    C410680   3.998   3.828  12.630 -0.2582  0.1911  0.2127
  719TMC3    C510681   3.963   3.915  12.529 -0.2259  0.0995 -0.0726
  719TMC3    C610682   3.868   3.879  12.436  0.0017 -0.5103  0.1246
  719TMC3     C10683   4.014   3.596  12.680 -0.3544 -0.2229  0.7833
  719TMC3     O10684   3.953   3.492  12.702 -0.5301  0.0973  0.1365
  719TMC3     H10685   3.803   3.574  12.555 -2.2529  0.1847 -2.4284
  719TMC3    H110686   4.077   3.854  12.700  0.1320 -1.4257  0.3520
  719TMC3    H210687   3.855   3.954  12.358 -1.3785 -1.6370 -0.7103
  719TMC3    C710688   4.071   3.996  12.477 -0.9078  0.0791 -0.5016
  719TMC3    C810689   3.819   3.694  12.312  0.0200 -0.1375  0.5453
  719TMC3    O110690   4.095   4.002  12.355  0.2398 -0.2361  0.7270
  719TMC3    O210691   3.822   3.767  12.213  0.0496 -0.2219  0.4152
  720MPD2     C10692   2.434   0.101  14.159 -0.1822 -0.2146 -0.8084
  720MPD2    C110693   2.493   0.225  14.153  1.2402  0.6345  0.1147
  720MPD2    C210694   2.599   0.254  14.231 -1.4712 -0.3985 -0.4925
  720MPD2    C310695   2.642   0.164  14.325  0.4398 -0.0968 -0.3977
  720MPD2    C410696   2.584   0.036  14.327  0.4395  0.3380  0.4171
  720MPD2    C510697   2.481   0.007  14.245  0.6373  0.3638  0.0216
  720MPD2     H10698   2.660   0.341  14.212  0.8682 -1.9725 -0.1605
  720MPD2    H110699   2.631   4.699  14.391  0.3186 -0.1291 -0.0316
  720MPD2    H210700   2.354   0.088  14.087  0.2315  0.3381 -1.3736
  720MPD2    H310701   2.437   4.644  14.248 -0.6807  1.0031  2.4854
  720MPD2     N10702   2.765   0.192  14.381 -0.3915  0.2744  0.0074
  720MPD2    H510703   2.800   0.285  14.362 -0.1816 -0.5516 -3.7882
  720MPD2    N110704   2.451   0.316  14.051 -1.0402 -0.3626  0.3558
  720MPD2    H710705   2.385   0.285  13.981 -2.0286  0.5553  0.9009
  721TMC3    C110706   2.942   0.159  14.523  1.1622  0.4687  0.5823
  721TMC3    C210707   2.976   0.145  14.655 -0.6101  0.9952 -0.1029
  721TMC3    C310708   3.107   0.128  14.693 -0.5809  0.6221 -0.0496
  721TMC3    C410709   3.035   0.138  14.425  0.5745  0.3498 -0.0276
  721TMC3    C510710   3.166   0.121  14.462 -0.1828  0.7217  0.2667
  721TMC3    C610711   3.199   0.117  14.594  0.1603  0.5181  0.0483
  721TMC3     C10712   2.807   0.127  14.493  0.0389  0.5446 -0.0764
  721TMC3     O10713   2.745   0.064  14.574  0.6797 -0.1429  0.0766
  721TMC3     H10714   2.899   0.157  14.731 -0.2022 -1.0168  0.6042
  721TMC3    H110715   3.006   0.145  14.321 -1.5532 -2.2002  0.3681
  721TMC3    H210716   3.301   0.092  14.621 -0.1425 -0.4407  0.2922
  721TMC3    C710717   3.270   0.113  14.359  0.0688 -0.4138 -0.2472
  721TMC3    C810718   3.146   0.113  14.839  0.3809  0.0193 -0.0314
  721TMC3    O110719   3.265   0.186  14.259 -0.0758  0.0859  0.4264
  721TMC3    O210720   3.263   0.086  14.855  0.4450  0.1568  0.2053
  722MPD2     C10721   1.559   3.172  13.408 -0.4556 -0.1677  0.3478
  722MPD2    C110722   1.465   3.269  13.428 -0.4159  0.0661  0.3084
  722MPD2    C210723   1.333   3.232  13.408  0.2737  0.2475 -0.0205
  722MPD2    C310724   1.299   3.105  13.363  0.8407  0.2018 -0.3340
  722MPD2    C410725   1.395   3.010  13.348  0.4985 -0.2497 -0.6303
  722MPD2    C510726   1.528   3.042  13.379 -0.2702  0.0420  0.1846
  722MPD2     H10727   1.262   3.309  13.434  1.6008  1.8300 -1.1581
  722MPD2    H110728   1.370   2.908  13.321  1.4651 -0.6256 -0.1233
  722MPD2    H210729   1.665   3.184  13.427 -0.3301 -0.2161 -0.2935
  722MPD2    H310730   1.600   2.961  13.386 -0.6988 -0.4727 -1.4009
  722MPD2     N10731   1.156   3.078  13.362  0.3958 -0.3984 -0.1438
  722MPD2    H510732   1.099   3.156  13.394  1.2843 -0.4200  1.4982
  722MPD2    N110733   1.499   3.398  13.468 -0.1625 -0.3967  0.0657
  722MPD2    H710734   1.426   3.466  13.452 -0.2791 -0.7074 -0.7285
  723TMC3    C110735   0.954   2.957  13.377 -0.7670  0.4178 -0.4225
  723TMC3    C210736   0.887   2.850  13.325 -0.4202  0.4316  0.3321
  723TMC3    C310737   0.753   2.843  13.345  0.0223 -0.5685  1.1953
  723TMC3    C410738   0.886   3.065  13.429  0.1701  0.1035  0.2202
  723TMC3    C510739   0.748   3.049  13.448 -0.1780 -0.8862 -0.5619
  723TMC3    C610740   0.680   2.937  13.408  0.4747  0.6059 -0.0885
  723TMC3     C10741   1.099   2.955  13.338  0.2302  0.6956 -0.1867
  723TMC3     O10742   1.148   2.859  13.283 -0.1378  0.0142 -0.3549
  723TMC3     H10743   0.939   2.764  13.284 -0.7633  1.0577 -1.4274
  723TMC3    H110744   0.931   3.156  13.467  2.4214 -1.1301  0.4883
  723TMC3    H210745   0.572   2.933  13.413  0.3504  2.4440 -1.3236
  723TMC3    C710746   0.669   3.167  13.464 -0.7298 -0.4208  0.7552
  723TMC3    C810747   0.686   2.714  13.325 -0.7341 -0.0964 -0.4985
  723TMC3    O110748   0.565   3.147  13.521  0.3404  0.2847  0.5198
  723TMC3    O210749   0.596   2.686  13.403  0.1953  0.0152  0.2961
  724TMC3    C110750   2.007   1.998  10.321 -0.1564  0.2017 -0.5778
  724TMC3    C210751   1.912   2.068  10.252  0.4527 -0.3707 -0.3231
  724TMC3    C310752   1.939   2.190  10.203  0.0203 -0.0053  0.2660
  724TMC3    C410753   2.134   2.046  10.323  0.1583  0.2506 -0.0641
  724TMC3    C510754   2.163   2.163  10.267 -0.4713  0.2001 -0.4380
  724TMC3    C610755   2.064   2.240  10.210 -0.3193 -1.2033  0.3713
  724TMC3     C10756   1.966   1.875  10.387 -0.0756 -0.2475  0.4027
  724TMC3     O10757   2.041   1.840  10.473 -0.1620 -0.0870  0.2751
  724TMC3     H10758   1.810   2.033  10.247  0.0736  0.9902 -2.1203
  724TMC3    H110759   2.211   2.000  10.384 -1.0798 -1.1952  0.3937
  724TMC3    H210760   2.088   2.327  10.150  2.7540 -1.8219  0.7054
  724TMC3    C710761   2.298   2.200  10.244  0.3698 -0.1030 -0.4964
  724TMC3    C810762   1.838   2.259  10.129  1.1376 -0.2376 -1.0405
  724TMC3    O110763   2.374   2.109  10.203  0.1437 -0.7995 -0.9544
  724TMC3    O210764   1.732   2.219  10.079 -0.4498 -0.0270  0.1020
  725TMC3    C110765   3.263   0.351  13.324 -0.3799 -0.1545  0.0989
  725TMC3    C210766   3.133   0.303  13.314  0.5655  0.1507  0.3923
  725TMC3    C310767   3.105   0.240  13.196 -0.4173  0.2566 -0.1632
  725TMC3    C410768   3.364   0.318  13.240  0.7196  0.1425  1.1479
  725TMC3    C510769   3.324   0.245  13.126  0.0028 -1.0322  0.1426
  725TMC3    C610770   3.194   0.209  13.100  0.3707 -0.2173  0.2814
  725TMC3     C10771   3.290   0.469  13.402 -0.4296  0.1321 -0.0435
  725TMC3     O10772   3.391   0.531  13.368  0.0231 -0.3198  0.1900
  725TMC3     H10773   3.053   0.322  13.384  0.6203  1.3862  0.1198
  725TMC3    H110774   3.464   0.357  13.254  1.7618 -2.2634  0.4810
  725TMC3    H210775   3.170   0.149  13.013 -0.1183  0.8911 -0.3423
  725TMC3    C710776   3.417   0.189  13.033  0.8824  0.5082  0.0746
  725TMC3    C810777   2.972   0.199  13.166  0.3543  0.2308  0.8141
  725TMC3    O110778   3.382   0.118  12.941 -0.3084 -0.9724 -0.3125
  725TMC3    O210779   2.899   0.162  13.255  0.5051 -0.6629  0.1599
  726MPD2     C10780   0.768   2.274   9.822 -0.5499 -0.2128  0.2841
  726MPD2    C110781   0.770   2.349   9.932 -0.7618 -0.5670 -0.5337
  726MPD2    C210782   0.715   2.306  10.049 -0.3182  0.9754  0.6423
  726MPD2    C310783   0.638   2.188  10.054 -0.2333  1.1447 -0.3776
  726MPD2    C410784   0.635   2.116   9.937  0.2131 -0.5998 -0.4650
  726MPD2    C510785   0.692   2.165   9.816 -0.8338  0.1080 -0.1797
  726MPD2     H10786   0.711   2.373  10.134 -3.0693  3.6286 -1.5888
  726MPD2    H110787   0.572   2.029   9.925 -1.1823  0.6843 -2.5589
  726MPD2    H210788   0.817   2.306   9.731 -0.6521  1.6578  0.8733
  726MPD2    H310789   0.687   2.114   9.721  1.4876 -2.0187  0.8189
  726MPD2     N10790   0.567   2.138  10.167 -0.3435  0.2841  0.2800
  726MPD2    H510791   0.517   2.050  10.163 -0.9946  0.6270  0.8669
  726MPD2    N110792   0.851   2.467   9.930  0.3098  0.5547 -0.4488
  726MPD2    H710793   0.870   2.492   9.833 -2.0029  1.4571 -0.6851
  727TMC3    C110794   0.981   2.649   9.995 -0.2624  0.1720 -0.0318
  727TMC3    C210795   1.024   2.721  10.100 -0.4561  0.0697  0.2302
  727TMC3    C310796   1.084   2.841  10.071  0.2030  0.8936  0.8147
  727TMC3    C410797   1.001   2.679   9.860 -0.5185 -0.5481 -0.5760
  727TMC3    C510798   1.078   2.791   9.845 -0.1877 -1.2603  0.5770
  727TMC3    C610799   1.115   2.881   9.944 -0.5680  0.4560 -0.7120
  727TMC3     C10800   0.902   2.534  10.039 -0.5677  1.2111 -0.6933
  727TMC3     O10801   0.897   2.512  10.158  0.7255  0.0231  0.3524
  727TMC3     H10802   1.029   2.678  10.199 -2.6349  1.5855  0.9977
  727TMC3    H110803   0.982   2.611   9.778  3.5394  0.0328 -2.0056
  727TMC3    H210804   1.167   2.971   9.915 -1.1127  1.0868  0.2589
  727TMC3    C710805   1.120   2.808   9.710  0.5884 -0.7054  0.1220
  727TMC3    C810806   1.125   2.919  10.187  0.0258  0.1983  0.1231
  727TMC3    O110807   1.045   2.767   9.628  0.0479 -0.1333  0.4493
  727TMC3    O210808   1.122   2.865  10.297 -0.2093  0.0075 -0.3799
  728TMC3    C110809   0.661   0.311  15.075 -0.4038 -0.3096 -0.1379
  728TMC3    C210810   0.796   0.326  15.064 -0.2886  0.6964  0.0655
  728TMC3    C310811   0.853   0.340  14.942 -0.2883 -0.6443 -0.2465
  728TMC3    C410812   0.584   0.334  14.967  0.2170  0.3923  0.5792
  728TMC3    C510813   0.643   0.359  14.848 -0.1925  0.7235 -0.1097
  728TMC3    C610814   0.780   0.353  14.828 -0.1216  0.5416 -0.1407
  728TMC3     C10815   0.608   0.318  15.209  0.1662 -0.0198  0.4613
  728TMC3     O10816   0.697   0.323  15.291  0.1910  0.0031 -0.0043
  728TMC3     H10817   0.859   0.321  15.152 -1.6003  2.5958  1.1334
  728TMC3    H110818   0.476   0.337  14.980 -0.0550 -4.0991 -0.5914
  728TMC3    H210819   0.816   0.373  14.728 -0.1040  3.4528  0.4380
  728TMC3    C710820   0.561   0.388  14.730  0.0874 -0.1459  0.0273
  728TMC3    C810821   0.988   0.315  14.921 -0.4984  0.8568 -0.0911
  728TMC3    O110822   0.463   0.309  14.715  0.6377 -0.1332  0.4295
  728TMC3    O210823   1.068   0.350  15.001 -0.4079 -0.1585  0.8374
  729MPD2     C10824   2.644   1.347  16.784  0.4090  0.1446  0.5430
  729MPD2    C110825   2.733   1.423  16.858  0.2410 -0.4243  0.3440
  729MPD2    C210826   2.697   1.467  16.983  0.1372  0.3928  0.0310
  729MPD2    C310827   2.578   1.426  17.042  0.1570  0.8689  0.7808
  729MPD2    C410828   2.501   1.327  16.978 -0.5259 -0.0025  0.2985
  729MPD2    C510829   2.533   1.295  16.847  0.2720  0.2660  0.4120
  729MPD2     H10830   2.764   1.540  17.029 -0.4982  1.0805 -0.1364
  729MPD2    H110831   2.412   1.280  17.017  0.0288 -0.6181  0.8111
  729MPD2    H210832   2.671   1.307  16.687  1.4454  1.5796  0.2335
  729MPD2    H310833   2.475   1.223  16.790  4.9385 -1.1147 -2.6246
  729MPD2     N10834   2.540   1.466  17.172 -0.1497  0.7706  0.0619
  729MPD2    H510835   2.474   1.414  17.228  1.6261 -0.4848  0.9961
  729MPD2    N110836   2.847   1.465  16.788 -0.0677 -0.8009  0.3750
  729MPD2    H710837   2.849   1.430  16.693  2.5204  0.9310 -0.2167
  730TMC3    C110838   2.530   1.616  17.354 -0.1871  0.2442 -0.5933
  730TMC3    C210839   2.589   1.536  17.453 -0.3974  0.1949  0.2612
  730TMC3    C310840   2.605   1.586  17.578  0.2677 -0.0298 -0.2274
  730TMC3    C410841   2.516   1.748  17.377 -0.2688 -0.0518  0.7060
  730TMC3    C510842   2.533   1.796  17.503  0.0547  0.2936 -0.4151
  730TMC3    C610843   2.572   1.717  17.612  0.6549 -0.5305 -0.5848
  730TMC3     C10844   2.573   1.589  17.220  0.1286  0.4281 -0.0863
  730TMC3     O10845   2.623   1.680  17.154 -0.5098 -0.2817 -0.2084
  730TMC3     H10846   2.636   1.441  17.431  2.4706  1.0267  2.7049
  730TMC3    H110847   2.468   1.805  17.298  0.4547  0.0130  0.3115
  730TMC3    H210848   2.608   1.764  17.703  1.6633 -3.1519  0.3667
  730TMC3    C710849   2.498   1.932  17.523  0.3147 -0.5196  0.4195
  730TMC3    C810850   2.737   1.550  17.622  0.3066 -0.2142  0.2544
  730TMC3    O110851   2.440   1.966  17.628 -0.5812  0.0990  0.4364
  730TMC3    O210852   2.759   1.431  17.633 -0.3310 -0.1894 -0.4288
  731MPD2     C10853   2.810   4.696  12.426 -0.1573  0.0307  0.0416
  731MPD2    C110854   2.947   4.688  12.430  0.0196  0.1056 -0.4789
  731MPD2    C210855   3.015   4.667  12.548  0.1318  0.0643  0.3539
  731MPD2    C310856   2.946   4.670  12.664  0.1914  0.0669  0.6038
  731MPD2    C410857   2.809   4.690  12.663  0.4708  0.1852  0.3761
  731MPD2    C510858   2.739   4.707  12.543  0.1296  0.1907 -0.1365
  731MPD2     H10859   3.115   4.626  12.547 -0.4637 -1.4118  0.4013
  731MPD2    H110860   2.740   4.686  12.747 -0.5549 -0.1585 -0.4876
  731MPD2    H210861   2.760   4.722  12.333  1.6176  0.9239 -0.6672
  731MPD2    H310862   2.635   0.001  12.551  0.6239  1.3620  1.9135
  731MPD2     N10863   3.022   4.638  12.780 -0.6442 -0.0732 -0.1640
  731MPD2    H510864   3.116   4.602  12.775 -0.4896  0.3791 -0.4618
  731MPD2    N110865   3.009   4.698  12.304 -0.2503 -0.3717  0.3099
  731MPD2    H710866   2.946   4.700  12.224 -1.7513 -1.6697  1.4667
  732TMC3    C110867   3.180   4.715  12.139  1.0051 -0.8975 -0.2556
  732TMC3    C210868   3.084   4.709  12.034 -0.0969 -0.5142  0.1871
  732TMC3    C310869   3.125   4.725  11.903  0.2439 -0.1642  0.3692
  732TMC3    C410870   3.306   0.018  12.106  0.3331 -0.0871 -0.2128
  732TMC3    C510871   3.340   0.022  11.978  0.1101 -0.8395 -0.7977
  732TMC3    C610872   3.256   0.016  11.873  0.0879  0.7571 -0.1227
  732TMC3     C10873   3.150   4.707  12.284  0.0808  0.6956 -0.5128
  732TMC3     O10874   3.245   4.713  12.360 -0.2705  0.1207 -0.4109
  732TMC3     H10875   2.984   4.669  12.045 -0.8462  1.4993  0.7555
  732TMC3    H110876   3.383   0.017  12.183  1.2078  0.1380 -1.0851
  732TMC3    H210877   3.279   4.728  11.770  0.1232  0.2346  0.0086
  732TMC3    C710878   3.476   4.733  11.948  0.5005 -0.5258  0.8602
  732TMC3    C810879   3.039   4.697  11.789 -0.0522 -0.1139 -0.1648
  732TMC3    O110880   3.516   0.066  11.854 -0.8984  0.4124  0.0398
  732TMC3    O210881   3.085   4.695  11.676  0.2617  0.6915  0.2967
  733TMC3    C110882   4.024   2.874  12.463  0.0055 -0.7484  0.1869
  733TMC3    C210883   4.141   2.894  12.523 -0.5050 -0.7277  0.9023
  733TMC3    C310884   4.235   2.945  12.437  0.0766 -0.7630 -0.3875
  733TMC3    C410885   4.005   2.889  12.327 -0.2678 -0.5819  0.3432
  733TMC3    C510886   4.105   2.929  12.241 -0.2429  0.0293  0.0551
  733TMC3    C610887   4.217   2.971  12.304  0.2012  0.2918  0.2549
  733TMC3     C10888   3.905   2.828  12.534 -0.2842  0.0490 -0.1391
  733TMC3     O10889   3.802   2.834  12.472  0.0073 -0.8233 -0.2531
  733TMC3     H10890   4.149   2.903  12.631 -1.5487 -0.2555  0.9432
  733TMC3    H110891   3.904   2.890  12.286  0.4990  0.3251 -1.5184
  733TMC3    H210892   4.278   3.041  12.249  0.1253 -0.4604 -0.7846
  733TMC3    C710893   4.063   3.029  12.143 -0.3579 -0.1083 -0.3122
  733TMC3    C810894   4.319   3.049  12.488 -0.3500 -0.1070  0.1747
  733TMC3    O110895   4.123   3.032  12.036  0.0829 -0.5200 -0.4832
  733TMC3    O210896   4.439   3.040  12.461 -0.4047  0.3266 -0.0074
  734MPD2     C10897   0.920   0.262  12.536  0.6635  0.0435 -0.2636
  734MPD2    C110898   0.842   0.237  12.433  0.5711 -0.2714 -0.8282
  734MPD2    C210899   0.859   0.313  12.317  0.1145 -0.1592 -0.5029
  734MPD2    C310900   0.961   0.405  12.316  0.5068  0.2669  0.6387
  734MPD2    C410901   1.028   0.440  12.431  0.8297  0.2247 -0.4661
  734MPD2    C510902   1.008   0.364  12.534 -0.8551 -0.2784 -0.7770
  734MPD2     H10903   0.812   0.289  12.222 -0.4012  0.0260 -0.2911
  734MPD2    H110904   1.102   0.518  12.438  0.8622  0.0873  0.6864
  734MPD2    H210905   0.914   0.197  12.622  2.9962  1.4888  0.9854
  734MPD2    H310906   1.055   0.395  12.626 -1.3656  1.6831 -1.1613
  734MPD2     N10907   0.985   0.468  12.191 -0.0965 -0.6313 -0.9769
  734MPD2    H510908   0.919   0.452  12.115  0.2130 -0.3522 -1.3056
  734MPD2    N110909   0.747   0.129  12.444 -0.1158  0.7023 -0.3791
  734MPD2    H710910   0.743   0.079  12.532 -0.4321 -2.1925 -2.0347
  735TMC3    C110911   0.563   4.722  12.375 -0.4334 -0.0552 -0.3567
  735TMC3    C210912   0.486   4.706  12.264  0.9787  0.6610 -0.3246
  735TMC3    C310913   0.484   4.594  12.191  0.3665 -0.2778  0.0057
  735TMC3    C410914   0.628   4.613  12.427 -0.2474 -0.3283 -0.4923
  735TMC3    C510915   0.628   4.496  12.357  0.3108  0.2505 -0.0667
  735TMC3    C610916   0.551   4.487  12.244  0.4494  0.2421  0.5234
  735TMC3     C10917   0.649   0.103  12.349 -0.6337 -0.5585  0.0902
  735TMC3     O10918   0.630   0.152  12.238  0.5637  0.1945 -0.0334
  735TMC3     H10919   0.426   0.053  12.227  0.1476  0.0616 -0.3236
  735TMC3    H110920   0.683   4.614  12.520 -0.5798  0.6678 -0.3081
  735TMC3    H210921   0.567   4.408  12.171 -1.7882  0.0495  0.2606
  735TMC3    C710922   0.760   4.438  12.343 -0.4263 -0.0900  0.8597
  735TMC3    C810923   0.506   4.611  12.052 -0.9948 -0.6052  1.1437
  735TMC3    O110924   0.861   4.507  12.354  0.7935 -0.1014 -0.8458
  735TMC3    O210925   0.466   4.523  11.979 -0.0171 -0.0789 -0.4513
  736MPD2     C10926   0.820   4.097  12.207  0.4898  0.6130  0.0057
  736MPD2    C110927   0.852   4.227  12.242 -0.1584 -0.3120 -0.2548
  736MPD2    C210928   0.982   4.267  12.219 -0.6281  0.8596  0.3584
  736MPD2    C310929   1.082   4.176  12.177 -0.5220  0.1098 -0.6057
  736MPD2    C410930   1.043   4.045  12.154  0.4571 -0.1313 -0.5926
  736MPD2    C510931   0.915   4.005  12.165  0.3734  0.2199  0.0761
  736MPD2     H10932   1.017   4.370  12.223  0.0817  0.5687  1.7710
  736MPD2    H110933   1.110   3.962  12.137  1.2850 -0.0002  2.1125
  736MPD2    H210934   0.719   4.057  12.201  0.0111  2.0345 -1.3213
  736MPD2    H310935   0.881   3.905  12.142  0.0830  0.2270  0.4807
  736MPD2     N10936   1.222   4.203  12.169  0.4034  0.4196  0.2296
  736MPD2    H510937   1.284   4.124  12.148 -0.7187 -0.3876 -0.0387
  736MPD2    N110938   0.755   4.308  12.299 -0.4843 -0.0471 -0.5490
  736MPD2    H710939   0.667   4.260  12.312 -0.4419 -0.1264 -0.5577
  737TMC3    C110940   1.413   4.337  12.160 -0.0938 -0.0436 -0.6810
  737TMC3    C210941   1.451   4.477  12.153  0.4619  0.3194 -0.6098
  737TMC3    C310942   1.516   4.513  12.039 -0.2779 -0.6252 -1.1411
  737TMC3    C410943   1.450   4.245  12.066 -0.3689  0.2542  0.3595
  737TMC3    C510944   1.502   4.294  11.951 -0.2954 -0.4764  0.1100
  737TMC3    C610945   1.540   4.425  11.938 -0.5207 -0.3810  0.0031
  737TMC3     C10946   1.286   4.320  12.215 -0.3444 -0.1947 -0.4505
  737TMC3     O10947   1.239   4.421  12.262 -0.5219  0.6085 -0.0875
  737TMC3     H10948   1.437   4.546  12.236 -0.3793  0.5920 -0.9813
  737TMC3    H110949   1.426   4.140  12.070  2.3059 -0.3901 -0.7766
  737TMC3    H210950   1.556   4.474  11.843 -0.8357 -1.6354 -0.7011
  737TMC3    C710951   1.518   4.210  11.838  0.5232 -0.8665  0.0005
  737TMC3    C810952   1.515   4.655  12.011  0.8719  0.0297 -0.8958
  737TMC3    O110953   1.498   4.090  11.859  0.3934 -0.2442  0.6884
  737TMC3    O210954   1.519   4.688  11.894 -0.2946 -0.6492  0.2208
  738MPD2     C10955   1.650   3.687  14.911 -0.0400  0.6884  0.6892
  738MPD2    C110956   1.709   3.571  14.956 -0.1453  0.2419  0.1230
  738MPD2    C210957   1.849   3.552  14.942 -0.5370  0.4822 -0.0446
  738MPD2    C310958   1.922   3.650  14.889  0.2037  0.1470 -0.0630
  738MPD2    C410959   1.861   3.753  14.823  0.1901 -0.4293  0.0991
  738MPD2    C510960   1.726   3.770  14.837  0.1614 -0.7410  0.0139
  738MPD2     H10961   1.905   3.471  14.988 -1.6565  2.0862  4.1896
  738MPD2    H110962   1.911   3.832  14.768  3.1011 -2.3972 -0.0371
  738MPD2    H210963   1.547   3.712  14.932 -0.6256  0.7245 -2.2785
  738MPD2    H310964   1.684   3.861  14.797  1.8807  0.6039  1.2514
  738MPD2     N10965   2.063   3.646  14.878  0.2600  0.1860  0.1442
  738MPD2    H510966   2.104   3.696  14.800 -0.0253  1.3490  0.7428
  738MPD2    N110967   1.635   3.469  15.023  0.5341  0.5896 -0.3056
  738MPD2    H710968   1.684   3.388  15.059 -3.0295 -2.6060 -2.5348
  739TMC3    C110969   2.284   3.580  14.896  0.6183  0.3730  0.2191
  739TMC3    C210970   2.282   3.644  14.772  0.2190  0.3428 -0.4458
  739TMC3    C310971   2.371   3.751  14.741 -0.3744  0.7120  0.4559
  739TMC3    C410972   2.374   3.629  14.989 -0.3722  0.1018  0.2151
  739TMC3    C510973   2.459   3.728  14.960 -0.4577  0.4014 -0.2739
  739TMC3    C610974   2.456   3.795  14.841 -0.2110 -0.5200  0.2023
  739TMC3     C10975   2.149   3.568  14.949 -0.1319 -0.0096  0.6542
  739TMC3     O10976   2.123   3.499  15.047 -0.1840 -0.3221 -0.5265
  739TMC3     H10977   2.224   3.606  14.689  1.6431  0.2899 -1.4178
  739TMC3    H110978   2.351   3.596  15.090  0.2235  0.1459  0.3684
  739TMC3    H210979   2.544   3.852  14.816 -1.3204 -0.0355 -2.6842
  739TMC3    C710980   2.554   3.763  15.065 -0.9197 -0.3846 -0.3834
  739TMC3    C810981   2.334   3.845  14.640 -0.1386 -0.4582  0.1170
  739TMC3    O110982   2.548   3.702  15.168 -0.0426 -0.9603  0.5076
  739TMC3    O210983   2.221   3.814  14.600 -0.8243  0.3153 -0.4286
  740TMC3    C110984   2.471   0.545  14.689  0.2444 -0.4690  0.6138
  740TMC3    C210985   2.513   0.470  14.799 -0.0135 -0.7775  0.2514
  740TMC3    C310986   2.639   0.418  14.817  0.4461 -0.0323 -0.1215
  740TMC3    C410987   2.569   0.585  14.593  0.0307 -0.2046  0.0768
  740TMC3    C510988   2.692   0.524  14.614 -0.3016 -0.3669  0.3303
  740TMC3    C610989   2.728   0.449  14.725 -0.1723  0.0828  0.2342
  740TMC3     C10990   2.345   0.616  14.703  0.5306 -0.5730  0.1012
  740TMC3     O10991   2.347   0.733  14.668  0.2566 -0.4086  0.4923
  740TMC3     H10992   2.440   0.446  14.876 -1.4681  1.0216 -0.5538
  740TMC3    H110993   2.539   0.636  14.502 -1.7328 -1.0742  0.1683
  740TMC3    H210994   2.826   0.403  14.724  0.0638  0.5808 -0.1165
  740TMC3    C710995   2.799   0.525  14.514  0.1644  0.4541 -0.4455
  740TMC3    C810996   2.686   0.325  14.922 -0.2255 -0.1713  0.5608
  740TMC3    O110997   2.913   0.487  14.546  0.2624  0.5165  0.4849
  740TMC3    O210998   2.798   0.284  14.903  0.4812  0.6511 -0.2810
  741TMC3    C110999   2.092   4.485  14.388 -0.1206  0.2244  0.7552
  741TMC3    C211000   1.962   4.442  14.373  0.3124  0.4588  0.6588
  741TMC3    C311001   1.927   4.323  14.434  0.2341  0.0833 -0.2592
  741TMC3    C411002   2.175   4.424  14.481  0.3044  0.7439 -0.3239
  741TMC3    C511003   2.131   4.320  14.553 -0.0314 -0.2876 -0.2488
  741TMC3    C611004   2.010   4.257  14.522  0.0594  0.1623 -0.8097
  741TMC3     C11005   2.117   4.626  14.359 -0.4701 -0.4422 -0.0444
  741TMC3     O11006   2.208   4.679  14.420 -0.2346  0.9651 -0.1821
  741TMC3     H11007   1.888   4.501  14.320  3.2290  1.6701 -2.0533
  741TMC3    H111008   2.277   4.462  14.486  0.8656 -0.7360 -0.4584
  741TMC3    H211009   1.965   4.188  14.592 -1.0495  0.8444 -0.8358
  741TMC3    C711010   2.224   4.269  14.653  0.1372 -0.1457  0.6861
  741TMC3    C811011   1.802   4.265  14.396  0.1894  0.5278 -0.0245
  741TMC3    O111012   2.324   4.342  14.669 -0.0572  1.1600  0.1758
  741TMC3    O211013   1.728   4.327  14.322  0.5865 -0.1014 -0.1104
  742TMC3    C111014   2.175   2.808  15.152  0.2511 -0.7281  0.3435
  742TMC3    C211015   2.091   2.810  15.042 -0.8953  0.4985 -0.6556
  742TMC3    C311016   2.132   2.889  14.933 -0.5733  0.0798  0.2153
  742TMC3    C411017   2.277   2.900  15.174 -0.5745 -0.0439 -0.0279
  742TMC3    C511018   2.306   2.978  15.063 -0.5911  0.0582  0.2215
  742TMC3    C611019   2.239   2.974  14.942 -0.2264 -0.3860 -0.2562
  742TMC3     C11020   2.160   2.714  15.259 -0.0216 -1.1691  0.2068
  742TMC3     O11021   2.258   2.692  15.327 -0.0426 -0.2680  0.4154
  742TMC3     H11022   2.016   2.737  15.015  0.1029 -0.4760 -0.7828
  742TMC3    H111023   2.331   2.899  15.268  0.1667 -0.9071 -0.4684
  742TMC3    H211024   2.270   3.034  14.857  1.3665 -0.6459  0.1589
  742TMC3    C711025   2.454   2.977  15.047 -0.5521  0.2494  0.6111
  742TMC3    C811026   2.075   2.846  14.807 -0.3959 -0.1946  0.3367
  742TMC3    O111027   2.504   2.929  14.949 -0.4023 -0.1690 -0.3805
  742TMC3    O211028   2.001   2.751  14.796 -0.1752  0.4754 -0.3725
  743MPD2     C11029   4.527   3.977   1.927  0.9633 -0.0993  0.2335
  743MPD2    C111030   4.590   3.922   1.814  0.3616 -0.0750 -0.1104
  743MPD2    C211031   4.728   3.924   1.805  0.0491 -0.9478 -0.0477
  743MPD2    C311032   0.066   4.001   1.888 -0.0375  0.4032 -0.0673
  743MPD2    C411033   0.003   4.055   2.001  0.2241 -0.3270 -0.3115
  743MPD2    C511034   4.606   4.041   2.019  0.1009 -0.7347  0.6966
  743MPD2     H11035   0.051   3.878   1.726  1.4401  1.6374 -0.5327
  743MPD2    H111036   0.060   4.110   2.075  0.4847 -1.2739  0.1947
  743MPD2    H211037   4.420   3.987   1.940  1.0773 -0.2247  1.3030
  743MPD2    H311038   4.556   4.085   2.105 -0.4944  0.2461 -0.1395
  743MPD2     N11039   0.207   4.011   1.863  0.0384  0.4597  0.0574
  743MPD2    H511040   0.234   3.957   1.782  1.0349  0.7544  0.1947
  743MPD2    N111041   4.512   3.859   1.717  0.1462  0.4447 -0.1645
  743MPD2    H711042   4.413   3.881   1.713  0.0925 -0.2250 -2.2736
  744TMC3    C111043   4.473   3.734   1.507 -0.8470 -0.3743 -0.4598
  744TMC3    C211044   4.379   3.829   1.468  1.5116  0.5896 -0.0027
  744TMC3    C311045   4.354   3.841   1.340  0.7396  0.5847  0.2333
  744TMC3    C411046   4.526   3.653   1.409  0.0729  0.0962  0.1044
  744TMC3    C511047   4.497   3.674   1.276 -0.0849 -0.2038  0.2399
  744TMC3    C611048   4.404   3.764   1.236 -1.6111  0.6462 -0.0815
  744TMC3     C11049   4.560   3.768   1.621  0.0576 -0.3228 -0.0808
  744TMC3     O11050   4.669   3.715   1.625 -0.3034 -0.5664 -0.0692
  744TMC3     H11051   4.344   3.913   1.527  0.7267 -1.3764  2.3301
  744TMC3    H111052   4.604   3.583   1.437 -0.5397 -0.2358  0.9669
  744TMC3    H211053   4.378   3.775   1.131  0.2483 -0.1831 -0.6358
  744TMC3    C711054   4.534   3.566   1.187 -0.0395 -0.8565 -0.4009
  744TMC3    C811055   4.297   3.965   1.302  0.0479  0.0349  0.0033
  744TMC3    O111056   4.515   3.444   1.211  0.6293  0.6942 -0.3346
  744TMC3    O211057   4.345   4.020   1.206  0.2132  0.4901  0.0026
  745TMC3    C111058   2.657   2.533  13.522 -0.1675  0.7831  0.2500
  745TMC3    C211059   2.547   2.560  13.599  0.0873 -0.0530  0.1545
  745TMC3    C311060   2.428   2.559  13.527 -0.4127  0.7565 -0.0573
  745TMC3    C411061   2.662   2.510  13.388 -0.0861 -0.2853  0.0685
  745TMC3    C511062   2.535   2.498  13.332 -0.4989 -0.0225  0.9673
  745TMC3    C611063   2.419   2.514  13.399 -0.2112 -0.2351 -0.4593
  745TMC3     C11064   2.774   2.593  13.579  0.5655  0.1435 -0.4045
  745TMC3     O11065   2.886   2.542  13.570 -1.2678 -0.4409  0.0573
  745TMC3     H11066   2.555   2.600  13.699  0.0999 -0.0759  0.1627
  745TMC3    H111067   2.759   2.501  13.341  1.3574  1.5458  2.6802
  745TMC3    H211068   2.322   2.514  13.350  0.1871 -1.7113 -1.2535
  745TMC3    C711069   2.522   2.514  13.183 -0.0418  0.4352  0.1433
  745TMC3    C811070   2.306   2.602  13.593  0.0418  0.8493  0.0194
  745TMC3    O111071   2.412   2.483  13.135 -0.2224 -0.0196  0.2693
  745TMC3    O211072   2.203   2.550  13.564  0.0777 -0.2183  0.0130
  746TMC3    C111073   0.588   0.138  10.671 -0.0622  0.2408  0.0844
  746TMC3    C211074   0.612   0.171  10.542  0.1830 -0.3653  0.1170
  746TMC3    C311075   0.539   0.101  10.454  0.4384 -0.2843 -0.7190
  746TMC3    C411076   0.508   0.035  10.712  0.0681  0.0083  0.1422
  746TMC3    C511077   0.449   4.693  10.621  0.5509 -0.2811  0.3671
  746TMC3    C611078   0.458   4.733  10.490 -0.2585 -0.4298  0.2246
  746TMC3     C11079   0.614   0.236  10.776  0.3390  0.6277  0.6663
  746TMC3     O11080   0.556   0.220  10.879  0.0763  0.3872 -0.2547
  746TMC3     H11081   0.677   0.256  10.524  0.2061 -0.3581  0.2304
  746TMC3    H111082   0.480   0.025  10.816 -3.4690  2.2337 -0.6039
  746TMC3    H211083   0.385   4.694  10.421  1.3600 -0.1417 -1.6547
  746TMC3    C711084   0.339   4.600  10.654  0.7630  0.6585  0.3314
  746TMC3    C811085   0.574   0.113  10.314 -0.4164  0.3768  0.1437
  746TMC3    O111086   0.275   4.564  10.558 -0.0646 -0.0141  0.1336
  746TMC3    O211087   0.536   0.026  10.239 -0.0487 -0.2709  0.6315
  747TMC3    C111088   2.227   4.262  11.044 -0.0216 -0.1910 -0.3569
  747TMC3    C211089   2.115   4.190  11.079  0.3969  0.4600 -0.2636
  747TMC3    C311090   2.015   4.250  11.145  0.2673  0.0432  0.6572
  747TMC3    C411091   2.229   4.401  11.061  0.0859  0.1615 -0.4765
  747TMC3    C511092   2.120   4.464  11.102  0.3540  0.4576  0.1596
  747TMC3    C611093   2.016   4.389  11.148  0.6669 -0.1391  0.1223
  747TMC3     C11094   2.333   4.195  10.973  0.1995  0.2622  0.3640
  747TMC3     O11095   2.307   4.085  10.918 -0.2344 -0.1198 -0.5881
  747TMC3     H11096   2.113   4.083  11.063 -0.3918  0.3600  0.4849
  747TMC3    H111097   2.313   4.461  11.028  0.8465  0.0676  1.3225
  747TMC3    H211098   1.936   4.445  11.194  0.6480 -0.5094  0.5486
  747TMC3    C711099   2.136   4.592  11.167 -0.6013 -0.5576  0.3147
  747TMC3    C811100   1.919   4.174  11.212  0.1065  0.1847  0.3722
  747TMC3    O111101   2.033   4.654  11.187  0.4525 -0.2560  0.1046
  747TMC3    O211102   1.929   4.054  11.186 -0.5575 -0.2208 -0.2240
  748MPD2     C11103   3.688   0.251   0.947  0.3243  0.0541 -0.0877
  748MPD2    C111104   3.799   0.317   0.902 -0.2680 -0.4958 -0.0720
  748MPD2    C211105   3.912   0.309   0.974  0.1066 -1.1853  0.1377
  748MPD2    C311106   3.922   0.232   1.091 -0.2346 -0.1302  0.4200
  748MPD2    C411107   3.804   0.184   1.142 -0.4687 -0.7570  0.5722
  748MPD2    C511108   3.695   0.187   1.067 -0.0380 -0.1430  0.4514
  748MPD2     H11109   4.008   0.349   0.943  0.8044 -1.9235  1.3546
  748MPD2    H111110   3.792   0.144   1.242 -0.3556 -0.8934  0.5312
  748MPD2    H211111   3.589   0.250   0.903 -0.1850 -1.8197  1.0967
  748MPD2    H311112   3.609   0.144   1.116 -0.5333  0.8186  0.4389
  748MPD2     N11113   4.048   0.219   1.153  0.1856  0.0747  0.8072
  748MPD2    H511114   4.125   0.256   1.098  1.0078 -0.2987  1.7070
  748MPD2    N111115   3.771   0.396   0.791  0.2058 -0.2139  0.0226
  748MPD2    H711116   3.686   0.383   0.738  0.2486 -1.0920  0.1768
  749TMC3    C111117   4.219   0.118   1.293 -0.1407  0.5454  0.4471
  749TMC3    C211118   4.242   4.732   1.349 -0.8559  0.8957  0.0267
  749TMC3    C311119   4.365   4.679   1.343  0.2429 -0.1532 -0.0075
  749TMC3    C411120   4.319   0.191   1.249  0.7270 -0.3458  0.0968
  749TMC3    C511121   4.440   0.138   1.233 -0.2626  0.6072  0.1377
  749TMC3    C611122   4.457   0.008   1.280  0.5927  0.4201 -0.5692
  749TMC3     C11123   4.080   0.156   1.272  0.3239  0.4736 -0.0102
  749TMC3     O11124   4.001   0.092   1.345 -0.1906 -0.0455 -0.1022
  749TMC3     H11125   4.180   4.688   1.426  0.8960 -3.1147 -0.8781
  749TMC3    H111126   4.292   0.289   1.211 -0.8791 -1.2019 -0.9887
  749TMC3    H211127   4.549   4.694   1.254  1.1363  0.5278  1.1321
  749TMC3    C711128   4.551   0.225   1.209 -0.0063  0.9619  0.1555
  749TMC3    C811129   4.389   4.548   1.407 -0.0843 -0.9368 -0.2026
  749TMC3    O111130   4.530   0.338   1.166  0.1511 -0.3558  0.5655
  749TMC3    O211131   4.290   4.476   1.434 -0.2405  0.3042  0.4419
  750MPD2     C11132   4.608   2.193  11.707  0.6067  0.4033 -0.0410
  750MPD2    C111133   4.529   2.089  11.739  0.9026 -0.1684 -0.0568
  750MPD2    C211134   4.557   1.970  11.688 -0.5550  0.4907  0.1375
  750MPD2    C311135   4.654   1.946  11.592  0.0179  0.3144 -0.1434
  750MPD2    C411136   4.732   2.067  11.548 -0.4015 -0.5297  1.4757
  750MPD2    C511137   4.706   2.186  11.610  0.0253  0.0646 -0.0798
  750MPD2     H11138   4.495   1.886  11.717 -1.0566 -0.1076 -2.6927
  750MPD2    H111139   0.062   2.060  11.462 -0.6805 -1.1414  1.3078
  750MPD2    H211140   4.597   2.292  11.749 -1.7028  0.8141 -1.5923
  750MPD2    H311141   0.011   2.274  11.562 -1.8934  1.5778  1.0509
  750MPD2     N11142   4.674   1.822  11.525 -0.0177 -0.3675 -0.1427
  750MPD2    H511143   0.001   1.823  11.446 -0.3733  0.9527 -0.4079
  750MPD2    N111144   4.418   2.114  11.830 -0.2216 -0.4363 -0.5159
  750MPD2    H711145   4.393   2.207  11.860  0.8477  0.2583 -1.8040
  751TMC3    C111146   4.628   1.594  11.478  0.2962 -0.3259 -0.1971
  751TMC3    C211147   4.560   1.481  11.519 -0.8177  0.6089  0.0520
  751TMC3    C311148   4.520   1.393  11.417  0.0405 -0.2399 -1.0200
  751TMC3    C411149   4.687   1.605  11.347  0.1062 -0.5331  0.1280
  751TMC3    C511150   4.649   1.505  11.257 -0.3765  0.7826  0.5604
  751TMC3    C611151   4.553   1.410  11.285 -0.0345  0.0176  0.3714
  751TMC3     C11152   4.595   1.714  11.552  0.9307  0.1458 -0.3774
  751TMC3     O11153   4.515   1.693  11.636 -0.9549  0.0992  0.9149
  751TMC3     H11154   4.526   1.468  11.621  0.5557  0.7118  0.5266
  751TMC3    H111155   0.017   1.686  11.317  2.3639 -2.7180 -0.8798
  751TMC3    H211156   4.530   1.333  11.212  2.5714 -0.8750  0.5151
  751TMC3    C711157   0.016   1.457  11.174 -0.0054 -0.1730 -0.2260
  751TMC3    C811158   4.546   1.255  11.449 -0.4599  0.1213 -0.7905
  751TMC3    O111159   0.080   1.537  11.104  0.1176  0.1942 -0.4545
  751TMC3    O211160   4.629   1.204  11.373  0.2491  0.1598  0.0450
  752TMC3    C111161   3.843   1.704  17.337 -0.6115 -0.2371  0.1263
  752TMC3    C211162   3.907   1.583  17.364  0.6653 -0.8787 -0.2221
  752TMC3    C311163   3.864   1.512  17.469  0.3347 -0.0963 -0.1893
  752TMC3    C411164   3.730   1.743  17.403  0.1459 -1.1787  0.0749
  752TMC3    C511165   3.694   1.662  17.508 -0.5850  0.7438 -0.2518
  752TMC3    C611166   3.762   1.549  17.546  0.2572 -0.3340  0.4989
  752TMC3     C11167   3.858   1.755  17.204 -0.0383 -0.2793 -0.2432
  752TMC3     O11168   3.964   1.786  17.153 -0.2729  0.5068 -0.4457
  752TMC3     H11169   3.986   1.532  17.310  2.5097  1.6829  0.0839
  752TMC3    H111170   3.679   1.831  17.368 -1.5857 -2.1907  0.0411
  752TMC3    H211171   3.722   1.492  17.628 -0.9018 -0.3147 -0.0565
  752TMC3    C711172   3.606   1.721  17.602  0.2512 -0.0731 -0.4382
  752TMC3    C811173   3.939   1.391  17.498 -0.6635  0.4019  0.0192
  752TMC3    O111174   3.641   1.832  17.637 -0.4164  0.3636 -0.0574
  752TMC3    O211175   4.058   1.392  17.486 -0.1872  0.2089 -0.1635
  753TMC3    C111176   0.266   2.618  13.214  0.1624 -1.3269  0.4378
  753TMC3    C211177   0.311   2.600  13.340 -0.0790 -0.4048 -0.2014
  753TMC3    C311178   0.285   2.489  13.410 -0.3489  0.3017 -0.2694
  753TMC3    C411179   0.215   2.516  13.147 -0.1242 -0.9575 -0.3512
  753TMC3    C511180   0.186   2.407  13.219  0.5944 -0.3512  1.3280
  753TMC3    C611181   0.209   2.386  13.359 -0.3147  0.4647  0.1011
  753TMC3     C11182   0.347   2.718  13.148 -0.2790 -0.3100 -0.0035
  753TMC3     O11183   0.356   2.822  13.213  0.6026  0.0004  0.4357
  753TMC3     H11184   0.362   2.678  13.395  0.6858 -1.8062  1.0868
  753TMC3    H111185   0.178   2.530  13.046  3.2704 -1.5767 -1.6856
  753TMC3    H211186   0.188   2.298  13.418 -1.4042  0.2356 -0.6381
  753TMC3    C711187   0.127   2.300  13.140 -0.6144  0.0324 -0.4695
  753TMC3    C811188   0.325   2.464  13.548  0.4761  0.9326  0.2115
  753TMC3    O111189   0.140   2.309  13.018 -0.2465  0.0415 -0.3857
  753TMC3    O211190   0.282   2.362  13.599  0.1891 -0.0212 -0.1328
  754MPD2     C11191   4.179   1.368  13.005 -0.3573 -0.0794  0.6478
  754MPD2    C111192   4.207   1.245  13.064  0.4645 -0.1961  0.0533
  754MPD2    C211193   4.108   1.184  13.146  0.0982 -0.1477 -0.2101
  754MPD2    C311194   3.989   1.249  13.166  0.4543  0.0101 -0.4318
  754MPD2    C411195   3.966   1.361  13.093 -0.0037  0.3496  0.6619
  754MPD2    C511196   4.060   1.419  13.013  0.5560  0.3122 -0.5517
  754MPD2     H11197   4.124   1.086  13.189 -1.2908  0.0046  0.6671
  754MPD2    H111198   3.868   1.405  13.106  0.5510  2.3109 -1.6209
  754MPD2    H211199   4.251   1.418  12.940 -0.3786 -0.4427  0.3439
  754MPD2    H311200   4.033   1.516  12.973 -1.4826 -0.8177 -1.9502
  754MPD2     N11201   3.884   1.211  13.253  0.0874 -0.3111  0.3164
  754MPD2    H511202   3.797   1.264  13.259 -0.9200 -1.6482 -2.3046
  754MPD2    N111203   4.331   1.193  13.028 -0.5378 -0.2462 -0.1245
  754MPD2    H711204   4.379   1.238  12.951  1.3041 -2.0783 -0.0529
  755MPD2     C11205   3.405   1.821  13.444 -0.4821 -0.3420  0.5650
  755MPD2    C111206   3.439   1.781  13.571  0.5700  0.3861 -0.2967
  755MPD2    C211207   3.504   1.661  13.577  0.8897  1.2512 -0.5671
  755MPD2    C311208   3.521   1.572  13.471 -0.5195 -0.3374 -0.5739
  755MPD2    C411209   3.491   1.619  13.345 -0.4311 -0.4278 -0.5179
  755MPD2    C511210   3.439   1.745  13.337  0.1931 -0.3591  0.0097
  755MPD2     H11211   3.516   1.620  13.677  1.4541 -1.1759 -1.6068
  755MPD2    H111212   3.491   1.551  13.260 -2.4198  1.2233 -1.8161
  755MPD2    H211213   3.358   1.915  13.417  1.8770  0.4918 -0.5868
  755MPD2    H311214   3.405   1.772  13.238 -0.7219  1.0844  0.7129
  755MPD2     N11215   3.569   1.442  13.481 -0.4374  0.0989  0.5320
  755MPD2    H511216   3.603   1.402  13.395  1.9357  1.1135  0.9980
  755MPD2    N111217   3.415   1.854  13.695  1.1336 -0.2617 -0.7224
  755MPD2    H711218   3.441   1.803  13.779  0.0306 -2.7783 -1.9112
  756MPD2     C11219   4.112   2.128   9.572 -0.6867 -0.0853  0.1316
  756MPD2    C111220   4.089   2.210   9.677 -0.4280 -0.4357  0.2742
  756MPD2    C211221   4.008   2.326   9.661 -0.0417  0.5960 -1.2045
  756MPD2    C311222   3.936   2.329   9.549  0.4405  0.4216  1.0111
  756MPD2    C411223   3.961   2.248   9.437  0.1163 -0.1705  0.0182
  756MPD2    C511224   4.050   2.146   9.452  0.3442 -0.0101  0.0163
  756MPD2     H11225   3.982   2.393   9.743  2.2805  1.3174 -1.0757
  756MPD2    H111226   3.913   2.261   9.341  4.2096 -1.4806 -2.2014
  756MPD2    H211227   4.190   2.053   9.582  0.4402  1.0686  0.1006
  756MPD2    H311228   4.073   2.080   9.369  2.1394  1.0518 -0.3279
  756MPD2     N11229   3.824   2.423   9.547 -0.2209 -0.3556  0.3760
  756MPD2    H511230   3.811   2.488   9.624 -1.0569 -1.0057  0.7881
  756MPD2    N111231   4.149   2.184   9.802 -0.5483 -0.1077 -0.1718
  756MPD2    H711232   4.147   2.257   9.872  0.7041  1.0840 -1.3786
  757MPD2     C11233   3.002   2.036   9.475 -0.5576  0.3710 -0.7445
  757MPD2    C111234   3.123   2.011   9.533 -0.0559  0.2421 -0.2162
  757MPD2    C211235   3.205   2.117   9.550  0.1577  0.4190  0.6387
  757MPD2    C311236   3.176   2.254   9.509 -0.3380  0.1029 -0.2956
  757MPD2    C411237   3.055   2.273   9.434  0.3151 -0.7696 -0.6265
  757MPD2    C511238   2.972   2.163   9.427  0.2172  0.3559 -0.0426
  757MPD2     H11239   3.304   2.104   9.591  0.2426 -0.1538  0.2443
  757MPD2    H111240   3.016   2.365   9.393 -0.8428 -0.0702  2.0639
  757MPD2    H211241   2.924   1.961   9.469 -1.9493  1.6997  1.0833
  757MPD2    H311242   2.871   2.188   9.399  0.7302  1.1071 -1.2120
  757MPD2     N11243   3.280   2.351   9.526 -0.3476  0.6442  0.6280
  757MPD2    H511244   3.372   2.320   9.554 -0.1863  0.4874 -0.0891
  757MPD2    N111245   3.152   1.883   9.583 -0.1390 -0.2218 -0.0488
  757MPD2    H711246   3.073   1.822   9.563 -1.2444  0.2609  2.8886
  758MPD2     C11247   4.442   1.203  15.600  0.0457 -0.1458 -0.6629
  758MPD2    C111248   4.451   1.084  15.675 -0.0560 -0.3276 -0.3958
  758MPD2    C211249   4.378   1.071  15.792 -0.0032  0.7534  0.0499
  758MPD2    C311250   4.295   1.172  15.841  0.5638 -0.0452 -0.6724
  758MPD2    C411251   4.289   1.289  15.773  0.1594  0.2250 -0.1960
  758MPD2    C511252   4.369   1.305  15.657  1.0126 -0.1257  0.1145
  758MPD2     H11253   4.369   0.976  15.843 -0.6826  0.7981  0.0150
  758MPD2    H111254   4.232   1.377  15.803 -0.1301  0.2112 -0.7156
  758MPD2    H211255   4.504   1.226  15.514 -0.1629 -0.1541 -0.8148
  758MPD2    H311256   4.356   1.403  15.612  0.4870 -0.8878 -1.4043
  758MPD2     N11257   4.232   1.176  15.966  0.5235  0.0830 -0.7450
  758MPD2    H511258   4.189   1.261  16.001 -0.2338  0.2099 -1.9760
  758MPD2    N111259   4.514   0.976  15.612  0.3443  0.2167  0.2748
  758MPD2    H711260   4.550   0.983  15.517  0.1317 -1.2463  0.0951
  759MPD2     C11261   4.267   3.916   9.408 -0.1703 -0.3287  0.1542
  759MPD2    C111262   4.127   3.938   9.374 -0.4852  0.4033 -0.2468
  759MPD2    C211263   4.079   4.067   9.360  0.4755  0.1279 -0.1548
  759MPD2    C311264   4.160   4.178   9.368  0.3448 -0.3691  0.2216
  759MPD2    C411265   4.286   4.158   9.426 -0.4474  0.7892  0.1681
  759MPD2    C511266   4.339   4.029   9.438  0.5060  0.1623 -0.0859
  759MPD2     H11267   3.978   4.086   9.326  0.8494  3.0203  0.3556
  759MPD2    H111268   4.356   4.233   9.459  1.9506 -1.7868  0.9457
  759MPD2    H211269   4.297   3.819   9.445  0.5012  0.0052  0.4811
  759MPD2    H311270   4.442   4.022   9.470  0.5975  2.0052 -0.0254
  759MPD2     N11271   4.102   4.305   9.359  0.2033  0.4430  0.3502
  759MPD2    H511272   4.002   4.306   9.341  0.5585  0.8841 -1.6385
  759MPD2    N111273   4.041   3.828   9.350  0.3145 -0.1536 -0.0736
  759MPD2    H711274   3.945   3.859   9.353  0.0019 -1.1137 -0.1685
  760MPD2     C11275   2.447   0.905  11.842  0.3575  0.0748  0.2241
  760MPD2    C111276   2.538   0.962  11.928 -0.3642 -0.0925 -0.7290
  760MPD2    C211277   2.585   0.872  12.028  0.1222 -0.4049  0.1021
  760MPD2    C311278   2.528   0.747  12.042 -0.0054  1.5971 -0.0927
  760MPD2    C411279   2.427   0.704  11.962  0.8843 -0.1466 -0.1698
  760MPD2    C511280   2.400   0.780  11.852 -0.6787 -0.4542  0.3951
  760MPD2     H11281   2.663   0.911  12.092  1.4085 -0.1893 -1.5887
  760MPD2    H111282   2.380   0.607  11.965  1.4239 -0.3280  3.1285
  760MPD2    H211283   2.397   0.962  11.764 -0.9844  0.9237  1.6891
  760MPD2    H311284   2.332   0.747  11.773 -0.3195  1.7235 -0.8044
  760MPD2     N11285   2.566   0.645  12.135  0.1188 -0.0117 -0.7263
  760MPD2    H511286   2.517   0.556  12.138 -0.0236  0.1063  0.5014
  760MPD2    N111287   2.591   1.095  11.916 -0.3563 -0.3000  0.8666
  760MPD2    H711288   2.656   1.121  11.989  0.8991  0.0805 -0.3666
  761MPD2     C11289   4.399   0.787  11.608  0.1409 -0.1777  0.6350
  761MPD2    C111290   4.465   0.828  11.493 -0.0829 -0.3300  0.3196
  761MPD2    C211291   4.488   0.964  11.468 -0.5782 -0.3710  0.3051
  761MPD2    C311292   4.442   1.057  11.562  0.5777  0.6395 -0.4922
  761MPD2    C411293   4.388   1.020  11.680  0.3071 -0.0288 -0.3060
  761MPD2    C511294   4.359   0.882  11.694  0.2593 -0.1247  0.6391
  761MPD2     H11295   4.536   0.997  11.377 -0.3121 -1.1297  0.1633
  761MPD2    H111296   4.376   1.086  11.765  0.4068 -2.0878  1.2980
  761MPD2    H211297   4.377   0.684  11.632 -0.2605  0.3586  2.5295
  761MPD2    H311298   4.304   0.858  11.784  0.9617 -0.8126  0.8849
  761MPD2     N11299   4.459   1.201  11.540  0.3417 -0.3420  0.3004
  761MPD2    H511300   4.395   1.249  11.603  0.4630 -1.2921  1.1297
  761MPD2    N111301   4.521   0.722  11.417 -0.1659  0.5788 -0.3599
  761MPD2    H711302   4.492   0.627  11.433 -1.4009  0.9322 -0.4656
  762MPD2     C11303   4.691   0.467  10.569  0.7847 -0.6151 -0.1843
  762MPD2    C111304   0.020   0.538  10.660  0.5325  0.3403  0.0612
  762MPD2    C211305   0.120   0.627  10.615 -0.1996  0.1133 -0.1643
  762MPD2    C311306   0.147   0.646  10.478 -0.3194 -0.2834 -0.2109
  762MPD2    C411307   0.060   0.590  10.391 -0.4139 -0.4448  0.4357
  762MPD2    C511308   4.710   0.497  10.439  0.0138  0.4940  0.4215
  762MPD2     H11309   0.182   0.673  10.690 -0.5535  1.1767 -0.5259
  762MPD2    H111310   0.054   0.632  10.292 -1.7710  2.4092  1.7133
  762MPD2    H211311   4.604   0.407  10.594 -0.0828 -0.5103 -2.9796
  762MPD2    H311312   4.648   0.444  10.367 -0.8166 -0.9586  2.2109
  762MPD2     N11313   0.252   0.733  10.440 -0.2295  0.2568 -0.6606
  762MPD2    H511314   0.331   0.747  10.501  0.6021 -0.1268 -1.6628
  762MPD2    N111315   0.000   0.508  10.801  0.2751  0.2298 -0.5129
  762MPD2    H711316   4.659   0.447  10.823 -0.5069  0.8944 -1.4148
  763MPD2     C11317   1.351   0.847  16.165 -0.1883  0.7671  0.4429
  763MPD2    C111318   1.299   0.909  16.056  0.5070 -0.2085 -0.1512
  763MPD2    C211319   1.336   1.041  16.033 -0.3928 -0.0256  0.0533
  763MPD2    C311320   1.415   1.101  16.129  0.3427  0.5250 -0.0833
  763MPD2    C411321   1.486   1.027  16.221 -0.0969 -0.4632  0.5848
  763MPD2    C511322   1.452   0.898  16.237  0.4800  0.3564 -0.8756
  763MPD2     H11323   1.293   1.107  15.959  0.4239  0.8465  0.3525
  763MPD2    H111324   1.551   1.073  16.295  1.0488  0.5070 -1.0383
  763MPD2    H211325   1.336   0.743  16.191 -1.1732  0.8838  0.3544
  763MPD2    H311326   1.508   0.834  16.304 -0.1961  2.2787  1.5257
  763MPD2     N11327   1.435   1.246  16.123 -0.9201  0.4931  0.0377
  763MPD2    H511328   1.477   1.276  16.210  0.5878  1.1241 -0.9248
  763MPD2    N111329   1.195   0.849  15.982 -0.5196  1.0398 -0.1299
  763MPD2    H711330   1.144   0.910  15.918 -2.3905  0.1605  0.5158
  764MPD2     C11331   4.536   2.719  17.496 -0.6130  0.0725  0.0618
  764MPD2    C111332   4.421   2.655  17.469  0.9925  0.6080 -0.1650
  764MPD2    C211333   4.370   2.571  17.568 -0.7066  0.3708 -0.4370
  764MPD2    C311334   4.436   2.552  17.690  0.0604  0.0287 -0.4119
  764MPD2    C411335   4.552   2.616  17.714 -0.3308  0.0394 -0.0270
  764MPD2    C511336   4.599   2.699  17.614 -0.9055 -0.0024  0.9547
  764MPD2     H11337   4.278   2.516  17.549 -2.2629  3.3052 -1.4333
  764MPD2    H111338   4.611   2.614   0.062 -2.4469  1.3667  1.3777
  764MPD2    H211339   4.576   2.793  17.427  1.4251  2.0454  3.3523
  764MPD2    H311340   4.688   2.752  17.646 -1.4927  0.3227  2.0862
  764MPD2     N11341   4.375   2.469   0.053 -0.0755 -0.1701  0.2836
  764MPD2    H511342   4.290   2.421   0.026 -1.1230  0.0659  3.2281
  764MPD2    N111343   4.356   2.663  17.344  0.2462  0.4518 -0.6763
  764MPD2    H711344   4.272   2.608  17.332  1.0990 -0.9498 -0.1486
  765MPD2     C11345   4.050   0.128  16.105 -0.1811 -0.8999 -0.0447
  765MPD2    C111346   4.092   0.241  16.039 -0.3515  0.0723  0.3112
  765MPD2    C211347   4.169   0.221  15.931 -1.5433 -0.5589  0.2747
  765MPD2    C311348   4.219   0.101  15.886 -0.2668 -0.3871 -0.5476
  765MPD2    C411349   4.171   4.728  15.947  0.1164 -0.5783  0.2912
  765MPD2    C511350   4.089   0.003  16.056  0.6689  0.1561  0.7437
  765MPD2     H11351   4.191   0.309  15.871  2.3861 -1.2483  0.7001
  765MPD2    H111352   4.197   4.628  15.916  1.2602  0.3784 -1.8358
  765MPD2    H211353   3.989   0.136  16.194  1.3903  2.1470  0.7484
  765MPD2    H311354   4.054   4.652  16.110  0.2518  0.1671  0.4909
  765MPD2     N11355   4.292   0.099  15.766  0.8197  0.1840  0.3736
  765MPD2    H511356   4.342   0.184  15.741 -1.2633  1.3668  0.2103
  765MPD2    N111357   4.035   0.367  16.063  0.1992  0.0234 -0.3329
  765MPD2    H711358   3.946   0.369  16.113  1.2423  2.0110  1.4752
  766MPD2     C11359   3.453   0.362  15.700 -0.0446 -0.2546  0.3914
  766MPD2    C111360   3.587   0.367  15.676 -0.0477 -0.4454 -0.0037
  766MPD2    C211361   3.643   0.314  15.565  0.4652 -0.8785  0.2682
  766MPD2    C311362   3.564   0.275  15.457  0.0189  0.4226  0.9079
  766MPD2    C411363   3.434   0.272  15.478  0.8978  0.6883 -0.1532
  766MPD2    C511364   3.376   0.320  15.596 -0.3101  0.1106 -0.0464
  766MPD2     H11365   3.751   0.316  15.557  0.3255  1.5686 -0.8989
  766MPD2    H111366   3.372   0.240  15.395  2.8442 -0.6723 -1.0738
  766MPD2    H211367   3.404   0.401  15.788 -2.4397  1.8180 -1.8647
  766MPD2    H311368   3.270   0.342  15.601 -0.5499 -1.3305  1.1650
  766MPD2     N11369   3.610   0.256  15.323  0.1875  0.1794 -0.0134
  766MPD2    H511370   3.545   0.252  15.245 -0.3621 -1.5864  0.5326
  766MPD2    N111371   3.667   0.427  15.773  0.3811  0.5100  1.2241
  766MPD2    H711372   3.767   0.419  15.756  0.3111 -0.7521  1.3830
  767MPD2     C11373   3.192   0.685  15.357 -0.2337  0.0782 -0.6498
  767MPD2    C111374   3.322   0.659  15.326  0.2877 -0.2865 -0.2692
  767MPD2    C211375   3.340   0.607  15.196  0.2084 -0.6074 -0.0503
  767MPD2    C311376   3.234   0.590  15.104 -0.4783 -0.3890  0.5789
  767MPD2    C411377   3.109   0.621  15.143  0.4831 -0.5380  0.1480
  767MPD2    C511378   3.087   0.662  15.270  0.0484  0.0986  0.0118
  767MPD2     H11379   3.440   0.594  15.157  0.5785  0.7026  0.4660
  767MPD2    H111380   3.022   0.608  15.080  0.7660 -2.1761  0.0949
  767MPD2    H211381   3.159   0.705  15.459 -0.3556  0.2325 -0.7192
  767MPD2    H311382   2.985   0.670  15.305  0.0224  2.3690 -0.5851
  767MPD2     N11383   3.277   0.547  14.979  0.4011  0.7786 -0.2527
  767MPD2    H511384   3.375   0.528  14.959  0.1038 -1.0529  0.0827
  767MPD2    N111385   3.426   0.704  15.412  0.9797 -0.2795  0.0005
  767MPD2    H711386   3.403   0.759  15.494 -1.0572 -1.5373  0.2941
  768MPD2     C11387   3.815   4.161  10.936 -0.0703  0.1773  0.0180
  768MPD2    C111388   3.931   4.090  10.931 -0.7310  0.0145 -0.5323
  768MPD2    C211389   3.965   4.006  11.039  0.5516 -0.2529  0.1602
  768MPD2    C311390   3.871   3.984  11.140  0.3310 -0.9162 -0.2931
  768MPD2    C411391   3.750   4.058  11.139 -0.3267 -0.3489  0.8582
  768MPD2    C511392   3.722   4.145  11.037 -0.0370 -0.5559  0.1726
  768MPD2     H11393   4.060   3.956  11.050 -0.7474 -2.5552  0.8645
  768MPD2    H111394   3.675   4.050  11.216  0.7309 -3.7578  1.5345
  768MPD2    H211395   3.788   4.237  10.862 -0.2972 -0.1784 -0.2668
  768MPD2    H311396   3.631   4.204  11.032 -1.0016 -2.0971 -0.2752
  768MPD2     N11397   3.895   3.895  11.249  0.7139  0.5618  0.0866
  768MPD2    H511398   3.826   3.894  11.324  0.4214  1.5174 -0.1699
  768MPD2    N111399   4.034   4.128  10.845  0.0734  0.1138  0.1349
  768MPD2    H711400   4.117   4.072  10.860 -1.0426 -1.7563 -0.6502
  769MPD2     C11401   0.468   2.173  14.680 -0.0331  0.2370 -0.2584
  769MPD2    C111402   0.450   2.064  14.750 -1.1897 -0.0120  0.1385
  769MPD2    C211403   0.484   2.069  14.886  0.1468 -0.0239 -0.2762
  769MPD2    C311404   0.528   2.185  14.946  0.2167  0.2264 -0.3697
  769MPD2    C411405   0.556   2.290  14.863  0.7586 -0.4771  0.1409
  769MPD2    C511406   0.526   2.289  14.731  0.4678 -0.3559  0.0924
  769MPD2     H11407   0.460   1.985  14.950 -1.4889  0.0078 -0.8424
  769MPD2    H111408   0.589   2.382  14.910  2.7106 -0.9985 -0.2139
  769MPD2    H211409   0.419   2.172  14.583  0.0639  0.0512 -0.3064
  769MPD2    H311410   0.543   2.383  14.680 -1.7080  0.3847  0.7468
  769MPD2     N11411   0.561   2.184  15.083  0.4142  0.5894  0.1411
  769MPD2    H511412   0.513   2.109  15.131  0.8911  0.3124  0.1835
  769MPD2    N111413   0.384   1.955  14.683  0.3147  0.1094 -0.2478
  769MPD2    H711414   0.374   1.965  14.582  1.3462  1.6177 -0.2004
  770MPD2     C11415   0.261   0.869  14.562 -0.1923  0.2846  0.1705
  770MPD2    C111416   0.138   0.923  14.551 -0.0135 -0.6802  0.1456
  770MPD2    C211417   0.122   1.057  14.545 -0.0048  0.2429 -0.1251
  770MPD2    C311418   0.228   1.148  14.554  0.3420 -0.0239 -0.6093
  770MPD2    C411419   0.354   1.089  14.575 -0.5472 -0.2636  0.5128
  770MPD2    C511420   0.365   0.952  14.569 -0.3423  0.5252 -0.4911
  770MPD2     H11421   0.021   1.091  14.524 -0.3572  0.6868  2.2960
  770MPD2    H111422   0.448   1.142  14.574 -1.2496  0.9630 -1.2555
  770MPD2    H211423   0.283   0.763  14.546 -0.0844  0.5596 -1.5527
  770MPD2    H311424   0.460   0.900  14.570 -0.4237  0.4051  1.4990
  770MPD2     N11425   0.211   1.288  14.548 -0.2518 -0.4453  0.2916
  770MPD2    H511426   0.114   1.316  14.546 -0.3509 -0.7064  1.5901
  770MPD2    N111427   0.034   0.825  14.555  0.7028 -0.0500  0.2413
  770MPD2    H711428   0.062   0.731  14.580  0.3510 -0.1630  0.2056
  771MPD2     C11429   1.435   4.512  13.430  0.3238  0.0318  0.1521
  771MPD2    C111430   1.313   4.574  13.450  0.0317  0.2504  0.2116
  771MPD2    C211431   1.198   4.500  13.438  0.4009 -0.2260 -0.0736
  771MPD2    C311432   1.196   4.364  13.413 -0.2967 -0.2025  0.4053
  771MPD2    C411433   1.313   4.295  13.412  0.0689  0.2245  0.4872
  771MPD2    C511434   1.431   4.375  13.414 -0.5473 -0.1679 -0.3111
  771MPD2     H11435   1.097   4.540  13.428  0.0479 -0.5263  2.2291
  771MPD2    H111436   1.315   4.187  13.403 -0.4570  0.2859 -0.3614
  771MPD2    H211437   1.534   4.555  13.426  0.9807 -1.4616  0.2967
  771MPD2    H311438   1.530   4.331  13.409 -0.1320  0.7020  0.2938
  771MPD2     N11439   1.072   4.301  13.381 -0.7461  0.0066 -0.1592
  771MPD2    H511440   0.993   4.364  13.373 -1.7434 -1.0074  1.6404
  771MPD2    N111441   1.313   4.715  13.468  0.3573  0.1347 -0.0298
  771MPD2    H711442   1.393   0.025  13.426 -1.2930  0.8467 -2.3877
  772MPD2     C11443   0.964   0.490  14.090  0.0384 -0.5683 -0.0289
  772MPD2    C111444   0.937   0.384  13.999  0.1094 -0.1018 -0.3875
  772MPD2    C211445   0.835   0.295  14.033  0.5064 -0.9496 -0.5078
  772MPD2    C311446   0.757   0.315  14.139  0.1743  0.6115 -0.1198
  772MPD2    C411447   0.773   0.422  14.219  1.0380 -0.2614 -0.0104
  772MPD2    C511448   0.876   0.512  14.197  0.2954 -0.4867  0.4980
  772MPD2     H11449   0.817   0.200  13.984  0.3664 -0.1478 -2.0237
  772MPD2    H111450   0.712   0.449  14.304 -2.3255 -0.2413 -2.4191
  772MPD2    H211451   1.044   0.560  14.069  0.5600 -1.1782 -0.0727
  772MPD2    H311452   0.876   0.601  14.258 -0.4632 -1.2704  1.6351
  772MPD2     N11453   0.662   0.211  14.165  0.9465 -0.5615  0.1563
  772MPD2    H511454   0.665   0.121  14.119 -0.3691 -0.1318 -0.7706
  772MPD2    N111455   1.017   0.345  13.893  0.2681  0.1034  0.0678
  772MPD2    H711456   0.973   0.270  13.839 -0.9095  0.6477  0.2823
  773MPD2     C11457   0.328   1.092   0.332 -0.2617 -0.4008  0.4623
  773MPD2    C111458   0.369   1.038   0.217  0.0431 -0.1209 -0.4616
  773MPD2    C211459   0.469   0.935   0.222 -0.8590 -0.3745  0.2154
  773MPD2    C311460   0.514   0.892   0.341 -0.1982  0.0308  0.1395
  773MPD2    C411461   0.482   0.962   0.461 -0.3851  0.7882 -1.0587
  773MPD2    C511462   0.384   1.062   0.451 -0.7535  0.5883 -0.1683
  773MPD2     H11463   0.507   0.880   0.136  0.0162 -1.0955  1.0498
  773MPD2    H111464   0.524   0.944   0.560  0.4787  2.3470 -1.1412
  773MPD2    H211465   0.263   1.179   0.331  0.7941  0.3678 -0.9906
  773MPD2    H311466   0.341   1.105   0.541  0.7004  1.8897 -0.0903
  773MPD2     N11467   0.588   0.776   0.342  0.2029  0.3463  0.4841
  773MPD2    H511468   0.584   0.717   0.260  1.6926  3.0502 -1.5290
  773MPD2    N111469   0.321   1.075   0.092  0.2430  0.0755 -0.6107
  773MPD2    H711470   0.357   1.034   0.006  2.3869 -2.3201  1.4232
  774MPD2     C11471   4.270   0.308  13.678 -0.4569 -0.3867 -0.8684
  774MPD2    C111472   4.184   0.417  13.725  0.3038 -0.1726 -0.2366
  774MPD2    C211473   4.208   0.537  13.661  0.5903 -0.1681  0.1468
  774MPD2    C311474   4.299   0.559  13.561  0.6859 -0.5276  0.2331
  774MPD2    C411475   4.365   0.453  13.518 -0.0211 -0.4178 -0.5482
  774MPD2    C511476   4.355   0.327  13.571  0.1250  0.3522 -0.0233
  774MPD2     H11477   4.155   0.623  13.699 -0.1500 -1.5750  2.2929
  774MPD2    H111478   4.433   0.473  13.436  0.9510 -1.3867  0.0202
  774MPD2    H211479   4.270   0.211  13.725  1.0380  0.1893  0.3195
  774MPD2    H311480   4.417   0.246  13.534 -1.5820 -0.2022 -1.6519
  774MPD2     N11481   4.314   0.693  13.522  0.4877  0.2068  0.2377
  774MPD2    H511482   4.255   0.769  13.556 -1.5655 -1.3261  0.0788
  774MPD2    N111483   4.104   0.399  13.838 -0.3845 -0.7164 -0.1529
  774MPD2    H711484   4.115   0.308  13.883 -1.1000 -1.3167 -1.1973
  775MPD2     C11485   0.521   1.860  15.675  0.2999  0.0876  0.2443
  775MPD2    C111486   0.588   1.957  15.742  0.4889 -0.1329  0.5098
  775MPD2    C211487   0.688   2.027  15.688  0.0713  0.3817 -0.1668
  775MPD2    C311488   0.716   2.011  15.548 -0.1945 -0.9392 -0.1021
  775MPD2    C411489   0.638   1.919  15.476  0.1451  0.4330 -0.0512
  775MPD2    C511490   0.545   1.846  15.543  0.3133  0.3351  0.0469
  775MPD2     H11491   0.743   2.103  15.742 -1.0003  1.0662 -0.0407
  775MPD2    H111492   0.654   1.901  15.370 -2.1119 -1.5096 -0.0716
  775MPD2    H211493   0.441   1.806  15.724 -0.4610  0.1144 -0.9878
  775MPD2    H311494   0.488   1.770  15.491  1.1130  0.5642 -1.1390
  775MPD2     N11495   0.814   2.078  15.472  0.0086  0.2789  0.7687
  775MPD2    H511496   0.828   2.041  15.378 -2.3395 -0.5549  0.7396
  775MPD2    N111497   0.562   1.967  15.882 -0.3978  0.5012 -0.1813
  775MPD2    H711498   0.486   1.907  15.914 -0.2649  0.4904  0.1073
  776MPD2     C11499   3.678   2.064  11.576 -0.1577  0.3263 -0.6649
  776MPD2    C111500   3.794   2.132  11.597 -0.1241  1.3546 -0.5095
  776MPD2    C211501   3.870   2.174  11.490 -0.3988  0.3747 -0.5532
  776MPD2    C311502   3.831   2.157  11.359  1.2381  0.2504 -0.2168
  776MPD2    C411503   3.713   2.078  11.339  0.0635 -0.1128 -0.2912
  776MPD2    C511504   3.641   2.037  11.446 -0.4699 -0.1979  0.3685
  776MPD2     H11505   3.970   2.215  11.500 -1.2772  2.8876 -2.1587
  776MPD2    H111506   3.668   2.051  11.245 -2.0368 -1.5871  1.1288
  776MPD2    H211507   3.606   2.033  11.650 -1.6461  2.2703 -1.3101
  776MPD2    H311508   3.562   1.964  11.431  1.0369 -2.1282  1.8786
  776MPD2     N11509   3.901   2.199  11.246 -0.3746 -0.1293  0.1555
  776MPD2    H511510   3.896   2.146  11.159 -1.0029  0.3418 -0.0948
  776MPD2    N111511   3.842   2.151  11.728 -0.0223 -0.2090 -0.2421
  776MPD2    H711512   3.799   2.095  11.801 -0.6550  1.3420  0.5714
  777MPD2     C11513   0.811   4.283   0.993 -0.2775 -0.4081 -0.1712
  777MPD2    C111514   0.692   4.248   1.047  0.6268 -0.5695  0.1679
  777MPD2    C211515   0.604   4.181   0.962 -0.1017 -0.4458 -0.4032
  777MPD2    C311516   0.638   4.148   0.832 -0.2216 -0.1453  0.0312
  777MPD2    C411517   0.759   4.186   0.781  0.0687  0.5629  0.6078
  777MPD2    C511518   0.843   4.251   0.865 -0.2584 -0.4730 -0.4409
  777MPD2     H11519   0.504   4.155   0.992 -0.0392 -0.7809 -0.4853
  777MPD2    H111520   0.790   4.156   0.682 -1.5113  0.3361  0.1933
  777MPD2    H211521   0.876   4.342   1.056  0.2848  1.2976 -2.3103
  777MPD2    H311522   0.940   4.279   0.825  0.4836  0.4926  2.0136
  777MPD2     N11523   0.542   4.066   0.758  0.7837  0.4566 -0.0537
  777MPD2    H511524   0.477   4.018   0.819  0.2886 -1.0278 -1.7388
  777MPD2    N111525   0.672   4.281   1.182 -0.4432  0.5099  0.4760
  777MPD2    H711526   0.733   4.345   1.231 -0.6114  0.5444  0.6424
  778MPD2     C11527   1.295   4.461  14.294 -0.7360  0.2185  0.0400
  778MPD2    C111528   1.321   4.440  14.425  0.1092 -0.1489  0.4505
  778MPD2    C211529   1.412   4.523  14.488  0.9828 -0.1128  0.2815
  778MPD2    C311530   1.493   4.605  14.412 -1.4541 -0.3852 -0.2601
  778MPD2    C411531   1.455   4.637  14.283 -0.3109 -0.7561  0.2812
  778MPD2    C511532   1.362   4.559  14.227  0.1004  0.1244 -0.0358
  778MPD2     H11533   1.420   4.513  14.596 -0.5676  0.4587  0.4529
  778MPD2    H111534   1.511   4.703  14.219 -1.9286 -1.7482 -2.1645
  778MPD2    H211535   1.227   4.402  14.234 -0.6844  1.6674 -1.4173
  778MPD2    H311536   1.333   4.569  14.123  0.5455  0.6749 -0.1067
  778MPD2     N11537   1.608   4.671  14.472  0.6317  0.3537 -0.1870
  778MPD2    H511538   1.626   4.647  14.569 -1.4787 -1.1159 -0.1738
  778MPD2    N111539   1.254   4.332  14.490  0.0940 -0.0592  0.3814
  778MPD2    H711540   1.289   4.311  14.583  0.9598  0.8327  0.2612
  779MPD2     C11541   0.981   3.434  13.640  0.4608 -0.7764  0.8434
  779MPD2    C111542   0.948   3.439  13.776 -0.4233 -0.3021 -0.2426
  779MPD2    C211543   0.966   3.557  13.846  0.0891 -0.1429  0.7233
  779MPD2    C311544   1.000   3.673  13.782  0.0768 -0.0796  0.1128
  779MPD2    C411545   1.010   3.677  13.651  0.6585 -0.5193  0.2179
  779MPD2    C511546   0.997   3.558  13.577 -0.5038  0.0215  0.1772
  779MPD2     H11547   0.960   3.561  13.954  0.1852  1.5276  0.6741
  779MPD2    H111548   1.046   3.756  13.587  0.4724  0.9221  1.8808
  779MPD2    H211549   0.979   3.345  13.578 -1.1370 -0.0762 -0.1282
  779MPD2    H311550   1.016   3.552  13.471  0.3002  0.8711  0.2674
  779MPD2     N11551   1.031   3.786  13.858  0.0538 -0.3166 -0.2011
  779MPD2    H511552   1.043   3.776  13.958 -2.9108  0.1025  0.2180
  779MPD2    N111553   0.921   3.312  13.828 -0.2748 -0.1029  0.2733
  779MPD2    H711554   0.933   3.232  13.767 -0.8905  1.5247 -1.9921
  780MPD2     C11555   1.244   3.584   1.005  0.4132 -0.5340 -0.4290
  780MPD2    C111556   1.121   3.527   0.962 -0.9238  0.6461  0.1965
  780MPD2    C211557   1.095   3.528   0.825  0.3172 -0.8347  0.1088
  780MPD2    C311558   1.178   3.593   0.736  0.3236 -0.2423  0.1850
  780MPD2    C411559   1.289   3.666   0.784  0.5994 -0.0570  0.6169
  780MPD2    C511560   1.324   3.651   0.919  0.2985  0.2171 -0.1685
  780MPD2     H11561   1.005   3.477   0.793  0.3875 -0.8029 -0.1415
  780MPD2    H111562   1.354   3.721   0.718  1.3229  1.6498  2.7644
  780MPD2    H211563   1.265   3.589   1.111 -0.5552 -1.0006 -0.2051
  780MPD2    H311564   1.407   3.714   0.950 -1.5646  2.7241 -0.2814
  780MPD2     N11565   1.137   3.587   0.599 -0.3710 -0.3484 -0.6360
  780MPD2    H511566   1.043   3.554   0.584  1.1797 -4.5399 -1.0803
  780MPD2    N111567   1.037   3.470   1.059 -0.5102 -0.1599 -0.4241
  780MPD2    H711568   1.081   3.460   1.150 -0.6169  0.2304 -0.3283
  781MPD2     C11569   1.911   0.762  12.468 -0.4391  0.6870  0.3115
  781MPD2    C111570   1.941   0.625  12.475  0.3975  0.1808  0.3121
  781MPD2    C211571   1.925   0.543  12.371  0.1535  0.2705  0.8918
  781MPD2    C311572   1.867   0.591  12.248  0.6229  0.2141  0.5651
  781MPD2    C411573   1.829   0.730  12.249 -0.8966  0.7291  0.0489
  781MPD2    C511574   1.841   0.808  12.364  0.4134  0.5067 -0.7402
  781MPD2     H11575   1.957   0.440  12.377 -0.5558  0.1567  2.5304
  781MPD2    H111576   1.783   0.769  12.159  0.8283  0.1168 -1.1001
  781MPD2    H211577   1.915   0.833  12.550  0.9036  2.6203 -1.4160
  781MPD2    H311578   1.801   0.909  12.361  1.6388  1.0695  2.2106
  781MPD2     N11579   1.860   0.516  12.131  0.0049 -0.2879 -0.8203
  781MPD2    H511580   1.818   0.565  12.052 -0.3348  2.5104  1.0943
  781MPD2    N111581   2.011   0.565  12.580 -0.3158  0.2529  0.4573
  781MPD2    H711582   2.029   0.465  12.575 -1.5252  0.0231  0.6759
  782MPD2     C11583   0.163   1.468  10.308 -0.3847 -0.7574  1.0431
  782MPD2    C111584   0.294   1.504  10.308 -0.7200  0.2385  0.5462
  782MPD2    C211585   0.322   1.642  10.325  0.2643 -0.0258  0.2085
  782MPD2    C311586   0.226   1.730  10.364  0.2463  0.4545 -0.0920
  782MPD2    C411587   0.098   1.691  10.377  0.0619 -0.0300 -0.3492
  782MPD2    C511588   0.067   1.566  10.331 -0.2154  0.6562  0.4899
  782MPD2     H11589   0.425   1.674  10.314  0.7416 -1.9748 -0.9204
  782MPD2    H111590   0.013   1.756  10.394  0.8234  1.4679 -2.3377
  782MPD2    H211591   0.127   1.367  10.288  1.0875 -1.1010  0.1189
  782MPD2    H311592   4.699   1.539  10.329 -0.1837  0.6387 -0.9385
  782MPD2     N11593   0.273   1.860  10.384  0.7017  0.0984 -0.5876
  782MPD2    H511594   0.366   1.889  10.356  1.1242 -0.6282  0.0596
  782MPD2    N111595   0.411   1.425  10.300 -0.3462  0.1048  0.3164
  782MPD2    H711596   0.503   1.467  10.297  0.8520 -2.4805  0.7401
  783MPD2     C11597   0.107   1.104  11.143 -0.8440 -0.0219  0.6071
  783MPD2    C111598   0.118   1.241  11.116 -0.1209  0.3537 -0.8197
  783MPD2    C211599   0.203   1.279  11.012  0.1350 -0.4120  0.4134
  783MPD2    C311600   0.274   1.184  10.935 -0.1218  0.0311  0.2736
  783MPD2    C411601   0.266   1.049  10.972 -0.2492  0.5739 -0.1202
  783MPD2    C511602   0.184   1.013  11.075 -0.3252  0.7478  0.2821
  783MPD2     H11603   0.213   1.383  10.983 -2.4414 -0.6442 -1.3048
  783MPD2    H111604   0.319   0.970  10.919 -0.3537  0.3653  0.0855
  783MPD2    H211605   0.043   1.063  11.220 -1.8804 -1.7592 -1.1915
  783MPD2    H311606   0.181   0.907  11.094  3.2651  1.0271  2.4613
  783MPD2     N11607   0.354   1.228  10.826 -0.6849 -0.1534 -0.4078
  783MPD2    H511608   0.366   1.328  10.827  0.9742 -0.3427 -1.4981
  783MPD2    N111609   0.030   1.326  11.183  0.2706  0.0303 -0.2976
  783MPD2    H711610   4.708   1.282  11.254  0.9213 -0.9672 -0.3873
  784MPD2     C11611   2.940   1.364   0.343  0.5392  0.3110  0.0124
  784MPD2    C111612   2.962   1.479   0.423  0.5717 -0.6209  0.4060
  784MPD2    C211613   2.875   1.584   0.409  0.1758 -0.1244 -0.4965
  784MPD2    C311614   2.761   1.579   0.332  0.5832 -0.1838 -0.0978
  784MPD2    C411615   2.739   1.462   0.256  0.1884  0.8394 -0.7499
  784MPD2    C511616   2.823   1.351   0.275 -0.6218 -0.6555  0.9176
  784MPD2     H11617   2.905   1.662   0.478 -2.9170 -0.5242  1.3064
  784MPD2    H111618   2.655   1.459   0.187  2.1867  1.4432 -3.2002
  784MPD2    H211619   3.003   1.277   0.352 -0.0416 -0.3215 -1.8530
  784MPD2    H311620   2.810   1.257   0.224  1.0628  0.4178 -1.5048
  784MPD2     N11621   2.681   1.690   0.315  0.1271  0.3827 -0.3299
  784MPD2    H511622   2.721   1.781   0.336 -0.6044  0.8730 -1.0322
  784MPD2    N111623   3.055   1.485   0.528 -0.3458 -0.3877 -0.1795
  784MPD2    H711624   3.050   1.570   0.584  0.6867  0.1266 -0.8698
  785MPD2     C11625   2.470   4.628  10.756 -0.5953  0.1954  0.3472
  785MPD2    C111626   2.556   4.696  10.842  0.3478  0.1731 -0.3676
  785MPD2    C211627   2.505   0.028  10.944  0.1505  0.4971  0.3547
  785MPD2    C311628   2.370   0.049  10.953 -0.4665 -0.4972  0.6116
  785MPD2    C411629   2.280   4.730  10.855  0.0322  0.1692  0.1391
  785MPD2    C511630   2.331   4.642  10.769 -0.4968  0.7401 -0.7143
  785MPD2     H11631   2.570   0.085  11.009  1.8618 -0.8534 -0.1792
  785MPD2    H111632   2.173   0.008  10.864 -0.2346 -1.3204 -0.6693
  785MPD2    H211633   2.508   4.565  10.676 -2.5926  0.2052 -0.6063
  785MPD2    H311634   2.269   4.599  10.691  1.3198 -1.4815 -0.9307
  785MPD2     N11635   2.319   0.134  11.057 -0.2092  0.3317  0.4575
  785MPD2    H511636   2.392   0.163  11.122  2.1695 -2.1064 -1.1537
  785MPD2    N111637   2.692   4.694  10.820 -1.2277 -0.0894  0.5694
  785MPD2    H711638   2.746   0.005  10.892 -0.7012  0.9757 -0.5286
  786MPD2     C11639   1.943   2.950  14.332  0.3645 -0.3548  0.5514
  786MPD2    C111640   1.924   2.834  14.408 -0.0203  0.5443 -0.6866
  786MPD2    C211641   1.980   2.823  14.532 -0.2684 -0.4451  0.8470
  786MPD2    C311642   2.060   2.933  14.581  0.2524  0.2614  0.1730
  786MPD2    C411643   2.085   3.042  14.504  0.0317  0.1849 -0.4971
  786MPD2    C511644   2.014   3.051  14.388 -0.2720 -0.0287  0.4977
  786MPD2     H11645   1.974   2.728  14.583  2.9358 -0.7105  0.7815
  786MPD2    H111646   2.153   3.122  14.532  1.3368 -1.1164  0.0495
  786MPD2    H211647   1.901   2.968  14.234 -2.5526 -0.5267  1.7536
  786MPD2    H311648   2.018   3.141  14.328 -1.3633 -0.6731 -0.5606
  786MPD2     N11649   2.117   2.934  14.709  0.2458  0.3845  0.1364
  786MPD2    H511650   2.168   3.015  14.744  0.4004  1.2618 -2.1131
  786MPD2    N111651   1.847   2.722  14.360  0.0169  1.0927 -0.2117
  786MPD2    H711652   1.830   2.642  14.421 -0.4085  2.3390  1.3113
  787MPD2     C11653   1.384   2.221  14.734 -0.6786  0.1268  0.1124
  787MPD2    C111654   1.507   2.248  14.677  0.2873  0.4921 -0.3244
  787MPD2    C211655   1.622   2.206  14.741 -1.2235 -0.2164 -0.3967
  787MPD2    C311656   1.610   2.115  14.843 -0.1420 -0.4746  0.0196
  787MPD2    C411657   1.482   2.074  14.891  0.6500 -0.6281 -0.9087
  787MPD2    C511658   1.374   2.131  14.836 -0.2467  0.1722 -1.0000
  787MPD2     H11659   1.720   2.217  14.696 -0.2056  1.7779  2.4017
  787MPD2    H111660   1.459   1.997  14.965  1.1350  0.1347  0.0382
  787MPD2    H211661   1.295   2.258  14.685 -0.1209  2.1576  0.6610
  787MPD2    H311662   1.276   2.108  14.875  0.9573 -0.7100  1.4720
  787MPD2     N11663   1.724   2.057  14.904  0.1472  0.2338 -0.1811
  787MPD2    H511664   1.816   2.091  14.879  0.2875  0.5702  0.7909
  787MPD2    N111665   1.509   2.322  14.548  0.6855 -0.1183  0.3342
  787MPD2    H711666   1.422   2.347  14.503  1.8475  0.0065 -1.8544
  788MPD2     C11667   3.935   1.365   1.216 -0.4466 -0.1193 -0.5539
  788MPD2    C111668   4.018   1.312   1.123  0.3982 -0.8044  0.0922
  788MPD2    C211669   4.110   1.401   1.064  0.4380  0.9515 -0.0242
  788MPD2    C311670   4.109   1.536   1.102  0.1343  0.3679  0.1893
  788MPD2    C411671   4.044   1.581   1.208  0.4892 -0.1010  0.9275
  788MPD2    C511672   3.950   1.501   1.256 -0.3178  0.1258  0.3610
  788MPD2     H11673   4.165   1.375   0.975  1.7439  1.0259  0.7630
  788MPD2    H111674   4.053   1.684   1.240  2.7214  0.3266 -1.1494
  788MPD2    H211675   3.864   1.319   1.283  0.1635 -0.8267 -0.3913
  788MPD2    H311676   3.889   1.536   1.338  0.2914  2.7628 -0.2890
  788MPD2     N11677   4.163   1.641   1.023  0.5686  0.5583  0.0376
  788MPD2    H511678   4.134   1.738   1.037 -0.5516  0.5332 -2.0290
  788MPD2    N111679   4.007   1.176   1.087 -0.1738  0.1029  0.0177
  788MPD2    H711680   4.076   1.133   1.027  1.6267 -1.0143  2.8679
  789MPD2     C11681   3.927   0.571  16.825  0.1271  0.4835  0.7147
  789MPD2    C111682   3.828   0.603  16.738 -0.8876 -0.5001  0.1134
  789MPD2    C211683   3.765   0.731  16.742  0.3527  0.1680 -0.7467
  789MPD2    C311684   3.796   0.816  16.845 -0.7470 -0.2622 -0.7342
  789MPD2    C411685   3.880   0.777  16.944 -0.3132 -0.3007 -0.0572
  789MPD2    C511686   3.944   0.655  16.930  0.0991 -0.2958 -0.9092
  789MPD2     H11687   3.694   0.756  16.664 -2.9756 -1.9495  1.5881
  789MPD2    H111688   3.905   0.843  17.026 -0.9014  0.1599 -0.2541
  789MPD2    H211689   3.997   0.488  16.822 -3.0538 -2.1648 -0.5266
  789MPD2    H311690   4.007   0.624  17.013  0.4868 -0.6666 -1.3377
  789MPD2     N11691   3.734   0.942  16.864 -0.2506 -0.3280 -0.3041
  789MPD2    H511692   3.735   0.995  16.951 -0.9726 -0.0969 -0.4432
  789MPD2    N111693   3.774   0.514  16.651 -0.1411 -0.8777 -0.3405
  789MPD2    H711694   3.701   0.547  16.589 -0.9448 -0.4318  0.8396
  790MPD2     C11695   4.646   2.648  13.428 -0.4475 -0.3054 -0.7977
  790MPD2    C111696   4.630   2.508  13.433 -0.8333 -0.0177  0.0119
  790MPD2    C211697   4.576   2.435  13.327 -0.2605  0.1202  0.5890
  790MPD2    C311698   4.543   2.505  13.211  0.2483  0.6546  0.2495
  790MPD2    C411699   4.578   2.638  13.204 -0.2259  1.1067  0.2247
  790MPD2    C511700   4.626   2.710  13.308 -0.9250  0.0012  0.5430
  790MPD2     H11701   4.552   2.329  13.331  0.7724 -0.1077  0.7123
  790MPD2    H111702   4.560   2.704  13.120  0.5074  1.0974  0.0661
  790MPD2    H211703   4.691   2.713  13.502 -1.1566  0.7889 -1.3406
  790MPD2    H311704   4.642   2.817  13.299 -0.3414 -0.1612 -0.4289
  790MPD2     N11705   4.509   2.427  13.095 -0.5101 -0.2372  0.1033
  790MPD2    H511706   4.487   2.329  13.106 -0.2290 -0.1090  1.7609
  790MPD2    N111707   4.663   2.453  13.562  0.1684  0.5081 -0.3304
  790MPD2    H711708   4.688   2.521  13.633  0.9387  0.7789 -0.8652
  791MPD2     C11709   3.851   2.389  12.638  0.1024 -1.2297  0.3000
  791MPD2    C111710   3.928   2.285  12.688  0.5226  0.5314  0.0816
  791MPD2    C211711   3.865   2.169  12.725 -0.4155  0.6781 -0.3369
  791MPD2    C311712   3.724   2.155  12.705  0.1498 -0.6991  0.2137
  791MPD2    C411713   3.649   2.268  12.667  0.2617 -0.3648  0.5118
  791MPD2    C511714   3.716   2.383  12.635  0.7703  0.0244 -0.0021
  791MPD2     H11715   3.921   2.084  12.763 -0.1360  1.4261  0.9413
  791MPD2    H111716   3.541   2.272  12.662  0.3158  1.1565  0.5449
  791MPD2    H211717   3.892   2.486  12.614 -1.3406  0.2332  3.7172
  791MPD2    H311718   3.648   2.465  12.611  0.0461 -1.0926 -1.7854
  791MPD2     N11719   3.667   2.031  12.726  0.3277  0.1159 -0.4390
  791MPD2    H511720   3.739   1.963  12.749  0.7585  0.6799 -0.1446
  791MPD2    N111721   4.064   2.308  12.691 -0.0334  0.2356 -0.0365
  791MPD2    H711722   4.092   2.405  12.680  1.1344  0.0989  1.6992
  792MPD2     C11723   4.416   2.354  11.478 -0.2612 -0.0536  0.7944
  792MPD2    C111724   4.489   2.282  11.374  0.7288 -0.4847  0.1524
  792MPD2    C211725   4.443   2.163  11.327 -0.1060  0.7171  0.4934
  792MPD2    C311726   4.335   2.107  11.385 -0.2430  0.5702  0.3089
  792MPD2    C411727   4.267   2.170  11.483  0.1588  0.5611  0.4450
  792MPD2    C511728   4.303   2.296  11.522  0.3764 -0.5635 -1.1467
  792MPD2     H11729   4.500   2.123  11.244 -0.2746 -0.6382  1.0366
  792MPD2    H111730   4.196   2.110  11.539  0.9170  0.2677  1.0905
  792MPD2    H211731   4.448   2.450  11.515  1.3592 -0.0952 -0.4978
  792MPD2    H311732   4.259   2.355  11.601  1.7199 -1.1942  0.0674
  792MPD2     N11733   4.280   1.981  11.348 -0.2797  0.1653 -0.6467
  792MPD2    H511734   4.193   1.949  11.388  0.7380 -0.8875  0.7061
  792MPD2    N111735   4.614   2.339  11.334  0.3997  0.3393 -0.2710
  792MPD2    H711736   4.630   2.420  11.393  0.1637 -1.2425  1.9500
  793MPD2     C11737   4.106   1.612  10.439  0.3504  0.2599  0.3779
  793MPD2    C111738   4.127   1.743  10.483  0.3210 -0.3122 -0.6805
  793MPD2    C211739   4.126   1.764  10.619  0.6320 -0.2202  0.3766
  793MPD2    C311740   4.097   1.670  10.716  0.0588  0.3355  0.0309
  793MPD2    C411741   4.089   1.538  10.673 -0.0929 -0.1029 -0.7384
  793MPD2    C511742   4.086   1.511  10.541  0.2310 -0.0929  0.5384
  793MPD2     H11743   4.132   1.868  10.649 -0.7666 -0.2691  0.8367
  793MPD2    H111744   4.078   1.454  10.742  3.5930  1.0736  1.2640
  793MPD2    H211745   4.110   1.579  10.336 -0.6194  2.7009 -0.4497
  793MPD2    H311746   4.089   1.404  10.524 -1.1420 -0.2952  1.5989
  793MPD2     N11747   4.096   1.713  10.849  0.0440  0.6077 -0.2814
  793MPD2    H511748   4.117   1.809  10.874 -0.4587  1.1812 -2.0747
  793MPD2    N111749   4.142   1.852  10.396 -0.2818 -0.2634 -0.5430
  793MPD2    H711750   4.182   1.937  10.434 -1.3573  0.3074 -0.6864
  794MPD2     C11751   0.017   1.746  17.377  0.0123 -0.1787 -0.1684
  794MPD2    C111752   0.013   1.633  17.294 -0.0153 -0.5648  0.3119
  794MPD2    C211753   4.687   1.645  17.171  0.0103 -0.0605 -0.0284
  794MPD2    C311754   4.640   1.761  17.119  0.8724 -0.0669 -0.3886
  794MPD2    C411755   4.656   1.870  17.198 -0.5388 -0.5789 -0.1285
  794MPD2    C511756   4.703   1.860  17.324  0.5125  0.5701 -0.3570
  794MPD2     H11757   4.669   1.552  17.119  0.8713 -0.9058  1.1818
  794MPD2    H111758   4.623   1.961  17.150  4.7507  0.4113 -1.8741
  794MPD2    H211759   0.046   1.759  17.480  1.4068 -1.7137 -0.3620
  794MPD2    H311760   4.692   1.946  17.390  0.9089  0.2771  0.0849
  794MPD2     N11761   4.587   1.767  16.990 -0.2881  0.7058 -0.1008
  794MPD2    H511762   4.559   1.862  16.965 -1.6485  0.0410 -1.0412
  794MPD2    N111763   0.048   1.507  17.349 -0.0343  0.2854  0.4164
  794MPD2    H711764   0.066   1.431  17.283 -0.4930  0.3825  0.1771
  795MPD2     C11765   2.113   3.902  13.823  0.2138 -0.4229  0.3346
  795MPD2    C111766   2.109   3.784  13.754 -0.0151  0.1087  0.9357
  795MPD2    C211767   2.208   3.689  13.762 -0.2092 -0.3124 -0.5252
  795MPD2    C311768   2.324   3.710  13.845  0.6580  0.6415  0.2593
  795MPD2    C411769   2.330   3.835  13.905  0.2652  0.2193 -0.3031
  795MPD2    C511770   2.225   3.928  13.896 -0.6929  0.2135 -0.5477
  795MPD2     H11771   2.195   3.589  13.723 -1.8297  0.4168 -1.8694
  795MPD2    H111772   2.410   3.862  13.972  1.0349 -1.7997 -0.4090
  795MPD2    H211773   2.034   3.975  13.824 -0.6986 -1.3891 -1.5079
  795MPD2    H311774   2.234   4.026  13.942 -1.3918  0.7147 -1.4912
  795MPD2     N11775   2.424   3.607  13.869  0.6207 -0.5990  0.3025
  795MPD2    H511776   2.411   3.518  13.821  0.4816 -0.0149 -0.7263
  795MPD2    N111777   1.994   3.743  13.679  0.0553  0.8920  0.1579
  795MPD2    H711778   1.997   3.655  13.627  1.6389 -0.1896  2.0866
  796MPD2     C11779   1.461   0.092  15.784  0.0091 -0.9815  0.1749
  796MPD2    C111780   1.521   0.172  15.874  0.0996 -0.1037 -0.6308
  796MPD2    C211781   1.526   0.307  15.850 -0.1812 -0.1555  0.4333
  796MPD2    C311782   1.471   0.366  15.739 -0.3053 -0.4115 -0.0179
  796MPD2    C411783   1.420   0.281  15.642  0.4402 -0.5752  0.6677
  796MPD2    C511784   1.418   0.144  15.663 -0.3465 -0.6766  0.3487
  796MPD2     H11785   1.583   0.376  15.911 -2.2939  2.1070 -0.1112
  796MPD2    H111786   1.368   0.313  15.552  1.1939  2.7018  1.4018
  796MPD2    H211787   1.454   4.720  15.795 -1.4766 -0.8949  0.0822
  796MPD2    H311788   1.383   0.062  15.601 -0.6338 -0.3843  0.1255
  796MPD2     N11789   1.459   0.507  15.732  0.3333  0.7523  0.0859
  796MPD2    H511790   1.486   0.557  15.817  0.6760  0.4226  0.1701
  796MPD2    N111791   1.599   0.110  15.974  0.8021 -0.5097 -0.0532
  796MPD2    H711792   1.579   0.011  15.988 -0.9391 -0.3300 -1.2355
  797MPD2     C11793   2.913   0.155  17.142 -0.1765  0.0537  0.9341
  797MPD2    C111794   2.920   0.291  17.133  0.2187  0.0893  0.3480
  797MPD2    C211795   2.807   0.366  17.113  0.2017 -0.1762  0.8488
  797MPD2    C311796   2.684   0.306  17.106 -0.2580 -0.2248  0.2925
  797MPD2    C411797   2.675   0.172  17.104  0.7085 -0.1115 -0.1102
  797MPD2    C511798   2.794   0.097  17.128  0.7325  0.0917 -0.5562
  797MPD2     H11799   2.810   0.474  17.121  1.0709 -0.2938  2.1659
  797MPD2    H111800   2.582   0.116  17.108 -1.2183  3.1199  0.2225
  797MPD2    H211801   3.004   0.096  17.150 -1.3528 -2.2008 -2.3081
  797MPD2    H311802   2.787   4.725  17.117 -1.2119  0.0008  1.3587
  797MPD2     N11803   2.569   0.389  17.097  0.0851  0.1621  0.7362
  797MPD2    H511804   2.588   0.488  17.110 -1.4004  0.8423 -2.2495
  797MPD2    N111805   3.043   0.364  17.140  0.0343 -0.0713  0.2040
  797MPD2    H711806   3.041   0.464  17.125  2.5344  0.2031  1.6687
  798MPD2     C11807   2.743   0.980  16.887  0.2760  0.2101  0.3251
  798MPD2    C111808   2.726   0.875  16.972  0.7394 -0.2070 -0.9585
  798MPD2    C211809   2.832   0.811  17.027 -0.1503 -0.5708  0.1449
  798MPD2    C311810   2.962   0.846  17.001  0.4938 -0.5221  1.3426
  798MPD2    C411811   2.979   0.963  16.923  0.0906  0.4418  0.4273
  798MPD2    C511812   2.870   1.029  16.870  0.9279  0.7093  0.7666
  798MPD2     H11813   2.820   0.732  17.100  2.2700 -1.6174 -0.5832
  798MPD2    H111814   3.075   1.014  16.913  1.1178 -1.8931 -1.6037
  798MPD2    H211815   2.658   1.030  16.841  1.5303  2.4651  0.4171
  798MPD2    H311816   2.874   1.127  16.823  2.0590 -0.0618 -0.7139
  798MPD2     N11817   3.065   0.769  17.053  0.4662 -0.4202  0.5742
  798MPD2    H511818   3.039   0.704  17.126 -1.5136  1.2904  1.3707
  798MPD2    N111819   2.591   0.833  16.997  0.5173 -0.3824 -0.0025
  798MPD2    H711820   2.516   0.886  16.954 -0.4738 -1.0604  0.8755
  799MPD2     C11821   1.817   1.756  14.758  0.0270 -0.0170  0.6132
  799MPD2    C111822   1.689   1.717  14.779  0.2021  0.0077 -0.4906
  799MPD2    C211823   1.586   1.773  14.706 -0.2929 -0.0990 -0.0143
  799MPD2    C311824   1.609   1.868  14.607  0.3776 -0.0775 -0.4878
  799MPD2    C411825   1.738   1.921  14.600 -0.2751  0.5169  0.8508
  799MPD2    C511826   1.838   1.856  14.671  0.5985  0.0663  0.1116
  799MPD2     H11827   1.483   1.744  14.727 -0.6117  0.6753 -0.5245
  799MPD2    H111828   1.765   1.994  14.525  2.3080 -0.3077  0.9598
  799MPD2    H211829   1.905   1.712  14.803 -0.0466  0.8928  1.6493
  799MPD2    H311830   1.938   1.891  14.649  1.7631 -2.1169  1.8960
  799MPD2     N11831   1.519   1.908  14.507 -0.4363 -0.0356 -0.1476
  799MPD2    H511832   1.541   1.987  14.447 -1.4186 -0.7944 -1.5207
  799MPD2    N111833   1.653   1.614  14.876 -0.2699 -0.2858  0.5341
  799MPD2    H711834   1.554   1.597  14.893 -1.0129 -0.3222 -3.8641
  800MPD2     C11835   2.151   2.868  14.013 -0.0030 -0.7561  0.1807
  800MPD2    C111836   2.264   2.929  13.958 -0.5238  0.0142  0.0482
  800MPD2    C211837   2.323   2.874  13.844 -0.1879  0.5107 -0.1376
  800MPD2    C311838   2.267   2.758  13.782 -0.2300 -0.2565  0.6124
  800MPD2    C411839   2.158   2.702  13.837  0.3707 -0.5093 -0.2654
  800MPD2    C511840   2.095   2.754  13.946 -1.0802 -1.0000  0.5094
  800MPD2     H11841   2.413   2.918  13.802 -0.4792  0.2248 -1.0365
  800MPD2    H111842   2.126   2.605  13.801 -2.3428  0.5213 -0.6343
  800MPD2    H211843   2.103   2.913  14.099 -1.1574  0.0690 -0.8988
  800MPD2    H311844   2.022   2.702  14.007 -0.4658 -1.6391  0.6952
  800MPD2     N11845   2.344   2.701  13.681 -0.3285 -0.4281 -0.2166
  800MPD2    H511846   2.431   2.749  13.658 -0.6443  1.3842  2.3526
  800MPD2    N111847   2.325   3.051  14.003 -0.2138 -0.2101 -0.2842
  800MPD2    H711848   2.413   3.073  13.959 -1.2778  1.2656 -1.6645
  801MPD2     C11849   2.051   3.613  14.434 -0.6367  0.2492 -0.4508
  801MPD2    C111850   2.125   3.510  14.486 -0.6532  0.6650  0.2467
  801MPD2    C211851   2.084   3.422  14.583  0.0913 -0.4510  0.2714
  801MPD2    C311852   1.958   3.433  14.619 -0.5724  0.3521 -0.2589
  801MPD2    C411853   1.877   3.534  14.577  0.0423  0.5746  0.1894
  801MPD2    C511854   1.927   3.632  14.494  0.7246 -0.0187 -0.2939
  801MPD2     H11855   2.148   3.342  14.617 -0.0150 -1.1335 -1.1462
  801MPD2    H111856   1.775   3.541  14.614 -0.1905 -1.2831 -0.1208
  801MPD2    H211857   2.086   3.693  14.370 -0.5112 -0.3101 -1.0761
  801MPD2    H311858   1.865   3.718  14.467  1.8016  0.6987 -0.4931
  801MPD2     N11859   1.888   3.335  14.703  0.0309 -0.0066  0.3382
  801MPD2    H511860   1.787   3.341  14.702 -0.0766 -1.8729  0.6832
  801MPD2    N111861   2.246   3.477  14.421 -0.7877  0.8450 -0.4283
  801MPD2    H711862   2.282   3.384  14.441 -0.1650  1.0874 -0.3968
  802MPD2     C11863   2.061   3.904   0.163 -0.7718 -0.3288  0.0030
  802MPD2    C111864   2.016   3.982   0.058 -0.1412 -0.5778  0.6528
  802MPD2    C211865   2.001   3.926  17.680  0.3217 -0.2502  0.0651
  802MPD2    C311866   2.019   3.794  17.655 -0.4656 -0.3666 -0.3003
  802MPD2    C411867   2.066   3.716   0.010  0.1230  0.7294 -0.3768
  802MPD2    C511868   2.090   3.773   0.135  0.2483 -0.2853  0.0008
  802MPD2     H11869   1.957   3.979  17.596 -1.8513 -0.8882  0.7902
  802MPD2    H111870   2.099   3.614  17.735 -2.7294 -0.3212  0.3834
  802MPD2    H211871   2.048   3.919   0.269 -0.8214  2.2514 -0.3649
  802MPD2    H311872   2.126   3.712   0.216  0.4799  0.8037  0.7128
  802MPD2     N11873   1.985   3.742  17.524 -0.0271  0.8102  0.4456
  802MPD2    H511874   1.939   3.816  17.472  0.7407  0.6010 -0.5347
  802MPD2    N111875   1.977   4.119   0.076 -0.3478  0.2402 -0.4281
  802MPD2    H711876   1.934   4.174   0.002 -0.9803 -0.3871 -0.5312
  803MPD2     C11877   2.582   1.776  11.534 -0.1961  0.7897 -0.5578
  803MPD2    C111878   2.663   1.861  11.603 -0.3514  0.2912  0.3476
  803MPD2    C211879   2.640   1.863  11.740 -1.6165 -0.1571 -0.5677
  803MPD2    C311880   2.551   1.778  11.802 -0.5634 -0.7392 -0.3395
  803MPD2    C411881   2.480   1.685  11.729  0.0086 -0.2816  0.1206
  803MPD2    C511882   2.488   1.694  11.595  0.2360  0.6776 -0.0323
  803MPD2     H11883   2.697   1.934  11.798 -0.0530  0.1746 -2.5039
  803MPD2    H111884   2.412   1.615  11.777 -0.0352 -1.8013 -2.1703
  803MPD2    H211885   2.589   1.770  11.426 -0.1102 -0.3628 -0.4806
  803MPD2    H311886   2.421   1.629  11.541  0.8716 -0.1775  0.2074
  803MPD2     N11887   2.529   1.775  11.940  0.6302  0.0005  0.2023
  803MPD2    H511888   2.487   1.691  11.978 -1.0961 -0.2425 -2.2628
  803MPD2    N111889   2.760   1.952  11.554  0.2274  0.6640  0.3440
  803MPD2    H711890   2.808   2.010  11.622  0.4000  1.2521 -0.2866
  804MPD2     C11891   2.129   3.483  16.968 -0.5198  0.1437 -0.5858
  804MPD2    C111892   2.170   3.416  17.083  0.2561  0.1815 -0.3997
  804MPD2    C211893   2.219   3.494  17.185 -0.2546  0.6300 -0.4938
  804MPD2    C311894   2.237   3.631  17.173  0.5518 -0.0132  0.5889
  804MPD2    C411895   2.205   3.693  17.054  0.2654 -0.6794  0.5636
  804MPD2    C511896   2.145   3.617  16.955 -0.1171 -0.2368  0.1400
  804MPD2     H11897   2.250   3.446  17.278 -0.0662  0.3303 -0.7117
  804MPD2    H111898   2.230   3.797  17.042 -0.1005 -0.9906 -2.9251
  804MPD2    H211899   2.088   3.424  16.886 -0.3704  0.7287 -1.0793
  804MPD2    H311900   2.128   3.664  16.859  2.1803 -0.2162 -0.2460
  804MPD2     N11901   2.274   3.701  17.285 -0.1249 -0.1018  0.3188
  804MPD2    H511902   2.313   3.646  17.361  0.4747 -0.6260 -0.3627
  804MPD2    N111903   2.166   3.275  17.106  0.3818 -0.2851 -0.2382
  804MPD2    H711904   2.191   3.245  17.199  1.4738  1.3834  0.0081
  805MPD2     C11905   1.074   1.923  15.624 -0.9652 -0.8304  0.1551
  805MPD2    C111906   1.191   1.898  15.558  0.4515  0.5780 -0.5648
  805MPD2    C211907   1.300   1.964  15.604 -0.2989  0.0144 -0.1851
  805MPD2    C311908   1.290   2.062  15.701  0.4357 -0.5736  0.5577
  805MPD2    C411909   1.171   2.085  15.768 -0.2324  0.0898  0.0828
  805MPD2    C511910   1.068   2.004  15.733  0.4950  0.2334  0.2930
  805MPD2     H11911   1.398   1.937  15.567 -0.6336 -1.0925 -0.2664
  805MPD2    H111912   1.159   2.166  15.839 -0.0962 -0.2745  0.5241
  805MPD2    H211913   0.982   1.868  15.605 -1.1600 -0.3692 -0.2584
  805MPD2    H311914   0.973   2.017  15.783  0.5213  3.3574 -0.5192
  805MPD2     N11915   1.399   2.143  15.754 -0.7225  0.0297 -0.5331
  805MPD2    H511916   1.371   2.221  15.812  1.1900 -1.0046  1.7670
  805MPD2    N111917   1.198   1.792  15.460 -0.3129  0.8151 -0.1467
  805MPD2    H711918   1.288   1.751  15.436 -0.4549  0.0655  0.6175
  806MPD2     C11919   2.273   1.316   0.673  0.5420 -0.5573  0.5244
  806MPD2    C111920   2.212   1.440   0.694  0.6704 -0.0396 -0.4402
  806MPD2    C211921   2.156   1.502   0.587  0.3086 -0.0940  0.6549
  806MPD2    C311922   2.162   1.444   0.462  0.1042  0.4331  0.4368
  806MPD2    C411923   2.216   1.321   0.441 -0.1619 -0.4762  0.7584
  806MPD2    C511924   2.264   1.257   0.556 -0.4337  0.3459 -0.5100
  806MPD2     H11925   2.104   1.595   0.602  1.2207  0.7977 -1.7677
  806MPD2    H111926   2.209   1.265   0.349 -1.6983  1.8754 -0.5658
  806MPD2    H211927   2.319   1.264   0.756  0.7378 -3.8165 -1.6496
  806MPD2    H311928   2.307   1.158   0.546 -1.1302  0.1144 -1.2087
  806MPD2     N11929   2.114   1.522   0.357 -0.2729 -0.5770  0.0885
  806MPD2    H511930   2.089   1.617   0.383 -0.2075 -1.5638  3.6875
  806MPD2    N111931   2.229   1.492   0.821 -0.1390  0.5175 -0.1046
  806MPD2    H711932   2.287   1.438   0.883  2.7088  2.4906 -1.0530
  807MPD2     C11933   2.036   1.864   1.537  0.0005 -0.3190 -0.2255
  807MPD2    C111934   2.000   1.781   1.436  0.4043 -0.1597  0.4092
  807MPD2    C211935   1.902   1.684   1.458  0.5176  0.7054  0.4806
  807MPD2    C311936   1.844   1.669   1.583  0.3891  0.0040  0.0002
  807MPD2    C411937   1.881   1.754   1.691  0.2663 -0.3379 -0.4881
  807MPD2    C511938   1.976   1.856   1.658  0.5656 -0.2583  0.0201
  807MPD2     H11939   1.867   1.625   1.374 -2.3375  5.2798 -1.4878
  807MPD2    H111940   1.855   1.737   1.795 -0.1405 -3.1982 -1.0546
  807MPD2    H211941   2.109   1.944   1.527  1.8198 -2.0629 -1.0250
  807MPD2    H311942   2.025   1.905   1.742  0.5413  0.1010 -0.1771
  807MPD2     N11943   1.764   1.556   1.601  0.3580  0.0749 -0.4694
  807MPD2    H511944   1.764   1.481   1.533 -1.0783  1.6631 -2.2312
  807MPD2    N111945   2.066   1.784   1.308  0.3980 -0.1717 -0.9926
  807MPD2    H711946   2.034   1.720   1.237 -2.5103  0.8669 -0.6211
  808MPD2     C11947   2.567   3.332  10.301  0.6221 -0.3037 -0.0388
  808MPD2    C111948   2.503   3.387  10.187  0.3627 -0.0833 -0.2226
  808MPD2    C211949   2.563   3.495  10.121  0.5690 -1.1698  0.3119
  808MPD2    C311950   2.693   3.537  10.150  0.1288  0.0280 -0.0977
  808MPD2    C411951   2.749   3.487  10.264  0.2299 -0.4052 -0.2319
  808MPD2    C511952   2.688   3.386  10.338 -0.1846  0.0742 -1.9302
  808MPD2     H11953   2.516   3.542  10.035 -1.2787 -2.2636  0.7281
  808MPD2    H111954   2.851   3.514  10.288  0.4471  0.2958 -1.9057
  808MPD2    H211955   2.531   3.246  10.357 -1.4271  0.9900  0.6010
  808MPD2    H311956   2.751   3.350  10.419 -2.5004  0.5817  0.1164
  808MPD2     N11957   2.776   3.623  10.070  0.4213  0.5234  0.2841
  808MPD2    H511958   2.871   3.629  10.106  1.3427 -0.6779 -1.9462
  808MPD2    N111959   2.382   3.333  10.135 -0.0342  0.9328  0.3215
  808MPD2    H711960   2.351   3.378  10.049 -1.5063  0.3482  0.5457
  809MPD2     C11961   2.945   3.342   9.204  0.3029 -0.3825 -0.0896
  809MPD2    C111962   3.021   3.457   9.210  0.1277 -0.4527  0.4802
  809MPD2    C211963   2.998   3.545   9.314  0.3241 -0.2325  0.1461
  809MPD2    C311964   2.904   3.518   9.415 -0.0963  0.5340 -0.1143
  809MPD2    C411965   2.839   3.400   9.412  0.7453  0.0541 -0.7117
  809MPD2    C511966   2.864   3.309   9.312  0.2848  0.4931  0.3354
  809MPD2     H11967   3.051   3.640   9.317  0.5611 -0.4011  1.3235
  809MPD2    H111968   2.759   3.376   9.481 -1.3890 -0.6355 -3.4173
  809MPD2    H211969   2.956   3.276   9.120 -0.4953 -0.5023 -0.1005
  809MPD2    H311970   2.820   3.211   9.318 -0.9682  1.2317  3.1238
  809MPD2     N11971   2.871   3.603   9.529 -0.5514 -0.3126 -0.3161
  809MPD2    H511972   2.811   3.561   9.600 -2.9471  1.2688 -1.4170
  809MPD2    N111973   3.094   3.501   9.099  0.4820 -0.2032 -0.3778
  809MPD2    H711974   3.128   3.596   9.096  0.9874 -0.3529  0.4498
  810MPD2     C11975   2.252   2.587  10.659 -0.1514 -0.3587  0.4803
  810MPD2    C111976   2.126   2.552  10.704 -0.1039 -0.4777 -0.2986
  810MPD2    C211977   2.034   2.647  10.745 -0.3326  0.5008 -0.5351
  810MPD2    C311978   2.070   2.782  10.745  0.0628  0.6474 -0.7181
  810MPD2    C411979   2.198   2.819  10.715  0.8181 -0.6846 -0.2468
  810MPD2    C511980   2.284   2.722  10.667  0.7599 -0.4941 -0.4398
  810MPD2     H11981   1.929   2.621  10.752 -0.2413 -0.8856 -4.0993
  810MPD2    H111982   2.226   2.922  10.699  1.0645 -0.5725  0.9362
  810MPD2    H211983   2.327   2.514  10.630  2.4217  1.8628  1.6331
  810MPD2    H311984   2.387   2.751  10.646  0.5044  1.5595  1.1426
  810MPD2     N11985   1.982   2.882  10.766 -0.5802 -0.7536 -0.5798
  810MPD2    H511986   2.017   2.976  10.780  1.0336 -1.4297 -0.1016
  810MPD2    N111987   2.095   2.416  10.709  0.1929 -0.0352  0.0242
  810MPD2    H711988   2.153   2.346  10.662  1.4863  0.7507  0.4430
  811MPD2     C11989   1.450   2.277  10.281 -0.2951  0.3870 -0.9350
  811MPD2    C111990   1.564   2.328  10.336  0.4642  0.3506  0.2060
  811MPD2    C211991   1.595   2.457  10.293 -0.9211 -0.1188  0.0557
  811MPD2    C311992   1.511   2.530  10.217  0.1366  0.3019  0.0995
  811MPD2    C411993   1.402   2.474  10.171  0.2226 -0.0877  0.4617
  811MPD2    C511994   1.367   2.345  10.199 -0.0310  0.7105  0.7831
  811MPD2     H11995   1.685   2.501  10.336  0.8409 -2.2934 -1.3887
  811MPD2    H111996   1.329   2.539  10.123 -0.2533  1.0305  2.7096
  811MPD2    H211997   1.414   2.187  10.329 -0.0282  0.7207 -0.1176
  811MPD2    H311998   1.270   2.308  10.168  2.2355 -2.0937 -2.9561
  811MPD2     N11999   1.553   2.657  10.182 -0.3523  0.0362 -0.4275
  811MPD2    H512000   1.646   2.674  10.219 -0.5906  1.7314 -0.6432
  811MPD2    N112001   1.641   2.247  10.426  0.5036  0.0620 -0.4907
  811MPD2    H712002   1.614   2.151  10.441 -1.6253  0.5349 -1.2849
  812MPD2     C12003   0.122   2.155  11.979  0.3048  0.1728  0.3438
  812MPD2    C112004   0.222   2.242  11.951 -0.0763  0.4252  0.1269
  812MPD2    C212005   0.350   2.214  11.995  0.0293 -0.5622  0.5780
  812MPD2    C312006   0.371   2.098  12.066 -0.0626 -0.3602 -0.1180
  812MPD2    C412007   0.271   2.008  12.096  0.5454 -0.0183 -0.2370
  812MPD2    C512008   0.151   2.037  12.044 -0.4773 -0.3749 -0.3215
  812MPD2     H12009   0.430   2.286  11.983 -0.0103 -0.5929  0.1189
  812MPD2    H112010   0.290   1.910  12.136 -0.1705  0.0797  0.3375
  812MPD2    H212011   0.025   2.174  11.933  1.1673 -0.9020 -1.9052
  812MPD2    H312012   0.072   1.966  12.063  3.5656 -4.4762  1.2753
  812MPD2     N12013   0.504   2.085  12.111 -0.5461  0.7008  0.4269
  812MPD2    H512014   0.578   2.143  12.073 -0.0554 -0.2737 -0.1185
  812MPD2    N112015   0.185   2.360  11.883  0.0594 -0.3052  0.4822
  812MPD2    H712016   0.084   2.373  11.883  0.2778  1.3392 -4.1729
  813MPD2     C12017   4.548   3.892  13.068 -0.2513 -0.2413 -0.4392
  813MPD2    C112018   4.599   4.011  13.117  0.5869 -0.2010 -0.0138
  813MPD2    C212019   4.571   4.044  13.252  0.1334  0.1761 -0.0612
  813MPD2    C312020   4.488   3.960  13.330 -0.0130  0.5955 -0.0376
  813MPD2    C412021   4.440   3.843  13.272  0.3932  1.0957 -0.7946
  813MPD2    C512022   4.471   3.811  13.148 -0.2525  0.2842 -0.2409
  813MPD2     H12023   4.610   4.139  13.287  0.0299  0.5397 -0.9257
  813MPD2    H112024   4.379   3.778  13.334  1.6132  1.3300  0.6444
  813MPD2    H212025   4.558   3.855  12.966  0.2974  0.0089 -0.4824
  813MPD2    H312026   4.446   3.714  13.106  0.6217 -1.1638  2.6382
  813MPD2     N12027   4.462   4.004  13.464  0.3946  0.6935 -0.2452
  813MPD2    H512028   4.502   4.094  13.489  3.7518  0.2529 -3.8880
  813MPD2    N112029   4.672   4.095  13.037  0.3031  0.0952 -0.6624
  813MPD2    H712030   4.680   4.191  13.069  0.7858 -0.4004  0.6744
  814MPD2     C12031   0.444   0.390  12.291 -0.8376  0.1134  0.5419
  814MPD2    C112032   0.436   0.476  12.185 -0.0475  0.0375 -0.3776
  814MPD2    C212033   0.449   0.615  12.211 -0.6660 -0.4226 -0.4522
  814MPD2    C312034   0.487   0.659  12.337  0.0371  0.2113  0.2417
  814MPD2    C412035   0.494   0.572  12.442 -0.4091  0.4443  0.3208
  814MPD2    C512036   0.460   0.438  12.420 -0.0818  0.5204 -0.8754
  814MPD2     H12037   0.429   0.679  12.126  2.3275 -1.3503 -1.8353
  814MPD2    H112038   0.519   0.600  12.544  2.9532 -3.2987  0.5267
  814MPD2    H212039   0.449   0.283  12.273 -0.4852  0.2872 -0.3552
  814MPD2    H312040   0.486   0.368  12.498 -2.6355  0.1158 -0.3791
  814MPD2     N12041   0.519   0.796  12.372 -0.1916  0.2791  0.4519
  814MPD2    H512042   0.535   0.811  12.471  1.0506 -1.4252  0.5120
  814MPD2    N112043   0.400   0.432  12.052 -0.3173  0.5770  0.1046
  814MPD2    H712044   0.415   0.494  11.973 -1.0280  0.0468 -0.4501
  815MPD2     C12045   0.767   4.095  11.832  0.0730 -0.3795 -0.3568
  815MPD2    C112046   0.708   3.971  11.823 -0.6486  0.4364 -0.2394
  815MPD2    C212047   0.582   3.949  11.872 -0.2136 -0.4271  0.1570
  815MPD2    C312048   0.507   4.054  11.931  0.7938  0.5098  0.0208
  815MPD2    C412049   0.566   4.183  11.941  0.4340  0.9474  0.2598
  815MPD2    C512050   0.700   4.196  11.892 -0.1385 -0.8034 -0.6061
  815MPD2     H12051   0.543   3.848  11.865 -0.9705 -0.0143 -1.5624
  815MPD2    H112052   0.522   4.273  11.982 -1.7232 -1.5455  3.3304
  815MPD2    H212053   0.863   4.131  11.795  0.3529  2.3206  2.9654
  815MPD2    H312054   0.744   4.294  11.901  0.2043 -1.2590  2.8832
  815MPD2     N12055   0.370   4.041  11.972  0.2280  0.1215 -0.5829
  815MPD2    H512056   0.330   3.949  11.958  2.2843 -1.0198  1.0231
  815MPD2    N112057   0.783   3.873  11.757 -0.2748  0.1197 -0.1248
  815MPD2    H712058   0.868   3.903  11.710 -0.5002 -0.9070 -1.1839
  816MPD2     C12059   0.915   2.732  16.941  0.3852  0.6081  0.1152
  816MPD2    C112060   0.964   2.839  16.870  0.0111 -0.0992 -0.1150
  816MPD2    C212061   1.045   2.801  16.764 -0.6892  0.0683 -0.0910
  816MPD2    C312062   1.073   2.666  16.731  0.0996 -0.0708  0.0160
  816MPD2    C412063   1.035   2.567  16.827 -0.3158 -0.3047 -0.0618
  816MPD2    C512064   0.949   2.604  16.921 -0.5304  0.1712  0.2179
  816MPD2     H12065   1.090   2.881  16.707  1.7436 -1.5852 -0.4912
  816MPD2    H112066   1.067   2.463  16.821 -1.2090 -0.6298  0.7314
  816MPD2    H212067   0.854   2.750  17.028 -0.8271 -2.2678 -0.1444
  816MPD2    H312068   0.914   2.530  16.992  0.7203 -0.6431 -0.0208
  816MPD2     N12069   1.154   2.634  16.618 -0.1685 -0.2683 -0.9659
  816MPD2    H512070   1.181   2.707  16.553  1.2089 -1.2742 -1.5328
  816MPD2    N112071   0.924   2.977  16.880  0.4202  0.5367  0.0800
  816MPD2    H712072   0.949   3.041  16.806 -1.0554 -0.6524 -1.4751
  817MPD2     C12073   0.471   4.664   9.708 -0.4176  0.1620  0.2470
  817MPD2    C112074   0.469   4.628   9.570  0.3471 -0.6728  0.3612
  817MPD2    C212075   0.389   4.700   9.478  0.0109  0.5719 -0.1536
  817MPD2    C312076   0.317   0.073   9.513  0.3264  0.1388  0.3281
  817MPD2    C412077   0.325   0.105   9.646  0.1674  0.4107 -0.2511
  817MPD2    C512078   0.401   0.041   9.738 -0.6245 -0.2289  0.2891
  817MPD2     H12079   0.386   4.667   9.375  0.3359  0.9405 -0.2823
  817MPD2    H112080   0.276   0.189   9.695 -1.0089 -1.1122  1.2081
  817MPD2    H212081   0.532   4.608   9.778  0.7565 -0.4204 -1.2413
  817MPD2    H312082   0.411   0.082   9.838  1.3085  0.6441 -0.2643
  817MPD2     N12083   0.255   0.147   9.414 -0.0223 -0.5311  0.3114
  817MPD2    H512084   0.249   0.099   9.325  0.5945 -0.2388  0.1062
  817MPD2    N112085   0.542   4.522   9.516 -0.7108  0.7759  0.0726
  817MPD2    H712086   0.522   4.500   9.420  0.0718  4.6451 -0.9688
  818MPD2     C12087   3.775   4.511   9.598  0.6953 -0.5760  0.2312
  818MPD2    C112088   3.874   4.521   9.697 -0.4533 -0.4205  0.1655
  818MPD2    C212089   3.970   4.422   9.724 -0.2364 -0.5799 -0.2780
  818MPD2    C312090   3.948   4.298   9.669 -0.4055 -0.0211  0.3635
  818MPD2    C412091   3.843   4.282   9.581 -0.1889  0.5020 -0.0378
  818MPD2    C512092   3.758   4.387   9.553 -0.4997 -0.1567 -0.4084
  818MPD2     H12093   4.050   4.447   9.791 -0.3856  0.5470 -0.5213
  818MPD2    H112094   3.817   4.185   9.540 -2.9082  0.2823  2.1607
  818MPD2    H212095   3.708   4.586   9.559  0.2471 -1.1306 -0.0624
  818MPD2    H312096   3.678   4.363   9.484 -1.9019  1.0817  0.7914
  818MPD2     N12097   4.025   4.177   9.691 -0.1185 -0.2977  0.3557
  818MPD2    H512098   3.989   4.092   9.649 -0.5753 -0.8088  1.7722
  818MPD2    N112099   3.874   4.637   9.782 -1.2670 -0.1719  0.3154
  818MPD2    H712100   3.944   4.642   9.856 -0.4750  0.6112 -0.4812
  819MPD2     C12101   2.128   1.554  15.821 -0.3024  0.2635  0.9010
  819MPD2    C112102   2.202   1.455  15.761  0.2035  0.6112 -0.0435
  819MPD2    C212103   2.335   1.455  15.781 -0.2390 -0.5705  0.4312
  819MPD2    C312104   2.398   1.542  15.870  0.3400 -0.2340 -0.4549
  819MPD2    C412105   2.323   1.648  15.923 -0.1488  0.2229 -0.5244
  819MPD2    C512106   2.191   1.653  15.901 -0.6371 -0.1907 -0.0012
  819MPD2     H12107   2.398   1.380  15.734 -2.0793 -1.8152 -0.0182
  819MPD2    H112108   2.373   1.722  15.984 -1.7959  1.9639 -1.2934
  819MPD2    H212109   2.023   1.572  15.801 -0.5804 -2.2250  0.1630
  819MPD2    H312110   2.126   1.729  15.942 -0.6793 -0.1830 -0.0813
  819MPD2     N12111   2.540   1.527  15.905  0.6826 -0.0230  0.0383
  819MPD2    H512112   2.583   1.444  15.867  4.4770  3.1057 -2.4196
  819MPD2    N112113   2.139   1.350  15.686 -0.3651  0.2954  0.2471
  819MPD2    H712114   2.042   1.357  15.657  0.2545  2.5998 -1.2901
  820MPD2     C12115   1.350   0.973  15.211 -0.2353  0.6974  0.1614
  820MPD2    C112116   1.386   1.091  15.277  0.3727 -0.6839 -0.2422
  820MPD2    C212117   1.500   1.102  15.350  0.3381 -0.4261 -0.1514
  820MPD2    C312118   1.578   0.986  15.359 -0.1425 -0.2843 -0.1602
  820MPD2    C412119   1.541   0.876  15.297 -0.3453  0.2525 -0.0591
  820MPD2    C512120   1.431   0.865  15.217 -0.4525  0.4513 -1.4098
  820MPD2     H12121   1.537   1.198  15.384 -0.0259 -0.3315 -0.0240
  820MPD2    H112122   1.614   0.796  15.301 -1.6559 -0.9049  0.6960
  820MPD2    H212123   1.266   0.969  15.142  2.9422  1.7264 -3.7466
  820MPD2    H312124   1.399   0.770  15.176  0.9473  0.0876 -1.6459
  820MPD2     N12125   1.701   0.985  15.421 -0.1256  0.1687 -0.2271
  820MPD2    H512126   1.754   0.898  15.415 -0.9859 -0.4843  1.6973
  820MPD2    N112127   1.306   1.201  15.255  0.6844  0.8401 -0.1486
  820MPD2    H712128   1.226   1.190  15.194 -1.0331 -0.1715  2.2866
  821MPD2     C12129   2.534   2.638  12.907  0.7875 -0.2364 -0.4633
  821MPD2    C112130   2.634   2.641  13.004  0.2429  0.2593 -0.2651
  821MPD2    C212131   2.737   2.726  12.979  0.2899  0.0460 -0.4248
  821MPD2    C312132   2.765   2.780  12.854  0.1579  0.8778  0.2871
  821MPD2    C412133   2.660   2.778  12.758 -0.1228 -0.7007  0.1810
  821MPD2    C512134   2.545   2.709  12.791 -0.3095  0.2015 -0.4667
  821MPD2     H12135   2.813   2.743  13.054 -0.2866  0.7086  0.0118
  821MPD2    H112136   2.664   2.822  12.659 -1.5939 -1.5340 -0.2479
  821MPD2    H212137   2.441   2.590  12.934  2.1429 -1.8085  1.3564
  821MPD2    H312138   2.468   2.708  12.715  0.2711  0.0080 -1.0510
  821MPD2     N12139   2.885   2.839  12.819 -0.0823  0.5193  0.1494
  821MPD2    H512140   2.897   2.874  12.725  0.3772  0.7141  0.2752
  821MPD2    N112141   2.631   2.584  13.133 -0.5003  0.7240  0.4162
  821MPD2    H712142   2.706   2.601  13.199  1.6501  0.5311 -1.9366
  822MPD2     C12143   3.137   2.821  15.595  0.1495  0.3623 -0.5103
  822MPD2    C112144   3.084   2.757  15.708 -0.0335  0.3844 -0.4034
  822MPD2    C212145   2.982   2.828  15.782  0.5886  0.4000  0.0440
  822MPD2    C312146   2.942   2.965  15.748  0.2022 -0.2416 -0.2782
  822MPD2    C412147   2.996   3.018  15.639 -0.9595  0.1910  0.1859
  822MPD2    C512148   3.077   2.941  15.562  0.1321  0.1499  0.0939
  822MPD2     H12149   2.949   2.785  15.875  2.3245 -0.4280  0.2842
  822MPD2    H112150   2.974   3.113  15.592  0.6414  0.6584  0.3638
  822MPD2    H212151   3.194   2.768  15.519 -0.1965 -1.1050  0.2423
  822MPD2    H312152   3.120   2.993  15.477 -1.2390 -1.1781 -1.3984
  822MPD2     N12153   2.857   3.028  15.839  0.6619 -0.1663  0.0869
  822MPD2    H512154   2.817   2.982  15.921 -0.1220  1.5333  0.6576
  822MPD2    N112155   3.121   2.628  15.753 -0.9213 -0.2759  0.2461
  822MPD2    H712156   3.073   2.595  15.837 -2.7494 -0.7652 -0.9931
  823MPD2     C12157   2.436   3.160  16.565 -0.0792 -1.2631  0.6517
  823MPD2    C112158   2.518   3.089  16.480 -0.0183 -0.0403 -0.2887
  823MPD2    C212159   2.568   2.972  16.518 -0.2160  0.3704  0.0318
  823MPD2    C312160   2.527   2.914  16.639 -0.3638  0.4222  0.4141
  823MPD2    C412161   2.444   2.980  16.723  0.1081  0.1541 -0.3536
  823MPD2    C512162   2.400   3.106  16.689  0.1765  0.2572  0.2346
  823MPD2     H12163   2.633   2.917  16.451 -2.3820  1.1205 -2.7092
  823MPD2    H112164   2.410   2.931  16.813  0.3617  1.6952  0.5819
  823MPD2    H212165   2.408   3.262  16.539 -0.8843 -1.6024  0.1819
  823MPD2    H312166   2.344   3.156  16.767 -1.1605  0.6213 -0.9767
  823MPD2     N12167   2.557   2.782  16.682  0.9142 -0.0496 -0.5748
  823MPD2    H512168   2.501   2.748  16.760  0.3839  0.9107 -0.5450
  823MPD2    N112169   2.548   3.151  16.359 -0.0784  0.1677  0.2930
  823MPD2    H712170   2.521   3.249  16.353 -2.7914 -0.5343  0.7229
  824MPD2     C12171   3.211   1.795  15.576  0.8085  0.2404 -0.3580
  824MPD2    C112172   3.295   1.904  15.587 -0.4662 -0.2853  0.6819
  824MPD2    C212173   3.422   1.882  15.539  0.3120 -0.2048  0.6614
  824MPD2    C312174   3.470   1.759  15.505  0.1679  0.4034  0.9917
  824MPD2    C412175   3.384   1.654  15.493  0.0773 -0.3257  0.1839
  824MPD2    C512176   3.255   1.673  15.526  0.3879  0.1041 -0.1961
  824MPD2     H12177   3.489   1.967  15.536  2.0355 -1.5079  1.9278
  824MPD2    H112178   3.411   1.555  15.459 -0.1793 -0.4879  0.4593
  824MPD2    H212179   3.108   1.800  15.608  0.6504  0.4672 -0.9044
  824MPD2    H312180   3.188   1.587  15.529  3.2510 -2.1141  0.7350
  824MPD2     N12181   3.610   1.751  15.472  0.3381 -0.0965  0.1259
  824MPD2    H512182   3.664   1.837  15.479 -0.3665  0.1990  1.9885
  824MPD2    N112183   3.264   2.037  15.636  0.6514 -0.1270 -0.1150
  824MPD2    H712184   3.321   2.114  15.604 -0.4560  0.0054 -1.7645
  825MPD2     C12185   4.335   1.984  15.550 -0.7419 -0.3671  0.3611
  825MPD2    C112186   4.245   2.000  15.457 -0.0311  0.7193 -0.7151
  825MPD2    C212187   4.230   2.123  15.391  0.2129  0.2484 -0.3424
  825MPD2    C312188   4.312   2.227  15.428  0.5481 -0.8140  0.2323
  825MPD2    C412189   4.411   2.202  15.523  0.5696 -0.5793  0.2637
  825MPD2    C512190   4.421   2.084  15.580  0.6326  0.2712 -0.5425
  825MPD2     H12191   4.157   2.134  15.312 -0.0830  0.4596 -0.0358
  825MPD2    H112192   4.475   2.282  15.557 -1.4180  0.9970  0.3152
  825MPD2    H212193   4.349   1.894  15.609  1.6076 -1.2619 -1.5581
  825MPD2    H312194   4.488   2.062  15.663  0.5559 -0.5999 -0.7115
  825MPD2     N12195   4.310   2.361  15.374  0.7825  0.1732 -0.4148
  825MPD2    H512196   4.362   2.433  15.424 -1.2084  0.7432  0.8344
  825MPD2    N112197   4.152   1.888  15.433  0.2250 -0.5125 -0.1270
  825MPD2    H712198   4.177   1.805  15.487  1.5176  1.0348  1.6541
  826MPD2     C12199   3.740   2.132  13.851 -0.0336 -0.0794  0.4060
  826MPD2    C112200   3.679   2.160  13.730 -0.3129 -0.0993  1.0508
  826MPD2    C212201   3.584   2.264  13.718 -0.7357  0.9365  0.0041
  826MPD2    C312202   3.554   2.349  13.826  0.7986  0.2022  0.0595
  826MPD2    C412203   3.620   2.319  13.943 -0.2308 -0.6818 -0.2582
  826MPD2    C512204   3.712   2.215  13.957  0.0901  0.0764  0.7988
  826MPD2     H12205   3.536   2.282  13.623 -2.3540 -1.6821  0.3099
  826MPD2    H112206   3.594   2.379  14.030 -0.7023  2.1230 -2.3435
  826MPD2    H212207   3.809   2.050  13.872  1.1141  0.3047 -1.8092
  826MPD2    H312208   3.771   2.206  14.048 -0.4056 -0.0823  1.1047
  826MPD2     N12209   3.463   2.461  13.829 -0.6092 -0.2427 -0.0896
  826MPD2    H512210   3.464   2.518  13.912 -1.9913 -0.4286  0.0583
  826MPD2    N112211   3.707   2.077  13.613  0.0638 -0.4685 -0.5901
  826MPD2    H712212   3.773   2.001  13.630  0.7829  0.4383  0.6658
  827MPD2     C12213   4.620   3.561   9.659  0.1868 -0.6949 -0.0965
  827MPD2    C112214   4.610   3.474   9.769  0.3610  0.3435  0.0008
  827MPD2    C212215   4.565   3.346   9.743 -0.3847  0.0378  0.2656
  827MPD2    C312216   4.523   3.314   9.620  0.1581 -0.5383  0.0928
  827MPD2    C412217   4.522   3.410   9.516  0.0911  0.0883 -0.6001
  827MPD2    C512218   4.584   3.527   9.534 -0.6114  0.0671  0.0707
  827MPD2     H12219   4.560   3.272   9.822 -1.6243 -0.4346 -0.2461
  827MPD2    H112220   4.493   3.391   9.413 -0.3179  0.9183 -0.6356
  827MPD2    H212221   4.651   3.663   9.679  2.9378 -1.2209 -1.7009
  827MPD2    H312222   4.590   3.595   9.450 -0.5413  0.1906  0.1751
  827MPD2     N12223   4.471   3.183   9.606  0.4752  0.7395  0.2298
  827MPD2    H512224   4.458   3.130   9.691 -1.1765 -0.7438 -0.9500
  827MPD2    N112225   4.655   3.520   9.894  0.1057  0.3239 -0.3561
  827MPD2    H712226   4.703   3.609   9.902  3.9790 -1.7606 -0.4226
  828MPD2     C12227   3.288   3.150  11.961  0.5288  0.2948  0.0015
  828MPD2    C112228   3.183   3.218  11.905 -0.6643  0.6966  0.0647
  828MPD2    C212229   3.185   3.265  11.778 -0.0613  0.3356  0.6711
  828MPD2    C312230   3.285   3.223  11.692  0.5586 -0.4395  0.4136
  828MPD2    C412231   3.397   3.163  11.742  0.1287  0.1875  0.6489
  828MPD2    C512232   3.397   3.130  11.875  0.5733 -0.0479  0.2500
  828MPD2     H12233   3.098   3.311  11.732  0.0976 -0.3484 -0.3089
  828MPD2    H112234   3.476   3.141  11.671 -2.3720  0.2666 -2.1422
  828MPD2    H212235   3.298   3.110  12.062  1.3190 -0.8068 -0.5178
  828MPD2    H312236   3.480   3.072  11.914  0.6049 -0.2540 -0.1293
  828MPD2     N12237   3.289   3.261  11.555  0.0123  0.4015 -0.6848
  828MPD2    H512238   3.370   3.218  11.512 -0.1889 -1.6260  0.9566
  828MPD2    N112239   3.061   3.239  11.976  0.8198 -0.0416  0.2776
  828MPD2    H712240   2.986   3.280  11.922  0.4604  0.3861  1.0961
  829MPD2     C12241   2.444   3.864  11.789 -0.5316 -0.5465  0.3091
  829MPD2    C112242   2.371   3.779  11.869  0.4878 -0.1451  0.3127
  829MPD2    C212243   2.432   3.681  11.947  0.4022  0.1701 -0.3652
  829MPD2    C312244   2.569   3.660  11.925 -0.3989 -0.1809  1.5110
  829MPD2    C412245   2.638   3.730  11.830  0.1986 -0.1901 -0.0643
  829MPD2    C512246   2.576   3.827  11.762  0.6634 -0.0051 -0.5431
  829MPD2     H12247   2.369   3.621  12.011 -1.8350 -0.0546 -2.7440
  829MPD2    H112248   2.744   3.722  11.810  0.1641  0.7497 -0.6399
  829MPD2    H212249   2.400   3.947  11.736 -2.3151 -2.4219 -1.1150
  829MPD2    H312250   2.626   3.900  11.699 -0.7742  0.9139 -0.6179
  829MPD2     N12251   2.639   3.568  12.003  0.1997  0.7817  0.3860
  829MPD2    H512252   2.736   3.563  11.973  0.6247  0.9253  1.7071
  829MPD2    N112253   2.234   3.803  11.869  0.4497  0.0387  0.6054
  829MPD2    H712254   2.203   3.870  11.799  0.3808  1.2768  1.8022
  830MPD2     C12255   3.296   1.241  15.703  0.3798  0.5716  0.6011
  830MPD2    C112256   3.179   1.305  15.672 -0.2862  0.2472  0.4894
  830MPD2    C212257   3.154   1.330  15.538 -0.3304 -0.1430 -1.1391
  830MPD2    C312258   3.246   1.302  15.437  0.2055 -0.2485  0.3354
  830MPD2    C412259   3.371   1.259  15.469  0.0215 -0.9577  0.5902
  830MPD2    C512260   3.388   1.220  15.600 -0.5118 -0.1830  0.2726
  830MPD2     H12261   3.060   1.373  15.506 -1.3275  0.1364  2.2408
  830MPD2    H112262   3.451   1.250  15.396 -0.2935  2.1471 -0.1500
  830MPD2    H212263   3.305   1.215  15.808  0.3367 -0.3986  0.3637
  830MPD2    H312264   3.478   1.163  15.621 -0.3444  0.3694  1.0312
  830MPD2     N12265   3.225   1.337  15.300 -0.5942 -0.0843 -0.5680
  830MPD2    H512266   3.307   1.324  15.242 -0.0259 -1.2786  0.5153
  830MPD2    N112267   3.102   1.333  15.779 -0.2270  0.1198  0.3435
  830MPD2    H712268   3.150   1.314  15.866 -1.0193 -0.3635  0.6703
  831MPD2     C12269   3.153   3.079  16.140 -0.2595 -0.3215 -0.4041
  831MPD2    C112270   3.176   2.959  16.080  0.3439 -0.2349  0.5345
  831MPD2    C212271   3.095   2.854  16.092 -0.2547  0.1704  0.0876
  831MPD2    C312272   2.976   2.865  16.161  0.0567 -0.1373  0.0640
  831MPD2    C412273   2.960   2.988  16.230 -0.5021  1.0334 -0.2048
  831MPD2    C512274   3.049   3.090  16.225 -0.5811  0.3360  0.0376
  831MPD2     H12275   3.118   2.760  16.042  0.3536  0.6528 -0.5366
  831MPD2    H112276   2.877   3.002  16.298 -1.3237  0.4292 -1.0815
  831MPD2    H212277   3.225   3.160  16.140 -3.5027  2.5508 -1.2708
  831MPD2    H312278   3.040   3.179  16.287  0.3852  0.4503  0.0235
  831MPD2     N12279   2.875   2.767  16.169 -0.2943 -1.4345 -0.2935
  831MPD2    H512280   2.789   2.791  16.217 -0.3641  0.3598 -1.2842
  831MPD2    N112281   3.294   2.953  15.997  0.4772  0.5910  0.2172
  831MPD2    H712282   3.319   3.045  15.964  1.5557  0.5861  1.0456
  832MPD2     C12283   1.630   4.168  17.151 -0.6654  0.6356 -0.7191
  832MPD2    C112284   1.644   4.264  17.054  0.5024 -0.1569 -0.0199
  832MPD2    C212285   1.552   4.264  16.945 -0.6146 -0.1157 -0.2572
  832MPD2    C312286   1.450   4.173  16.935 -0.0033  0.3226 -0.2851
  832MPD2    C412287   1.447   4.068  17.030 -0.8674 -0.0978 -0.1272
  832MPD2    C512288   1.540   4.065  17.135 -0.6555 -0.5571  0.5254
  832MPD2     H12289   1.557   4.346  16.875 -1.3571  0.2722  0.1440
  832MPD2    H112290   1.373   3.988  17.036 -2.3829  1.0262 -4.1783
  832MPD2    H212291   1.690   4.174  17.240 -1.1760  0.0233 -0.3290
  832MPD2    H312292   1.537   3.987  17.210 -0.9893 -2.0828 -1.0764
  832MPD2     N12293   1.352   4.177  16.838  0.2919 -0.2975 -0.1091
  832MPD2    H512294   1.293   4.094  16.836 -2.5433  1.6800  1.0675
  832MPD2    N112295   1.748   4.358  17.059  0.3283  0.6170 -0.1133
  832MPD2    H712296   1.802   4.349  17.144 -2.5317 -0.5835  1.5805
  833MPD2     C12297   4.036   0.473  12.589  0.0686  0.1538  0.5865
  833MPD2    C112298   4.058   0.580  12.507  1.0725 -0.8045  0.5870
  833MPD2    C212299   4.104   0.561  12.383 -0.1912 -0.2381  0.0075
  833MPD2    C312300   4.161   0.437  12.341 -0.0900  0.0587 -0.1392
  833MPD2    C412301   4.151   0.334  12.431  0.0213  0.1402  0.3538
  833MPD2    C512302   4.084   0.351  12.548 -0.7462 -0.3172  0.3486
  833MPD2     H12303   4.113   0.642  12.311  0.1894  1.1615  1.6199
  833MPD2    H112304   4.198   0.237  12.416  0.8833  0.6775 -0.4248
  833MPD2    H212305   3.997   0.470  12.690  1.1526  1.8000  1.0720
  833MPD2    H312306   4.063   0.264  12.609 -3.7390 -0.3402 -0.7306
  833MPD2     N12307   4.214   0.405  12.212 -0.0403  0.0425 -0.7810
  833MPD2    H512308   4.252   0.313  12.196  1.3038  0.4885 -0.1067
  833MPD2    N112309   4.000   0.699  12.549  1.0978 -0.3319 -0.1218
  833MPD2    H712310   3.953   0.712  12.638  2.4090  1.0584  0.3680
  834MPD2     C12311   3.882   4.589  11.461  0.2332 -0.2875 -0.5121
  834MPD2    C112312   3.854   4.717  11.409  0.1402 -0.6620  0.0970
  834MPD2    C212313   3.898   0.087  11.485  0.1624  0.8955  0.2077
  834MPD2    C312314   3.970   0.065  11.599  0.0434 -0.3307 -0.1929
  834MPD2    C412315   3.998   4.667  11.638  0.1922 -0.2064  0.0601
  834MPD2    C512316   3.946   4.564  11.574 -0.2787  0.0994 -0.3724
  834MPD2     H12317   3.905   0.188  11.446  0.9823  0.6133 -0.3786
  834MPD2    H112318   4.068   4.628  11.711  0.5366  2.4434  1.1459
  834MPD2    H212319   3.831   4.506  11.415 -3.4901  1.4602  0.4652
  834MPD2    H312320   3.967   4.462  11.605 -0.1994  0.2146 -0.0390
  834MPD2     N12321   4.015   0.176  11.672  0.2021  0.2186 -0.3733
  834MPD2    H512322   3.977   0.266  11.645  0.6532 -0.2721 -2.6185
  834MPD2    N112323   3.773   4.732  11.294 -0.0450 -0.4536 -0.2713
  834MPD2    H712324   3.732   4.645  11.262 -1.4757 -0.3270  1.1831
  835MPD2     C12325   3.322   3.268  10.517  0.0862 -1.1200 -0.1892
  835MPD2    C112326   3.341   3.382  10.587 -0.2440  0.1348  0.5802
  835MPD2    C212327   3.463   3.399  10.655  0.0159  0.1631 -0.2694
  835MPD2    C312328   3.563   3.298  10.658  0.0231 -0.0722 -0.5214
  835MPD2    C412329   3.537   3.183  10.591 -0.6326  0.0452 -0.4462
  835MPD2    C512330   3.422   3.174  10.517 -0.0080 -0.2817 -0.5115
  835MPD2     H12331   3.471   3.487  10.718 -0.4258 -0.5083  0.7173
  835MPD2    H112332   3.612   3.104  10.598 -0.9715 -0.1215  1.3358
  835MPD2    H212333   3.231   3.239  10.465  0.2629 -0.3080 -0.9548
  835MPD2    H312334   3.406   3.090  10.451 -1.6755  1.3245 -2.1852
  835MPD2     N12335   3.673   3.296  10.742 -0.5051  0.6143  0.2699
  835MPD2    H512336   3.733   3.215  10.728  1.0969  1.9712 -0.8180
  835MPD2    N112337   3.247   3.489  10.592  0.0090  0.1585 -0.0320
  835MPD2    H712338   3.272   3.561  10.660 -0.0019  1.0699 -0.9836
  836MPD2     C12339   3.448   3.705  11.190 -0.2674  0.0871  0.2803
  836MPD2    C112340   3.537   3.638  11.266  0.6768  0.5582 -0.6780
  836MPD2    C212341   3.516   3.619  11.404  0.1414  0.1325 -0.3229
  836MPD2    C312342   3.408   3.681  11.464 -0.3251 -0.0039 -0.6255
  836MPD2    C412343   3.326   3.758  11.383 -0.3958 -0.2249  0.3147
  836MPD2    C512344   3.348   3.774  11.247  1.5151 -0.0484 -0.2635
  836MPD2     H12345   3.587   3.561  11.461 -0.0895  1.0798  0.9058
  836MPD2    H112346   3.238   3.808  11.422  0.9489 -0.2362  3.3491
  836MPD2    H212347   3.473   3.726  11.087 -2.7552 -1.2483 -0.5923
  836MPD2    H312348   3.280   3.833  11.187  2.6185  1.7182  0.2056
  836MPD2     N12349   3.364   3.662  11.597  0.3391  0.6658  0.3285
  836MPD2    H512350   3.279   3.711  11.623 -0.4912 -0.4147 -0.3316
  836MPD2    N112351   3.645   3.578  11.194  0.1582  0.4186  0.1844
  836MPD2    H712352   3.644   3.603  11.095  1.5203  0.3058  0.1525
  837MPD2     C12353   1.939   3.318  10.363  0.9397  0.8280  0.6114
  837MPD2    C112354   1.808   3.337  10.358  0.2621 -0.3412  0.7535
  837MPD2    C212355   1.756   3.465  10.357  0.3789 -0.4721 -0.3598
  837MPD2    C312356   1.834   3.577  10.348  0.7494 -0.9996  0.1880
  837MPD2    C412357   1.975   3.556  10.366  0.4486 -0.2640  0.7348
  837MPD2    C512358   2.024   3.426  10.373  0.3555  0.3377  0.0376
  837MPD2     H12359   1.649   3.477  10.358  0.5352  0.6029  1.8975
  837MPD2    H112360   2.046   3.637  10.354  0.6578 -0.6775 -0.8142
  837MPD2    H212361   1.979   3.219  10.384 -0.8779 -0.1065 -0.3712
  837MPD2    H312362   2.131   3.407  10.383  0.6253  1.2709 -1.0765
  837MPD2     N12363   1.778   3.696  10.300 -0.0566 -0.3359 -0.2674
  837MPD2    H512364   1.678   3.708  10.300 -0.2184 -1.8294 -0.8231
  837MPD2    N112365   1.722   3.225  10.333  0.3488  0.3109  0.1882
  837MPD2    H712366   1.623   3.244  10.327  0.0744 -1.0524  0.4783
  838MPD2     C12367   0.252   1.716  11.562  0.1117 -0.1610 -0.2789
  838MPD2    C112368   0.229   1.751  11.692 -0.3896  0.2305 -0.7358
  838MPD2    C212369   0.166   1.664  11.780 -1.1456  0.0800  0.6800
  838MPD2    C312370   0.146   1.533  11.744 -0.7922 -0.3346 -0.0695
  838MPD2    C412371   0.172   1.494  11.613 -0.4457  0.0599  0.2633
  838MPD2    C512372   0.220   1.586  11.525 -0.1767  0.0331  0.3375
  838MPD2     H12373   0.164   1.687  11.885  1.1733 -0.3637  0.8237
  838MPD2    H112374   0.173   1.392  11.577  2.2221 -0.4452  1.7016
  838MPD2    H212375   0.289   1.772  11.477 -0.0961 -0.9749 -0.9084
  838MPD2    H312376   0.247   1.561  11.423 -2.0343  2.6250 -0.8005
  838MPD2     N12377   0.100   1.436  11.838  0.3380 -0.9276 -0.0862
  838MPD2    H512378   0.104   1.466  11.935  0.5980 -0.8210 -0.1296
  838MPD2    N112379   0.276   1.879  11.737  0.6143  0.3771  0.1449
  838MPD2    H712380   0.232   1.910  11.823  0.3804  0.3624  0.0323
  839MPD2     C12381   0.476   1.149  11.813  0.5199  0.2010  0.6208
  839MPD2    C112382   0.479   1.171  11.677 -0.1377  0.2220 -0.3505
  839MPD2    C212383   0.498   1.306  11.628 -0.9002  0.4507  0.1268
  839MPD2    C312384   0.517   1.412  11.717 -0.0550 -0.6077  0.0075
  839MPD2    C412385   0.496   1.388  11.850 -0.4179  0.3570 -0.3118
  839MPD2    C512386   0.461   1.261  11.891  0.2830 -0.0743  0.3601
  839MPD2     H12387   0.517   1.320  11.522 -3.1665  0.3478 -0.2956
  839MPD2    H112388   0.513   1.467  11.922  0.0820 -0.3825  0.3913
  839MPD2    H212389   0.462   1.050  11.855  0.5331  0.1588  0.5276
  839MPD2    H312390   0.456   1.241  11.997  0.6661 -1.9275  0.0431
  839MPD2     N12391   0.574   1.539  11.679 -0.8089  0.3793  0.4965
  839MPD2    H512392   0.579   1.608  11.753 -0.7769  0.5545  0.3319
  839MPD2    N112393   0.467   1.071  11.577  0.1985 -0.5048 -0.0696
  839MPD2    H712394   0.456   1.096  11.479  0.5743  2.2307  0.5871
  840MPD2     C12395   0.441   3.836   9.920 -0.4029  0.2185  0.3843
  840MPD2    C112396   0.418   3.803  10.054  1.0120  0.0154 -0.2261
  840MPD2    C212397   0.519   3.846  10.139 -0.3471 -0.3240  0.2612
  840MPD2    C312398   0.627   3.924  10.092 -0.8489  0.2500  0.4115
  840MPD2    C412399   0.633   3.945   9.961 -0.1977  0.5868 -0.9192
  840MPD2    C512400   0.549   3.910   9.871 -0.0103 -0.6308 -0.3381
  840MPD2     H12401   0.509   3.836  10.246  0.6171 -1.9051  0.2066
  840MPD2    H112402   0.720   4.001   9.929 -1.6249  2.3002 -1.8392
  840MPD2    H212403   0.368   3.806   9.846 -0.9201 -0.3778  1.1402
  840MPD2    H312404   0.558   3.932   9.766 -0.1442  1.7684  0.1542
  840MPD2     N12405   0.734   3.980  10.173  0.1545 -0.3223 -0.1070
  840MPD2    H512406   0.798   4.034  10.117 -0.3451 -0.2761 -0.6371
  840MPD2    N112407   0.311   3.724  10.083 -1.0740 -0.1063  0.0195
  840MPD2    H712408   0.261   3.687  10.003 -0.4769  0.0255 -0.4186
  841MPD2     C12409   4.443   3.464  14.719 -0.5496 -0.4934  0.4059
  841MPD2    C112410   4.466   3.370  14.619  0.1138  0.2558  0.0008
  841MPD2    C212411   4.590   3.306  14.622  0.1416 -0.6797  0.2426
  841MPD2    C312412   4.685   3.339  14.717  0.4719 -0.4653 -0.4364
  841MPD2    C412413   4.655   3.432  14.815  0.6819 -0.7029 -0.5982
  841MPD2    C512414   4.536   3.495  14.812  0.3140 -0.5015 -1.3768
  841MPD2     H12415   4.617   3.227  14.553  1.6053 -0.2585  0.3255
  841MPD2    H112416   4.719   3.459  14.898  1.0158 -0.8758 -0.8009
  841MPD2    H212417   4.351   3.522  14.727  0.0473 -0.1894  5.1260
  841MPD2    H312418   4.509   3.565  14.890 -0.3494  2.3764 -4.1886
  841MPD2     N12419   0.079   3.279  14.716  0.4112 -1.0107 -0.3057
  841MPD2    H512420   0.094   3.201  14.654  0.5046 -1.4983  0.3310
  841MPD2    N112421   4.376   3.348  14.516  0.5784 -0.2933 -0.1562
  841MPD2    H712422   4.402   3.283  14.442 -0.8008 -0.4190 -0.5330
  842MPD2     C12423   0.970   4.516  16.833  0.3552  0.1729  0.0110
  842MPD2    C112424   0.858   4.458  16.886 -0.7440  0.2184 -0.2006
  842MPD2    C212425   0.841   4.435  17.023  0.0636  0.5369 -0.0220
  842MPD2    C312426   0.926   4.505  17.109 -0.1893 -0.9049  0.3408
  842MPD2    C412427   1.027   4.579  17.057 -0.7921  0.8537  0.2644
  842MPD2    C512428   1.052   4.578  16.922  0.5326  0.8593 -0.5122
  842MPD2     H12429   0.756   4.377  17.058  1.9057 -2.7457 -0.9393
  842MPD2    H112430   1.103   4.624  17.120  0.4984  0.4651 -1.0222
  842MPD2    H212431   0.998   4.523  16.729 -3.1210  0.1384 -0.9195
  842MPD2    H312432   1.148   4.619  16.894  0.7772 -0.0343 -0.9645
  842MPD2     N12433   0.911   4.499  17.249  0.2501 -0.1204 -0.6502
  842MPD2    H512434   0.950   4.570  17.310  0.9195 -2.5648  1.7948
  842MPD2    N112435   0.768   4.408  16.793 -0.2992  0.1223 -0.5849
  842MPD2    H712436   0.783   4.465  16.711 -1.5591 -0.0470 -0.9375
  843MPD2     C12437   2.968   0.808   0.115  0.2266  0.3665  0.2102
  843MPD2    C112438   3.045   0.721   0.192 -0.0717 -0.2962  0.2657
  843MPD2    C212439   3.131   0.781   0.288  0.3133  0.0764  0.5262
  843MPD2    C312440   3.144   0.917   0.297 -0.4839  0.4416 -0.2840
  843MPD2    C412441   3.065   0.998   0.219 -0.4272  0.5919 -0.0441
  843MPD2    C512442   2.979   0.943   0.133 -0.3208 -0.9625  0.1427
  843MPD2     H12443   3.197   0.710   0.338  1.0174 -0.7398 -1.5645
  843MPD2    H112444   3.079   1.104   0.234  1.8366  0.4319 -1.0107
  843MPD2    H212445   2.904   0.763   0.040 -0.9276 -0.4159  1.6731
  843MPD2    H312446   2.912   1.010   0.081 -0.1698 -1.5272 -0.7811
  843MPD2     N12447   3.240   0.983   0.370  0.3765 -0.1258 -0.0245
  843MPD2    H512448   3.248   1.083   0.357 -0.2466 -0.1911 -0.9243
  843MPD2    N112449   3.023   0.584   0.177 -0.0274 -0.2919  0.3947
  843MPD2    H712450   2.962   0.559   0.100  2.5660  0.2040 -1.8275
  844MPD2     C12451   1.103   3.584  16.363  0.3561 -0.3200  0.1050
  844MPD2    C112452   1.116   3.671  16.254 -0.6497  0.7401 -0.1167
  844MPD2    C212453   1.189   3.790  16.260 -0.3105  0.0693  0.3714
  844MPD2    C312454   1.241   3.822  16.381  0.1219  0.3607  0.1006
  844MPD2    C412455   1.213   3.750  16.490 -0.0495  0.4094 -0.2055
  844MPD2    C512456   1.151   3.628  16.478 -0.2257  0.8784  0.3144
  844MPD2     H12457   1.197   3.850  16.171 -0.8271 -1.1647 -0.5152
  844MPD2    H112458   1.245   3.790  16.585 -0.4640  1.4697 -0.5071
  844MPD2    H212459   1.051   3.489  16.359  1.2773 -0.8568  0.6922
  844MPD2    H312460   1.142   3.567  16.566 -0.5749  1.6409  0.8125
  844MPD2     N12461   1.325   3.932  16.399  0.8222  0.0842  0.3654
  844MPD2    H512462   1.379   3.938  16.484  1.0661  0.9184  0.1528
  844MPD2    N112463   1.065   3.630  16.122 -0.0370 -0.3112 -0.3636
  844MPD2    H712464   1.044   3.704  16.057 -0.7996 -0.6038 -0.4432
  845MPD2     C12465   1.442   0.205  16.554 -0.1539 -0.4623 -0.9144
  845MPD2    C112466   1.493   0.127  16.657 -0.2540  0.0362 -0.2441
  845MPD2    C212467   1.522   4.730  16.647  0.3667  0.2419 -0.0305
  845MPD2    C312468   1.496   4.669  16.529 -0.1515 -0.2288 -0.5374
  845MPD2    C412469   1.445   0.004  16.421 -0.2953  0.0616 -0.0815
  845MPD2    C512470   1.419   0.135  16.433  0.6859 -0.3531 -0.4164
  845MPD2     H12471   1.553   4.674  16.734  1.2435  0.3510 -0.2767
  845MPD2    H112472   1.418   4.695  16.326  0.3638 -0.7011  0.1005
  845MPD2    H212473   1.414   0.309  16.561 -1.9051 -0.8353 -2.4505
  845MPD2    H312474   1.370   0.190  16.354 -0.8732 -1.3562 -0.1516
  845MPD2     N12475   1.541   4.538  16.514  0.7524  0.0309  0.1836
  845MPD2    H512476   1.560   4.494  16.603  0.9282 -1.2431 -0.4744
  845MPD2    N112477   1.492   0.197  16.782  0.1347 -0.1083 -0.3759
  845MPD2    H712478   1.473   0.296  16.784 -1.9923 -0.5244  0.4373
  846MPD2     C12479   2.948   0.470  14.032 -0.4662  0.4613  0.7692
  846MPD2    C112480   2.867   0.587  14.034 -0.1592  0.1773  0.3584
  846MPD2    C212481   2.816   0.623  14.155 -0.2287 -0.2521  0.0396
  846MPD2    C312482   2.845   0.550  14.275  0.5415 -1.3688  0.3659
  846MPD2    C412483   2.945   0.450  14.269 -0.1413  0.4157 -0.2084
  846MPD2    C512484   2.984   0.402  14.149 -0.2254 -0.5521 -0.5274
  846MPD2     H12485   2.743   0.703  14.161 -0.9944 -0.8285 -1.8433
  846MPD2    H112486   2.968   0.387  14.354  0.9057 -1.7775 -2.1070
  846MPD2    H212487   2.991   0.435  13.938 -0.5384  1.8798  0.2152
  846MPD2    H312488   3.067   0.332  14.144 -0.3524 -0.9978  3.8659
  846MPD2     N12489   2.763   0.569  14.392 -0.4907  0.7140 -0.3959
  846MPD2    H512490   2.681   0.626  14.375 -0.7641 -0.0756 -1.6962
  846MPD2    N112491   2.852   0.676  13.924 -0.7939 -0.2282 -0.4931
  846MPD2    H712492   2.806   0.766  13.938 -2.8639 -1.1982 -0.9203
  847MPD2     C12493   2.747   1.487  14.385  0.7939  0.4846  0.2962
  847MPD2    C112494   2.869   1.551  14.347 -0.0137 -0.4674  0.0511
  847MPD2    C212495   2.976   1.477  14.317  0.3050  0.2501 -0.5522
  847MPD2    C312496   2.978   1.344  14.359  0.1640 -0.4492 -0.0813
  847MPD2    C412497   2.866   1.278  14.405  0.5911  0.2130 -0.3516
  847MPD2    C512498   2.749   1.351  14.407 -0.2902  0.2622 -0.0218
  847MPD2     H12499   3.072   1.521  14.290 -0.0569  0.4785 -1.4629
  847MPD2    H112500   2.859   1.176  14.441 -2.0950  0.0847 -1.1977
  847MPD2    H212501   2.658   1.549  14.392 -0.9349 -2.1156  1.4104
  847MPD2    H312502   2.657   1.302  14.437  0.3754 -1.0727 -0.1360
  847MPD2     N12503   3.101   1.278  14.345 -0.4647  0.4230  0.4719
  847MPD2    H512504   3.173   1.336  14.305  1.1801 -0.1748  2.5953
  847MPD2    N112505   2.878   1.686  14.329  0.1565 -0.4064 -0.0874
  847MPD2    H712506   2.955   1.716  14.271  0.3533 -1.5273 -0.3935
  848MPD2     C12507   1.155   4.535  16.079  0.5825 -0.1391  0.3602
  848MPD2    C112508   1.170   4.583  16.206  0.1658  0.7489  0.0609
  848MPD2    C212509   1.168   4.731  16.218 -0.4912  0.1499  0.2679
  848MPD2    C312510   1.172   0.072  16.101  0.2369  1.1752 -0.1514
  848MPD2    C412511   1.176   0.014  15.974  0.1506 -0.4396  0.2171
  848MPD2    C512512   1.159   4.614  15.972 -0.5645 -0.8332  0.8465
  848MPD2     H12513   1.170   0.042  16.316  1.2650  2.2156 -0.7830
  848MPD2    H112514   1.163   0.064  15.879 -1.1902 -0.9786  0.1128
  848MPD2    H212515   1.148   4.428  16.062  0.9743 -0.3911  1.7362
  848MPD2    H312516   1.159   4.564  15.876  0.2766 -1.1889  1.0271
  848MPD2     N12517   1.143   0.207  16.098  0.2103 -0.1198 -0.0302
  848MPD2    H512518   1.129   0.247  16.006 -1.8646  0.1175  0.3833
  848MPD2    N112519   1.156   4.503  16.327 -0.2299 -0.0754 -0.8962
  848MPD2    H712520   1.155   4.545  16.419  1.2318 -0.6467 -0.6296
  849MPD2     C12521   4.497   3.892  14.305  0.0346 -0.3596 -0.6365
  849MPD2    C112522   4.628   3.920  14.315 -1.0159 -0.4093 -0.0311
  849MPD2    C212523   4.715   3.850  14.390 -0.3416 -0.9224  0.0333
  849MPD2    C312524   4.659   3.737  14.450 -0.0829 -0.6387  0.2215
  849MPD2    C412525   4.524   3.700  14.439 -0.1196  0.7611  0.2977
  849MPD2    C512526   4.443   3.783  14.368  0.7339 -0.8238  0.0873
  849MPD2     H12527   0.083   3.880  14.395 -0.8639  1.0967 -1.0167
  849MPD2    H112528   4.483   3.608  14.479 -0.5248  0.2363 -1.3129
  849MPD2    H212529   4.432   3.938  14.231  1.1735 -0.6521 -1.8270
  849MPD2    H312530   4.338   3.762  14.352  0.0980  0.5536  2.4482
  849MPD2     N12531   0.007   3.652  14.520 -0.1092 -0.4021  0.0504
  849MPD2    H512532   4.705   3.565  14.557  0.4480 -0.9483 -0.6415
  849MPD2    N112533   4.699   4.016  14.241  0.0367  0.6604 -0.4069
  849MPD2    H712534   0.063   4.005  14.253 -0.0509 -2.1341 -2.3120
  850MPD2     C12535   3.113   2.118  14.892  0.6411 -0.2626  0.0271
  850MPD2    C112536   3.147   2.245  14.854  0.1124  0.2080 -0.2115
  850MPD2    C212537   3.279   2.270  14.812 -0.4000 -0.4745 -0.1625
  850MPD2    C312538   3.377   2.173  14.832 -0.2843 -0.4157  0.4127
  850MPD2    C412539   3.343   2.046  14.877 -0.3207 -0.8975  0.2479
  850MPD2    C512540   3.205   2.023  14.896 -0.1136 -0.1398  0.1056
  850MPD2     H12541   3.299   2.371  14.778  1.5299 -0.5500  0.7264
  850MPD2    H112542   3.422   1.973  14.888 -1.1136 -1.6884  0.7291
  850MPD2    H212543   3.013   2.086  14.919  0.9874 -0.9725  0.4727
  850MPD2    H312544   3.173   1.922  14.920 -1.1030  0.4492  1.2904
  850MPD2     N12545   3.517   2.205  14.827 -0.4494  0.5579 -0.0862
  850MPD2    H512546   3.579   2.131  14.859  0.7355  1.4369 -0.3802
  850MPD2    N112547   3.048   2.350  14.870  0.3791 -0.2398 -0.1887
  850MPD2    H712548   2.960   2.312  14.904  0.6288 -0.0946  0.6122
  851MPD2     C12549   3.457   2.268  15.217 -0.0790  0.0703  0.4475
  851MPD2    C112550   3.320   2.252  15.226 -0.0070 -0.6677  0.7461
  851MPD2    C212551   3.263   2.127  15.236  0.5066 -0.2047  0.6354
  851MPD2    C312552   3.340   2.008  15.210  0.0154  0.2985  0.3838
  851MPD2    C412553   3.478   2.026  15.204 -0.1745  0.6495 -0.2664
  851MPD2    C512554   3.530   2.153  15.203  0.7479 -0.2201  1.2099
  851MPD2     H12555   3.158   2.109  15.257 -0.0888  0.2083 -2.0907
  851MPD2    H112556   3.547   1.942  15.204  1.0399  1.6507  1.6544
  851MPD2    H212557   3.507   2.363  15.217  0.7313 -0.3505 -1.1557
  851MPD2    H312558   3.638   2.168  15.209  0.6140  0.0824  3.0127
  851MPD2     N12559   3.277   1.885  15.188 -0.3684  0.3200  0.1963
  851MPD2    H512560   3.177   1.884  15.205 -0.6747  0.9654 -1.4951
  851MPD2    N112561   3.244   2.371  15.235  0.6524  0.0226 -0.0053
  851MPD2    H712562   3.296   2.454  15.208  0.6245  0.4066  1.1368
  852MPD2     C12563   2.095   0.836  10.895 -0.1828  0.1212 -0.6358
  852MPD2    C112564   2.187   0.733  10.882  0.4989 -0.2772  0.2968
  852MPD2    C212565   2.265   0.726  10.769 -0.1789 -0.2114 -0.1683
  852MPD2    C312566   2.249   0.816  10.668  0.0031  0.9146 -0.5917
  852MPD2    C412567   2.158   0.920  10.681  0.0643  0.0140 -0.2917
  852MPD2    C512568   2.090   0.936  10.797  0.2461  0.2329 -0.1585
  852MPD2     H12569   2.342   0.651  10.758 -0.9810 -1.4562  2.6063
  852MPD2    H112570   2.149   0.994  10.602  0.6194 -0.4460 -0.7835
  852MPD2    H212571   2.031   0.839  10.982  1.4838 -0.0042  0.5917
  852MPD2    H312572   2.025   1.018  10.826  0.8540  0.9631 -0.8734
  852MPD2     N12573   2.325   0.802  10.546  0.8438  0.4253  1.1268
  852MPD2    H512574   2.363   0.708  10.537 -1.6468 -0.2207 -2.7631
  852MPD2    N112575   2.209   0.637  10.978  0.4512 -0.1707 -0.7289
  852MPD2    H712576   2.283   0.571  10.958  2.9674  2.6988 -0.7674
  853MPD2     C12577   0.010   4.637  12.517 -0.0157 -0.0918 -0.2364
  853MPD2    C112578   4.609   4.637  12.531  0.0543 -0.7599  0.1642
  853MPD2    C212579   4.532   4.609  12.420 -0.2079  0.6252  0.1797
  853MPD2    C312580   4.592   4.602  12.293 -0.6825 -0.7113  0.2113
  853MPD2    C412581   4.729   4.610  12.287 -0.2482  0.2568  0.3664
  853MPD2    C512582   0.072   4.617  12.399  0.7219  1.0347 -0.0820
  853MPD2     H12583   4.428   4.581  12.431 -0.3558  1.4397  0.9112
  853MPD2    H112584   0.050   4.595  12.196 -0.1681  2.3615  0.0491
  853MPD2    H212585   0.077   4.659  12.600  0.8010 -1.7044 -0.4885
  853MPD2    H312586   0.179   4.614  12.382  1.3132 -0.1891  4.0591
  853MPD2     N12587   4.522   4.600  12.168  0.2932  0.3437  0.1178
  853MPD2    H512588   4.582   4.595  12.086 -0.3364  0.4477 -0.3491
  853MPD2    N112589   4.550   4.659  12.663  0.3243  0.1311 -0.5090
  853MPD2    H712590   4.613   4.682  12.739 -0.8789  1.9876 -0.0920
  854MPD2     C12591   1.090   4.228  12.541  0.2673 -0.5077  0.0373
  854MPD2    C112592   1.170   4.324  12.592 -0.2621 -0.2156 -0.3860
  854MPD2    C212593   1.276   4.282  12.673 -0.2809  0.9422  0.1971
  854MPD2    C312594   1.301   4.151  12.700  0.1971 -0.0159  0.0935
  854MPD2    C412595   1.217   4.053  12.647  0.6155 -0.3023 -0.1737
  854MPD2    C512596   1.111   4.097  12.574 -0.0547  0.2473  0.5708
  854MPD2     H12597   1.349   4.355  12.704  1.3670 -1.1062  1.1207
  854MPD2    H112598   1.232   3.947  12.666 -0.9608 -0.7304 -1.3856
  854MPD2    H212599   1.001   4.253  12.484 -0.3553 -1.3118  0.6569
  854MPD2    H312600   1.044   4.021  12.536 -2.8729  2.8143  0.4096
  854MPD2     N12601   1.414   4.108  12.765 -0.2461  0.6481 -0.1658
  854MPD2    H512602   1.440   4.009  12.761  0.5053  0.8048  0.5866
  854MPD2    N112603   1.145   4.450  12.536 -0.1190 -0.3619 -0.2173
  854MPD2    H712604   1.082   4.446  12.457  1.5996 -0.2401 -1.5808
  855MPD2     C12605   1.888   4.422  13.596  0.7699  1.0391 -0.2874
  855MPD2    C112606   1.888   4.294  13.590  0.8779  0.2090  0.2232
  855MPD2    C212607   1.842   4.224  13.478  0.1185  0.1450  0.5250
  855MPD2    C312608   1.805   4.297  13.362  0.2483  0.5120 -0.1115
  855MPD2    C412609   1.785   4.431  13.371  0.3601  0.0296  0.1333
  855MPD2    C512610   1.827   4.496  13.490  0.6818 -0.1418  0.0409
  855MPD2     H12611   1.839   4.116  13.484  0.2829  0.1249  0.2656
  855MPD2    H112612   1.732   4.478  13.289  0.7338  0.8357  0.3495
  855MPD2    H212613   1.918   4.479  13.683  0.9582  0.0427  0.2929
  855MPD2    H312614   1.833   4.604  13.495  1.4711 -0.2326  1.0182
  855MPD2     N12615   1.762   4.244  13.238  0.0874 -0.1100 -0.5958
  855MPD2    H512616   1.730   4.310  13.168 -1.9924 -0.4430  0.0231
  855MPD2    N112617   1.907   4.211  13.705  0.2365  0.0781 -0.2076
  855MPD2    H712618   1.890   4.111  13.698  0.4618  0.1308 -1.5212
  856MPD2     C12619   4.073   0.816  14.192 -0.0833  0.2431 -0.2623
  856MPD2    C112620   4.144   0.934  14.196  0.8442 -0.3180 -0.9585
  856MPD2    C212621   4.090   1.057  14.168 -0.0151  0.0787  0.7879
  856MPD2    C312622   3.961   1.067  14.135 -0.5361 -0.6337 -0.2596
  856MPD2    C412623   3.888   0.952  14.113  0.5555 -0.2104 -0.0138
  856MPD2    C512624   3.943   0.834  14.150  0.0405 -0.8492 -0.1407
  856MPD2     H12625   4.153   1.144  14.181  1.9567 -1.0401 -1.3757
  856MPD2    H112626   3.782   0.949  14.088  0.5074 -2.6616  0.5013
  856MPD2    H212627   4.107   0.717  14.217 -0.7399  0.2720  0.7755
  856MPD2    H312628   3.883   0.746  14.132 -1.2517  0.0608 -0.3361
  856MPD2     N12629   3.907   1.199  14.119 -0.0570 -0.1886 -0.0486
  856MPD2    H512630   3.967   1.279  14.135  1.6486 -1.8032  1.6643
  856MPD2    N112631   4.286   0.939  14.205  0.2271  0.3828 -0.1193
  856MPD2    H712632   4.329   1.030  14.195 -2.5076  1.4949 -1.5997
  857MPD2     C12633   0.567   2.328  13.016  0.5572 -0.0777 -0.3517
  857MPD2    C112634   0.652   2.415  12.946  0.0543 -0.3610 -0.9777
  857MPD2    C212635   0.707   2.515  13.018  0.5920  0.8782 -0.8863
  857MPD2    C312636   0.679   2.532  13.152 -0.0143 -0.5902  0.3441
  857MPD2    C412637   0.587   2.451  13.219  0.0859  0.0568 -0.1059
  857MPD2    C512638   0.538   2.347  13.148  0.9898 -0.3682 -0.6993
  857MPD2     H12639   0.769   2.584  12.961  0.9463  0.7788 -0.6218
  857MPD2    H112640   0.558   2.468  13.321 -0.4217 -0.4926 -0.1606
  857MPD2    H212641   0.519   2.252  12.956  0.5372  0.2352 -0.7397
  857MPD2    H312642   0.462   2.280  13.189  0.6917 -0.1382 -0.8756
  857MPD2     N12643   0.727   2.657  13.207  0.1265 -0.2556  0.2376
  857MPD2    H512644   0.787   2.708  13.144  2.3117 -2.6573  0.3743
  857MPD2    N112645   0.691   2.390  12.808 -0.0187  0.1433 -0.1054
  857MPD2    H712646   0.643   2.312  12.764  0.2534  0.1235 -0.3694
  858MPD2     C12647   1.275   1.883  16.350  0.2518 -0.6807  0.2418
  858MPD2    C112648   1.381   1.811  16.401  0.1050 -0.0141  0.3256
  858MPD2    C212649   1.444   1.859  16.516  0.3132  0.4305  0.8694
  858MPD2    C312650   1.382   1.959  16.587 -0.3529  0.2076  0.3242
  858MPD2    C412651   1.273   2.029  16.532  0.0282  0.0532  0.0317
  858MPD2    C512652   1.231   2.001  16.406 -0.4348 -0.2976  0.4283
  858MPD2     H12653   1.533   1.810  16.554 -0.5122 -2.0389 -0.3333
  858MPD2    H112654   1.226   2.113  16.582  0.9110  1.9313 -2.2652
  858MPD2    H212655   1.211   1.853  16.268  0.9557 -0.0493 -0.5371
  858MPD2    H312656   1.152   2.067  16.370 -0.9201 -1.5754 -0.8442
  858MPD2     N12657   1.415   2.005  16.718 -0.2406  0.0154  0.2906
  858MPD2    H512658   1.359   2.075  16.765  0.3177  0.0523  0.8960
  858MPD2    N112659   1.428   1.705  16.328 -0.2951 -1.1479  0.0897
  858MPD2    H712660   1.384   1.692  16.237 -1.2555  0.4929  0.3134
  859MPD2     C12661   0.091   3.503  15.878  0.4624  0.0361 -0.5767
  859MPD2    C112662   0.012   3.462  15.769 -0.8613 -0.3500  0.3388
  859MPD2    C212663   4.716   3.329  15.753  0.8847 -0.1494  0.5227
  859MPD2    C312664   0.041   3.241  15.842 -0.3647 -0.1297  0.3068
  859MPD2    C412665   0.118   3.282  15.951  0.0647  0.0027  0.3479
  859MPD2    C512666   0.146   3.415  15.968 -0.5352  0.2275  0.2560
  859MPD2     H12667   4.661   3.289  15.668  2.7931  0.2405 -0.8703
  859MPD2    H112668   0.163   3.207  16.015 -1.0024 -0.0049  1.0929
  859MPD2    H212669   0.107   3.609  15.893 -0.3824  0.2230 -0.9834
  859MPD2    H312670   0.201   3.449  16.055  0.3087  1.0698 -0.6183
  859MPD2     N12671   0.040   3.103  15.823  0.2237 -0.3254 -1.0686
  859MPD2    H512672   0.075   3.044  15.898 -1.8063 -3.7280 -2.7962
  859MPD2    N112673   4.702   3.569  15.688 -0.4752 -0.0326  0.5607
  859MPD2    H712674   0.009   3.660  15.703  0.1497 -0.2067 -0.1931
  860MPD2     C12675   2.814   4.598  11.625 -0.6183  0.0448  0.3106
  860MPD2    C112676   2.806   4.642  11.755 -0.0200 -0.8074  0.4201
  860MPD2    C212677   2.691   4.615  11.827 -0.4978  0.5965  0.2366
  860MPD2    C312678   2.587   4.546  11.772  0.6791  0.7333  0.6098
  860MPD2    C412679   2.600   4.496  11.648 -0.4394  0.1953  0.0104
  860MPD2    C512680   2.715   4.526  11.577 -0.4931 -0.4116  0.5431
  860MPD2     H12681   2.680   4.653  11.927  0.2467 -0.1861  0.6241
  860MPD2    H112682   2.521   4.443  11.596 -0.2178  0.5500 -0.6902
  860MPD2    H212683   2.896   4.611  11.555 -0.4960  3.9512  1.1715
  860MPD2    H312684   2.712   4.487  11.476 -3.2286  0.3583  0.3303
  860MPD2     N12685   2.473   4.529  11.852  0.0466 -0.2410 -0.0918
  860MPD2    H512686   2.488   4.573  11.943  3.0363  0.3157 -0.8335
  860MPD2    N112687   2.911   4.699  11.830 -0.8777  0.1942  0.1834
  860MPD2    H712688   2.888   4.725  11.925 -1.5612 -1.3568  0.4368
  861MPD2     C12689   1.184   2.607  11.052 -0.5047  0.0445  0.1940
  861MPD2    C112690   1.058   2.611  11.103  0.2829  0.2104  0.1663
  861MPD2    C212691   0.951   2.623  11.014 -0.8447  0.3232  0.0878
  861MPD2    C312692   0.972   2.655  10.884  0.0539 -0.2597  0.2361
  861MPD2    C412693   1.101   2.633  10.837  0.0437  0.3255  0.1429
  861MPD2    C512694   1.211   2.620  10.919  0.6503 -0.3051  0.2121
  861MPD2     H12695   0.850   2.631  11.053 -0.5100  3.1689  0.3767
  861MPD2    H112696   1.121   2.644  10.731 -1.1840  2.8367  0.1641
  861MPD2    H212697   1.273   2.605  11.115 -0.7503  0.0010  0.5395
  861MPD2    H312698   1.307   2.638  10.873 -0.1291  0.6051 -1.0560
  861MPD2     N12699   0.877   2.705  10.784  0.2062 -0.2831  0.1852
  861MPD2    H512700   0.924   2.739  10.701 -0.3661  0.4827  0.1761
  861MPD2    N112701   1.030   2.585  11.241 -0.1404  0.1278  0.2299
  861MPD2    H712702   0.930   2.581  11.257 -0.3059  0.8353 -0.6345
  862MPD2     C12703   0.755   2.960  10.147  0.1856  0.5601  0.2325
  862MPD2    C112704   0.659   2.913  10.240 -0.1738  0.2948 -0.0711
  862MPD2    C212705   0.573   2.804  10.199 -0.3711 -0.0546  0.0496
  862MPD2    C312706   0.594   2.745  10.078 -0.6287 -0.3270  0.3724
  862MPD2    C412707   0.686   2.794   9.993 -0.6148  0.2363 -0.3277
  862MPD2    C512708   0.752   2.912  10.020 -0.7140 -0.0401  0.4056
  862MPD2     H12709   0.492   2.782  10.267 -0.3252  0.1309  0.1654
  862MPD2    H112710   0.702   2.744   9.898 -0.3689  0.1008 -0.2143
  862MPD2    H212711   0.819   3.044  10.169  1.2131  0.5081 -2.5542
  862MPD2    H312712   0.808   2.950   9.935 -2.9386  1.8252 -0.2286
  862MPD2     N12713   0.538   2.625  10.038  0.3862  0.0891 -0.1782
  862MPD2    H512714   0.535   2.603   9.939 -0.0124 -0.2630 -0.0892
  862MPD2    N112715   0.658   2.947  10.374  0.5883 -0.4692 -0.2664
  862MPD2    H712716   0.598   2.892  10.435 -0.6740  1.0256 -0.1680
  863MPD2     C12717   4.494   0.648  16.473  0.6429 -0.5584  0.4577
  863MPD2    C112718   4.496   0.773  16.534  0.0455 -0.7932 -0.4142
  863MPD2    C212719   4.560   0.794  16.650 -0.2972 -0.6697 -0.5734
  863MPD2    C312720   4.637   0.697  16.700 -0.1696  0.1940  0.2768
  863MPD2    C412721   4.636   0.572  16.640 -0.1752 -0.3355  0.2711
  863MPD2    C512722   4.568   0.552  16.522  0.9046  0.6798  0.0486
  863MPD2     H12723   4.562   0.887  16.706 -2.4501 -0.6937 -0.4757
  863MPD2    H112724   4.683   0.485  16.686  1.9153 -0.5310 -2.2688
  863MPD2    H212725   4.453   0.628  16.374  0.1944 -3.0721  1.1687
  863MPD2    H312726   4.565   0.462  16.461 -2.7101  0.3260  0.7056
  863MPD2     N12727   4.719   0.715  16.812  0.3155  0.7010  0.1082
  863MPD2    H512728   0.039   0.632  16.832 -0.0209 -0.1187 -2.3280
  863MPD2    N112729   4.412   0.866  16.467 -0.6540 -0.0726 -0.5563
  863MPD2    H712730   4.382   0.833  16.376 -1.7583  0.5939 -0.4375
  864MPD2     C12731   0.357   2.384  17.314  0.0733 -0.5387 -0.7295
  864MPD2    C112732   0.402   2.287  17.224  0.8808 -0.2636  0.2667
  864MPD2    C212733   0.468   2.322  17.106  0.6144  0.3895 -0.2118
  864MPD2    C312734   0.508   2.454  17.093 -0.2441  0.1995  0.2878
  864MPD2    C412735   0.464   2.549  17.184 -0.1208 -0.0860  0.1132
  864MPD2    C512736   0.382   2.513  17.283  0.5114  0.3002 -0.1683
  864MPD2     H12737   0.488   2.245  17.032  1.4677  0.2258  0.1787
  864MPD2    H112738   0.486   2.654  17.172 -1.3815  0.1631 -0.0427
  864MPD2    H212739   0.309   2.367  17.410  1.5823 -1.4464 -0.1414
  864MPD2    H312740   0.354   2.596  17.347 -0.6652 -0.0673 -0.2095
  864MPD2     N12741   0.565   2.508  16.976 -0.0651 -0.1646  0.6432
  864MPD2    H512742   0.592   2.606  16.985 -0.4325  0.1005 -1.1878
  864MPD2    N112743   0.372   2.146  17.257  0.4239 -0.7640  0.2642
  864MPD2    H712744   0.326   2.130  17.346 -1.2846 -3.1689 -1.0349
  865MPD2     C12745   0.178   2.369  16.619 -0.4916  0.5455 -0.0490
  865MPD2    C112746   0.295   2.384  16.552  0.2906 -0.0920  0.6056
  865MPD2    C212747   0.348   2.509  16.541 -0.2932  0.2259  0.3560
  865MPD2    C312748   0.281   2.614  16.600  0.0730 -0.2637  0.1930
  865MPD2    C412749   0.163   2.595  16.665  0.0293 -0.2260  0.4708
  865MPD2    C512750   0.110   2.476  16.677 -0.3413  0.2439  0.7933
  865MPD2     H12751   0.445   2.520  16.493  0.5019  0.0618  1.9220
  865MPD2    H112752   0.113   2.674  16.721 -0.1576  1.4200 -2.0189
  865MPD2    H212753   0.128   2.274  16.620  1.4396 -0.4749  0.5822
  865MPD2    H312754   0.017   2.455  16.728 -1.4892  2.7596 -0.2808
  865MPD2     N12755   0.343   2.740  16.607  0.5413  0.5246  0.0879
  865MPD2    H512756   0.272   2.812  16.609  0.5880  0.5750 -0.0875
  865MPD2    N112757   0.349   2.273  16.481  0.8711  0.1972 -0.5109
  865MPD2    H712758   0.301   2.186  16.500 -1.0512  1.0564 -1.4167
  866MPD2     C12759   1.781   3.012  11.486  0.0368  0.1935 -0.3060
  866MPD2    C112760   1.777   2.954  11.358  0.6954 -0.0336 -0.0027
  866MPD2    C212761   1.656   2.950  11.286  0.3024 -0.8476  0.2297
  866MPD2    C312762   1.543   2.991  11.348 -0.1009 -0.4553 -0.1518
  866MPD2    C412763   1.547   3.029  11.483 -0.9124  0.1436  0.3031
  866MPD2    C512764   1.661   3.033  11.555  0.1134 -0.0952 -1.0983
  866MPD2     H12765   1.640   2.909  11.186  0.6879 -1.7935  0.5623
  866MPD2    H112766   1.461   3.059  11.540 -1.7862 -0.4551 -0.6973
  866MPD2    H212767   1.871   3.001  11.546 -1.8154 -4.2138  1.6572
  866MPD2    H312768   1.660   3.042  11.663  1.2319 -0.2802 -1.0746
  866MPD2     N12769   1.419   3.013  11.284 -0.4234 -0.4333  0.9875
  866MPD2    H512770   1.339   3.039  11.342  0.8285  2.2793  1.4834
  866MPD2    N112771   1.900   2.928  11.296 -0.0991  0.7796 -0.0937
  866MPD2    H712772   1.988   2.947  11.342  1.4350 -0.1452 -2.6604
  867MPD2     C12773   3.925   2.128  16.626  0.1324  0.0355  0.6024
  867MPD2    C112774   4.037   2.118  16.710  1.0986  0.5273  0.1395
  867MPD2    C212775   4.065   2.221  16.798  0.7994  0.3248  0.6909
  867MPD2    C312776   3.990   2.335  16.803 -0.1035 -0.3944 -0.0328
  867MPD2    C412777   3.882   2.347  16.723  0.4119 -1.2841 -0.2132
  867MPD2    C512778   3.852   2.250  16.630 -0.5579 -0.4458 -0.1224
  867MPD2     H12779   4.145   2.206  16.870  1.8214 -1.2919 -0.7568
  867MPD2    H112780   3.819   2.434  16.710 -0.5415 -1.7474  1.3760
  867MPD2    H212781   3.888   2.048  16.562 -0.0825  1.9621 -1.6851
  867MPD2    H312782   3.767   2.263  16.564 -1.2423 -0.0847  0.8184
  867MPD2     N12783   4.023   2.443  16.885  0.1859 -0.2225  0.2287
  867MPD2    H512784   3.974   2.530  16.866 -0.7111 -0.1870  2.8005
  867MPD2    N112785   4.114   2.000  16.698 -0.4915 -0.0646 -0.0371
  867MPD2    H712786   4.086   1.924  16.636  0.1793  1.8343 -2.6350
  868MPD2     C12787   0.750   1.739  13.180 -0.6333  0.4696 -0.1308
  868MPD2    C112788   0.775   1.604  13.184 -0.1570 -0.3121 -0.5393
  868MPD2    C212789   0.670   1.516  13.151 -0.4355  0.3026 -0.3279
  868MPD2    C312790   0.547   1.564  13.109  0.1632 -0.2470  0.0181
  868MPD2    C412791   0.527   1.705  13.095 -0.1461  0.1281  0.9619
  868MPD2    C512792   0.626   1.789  13.141 -0.1355 -0.0720 -0.8929
  868MPD2     H12793   0.676   1.408  13.156  0.3111  0.4260  1.5913
  868MPD2    H112794   0.434   1.750  13.065  0.6990  0.4163 -1.1852
  868MPD2    H212795   0.827   1.809  13.209 -0.9253  0.2107  1.2662
  868MPD2    H312796   0.616   1.897  13.138 -0.4702 -0.0908 -0.5591
  868MPD2     N12797   0.440   1.472  13.080  0.8530 -0.8262  0.3008
  868MPD2    H512798   0.455   1.377  13.113 -0.7699 -0.6855  1.4400
  868MPD2    N112799   0.895   1.561  13.242  0.2918 -0.2089 -0.3441
  868MPD2    H712800   0.945   1.620  13.307 -0.2010 -1.7097  1.4042
  869MPD2     C12801   2.769   3.413   0.233 -0.0310 -0.1392 -0.1480
  869MPD2    C112802   2.655   3.495   0.219 -0.2412 -0.4156  0.2778
  869MPD2    C212803   2.652   3.624   0.260 -0.8200 -0.4920  0.1844
  869MPD2    C312804   2.754   3.670   0.345  0.4741  0.2359  0.4415
  869MPD2    C412805   2.872   3.596   0.350  0.3572 -0.2005 -0.2325
  869MPD2    C512806   2.878   3.468   0.298  0.7859  0.5312  0.3071
  869MPD2     H12807   2.561   3.683   0.254  0.3208  1.0767 -1.5978
  869MPD2    H112808   2.951   3.639   0.409 -0.9177  0.8591  0.7060
  869MPD2    H212809   2.765   3.310   0.201  1.4106  0.0790 -1.0528
  869MPD2    H312810   2.958   3.398   0.316  1.5454  0.9399 -1.5108
  869MPD2     N12811   2.756   3.801   0.408  0.4225  0.1725  0.0461
  869MPD2    H512812   2.840   3.833   0.455  0.6510 -1.0675  0.4781
  869MPD2    N112813   2.547   3.431   0.159 -0.1767 -0.2671 -0.0788
  869MPD2    H712814   2.556   3.332   0.137 -2.8522 -0.0337 -2.3161
  870MPD2     C12815   2.795   3.360   1.075 -0.2303  0.1325  0.0544
  870MPD2    C112816   2.710   3.289   0.989  0.9353 -0.5250 -0.0554
  870MPD2    C212817   2.586   3.340   0.972  0.3671 -0.6461 -1.4396
  870MPD2    C312818   2.552   3.466   1.019 -0.3019  0.0983 -0.3049
  870MPD2    C412819   2.640   3.542   1.098  0.4261 -0.5762  0.4126
  870MPD2    C512820   2.762   3.486   1.122  0.0793 -0.0490 -0.4627
  870MPD2     H12821   2.503   3.289   0.925  0.3210 -1.2959 -0.6376
  870MPD2    H112822   2.624   3.642   1.137 -1.1260  0.2682 -2.4132
  870MPD2    H212823   2.889   3.317   1.108  0.1997  0.4539 -0.7768
  870MPD2    H312824   2.833   3.544   1.179 -0.1936  0.3177 -0.4970
  870MPD2     N12825   2.415   3.508   0.986 -0.6953 -0.1755 -0.1154
  870MPD2    H512826   2.356   3.440   0.939  0.1901  0.7205 -2.5429
  870MPD2    N112827   2.742   3.152   0.953 -0.0503  0.5367  0.2599
  870MPD2    H712828   2.831   3.119   0.990 -1.0143 -0.5401  1.5923
  871MPD2     C12829   2.696   2.116  16.289 -0.6893  0.4598  0.6462
  871MPD2    C112830   2.681   2.097  16.422 -0.3167  0.3518  0.1755
  871MPD2    C212831   2.716   1.973  16.478 -0.6427  0.1568 -0.0982
  871MPD2    C312832   2.783   1.881  16.402 -0.0494 -0.2131 -0.2233
  871MPD2    C412833   2.785   1.900  16.262 -0.4088 -0.2516 -0.8361
  871MPD2    C512834   2.751   2.022  16.214  0.0504  0.0124  0.1256
  871MPD2     H12835   2.717   1.963  16.586 -0.8228  1.5009  0.0202
  871MPD2    H112836   2.822   1.817  16.204  1.9331  0.5344 -0.4891
  871MPD2    H212837   2.677   2.208  16.234  0.7011 -0.4460 -1.3455
  871MPD2    H312838   2.770   2.038  16.108 -0.9318 -1.8894 -0.3390
  871MPD2     N12839   2.862   1.775  16.455 -0.0412 -0.2694  0.4585
  871MPD2    H512840   2.842   1.765  16.554  0.6609  0.6641  0.7009
  871MPD2    N112841   2.619   2.203  16.498  0.5547  0.4205  0.3179
  871MPD2    H712842   2.591   2.285  16.445  1.3227  2.0109  2.3751
  872MPD2     C12843   3.749   4.674  14.268  0.3030  0.5502 -0.6699
  872MPD2    C112844   3.703   0.066  14.251 -0.0551  0.7338 -0.1450
  872MPD2    C212845   3.568   0.096  14.283  0.1783  0.0309  0.1246
  872MPD2    C312846   3.493   4.734  14.345  0.8619  0.0330 -0.8833
  872MPD2    C412847   3.539   4.607  14.352 -0.1107 -0.0232  0.0578
  872MPD2    C512848   3.666   4.578  14.320 -0.2675 -0.2179 -0.8613
  872MPD2     H12849   3.535   0.196  14.258 -1.9021 -0.7512 -0.3355
  872MPD2    H112850   3.471   4.531  14.390  1.5456 -1.0549  0.9176
  872MPD2    H212851   3.854   4.650  14.260 -0.1798 -1.2052 -1.7662
  872MPD2    H312852   3.701   4.475  14.322 -2.7273 -1.0033  1.9943
  872MPD2     N12853   3.365   0.017  14.395 -0.5235  0.6237 -0.4406
  872MPD2    H512854   3.333   4.681  14.459 -0.3186 -0.5656 -1.7037
  872MPD2    N112855   3.787   0.169  14.206  0.6714  0.1141 -0.0558
  872MPD2    H712856   3.748   0.263  14.205  0.8032  0.1889  1.2792
  873MPD2     C12857   1.341   4.366   1.148 -0.0029  0.0945  0.5137
  873MPD2    C112858   1.211   4.355   1.190 -0.5270 -0.1455 -0.5941
  873MPD2    C212859   1.132   4.254   1.138 -0.1645  0.4304  0.1413
  873MPD2    C312860   1.190   4.174   1.042  0.4337 -0.4578 -0.2853
  873MPD2    C412861   1.320   4.189   0.993  0.1489  0.0729 -0.0768
  873MPD2    C512862   1.394   4.288   1.051  0.3410  0.2417 -0.0073
  873MPD2     H12863   1.029   4.240   1.170  0.9595 -0.8712  3.2330
  873MPD2    H112864   1.361   4.124   0.917  2.4098 -0.5455  1.6668
  873MPD2    H212865   1.407   4.442   1.191  1.0413 -0.2550 -0.4653
  873MPD2    H312866   1.493   4.303   1.009  0.8033  2.2531  1.7926
  873MPD2     N12867   1.114   4.072   0.984 -0.8567  0.0464 -0.2986
  873MPD2    H512868   1.024   4.062   1.031 -0.4835 -1.4108  0.1179
  873MPD2    N112869   1.164   4.453   1.283  0.1225 -0.0071 -0.0940
  873MPD2    H712870   1.244   4.495   1.330  0.1500  0.1669 -0.2957
  874MPD2     C12871   0.350   0.005  16.133  0.0870 -0.6783 -0.5715
  874MPD2    C112872   0.412   0.016  16.253 -0.0266 -0.6747  0.4238
  874MPD2    C212873   0.502   0.124  16.255 -0.1561 -0.3335  0.4919
  874MPD2    C312874   0.531   0.206  16.144  0.1253 -0.0025  0.2950
  874MPD2    C412875   0.461   0.195  16.029 -0.1917  0.0468 -0.6192
  874MPD2    C512876   0.368   0.094  16.025  1.4219  0.6896 -0.8420
  874MPD2     H12877   0.567   0.125  16.342 -1.9198 -0.8951  1.8063
  874MPD2    H112878   0.474   0.258  15.942  2.3189  0.0184 -0.2642
  874MPD2    H212879   0.299   4.648  16.110 -1.2149 -0.1285  0.0758
  874MPD2    H312880   0.316   0.079  15.931 -3.0204 -0.2310  1.7960
  874MPD2     N12881   0.640   0.301  16.155  0.8364  0.1639  0.0688
  874MPD2    H512882   0.682   0.313  16.247 -0.7345  0.0417  0.8105
  874MPD2    N112883   0.401   4.649  16.352  0.5807 -0.0961 -0.5400
  874MPD2    H712884   0.329   4.582  16.329  0.5350  0.0558 -0.8431
  875MPD2     C12885   0.914   2.827  14.563  0.1659  0.3976  0.1277
  875MPD2    C112886   0.998   2.917  14.504 -0.7438  0.1785  0.4080
  875MPD2    C212887   1.102   2.962  14.583 -0.2524  0.6627  0.0908
  875MPD2    C312888   1.112   2.940  14.714 -0.2467 -0.4313 -0.5386
  875MPD2    C412889   1.025   2.858  14.779  0.5802 -0.6855 -0.3283
  875MPD2    C512890   0.929   2.805  14.700  0.2253  0.0055  0.0079
  875MPD2     H12891   1.172   3.033  14.542 -2.0174  1.3301 -1.7794
  875MPD2    H112892   1.053   2.817  14.876  0.4553 -0.6789 -0.2900
  875MPD2    H212893   0.828   2.782  14.515  0.2640 -0.2230  0.5266
  875MPD2    H312894   0.871   2.724  14.744 -0.4288  0.6292  0.2863
  875MPD2     N12895   1.217   2.990  14.797  0.1525 -0.0586  0.2949
  875MPD2    H512896   1.216   2.972  14.897 -1.5974 -0.5320  0.1860
  875MPD2    N112897   0.991   2.954  14.366  0.7261  0.1055 -0.3724
  875MPD2    H712898   1.067   3.009  14.329 -0.1143  1.0634 -0.6571
  876MPD2     C12899   0.734   4.678  16.063 -0.2768 -0.5457 -0.8130
  876MPD2    C112900   0.654   4.597  15.998  0.2844 -0.2175  0.0359
  876MPD2    C212901   0.617   4.484  16.064 -0.1529  0.9746 -0.3286
  876MPD2    C312902   0.669   4.445  16.184  0.0305 -0.7121  0.0964
  876MPD2    C412903   0.759   4.528  16.248 -0.0875  0.0498  0.6561
  876MPD2    C512904   0.786   4.646  16.187  0.0099 -0.8523 -0.6602
  876MPD2     H12905   0.544   4.413  16.026 -0.0331 -0.6999  2.5933
  876MPD2    H112906   0.801   4.499  16.343  1.5937 -2.9704 -1.0110
  876MPD2    H212907   0.767   0.028  16.008 -2.1741  1.4065  1.1278
  876MPD2    H312908   0.842   4.722  16.241  0.9408 -1.8677 -0.2021
  876MPD2     N12909   0.632   4.321  16.237 -0.2948  0.6513  0.1576
  876MPD2    H512910   0.557   4.267  16.193 -0.7930  1.3950  0.0856
  876MPD2    N112911   0.601   4.644  15.876  0.0211  0.7285  0.1799
  876MPD2    H712912   0.634   4.735  15.845 -0.0457  1.4925  2.3593
  877MPD2     C12913   0.864   0.022  15.177  0.3202 -0.3382 -0.8489
  877MPD2    C112914   0.733   4.715  15.153  0.3992 -0.2710 -0.3919
  877MPD2    C212915   0.710   4.658  15.032 -0.9977 -0.4193 -0.8999
  877MPD2    C312916   0.806   4.640  14.934 -0.3007 -0.0034 -0.1169
  877MPD2    C412917   0.931   4.700  14.960  0.0658 -0.8024 -0.0012
  877MPD2    C512918   0.954   0.019  15.085  0.0850  0.8019  0.1005
  877MPD2     H12919   0.606   4.633  15.017 -0.6473 -0.9690 -2.4641
  877MPD2    H112920   1.015   4.673  14.897 -0.0928  0.4790 -0.7623
  877MPD2    H212921   0.891   0.072  15.270 -1.5031 -1.0338  0.0394
  877MPD2    H312922   1.056   0.049  15.110  0.2237 -0.5773  1.1559
  877MPD2     N12923   0.781   4.563  14.819 -0.0609 -0.2604  0.1951
  877MPD2    H512924   0.851   4.575  14.747 -0.7777  3.0642  0.0494
  877MPD2    N112925   0.627   4.709  15.251  0.2812  0.3523 -0.0088
  877MPD2    H712926   0.540   4.669  15.217 -0.4972  0.7397  1.5260
  878MPD2     C12927   0.126   3.875  13.296  0.0423 -0.4018  0.5062
  878MPD2    C112928   0.183   4.002  13.312  0.3929 -0.6852  0.1864
  878MPD2    C212929   0.188   4.054  13.437 -0.3655  0.6172 -0.0496
  878MPD2    C312930   0.128   3.990  13.544 -0.6450  0.1549  0.2930
  878MPD2    C412931   0.056   3.879  13.528 -0.0922  0.2121  0.7335
  878MPD2    C512932   0.059   3.819  13.402  0.1606 -0.0111  0.0175
  878MPD2     H12933   0.230   4.153  13.449 -1.1045  0.9798 -0.4760
  878MPD2    H112934   0.023   3.809  13.604  1.7056 -0.5247  0.8255
  878MPD2    H212935   0.125   3.824  13.201 -1.3236 -1.5907  1.1386
  878MPD2    H312936   0.007   3.727  13.377  0.3195 -0.0604 -0.1278
  878MPD2     N12937   0.134   4.058  13.672 -0.6628 -0.2296  0.6939
  878MPD2    H512938   0.176   4.150  13.665  1.0260 -1.1910 -1.8745
  878MPD2    N112939   0.237   4.061  13.197  0.3427  0.2273 -0.1450
  878MPD2    H712940   0.208   4.015  13.111  0.4228 -1.4664  0.7431
  879MPD2     C12941   0.446   1.017  16.801 -1.3771  0.0448  0.2798
  879MPD2    C112942   0.485   0.900  16.847 -0.1048  0.0965 -0.5097
  879MPD2    C212943   0.424   0.785  16.808  0.5626  0.4997 -0.3899
  879MPD2    C312944   0.319   0.784  16.716  0.7344  0.2262 -0.0434
  879MPD2    C412945   0.274   0.912  16.671  0.2525 -0.1509  0.4008
  879MPD2    C512946   0.340   1.026  16.715 -0.3790  0.4000 -0.3791
  879MPD2     H12947   0.446   0.694  16.863  0.3909  0.3453 -0.5725
  879MPD2    H112948   0.185   0.930  16.611  0.9401  1.5118 -0.1194
  879MPD2    H212949   0.498   1.110  16.821 -0.8102 -0.3786  0.7850
  879MPD2    H312950   0.305   1.120  16.674 -1.5553  0.8180  1.5665
  879MPD2     N12951   0.259   0.672  16.659 -0.3696  0.4149 -0.1586
  879MPD2    H512952   0.181   0.693  16.596 -0.3481 -0.7000 -0.5609
  879MPD2    N112953   0.582   0.909  16.951  0.5319  0.3293  0.6213
  879MPD2    H712954   0.612   1.003  16.977 -0.1150  0.6073  0.3531
  880MPD2     C12955   1.853   2.308   0.593 -0.3922 -0.5392 -0.5004
  880MPD2    C112956   1.904   2.375   0.478  0.3117  0.5480 -0.0024
  880MPD2    C212957   2.006   2.314   0.405  0.2466  0.8467  0.3198
  880MPD2    C312958   2.053   2.181   0.432  0.8314  0.5121 -0.2316
  880MPD2    C412959   2.002   2.118   0.547 -0.0266  0.0129 -0.0925
  880MPD2    C512960   1.903   2.180   0.619 -0.1024  0.2473  0.3692
  880MPD2     H12961   2.042   2.369   0.319  1.8013 -0.1083  0.3535
  880MPD2    H112962   2.039   2.022   0.583  0.3714 -0.0175 -0.5762
  880MPD2    H212963   1.777   2.347   0.660 -0.9688  0.9811 -2.0241
  880MPD2    H312964   1.857   2.131   0.704  1.4703 -1.1091  0.4565
  880MPD2     N12965   2.148   2.125   0.346  0.6203 -0.1092  0.2524
  880MPD2    H512966   2.187   2.188   0.277  0.3295  0.0506  0.2325
  880MPD2    N112967   1.860   2.503   0.433 -0.0204 -0.0186 -0.2988
  880MPD2    H712968   1.907   2.532   0.348 -1.2805 -0.0158 -0.9987
  881MPD2     C12969   1.652   2.665  17.380  0.3890 -0.0663 -0.6850
  881MPD2    C112970   1.739   2.769  17.417  0.4181  0.7203 -0.4950
  881MPD2    C212971   1.755   2.789  17.551  0.7930 -0.3623 -0.2328
  881MPD2    C312972   1.664   2.736  17.642  0.2696  0.6486 -0.6665
  881MPD2    C412973   1.566   2.656  17.590  0.4669 -0.0970 -0.2205
  881MPD2    C512974   1.558   2.619  17.464 -0.5657  0.4935 -0.2619
  881MPD2     H12975   1.848   2.832  17.586  1.2872 -2.5283  1.1257
  881MPD2    H112976   1.500   2.610  17.664 -1.1327  0.6225 -1.1923
  881MPD2    H212977   1.635   2.638  17.276  2.0026 -0.1494 -0.9304
  881MPD2    H312978   1.484   2.549  17.426 -1.2703  1.3532 -0.4750
  881MPD2     N12979   1.673   2.752   0.039 -0.5276 -0.1203  0.0642
  881MPD2    H512980   1.600   2.710   0.095  1.5715 -3.0240  0.6349
  881MPD2    N112981   1.849   2.788  17.319 -0.3465 -0.3979  0.1498
  881MPD2    H712982   1.832   2.730  17.236  0.3899  3.5884 -2.7769
  882MPD2     C12983   0.326   4.479  14.020 -0.1348  0.2146  0.2665
  882MPD2    C112984   0.311   4.455  14.153 -0.3452 -0.2226 -0.3899
  882MPD2    C212985   0.181   4.455  14.202  0.0373 -0.4878 -0.7695
  882MPD2    C312986   0.074   4.492  14.126  0.1411 -0.2730  0.6421
  882MPD2    C412987   0.094   4.521  13.995 -0.8117  0.4449 -0.1393
  882MPD2    C512988   0.215   4.504  13.941  1.0534  0.0341  0.1611
  882MPD2     H12989   0.161   4.436  14.307  0.2893  0.5670 -0.5291
  882MPD2    H112990   0.007   4.545  13.936 -1.1062 -0.8512 -0.2356
  882MPD2    H212991   0.423   4.456  13.976  0.5939 -0.2627  2.0922
  882MPD2    H312992   0.216   4.492  13.833  2.4425 -1.7854  0.3688
  882MPD2     N12993   4.675   4.512  14.175 -0.4762 -0.5283  0.1634
  882MPD2    H512994   4.606   4.554  14.114  0.9029 -0.3807 -1.3147
  882MPD2    N112995   0.425   4.429  14.237 -0.2562  0.0759  0.4297
  882MPD2    H712996   0.516   4.418  14.195 -0.2659  0.2437  0.3633
  883MPD2     C12997   2.185   4.266  15.846 -0.3770 -0.6135  0.7936
  883MPD2    C112998   2.151   4.372  15.930 -0.3862 -0.1651  0.5552
  883MPD2    C212999   2.213   4.396  16.047  0.7764 -0.0008 -0.3990
  883MPD2    C313000   2.314   4.311  16.084  0.8174 -0.5401 -0.5782
  883MPD2    C413001   2.341   4.200  16.013  0.6501  0.9514  0.0684
  883MPD2    C513002   2.285   4.183  15.893  0.0474 -0.2481  0.1437
  883MPD2     H13003   2.192   4.479  16.114 -1.5286 -0.6682 -0.3094
  883MPD2    H113004   2.414   4.127  16.046 -1.3371 -0.3313  1.6222
  883MPD2    H213005   2.170   4.266  15.739 -0.6188 -0.4264  0.8267
  883MPD2    H313006   2.318   4.103  15.827  2.1688 -0.6939  1.7541
  883MPD2     N13007   2.397   4.344  16.195 -0.4092 -0.0610  0.4875
  883MPD2    H513008   2.371   4.437  16.228 -1.8548 -1.1426  2.4480
  883MPD2    N113009   2.053   4.465  15.889  0.3260  0.2302 -0.1291
  883MPD2    H713010   2.029   4.532  15.962 -2.2725 -2.6259  1.6726
  884MPD2     C13011   4.414   0.482  15.186  0.2795 -0.0737 -0.0861
  884MPD2    C113012   4.346   0.566  15.103 -0.0903 -0.5390 -0.4852
  884MPD2    C213013   4.235   0.631  15.141  0.3165  0.4238 -0.3494
  884MPD2    C313014   4.185   0.611  15.268 -0.0045 -0.5311 -0.1298
  884MPD2    C413015   4.259   0.537  15.354 -0.0088 -0.1329 -0.5328
  884MPD2    C513016   4.376   0.473  15.314  0.0514  0.4175 -0.6603
  884MPD2     H13017   4.180   0.698  15.075 -3.3091 -0.1739  2.0124
  884MPD2    H113018   4.228   0.527  15.457 -1.1611 -0.3415 -0.9045
  884MPD2    H213019   4.509   0.439  15.155  0.7738  0.0856  1.1905
  884MPD2    H313020   4.424   0.413  15.391  1.6468  0.7904 -1.3654
  884MPD2     N13021   4.066   0.676  15.306  0.5170 -0.0605  0.2353
  884MPD2    H513022   4.033   0.740  15.234 -0.4803 -0.0408  0.7190
  884MPD2    N113023   4.409   0.569  14.977 -0.3760  0.9523 -0.4653
  884MPD2    H713024   4.474   0.493  14.965 -2.5160 -1.1152  0.9656
  885MPD2     C13025   2.639   0.585   0.256  0.0418 -0.4408 -0.4936
  885MPD2    C113026   2.665   0.722   0.268  0.3393  0.1816 -0.5684
  885MPD2    C213027   2.614   0.813   0.178  0.0473 -0.4790 -0.5160
  885MPD2    C313028   2.556   0.759   0.068  0.0395 -0.2220  0.1335
  885MPD2    C413029   2.540   0.624   0.048  0.4838 -0.4119  0.1300
  885MPD2    C513030   2.583   0.538   0.139  0.1338 -0.2327  0.1342
  885MPD2     H13031   2.623   0.921   0.184 -2.6625 -0.4858  3.5186
  885MPD2    H113032   2.507   0.585  17.696 -0.4582 -1.8280  1.0402
  885MPD2    H213033   2.680   0.508   0.321 -0.5259  3.1172  4.0525
  885MPD2    H313034   2.582   0.434   0.112 -1.5851 -0.5340  1.3926
  885MPD2     N13035   2.529   0.856  17.710  0.0631  0.4415  0.2702
  885MPD2    H513036   2.538   0.954  17.737  1.6055 -0.0853  1.6602
  885MPD2    N113037   2.747   0.752   0.379  0.1050  0.2557 -0.2480
  885MPD2    H713038   2.782   0.669   0.425 -1.0889 -0.1892 -0.1631
  886MPD2     C13039   3.621   3.975  15.387 -0.6577 -0.4280 -0.2197
  886MPD2    C113040   3.718   4.020  15.476  0.1312 -1.1905 -0.8269
  886MPD2    C213041   3.734   4.163  15.489  0.3957  0.4413  0.7623
  886MPD2    C313042   3.665   4.251  15.406  0.6351 -0.4615 -0.3851
  886MPD2    C413043   3.577   4.201  15.319  0.0217  0.3747 -0.0594
  886MPD2    C513044   3.558   4.066  15.302  0.5144 -0.4669 -0.3351
  886MPD2     H13045   3.809   4.200  15.557 -1.7676  0.9302  2.8968
  886MPD2    H113046   3.534   4.275  15.252  0.5734 -0.1985 -1.0527
  886MPD2    H213047   3.612   3.870  15.366  0.7226 -1.3584  3.8175
  886MPD2    H313048   3.493   4.033  15.222 -0.3236 -0.8367  0.4914
  886MPD2     N13049   3.697   4.387  15.391 -0.2553  0.7379  0.3199
  886MPD2    H513050   3.661   4.439  15.311  0.6659  0.2260 -0.4252
  886MPD2    N113051   3.817   3.937  15.535 -0.9249  0.0863 -0.3552
  886MPD2    H713052   3.896   3.991  15.570 -0.2547  0.9883 -3.3139
  887MPD2     C13053   4.510   4.026  15.642 -0.1685 -0.3786 -0.6511
  887MPD2    C113054   4.384   4.081  15.617  0.3249 -0.4051  0.7677
  887MPD2    C213055   4.374   4.209  15.564  0.3673 -0.3146  0.0869
  887MPD2    C313056   4.490   4.269  15.519  0.4206 -0.5821  0.4596
  887MPD2    C413057   4.612   4.209  15.537  0.5771  0.1017 -0.1800
  887MPD2    C513058   4.623   4.088  15.603 -0.3130  0.5089 -0.3507
  887MPD2     H13059   4.284   4.268  15.548  0.7016  0.6297  1.7255
  887MPD2    H113060   4.705   4.248  15.495  1.7339 -0.1531  2.1424
  887MPD2    H213061   4.525   3.934  15.696 -1.0937  0.7326  1.4752
  887MPD2    H313062   4.723   4.052  15.623 -1.0920 -1.7873 -0.5978
  887MPD2     N13063   4.475   4.395  15.452  0.1214  0.1499 -0.2079
  887MPD2    H513064   4.380   4.427  15.443  0.5297  2.5627  4.3784
  887MPD2    N113065   4.268   4.010  15.648  0.2890 -1.0762  0.2358
  887MPD2    H713066   4.183   4.059  15.625  0.7932  0.2480  1.1748
  888MPD2     C13067   1.451   4.086  14.807 -0.1103  0.3544 -0.1621
  888MPD2    C113068   1.426   4.125  14.941  0.1484 -0.3900 -0.1894
  888MPD2    C213069   1.453   4.249  14.983  0.1324 -0.2265 -0.6720
  888MPD2    C313070   1.505   4.344  14.890  0.2735  0.8118 -0.1615
  888MPD2    C413071   1.517   4.311  14.753 -0.1054 -0.3907 -0.1727
  888MPD2    C513072   1.476   4.187  14.720  0.1072 -0.0872  0.1207
  888MPD2     H13073   1.434   4.278  15.086 -0.5854 -0.5483 -0.7092
  888MPD2    H113074   1.565   4.376  14.680 -0.5727  0.1422  0.0014
  888MPD2    H213075   1.439   3.988  14.761 -0.9135 -0.0629  0.9463
  888MPD2    H313076   1.487   4.160  14.615  1.7493 -2.6345  0.9649
  888MPD2     N13077   1.536   4.476  14.932  0.3442  0.1942  0.4601
  888MPD2    H513078   1.509   4.495  15.028  1.6610  3.0850  0.2725
  888MPD2    N113079   1.383   4.028  15.037  0.0889  0.4845  0.0627
  888MPD2    H713080   1.389   4.058  15.134 -0.2838  2.7369 -0.6021
  889MPD2     C13081   0.516   3.402  13.418 -0.1598 -0.1744 -0.4107
  889MPD2    C113082   0.656   3.405  13.418 -0.3399  0.1672 -0.6702
  889MPD2    C213083   0.726   3.514  13.359  0.3882  0.0064  0.2577
  889MPD2    C313084   0.657   3.634  13.337  0.1657  0.1030  0.2466
  889MPD2    C413085   0.526   3.639  13.367 -0.7137 -0.5216  0.8419
  889MPD2    C513086   0.459   3.523  13.402 -0.0721  0.2722  0.3010
  889MPD2     H13087   0.833   3.508  13.346  0.4191 -0.5636  0.7379
  889MPD2    H113088   0.464   3.728  13.359 -1.6759 -1.2112  0.5856
  889MPD2    H213089   0.459   3.322  13.464  0.1952 -0.2173 -0.0483
  889MPD2    H313090   0.353   3.522  13.425 -0.2662  0.4932 -0.5910
  889MPD2     N13091   0.737   3.751  13.309  0.3455  0.6194 -0.1321
  889MPD2    H513092   0.835   3.731  13.321  0.0303 -0.5742  0.5092
  889MPD2    N113093   0.723   3.280  13.424 -0.6523 -0.4324  0.2908
  889MPD2    H713094   0.819   3.276  13.390 -0.4925 -0.2403  0.7236
  890MPD2     C13095   0.438   0.677  14.324 -0.0562  0.0102  0.3847
  890MPD2    C113096   0.549   0.742  14.380  0.5689 -0.2697  0.0259
  890MPD2    C213097   0.603   0.679  14.492  1.2887 -0.1703  0.2995
  890MPD2    C313098   0.556   0.560  14.540  0.0080  0.0948 -0.2253
  890MPD2    C413099   0.454   0.501  14.476 -0.3102 -0.1951 -0.3663
  890MPD2    C513100   0.393   0.561  14.371 -0.5136  0.1497  0.0464
  890MPD2     H13101   0.692   0.715  14.542 -0.6089  3.2322  1.2188
  890MPD2    H113102   0.420   0.402  14.506 -0.0241 -0.1974 -0.0516
  890MPD2    H213103   0.386   0.716  14.237  0.5055 -1.3915 -0.5637
  890MPD2    H313104   0.319   0.509  14.311 -2.1789  1.6854  0.7916
  890MPD2     N13105   0.612   0.494  14.661  0.0634 -0.2191  0.0398
  890MPD2    H513106   0.681   0.542  14.718 -1.8152  1.8986  0.5352
  890MPD2    N113107   0.595   0.866  14.320 -0.3906  0.2709 -0.8017
  890MPD2    H713108   0.549   0.895  14.234 -2.4942 -1.2161 -0.1968
  891MPD2     C13109   3.214   3.436  16.710 -0.2492  0.6282  0.4297
  891MPD2    C113110   3.201   3.570  16.713  0.3103  0.2650 -0.4718
  891MPD2    C213111   3.263   3.647  16.817  0.1589 -0.6295  0.3952
  891MPD2    C313112   3.332   3.578  16.919 -0.1233 -0.1640 -0.1905
  891MPD2    C413113   3.349   3.442  16.899 -0.0182 -0.6573  0.7413
  891MPD2    C513114   3.298   3.371  16.794  0.0366 -0.2136 -0.2709
  891MPD2     H13115   3.248   3.753  16.832  1.3312 -0.4937  0.6172
  891MPD2    H113116   3.416   3.384  16.961  0.4382 -1.0699 -0.1285
  891MPD2    H213117   3.182   3.372  16.629  0.5193 -0.7925  1.2429
  891MPD2    H313118   3.314   3.264  16.786  1.2704 -0.1321  0.9620
  891MPD2     N13119   3.373   3.636  17.042  0.4525  0.0986 -0.2547
  891MPD2    H513120   3.357   3.735  17.057  2.5797  0.2997  0.6782
  891MPD2    N113121   3.117   3.629  16.623  0.3756  0.0042  0.0331
  891MPD2    H713122   3.047   3.570  16.581 -0.4318  0.2574  1.0313
  892MPD2     C13123   4.333   0.020  15.093 -0.1176 -0.0833 -0.1910
  892MPD2    C113124   4.248   0.067  14.993 -0.1513 -0.3185  0.1596
  892MPD2    C213125   4.273   0.037  14.864  0.3385  0.2912  0.5526
  892MPD2    C313126   4.374   4.681  14.833  0.0578  0.1410 -0.4530
  892MPD2    C413127   4.453   4.639  14.937 -0.1942  1.2685 -0.4638
  892MPD2    C513128   4.438   4.683  15.063 -0.2969  0.5308 -0.3033
  892MPD2     H13129   4.206   0.076  14.788 -1.5846 -0.3513  1.9273
  892MPD2    H113130   4.545   4.585  14.919 -0.3068  1.1521 -0.6857
  892MPD2    H213131   4.326   0.057  15.195  0.1267  2.4192 -1.0677
  892MPD2    H313132   4.514   4.662  15.138  0.4501  0.8346 -0.9745
  892MPD2     N13133   4.399   4.631  14.704  0.8928 -0.4904 -0.1129
  892MPD2    H513134   4.488   4.585  14.689  0.9381  0.4848 -2.8239
  892MPD2    N113135   4.142   0.159  15.031  0.4375 -0.2011 -0.2235
  892MPD2    H713136   4.132   0.170  15.132 -2.7330 -0.3212 -0.5185
  893MPD2     C13137   1.654   3.904   1.304 -0.1016 -0.4121  0.3024
  893MPD2    C113138   1.645   3.842   1.178 -0.3898  0.6599 -0.4840
  893MPD2    C213139   1.608   3.712   1.167  0.2812  0.3560  0.2863
  893MPD2    C313140   1.583   3.638   1.287 -0.0719 -0.2264  0.0248
  893MPD2    C413141   1.595   3.697   1.408 -0.8089 -0.2190  0.0236
  893MPD2    C513142   1.634   3.829   1.414 -0.3485  0.4838  0.7064
  893MPD2     H13143   1.614   3.657   1.074  1.4231 -0.7927  1.0341
  893MPD2    H113144   1.577   3.643   1.501  0.1115 -1.6350 -0.6210
  893MPD2    H213145   1.680   4.008   1.318  0.7792 -0.4842 -0.7761
  893MPD2    H313146   1.643   3.880   1.510  1.5650 -0.4015  1.0045
  893MPD2     N13147   1.519   3.510   1.285  0.2646  0.6012  0.0343
  893MPD2    H513148   1.492   3.469   1.374 -1.3317 -1.0703 -1.2135
  893MPD2    N113149   1.680   3.930   1.067 -0.0823 -0.3539 -0.0007
  893MPD2    H713150   1.698   4.028   1.087  0.2908  0.2514 -3.3153
  894MPD2     C13151   4.345   0.987   1.288 -0.4192  0.2389  0.1727
  894MPD2    C113152   4.284   1.107   1.327  0.2356 -0.0144 -0.2255
  894MPD2    C213153   4.332   1.231   1.282 -0.7082 -0.2075  0.0757
  894MPD2    C313154   4.450   1.239   1.210 -0.1334 -0.4337 -0.3922
  894MPD2    C413155   4.512   1.122   1.177 -0.2351 -0.6970 -0.4785
  894MPD2    C513156   4.461   0.999   1.212 -0.1685  0.5434  0.0563
  894MPD2     H13157   4.268   1.312   1.315 -0.2280  0.2889 -0.2190
  894MPD2    H113158   4.601   1.116   1.115  0.8717  1.3060  0.8829
  894MPD2    H213159   4.306   0.892   1.321  0.0088  1.0728  3.0785
  894MPD2    H313160   4.504   0.907   1.174 -1.8358 -0.9279  1.7543
  894MPD2     N13161   4.496   1.369   1.174 -0.3265  0.4135  0.1070
  894MPD2    H513162   4.437   1.439   1.217 -1.7461  0.0777 -1.2959
  894MPD2    N113163   4.168   1.116   1.410 -0.0383  0.4884  0.4546
  894MPD2    H713164   4.146   1.213   1.430  0.4229  0.3179  1.7479
  895MPD2     C13165   3.218   4.497  14.176  0.4405  0.4151  0.5902
  895MPD2    C113166   3.179   4.524  14.043 -0.5138 -0.2501  0.2546
  895MPD2    C213167   3.257   4.468  13.944  0.5204 -0.1958 -0.5144
  895MPD2    C313168   3.364   4.388  13.981 -0.3303 -0.1917 -0.5328
  895MPD2    C413169   3.392   4.356  14.115 -0.1203  0.6079 -0.5734
  895MPD2    C513170   3.318   4.409  14.210  0.3146 -0.7842  0.1360
  895MPD2     H13171   3.222   4.482  13.842 -1.8062  0.3134  0.3447
  895MPD2    H113172   3.470   4.288  14.147  0.3233  1.3475 -0.1113
  895MPD2    H213173   3.172   4.541  14.263 -0.7866  1.3919 -0.5426
  895MPD2    H313174   3.337   4.397  14.316 -1.8040  1.1937  0.7461
  895MPD2     N13175   3.450   4.330  13.876 -0.1582  0.9513  0.3279
  895MPD2    H513176   3.530   4.276  13.908 -1.3494 -0.6070  0.6765
  895MPD2    N113177   3.070   4.609  14.005  0.0428 -0.4656 -0.0897
  895MPD2    H713178   3.061   4.618  13.904  0.4440 -0.2710 -0.1062
  896MPD2     C13179   1.882   1.968   0.945 -0.2374  0.6311 -1.1025
  896MPD2    C113180   1.838   1.965   1.073 -0.8571 -0.7412 -0.1017
  896MPD2    C213181   1.727   1.891   1.099  0.3820  0.8004  0.9115
  896MPD2    C313182   1.665   1.816   1.001  0.0605  1.0743  0.1315
  896MPD2    C413183   1.717   1.814   0.870 -0.2830  0.1267 -0.1070
  896MPD2    C513184   1.823   1.898   0.843 -0.7134  0.2166 -0.8133
  896MPD2     H13185   1.680   1.896   1.196 -0.0920 -0.7494  0.7695
  896MPD2    H113186   1.679   1.749   0.792  0.4283 -0.4311  0.0112
  896MPD2    H213187   1.971   2.028   0.927  0.1890 -0.0249 -1.1672
  896MPD2    H313188   1.869   1.895   0.745  1.6289  1.9667  0.2070
  896MPD2     N13189   1.550   1.746   1.039 -0.7514 -0.1401 -0.4315
  896MPD2    H513190   1.508   1.772   1.128 -0.9060 -0.0067 -0.5426
  896MPD2    N113191   1.900   2.043   1.175 -0.6385 -0.4420  0.0342
  896MPD2    H713192   1.984   2.087   1.139 -1.1179  0.4882  0.0806
  897MPD2     C13193   2.417   3.459  10.582 -0.0288 -0.2408  0.2419
  897MPD2    C113194   2.369   3.574  10.528 -0.6989 -0.3187  0.1030
  897MPD2    C213195   2.249   3.624  10.570 -0.1235  0.8686 -0.0287
  897MPD2    C313196   2.176   3.559  10.662 -0.5683 -0.4775  0.1012
  897MPD2    C413197   2.226   3.442  10.708 -0.3981 -0.1516  0.1688
  897MPD2    C513198   2.344   3.380  10.669 -0.3823  0.3903 -0.0393
  897MPD2     H13199   2.219   3.724  10.540 -1.7228 -0.2859 -2.2439
  897MPD2    H113200   2.175   3.393  10.791 -0.7550 -0.7683 -0.4155
  897MPD2    H213201   2.515   3.425  10.552  1.1059  3.1677  0.1319
  897MPD2    H313202   2.378   3.282  10.701 -1.0357  0.6373  1.4448
  897MPD2     N13203   2.053   3.608  10.692  0.9241  0.5759  0.4580
  897MPD2    H513204   2.014   3.691  10.649  0.6210 -0.2899 -0.9248
  897MPD2    N113205   2.457   3.646  10.457 -0.0155  0.6526  0.0785
  897MPD2    H713206   2.554   3.618  10.454  1.0163  4.0487  0.9907
  898MPD2     C13207   4.461   0.001   0.252 -0.2062 -0.2796 -0.8709
  898MPD2    C113208   4.474   4.729   0.122  0.1075 -0.0867  0.1598
  898MPD2    C213209   4.438   0.104   0.043  0.6008  0.1471  0.1142
  898MPD2    C313210   4.393   0.220   0.115  0.1515 -0.3083  0.2355
  898MPD2    C413211   4.376   0.218   0.250  0.5160  0.7213  0.0851
  898MPD2    C513212   4.411   0.107   0.321 -0.5843  0.0770  0.2323
  898MPD2     H13213   4.446   0.097  17.679 -0.8896 -0.4967  0.0371
  898MPD2    H113214   4.327   0.295   0.309  0.3109 -2.2269  3.7558
  898MPD2    H213215   4.492   4.658   0.320  0.5646  1.0223  0.2928
  898MPD2    H313216   4.393   0.104   0.427  4.9391 -0.8862  1.1409
  898MPD2     N13217   4.378   0.343   0.038  0.1548 -0.0656  0.3890
  898MPD2    H513218   4.386   0.335  17.680  1.3373 -0.9565  0.5447
  898MPD2    N113219   4.521   4.613   0.051 -0.6692  0.2090  0.7927
  898MPD2    H713220   4.535   4.624  17.694 -0.4258 -1.9294  0.5823
  899MPD2     C13221   0.129   0.182  17.121 -0.5920 -0.1640  0.1846
  899MPD2    C113222   0.171   0.288  17.198  0.6498 -0.0775 -0.3558
  899MPD2    C213223   0.214   0.266  17.330 -0.6947  0.6232  1.0056
  899MPD2    C313224   0.212   0.135  17.377 -0.0708  0.4063  1.1492
  899MPD2    C413225   0.172   0.028  17.302 -0.1887  0.3812 -0.1924
  899MPD2    C513226   0.121   0.054  17.179  0.5521 -0.0607  0.4544
  899MPD2     H13227   0.250   0.345  17.395 -2.2136  2.6021 -0.5277
  899MPD2    H113228   0.156   4.664  17.339  1.6499  1.0493  2.3708
  899MPD2    H213229   0.105   0.192  17.016 -0.3211 -1.8528 -0.0390
  899MPD2    H313230   0.079   4.707  17.123  0.8219  1.8597 -2.5851
  899MPD2     N13231   0.253   0.097  17.506  0.5522  0.2271  0.0146
  899MPD2    H513232   0.215   0.009  17.540 -1.5692  0.2046 -2.3900
  899MPD2    N113233   0.182   0.413  17.136 -0.0630  0.1725 -0.1035
  899MPD2    H713234   0.130   0.429  17.050 -0.9484 -1.0704  0.1999
  900MPD2     C13235   4.247   2.015  12.382  0.6448  0.4193 -0.0150
  900MPD2    C113236   4.160   1.919  12.432  0.4274  0.3028 -0.2844
  900MPD2    C213237   4.027   1.951  12.431  0.3250 -0.3657  0.0666
  900MPD2    C313238   3.983   2.068  12.374  0.1794 -0.7013  0.1978
  900MPD2    C413239   4.069   2.163  12.327  0.2019  0.0031  0.6458
  900MPD2    C513240   4.202   2.139  12.343  0.4886  0.5815 -0.5055
  900MPD2     H13241   3.955   1.877  12.465 -0.6312  0.1420 -0.8864
  900MPD2    H113242   4.048   2.262  12.290 -1.2927 -1.3086 -2.0061
  900MPD2    H213243   4.355   2.005  12.384  0.5637 -0.3838  0.1571
  900MPD2    H313244   4.271   2.212  12.301  0.7430  0.2545 -0.6609
  900MPD2     N13245   3.841   2.081  12.341  0.5624  0.2161  0.0086
  900MPD2    H513246   3.789   1.998  12.367 -2.9791  2.5074  0.2660
  900MPD2    N113247   4.216   1.795  12.457  0.2101  0.0229  0.4429
  900MPD2    H713248   4.316   1.784  12.449  0.1490 -0.3190  0.1641
  901MPD2     C13249   4.143   0.770  12.859 -0.5819 -0.4695  0.1975
  901MPD2    C113250   4.252   0.773  12.780  0.4301  0.3000  0.0917
  901MPD2    C213251   4.284   0.900  12.727  0.1375 -0.1536  0.1278
  901MPD2    C313252   4.218   1.020  12.756 -0.1974 -0.0772  0.5047
  901MPD2    C413253   4.109   1.011  12.837 -0.1648  0.5526  0.0667
  901MPD2    C513254   4.068   0.883  12.878 -0.2449  0.2878 -0.3052
  901MPD2     H13255   4.377   0.910  12.671  0.3682 -1.8590  0.2066
  901MPD2    H113256   4.053   1.096  12.872  0.6515  1.1869 -0.1548
  901MPD2    H213257   4.095   0.678  12.894  0.3535 -1.2369 -0.5574
  901MPD2    H313258   3.977   0.883  12.936 -0.5987 -1.6290 -0.8350
  901MPD2     N13259   4.261   1.139  12.695  0.3095  0.5077  0.8075
  901MPD2    H513260   4.351   1.137  12.649  0.5777 -0.7826  1.3992
  901MPD2    N113261   4.316   0.655  12.747  0.3653 -0.6600  0.0055
  901MPD2    H713262   4.273   0.571  12.786 -1.6726  0.0896 -0.6750
  902MPD2     C13263   3.771   0.265  13.012  0.0272 -0.7007  0.2078
  902MPD2    C113264   3.658   0.190  12.997  0.1708  0.6201  0.4808
  902MPD2    C213265   3.662   0.068  12.930  0.3565  1.0443 -0.4258
  902MPD2    C313266   3.779   0.025  12.867  0.2594 -0.0428  0.0101
  902MPD2    C413267   3.893   0.104  12.891 -0.1041 -0.2588 -0.3078
  902MPD2    C513268   3.886   0.222  12.955  0.2400  0.2901 -0.3935
  902MPD2     H13269   3.578   0.000  12.937  1.5231 -0.2393  1.0243
  902MPD2    H113270   3.985   0.069  12.844 -0.7377 -0.0293 -1.7115
  902MPD2    H213271   3.768   0.362  13.060 -1.0387 -1.2030  1.1776
  902MPD2    H313272   3.976   0.282  12.964 -0.3624  1.3656 -1.4684
  902MPD2     N13273   3.799   4.638  12.794  0.3311 -0.1615  0.0704
  902MPD2    H513274   3.892   4.621  12.755  0.9672  0.2462  1.4083
  902MPD2    N113275   3.539   0.241  13.056  0.2328  0.2299 -0.3606
  902MPD2    H713276   3.555   0.313  13.126  0.1690 -1.3638  1.2836
  903MPD2     C13277   3.936   4.623  12.125 -0.3822  0.1743 -0.2585
  903MPD2    C113278   3.842   4.547  12.196  0.8688 -0.1912  0.1011
  903MPD2    C213279   3.706   4.543  12.155  0.5359 -1.0177  0.1145
  903MPD2    C313280   3.669   4.630  12.049 -0.1672 -0.2889 -0.0421
  903MPD2    C413281   3.766   4.679  11.963 -0.9997 -0.5613 -0.0054
  903MPD2    C513282   3.896   4.667  11.996 -0.0526  0.3228 -0.1006
  903MPD2     H13283   3.622   4.503  12.212 -0.3164 -1.2160 -1.2961
  903MPD2    H113284   3.750   4.727  11.867 -0.3631  0.7595  0.5453
  903MPD2    H213285   4.041   4.633  12.153 -0.0589  3.1231 -2.4278
  903MPD2    H313286   3.971   4.693  11.922  0.7412  1.7961  1.2000
  903MPD2     N13287   3.530   4.643  12.036 -0.8362 -0.1208  0.1971
  903MPD2    H513288   3.467   4.592  12.097  0.1975  0.2512  1.5684
  903MPD2    N113289   3.886   4.477  12.310 -0.5025 -0.8969  0.5488
  903MPD2    H713290   3.972   4.503  12.357 -0.5476  2.6935 -1.3067
  904MPD2     C13291   3.022   4.064  13.871 -0.1388  0.5433 -0.0342
  904MPD2    C113292   2.960   3.992  13.967  0.2909 -0.3545 -0.4228
  904MPD2    C213293   3.033   3.946  14.071 -0.7122  0.3381  0.0264
  904MPD2    C313294   3.169   3.949  14.069  0.0952  0.8143  0.4294
  904MPD2    C413295   3.235   4.016  13.962  0.2039  0.6745  0.6791
  904MPD2    C513296   3.161   4.075  13.864 -0.3684 -0.2016 -0.0946
  904MPD2     H13297   2.978   3.891  14.146  0.5297 -0.9554 -0.0148
  904MPD2    H113298   3.341   4.006  13.945 -0.2076 -1.5430 -0.6695
  904MPD2    H213299   2.970   4.112  13.789 -0.0685  0.5248 -0.0896
  904MPD2    H313300   3.206   4.129  13.782 -1.0442  0.3847 -0.0783
  904MPD2     N13301   3.244   3.891  14.170 -0.4800  0.4665 -0.4865
  904MPD2    H513302   3.186   3.823  14.219  3.2375 -1.8767  0.6102
  904MPD2    N113303   2.817   3.971  13.971  1.0139 -0.7223 -0.0708
  904MPD2    H713304   2.769   3.950  14.058  0.8519  0.9572  0.2454
  905MPD2     C13305   2.851   4.112  13.378  0.0495  0.4457 -0.2058
  905MPD2    C113306   2.893   4.181  13.491 -0.0976 -0.3710 -0.7344
  905MPD2    C213307   3.027   4.200  13.523  0.1174  0.3310 -0.0204
  905MPD2    C313308   3.114   4.147  13.429  0.3812  0.0025 -0.1978
  905MPD2    C413309   3.077   4.086  13.314  0.4491  0.7315 -0.2365
  905MPD2    C513310   2.946   4.069  13.291  0.4943 -1.1305 -0.3103
  905MPD2     H13311   3.055   4.278  13.593  1.4704 -0.5276  0.4078
  905MPD2    H113312   3.146   4.038  13.245 -0.6404 -0.6288 -0.3826
  905MPD2    H213313   2.751   4.097  13.339  0.4044  1.7584 -1.6224
  905MPD2    H313314   2.918   4.018  13.199  0.5811  1.2643 -1.6481
  905MPD2     N13315   3.253   4.156  13.468  0.3394 -0.3402  0.2346
  905MPD2    H513316   3.271   4.222  13.543 -1.8396 -1.4016  1.6700
  905MPD2    N113317   2.787   4.232  13.570 -0.0945 -0.3352 -0.4744
  905MPD2    H713318   2.694   4.199  13.549  0.0607 -0.4891 -0.9178
  906MPD2     C13319   0.975   4.199  10.965  0.8552 -0.4319 -0.0278
  906MPD2    C113320   0.887   4.125  10.886  0.3082 -0.5078 -0.0809
  906MPD2    C213321   0.811   4.029  10.945  0.3779 -0.4414  0.0218
  906MPD2    C313322   0.808   4.009  11.088  0.9253  0.4214 -0.1277
  906MPD2    C413323   0.900   4.070  11.166  0.3711 -0.4429  0.4151
  906MPD2    C513324   0.982   4.167  11.103 -0.1753 -0.6532  0.5893
  906MPD2     H13325   0.756   3.966  10.877 -1.0041 -1.8390  2.4256
  906MPD2    H113326   0.914   4.048  11.271 -1.1905  1.2449  0.9774
  906MPD2    H213327   1.036   4.276  10.920 -1.6050  0.6879 -1.4100
  906MPD2    H313328   1.063   4.215  11.156 -1.4478  0.6171  1.4054
  906MPD2     N13329   0.724   3.903  11.143 -0.1948  1.2031 -0.5577
  906MPD2    H513330   0.742   3.860  11.233 -0.7776 -0.0190 -1.0285
  906MPD2    N113331   0.878   4.137  10.749 -0.2560 -0.0059 -0.5864
  906MPD2    H713332   0.813   4.081  10.695 -1.5091 -0.0108  0.9019
  907MPD2     C13333   4.381   3.025  15.597 -0.3391  0.1090  1.1115
  907MPD2    C113334   4.389   2.886  15.603  0.0766 -0.1962  0.3170
  907MPD2    C213335   4.421   2.828  15.727 -0.2747 -0.2439 -0.3061
  907MPD2    C313336   4.452   2.911  15.831 -0.5080  1.1605 -0.3626
  907MPD2    C413337   4.467   3.041  15.809  0.7814 -0.6162  0.1134
  907MPD2    C513338   4.416   3.100  15.698 -0.6630  0.2636  0.0944
  907MPD2     H13339   4.415   2.722  15.746  2.4261 -0.4153 -0.3734
  907MPD2    H113340   4.521   3.110  15.873  0.0240 -0.4822  0.6045
  907MPD2    H213341   4.353   3.080  15.507  0.6385  0.2818  0.9076
  907MPD2    H313342   4.415   3.208  15.704  0.2744  0.3975 -2.1674
  907MPD2     N13343   4.485   2.857  15.959  0.4478  0.1628  0.4714
  907MPD2    H513344   4.486   2.756  15.972 -2.5820 -0.0016 -0.6236
  907MPD2    N113345   4.336   2.799  15.500  0.2679 -0.0518  0.5520
  907MPD2    H713346   4.331   2.700  15.524 -1.1790  0.3291  1.8118
  908MPD2     C13347   2.479   4.112   9.553 -0.6834 -0.1930  0.0624
  908MPD2    C113348   2.478   3.977   9.571  0.4012 -0.1377  0.5926
  908MPD2    C213349   2.500   3.934   9.703  0.2194  0.6552  0.0749
  908MPD2    C313350   2.527   4.019   9.807 -0.9606  0.2200  0.5853
  908MPD2    C413351   2.514   4.153   9.785  0.1417 -0.5168 -0.6600
  908MPD2    C513352   2.484   4.198   9.655  0.4728 -0.2450  0.6049
  908MPD2     H13353   2.481   3.830   9.729 -0.7234  0.7494 -0.2448
  908MPD2    H113354   2.523   4.227   9.864  0.5748 -0.4876 -0.7403
  908MPD2    H213355   2.461   4.145   9.451 -1.0443 -0.0421  0.1748
  908MPD2    H313356   2.487   4.306   9.644  0.4265 -0.2504  0.5412
  908MPD2     N13357   2.540   3.970   9.940 -0.3960  0.0088 -0.0958
  908MPD2    H513358   2.530   3.869   9.945  1.4614 -0.1833 -0.1087
  908MPD2    N113359   2.498   3.897   9.458  0.0243  0.0141 -0.0876
  908MPD2    H713360   2.506   3.946   9.369 -1.3361 -0.0222 -0.2345
  909MPD2     C13361   2.241   2.175  12.533  0.2064 -0.1009  0.5331
  909MPD2    C113362   2.171   2.257  12.440  0.4785 -0.3029 -0.2862
  909MPD2    C213363   2.037   2.266  12.440  0.9070 -0.2704 -0.3528
  909MPD2    C313364   1.964   2.191  12.529  0.9006  1.1140  0.5598
  909MPD2    C413365   2.029   2.115  12.629 -0.1115  0.0645 -0.1966
  909MPD2    C513366   2.165   2.116  12.631  0.0218 -0.9162  0.7350
  909MPD2     H13367   1.986   2.319  12.360  0.1548  0.4931  0.6321
  909MPD2    H113368   1.977   2.066  12.710 -0.0772  1.9113  0.9472
  909MPD2    H213369   2.349   2.185  12.537  0.1260  1.4068 -1.1944
  909MPD2    H313370   2.222   2.061  12.705  0.2573  0.2162  1.3904
  909MPD2     N13371   1.826   2.183  12.497 -0.2607 -0.4945 -0.0907
  909MPD2    H513372   1.795   2.222  12.409  0.1911 -0.4993 -0.2521
  909MPD2    N113373   2.241   2.312  12.333  0.6271 -0.0312 -0.0692
  909MPD2    H713374   2.183   2.367  12.271  0.9194  1.0338  0.5995
  910MPD2     C13375   3.684   3.622  16.240 -0.7749 -0.0381  0.0773
  910MPD2    C113376   3.720   3.508  16.172 -0.3497  0.0102 -0.1766
  910MPD2    C213377   3.669   3.506  16.042 -0.8303 -0.2874  0.2866
  910MPD2    C313378   3.591   3.609  15.992 -0.1766 -0.1145  0.0212
  910MPD2    C413379   3.556   3.720  16.069  0.1135 -0.6318  0.4670
  910MPD2    C513380   3.607   3.727  16.194 -0.0901 -0.7552 -0.1454
  910MPD2     H13381   3.698   3.429  15.971  0.4340  1.7583 -1.4269
  910MPD2    H113382   3.486   3.796  16.035  0.7183 -0.6811 -0.8783
  910MPD2    H213383   3.721   3.646  16.339 -2.4907 -1.9296  1.1881
  910MPD2    H313384   3.573   3.807  16.259  2.3157 -0.6445  0.9658
  910MPD2     N13385   3.533   3.615  15.864 -0.3837 -0.1687 -0.3881
  910MPD2    H513386   3.469   3.691  15.842  1.3509  1.1079 -0.9363
  910MPD2    N113387   3.810   3.412  16.227  0.7422  0.5792  1.3977
  910MPD2    H713388   3.842   3.346  16.156 -1.1676  0.9429  0.1825
  911MPD2     C13389   1.467   3.654  16.023  0.1998 -0.5505 -0.5205
  911MPD2    C113390   1.537   3.756  16.079 -0.1269  0.2850  0.2505
  911MPD2    C213391   1.503   3.887  16.048 -0.1621 -0.4041 -0.3554
  911MPD2    C313392   1.398   3.915  15.960 -0.5331  0.5119 -0.4384
  911MPD2    C413393   1.319   3.809  15.927  0.0278 -0.5966 -0.2058
  911MPD2    C513394   1.352   3.680  15.952 -0.3517 -0.6635  0.1889
  911MPD2     H13395   1.548   3.976  16.091 -1.6745 -0.0311  0.4636
  911MPD2    H113396   1.235   3.828  15.861 -0.5370 -1.1230  0.3607
  911MPD2    H213397   1.481   3.548  16.037 -0.1629 -0.5319  0.0021
  911MPD2    H313398   1.290   3.605  15.903 -1.2836 -0.6767  1.3893
  911MPD2     N13399   1.343   4.037  15.928 -0.7103 -0.4518 -0.2970
  911MPD2    H513400   1.249   4.034  15.891 -1.7419  0.2449  2.2632
  911MPD2    N113401   1.644   3.717  16.159  0.0112  0.1753  0.3423
  911MPD2    H713402   1.659   3.617  16.158  1.5704  0.3869  1.5913
  912MPD2     C13403   0.736   4.078  15.584 -0.2346 -0.2501  0.3794
  912MPD2    C113404   0.866   4.048  15.626  0.0754  0.1634  0.1327
  912MPD2    C213405   0.890   3.922  15.669 -0.4189  0.0544  0.3546
  912MPD2    C313406   0.793   3.824  15.664 -0.3474  1.1240 -0.0778
  912MPD2    C413407   0.665   3.854  15.624 -0.4151 -0.7046  0.1526
  912MPD2    C513408   0.637   3.983  15.587  0.3400  0.3558  0.4779
  912MPD2     H13409   0.985   3.886  15.708 -0.2525  0.3634  0.2297
  912MPD2    H113410   0.585   3.781  15.627  0.2367 -1.5119 -1.7334
  912MPD2    H213411   0.713   4.182  15.563  1.9830  0.1657 -0.0650
  912MPD2    H313412   0.535   4.007  15.562  0.1270  0.3689  1.3696
  912MPD2     N13413   0.815   3.702  15.728 -0.1656 -0.6963 -0.3043
  912MPD2    H513414   0.909   3.683  15.763 -0.2256 -1.0419 -0.3326
  912MPD2    N113415   0.959   4.153  15.647  0.0847 -1.2997 -0.0072
  912MPD2    H713416   0.939   4.243  15.604 -0.5387 -1.3121  0.2621
  913MPD2     C13417   1.593   0.965  10.687 -0.7768  0.1784  0.1062
  913MPD2    C113418   1.684   1.004  10.781  0.5847 -0.3748 -0.1344
  913MPD2    C213419   1.779   1.100  10.746 -0.6025  0.6051  0.0465
  913MPD2    C313420   1.790   1.133  10.609 -0.4382  0.2540  0.7015
  913MPD2    C413421   1.693   1.100  10.525 -0.2815  0.3309 -0.5212
  913MPD2    C513422   1.593   1.010  10.560 -0.4904  0.5847  0.3316
  913MPD2     H13423   1.860   1.130  10.811 -0.5349  0.9774 -0.2108
  913MPD2    H113424   1.701   1.135  10.422  1.4584  0.8578 -0.1978
  913MPD2    H213425   1.520   0.889  10.714 -1.4112  0.4343 -0.8958
  913MPD2    H313426   1.532   0.959  10.486 -0.6409  1.0375  0.1465
  913MPD2     N13427   1.901   1.207  10.558 -0.5508  0.7443  0.6835
  913MPD2    H513428   1.903   1.197  10.457  0.5297 -0.8640  0.8597
  913MPD2    N113429   1.687   0.929  10.902  0.4075  0.5468  0.6203
  913MPD2    H713430   1.604   0.869  10.904  0.6865  0.1832  1.1627
  914MPD2     C13431   0.022   0.634  11.934  0.0872 -0.0503  0.9017
  914MPD2    C113432   4.671   0.713  12.000  0.5582 -0.1913 -0.4144
  914MPD2    C213433   4.596   0.652  12.104 -0.1115  0.0868 -0.0165
  914MPD2    C313434   4.629   0.523  12.146 -0.0241 -0.3609 -0.2510
  914MPD2    C413435   4.719   0.451  12.080 -0.7206 -0.0757 -0.9090
  914MPD2    C513436   0.044   0.503  11.971  0.3180  0.4339  0.1032
  914MPD2     H13437   4.532   0.717  12.162  1.0885  1.8937 -0.7360
  914MPD2    H113438   0.013   0.352  12.109 -1.0046  0.4366  1.1096
  914MPD2    H213439   0.085   0.672  11.855 -1.3916 -0.9216 -0.6785
  914MPD2    H313440   0.122   0.447  11.922  0.9405 -0.7720  2.4885
  914MPD2     N13441   4.563   0.488  12.262  0.2121  0.7507  0.5296
  914MPD2    H513442   4.495   0.556  12.294 -0.5951 -0.2453  0.8980
  914MPD2    N113443   4.653   0.848  11.965 -0.3394 -0.3464 -0.0871
  914MPD2    H713444   4.722   0.894  11.906 -1.5691  0.4782 -0.8841
  915MPD2     C13445   2.786   1.035  16.039 -0.2554  0.2468 -0.1913
  915MPD2    C113446   2.707   1.114  15.955  0.9224  0.1072  0.4696
  915MPD2    C213447   2.624   1.208  16.018 -0.2096 -0.5440  0.5637
  915MPD2    C313448   2.623   1.225  16.158 -0.2151  0.3676  0.1539
  915MPD2    C413449   2.709   1.151  16.232  0.3791 -0.0265  0.7837
  915MPD2    C513450   2.788   1.057  16.173  0.5492 -0.8138 -1.2616
  915MPD2     H13451   2.547   1.264  15.965 -1.4571 -2.9828 -0.2070
  915MPD2    H113452   2.708   1.158  16.340 -0.8177 -2.6235  0.9285
  915MPD2    H213453   2.853   0.969  15.984  1.0501  1.5724 -0.2052
  915MPD2    H313454   2.857   1.000  16.235 -1.0345 -0.8997  0.4162
  915MPD2     N13455   2.518   1.305  16.220 -0.3130 -0.4966 -0.4723
  915MPD2    H513456   2.451   1.354  16.162 -0.6118 -0.5699 -0.1868
  915MPD2    N113457   2.716   1.105  15.810 -0.2308  0.4005 -0.6207
  915MPD2    H713458   2.758   1.019  15.775 -3.1509 -2.0190  1.7793
  916MPD2     C13459   0.350   4.025  15.843 -0.9396 -0.3391  0.4196
  916MPD2    C113460   0.389   3.921  15.931  0.0153 -0.5410 -0.4112
  916MPD2    C213461   0.377   3.791  15.888 -0.1397  0.2317 -0.1278
  916MPD2    C313462   0.340   3.765  15.756  0.0610  0.0640 -0.5594
  916MPD2    C413463   0.299   3.875  15.673  0.0705 -0.4582  0.3324
  916MPD2    C513464   0.311   3.997  15.721 -0.1164  0.0972  0.5349
  916MPD2     H13465   0.411   3.711  15.953  1.5108  0.4486 -0.7247
  916MPD2    H113466   0.248   3.872  15.577  1.8891  1.3297 -0.6683
  916MPD2    H213467   0.347   4.132  15.864 -0.6952 -0.1625 -0.4648
  916MPD2    H313468   0.276   4.075  15.655 -0.7160 -0.5675  0.0582
  916MPD2     N13469   0.339   3.633  15.710 -0.2928  0.7015 -0.0184
  916MPD2    H513470   0.390   3.571  15.773 -0.4548 -0.1478 -0.7199
  916MPD2    N113471   0.421   3.960  16.062 -0.6205 -0.0887 -0.0383
  916MPD2    H713472   0.424   4.060  16.083 -1.8287  0.1081 -0.7868
  917MPD2     C13473   0.723   1.397  11.170 -0.0032  0.0627 -0.3246
  917MPD2    C113474   0.813   1.436  11.270 -0.0688  0.0974 -0.5275
  917MPD2    C213475   0.877   1.561  11.254  0.1166 -0.3122  0.3709
  917MPD2    C313476   0.858   1.636  11.134 -0.3579 -0.8387 -0.0005
  917MPD2    C413477   0.765   1.593  11.045  0.0759 -0.0007  0.3262
  917MPD2    C513478   0.698   1.480  11.064 -0.4825  0.7608  0.1053
  917MPD2     H13479   0.949   1.605  11.323 -1.7705  0.5919  1.7681
  917MPD2    H113480   0.753   1.647  10.951  2.7988  0.0791  0.0188
  917MPD2    H213481   0.677   1.300  11.183  1.8029 -0.4303  2.1675
  917MPD2    H313482   0.631   1.459  10.982  0.1560 -0.4193 -0.1221
  917MPD2     N13483   0.918   1.757  11.107 -0.3743  0.0878  0.1309
  917MPD2    H513484   0.907   1.796  11.014  0.0735  2.1363  0.9420
  917MPD2    N113485   0.818   1.360  11.389 -0.1380  1.0916  0.3490
  917MPD2    H713486   0.761   1.276  11.391  0.7824  0.4630 -0.0857
  918MPD2     C13487   0.917   1.674  12.358 -0.3517  0.4195  0.3471
  918MPD2    C113488   1.014   1.682  12.260 -0.2814  0.0464  0.7592
  918MPD2    C213489   1.000   1.606  12.142  0.1202 -0.4817  0.1026
  918MPD2    C313490   0.887   1.535  12.117 -0.4082  0.3086  0.3505
  918MPD2    C413491   0.792   1.527  12.215  0.4193  0.1552 -0.4155
  918MPD2    C513492   0.805   1.593  12.334  0.3115 -0.4572  0.3621
  918MPD2     H13493   1.076   1.617  12.066  0.1624 -1.4308  0.0035
  918MPD2    H113494   0.697   1.477  12.200  0.7618 -0.2464 -1.2555
  918MPD2    H213495   0.928   1.729  12.450  1.2106 -0.4274  0.6572
  918MPD2    H313496   0.741   1.583  12.421  1.7133  1.4814  1.6329
  918MPD2     N13497   0.876   1.465  11.996  0.2002  0.2578 -0.0026
  918MPD2    H513498   0.952   1.476  11.931  0.3417  1.1470  0.3139
  918MPD2    N113499   1.141   1.747  12.277 -0.5161 -0.5543 -0.3451
  918MPD2    H713500   1.210   1.736  12.203 -1.8435 -1.4317 -1.4597
  919MPD2     C13501   1.553   0.205  12.230 -0.1524 -0.0435 -0.3511
  919MPD2    C113502   1.519   0.137  12.119  0.5140  0.9506 -0.7070
  919MPD2    C213503   1.461   0.202  12.012 -0.2386  0.0070  0.6658
  919MPD2    C313504   1.463   0.341  11.998 -0.3485  0.5230  0.0062
  919MPD2    C413505   1.509   0.407  12.109  0.1408  0.7437 -0.0506
  919MPD2    C513506   1.541   0.341  12.223  0.2544 -0.1469  0.7915
  919MPD2     H13507   1.406   0.141  11.942  1.2712  1.6555 -1.9877
  919MPD2    H113508   1.513   0.515  12.102  0.4623  0.7869  0.9274
  919MPD2    H213509   1.598   0.165  12.320  1.8523 -0.7991 -1.6972
  919MPD2    H313510   1.589   0.408  12.294 -1.9246  1.7466  0.4863
  919MPD2     N13511   1.423   0.417  11.882 -0.2140 -0.5748  0.2176
  919MPD2    H513512   1.451   0.514  11.885  0.4383 -0.7700  0.4286
  919MPD2    N113513   1.528   0.000  12.121  0.0444  0.4364  0.1748
  919MPD2    H713514   1.553   4.685  12.205 -2.0561 -1.3691 -0.3072
  920MPD2     C13515   1.578   1.190  11.264  0.4408 -1.1027 -0.3100
  920MPD2    C113516   1.502   1.112  11.186  0.0964  0.4257 -0.0900
  920MPD2    C213517   1.440   1.000  11.242  0.3350 -0.2760 -0.9773
  920MPD2    C313518   1.472   0.976  11.377  0.2813  0.0961 -0.6513
  920MPD2    C413519   1.558   1.055  11.450  0.1798  0.8199  0.3172
  920MPD2    C513520   1.605   1.161  11.387  0.8360 -0.6145 -0.6060
  920MPD2     H13521   1.372   0.938  11.185 -0.8440 -0.0860  0.2425
  920MPD2    H113522   1.604   1.031  11.546 -2.0751  0.0365  1.1926
  920MPD2    H213523   1.623   1.283  11.231  0.6542 -0.8286  0.7579
  920MPD2    H313524   1.683   1.216  11.438 -0.0456 -1.5017  1.7550
  920MPD2     N13525   1.431   0.851  11.431  0.1227  0.1252 -0.2876
  920MPD2    H513526   1.387   0.791  11.362 -0.7155  0.6229 -0.1827
  920MPD2    N113527   1.471   1.146  11.055  0.4852 -0.0770 -0.2114
  920MPD2    H713528   1.417   1.079  11.002  0.5205 -0.2734 -0.0008
  921MPD2     C13529   2.385   3.992  16.742  0.5856 -0.0160 -0.3371
  921MPD2    C113530   2.428   3.892  16.659  0.2684 -0.1583 -0.4279
  921MPD2    C213531   2.337   3.801  16.611  0.2587 -0.2458  1.1529
  921MPD2    C313532   2.201   3.819  16.645  0.4117 -0.2064 -0.1419
  921MPD2    C413533   2.163   3.917  16.733  0.3037 -0.2052  0.3180
  921MPD2    C513534   2.256   4.004  16.785  0.2640 -0.1724  0.5039
  921MPD2     H13535   2.366   3.725  16.539  0.6970  0.2523  0.8032
  921MPD2    H113536   2.064   3.917  16.776 -0.3076 -0.8827 -1.0930
  921MPD2    H213537   2.460   4.060  16.779  1.1566 -0.5520 -0.5011
  921MPD2    H313538   2.232   4.078  16.860  1.3457  0.1072  0.5815
  921MPD2     N13539   2.100   3.752  16.585  0.2653 -0.0207  0.4049
  921MPD2    H513540   2.005   3.777  16.609  0.5972  1.2135  0.4255
  921MPD2    N113541   2.567   3.882  16.625 -0.2214 -0.0041  0.0655
  921MPD2    H713542   2.632   3.958  16.643  0.6363 -1.3864  2.8492
  922MPD2     C13543   3.204   1.605  17.412 -0.3939 -0.3503 -0.3148
  922MPD2    C113544   3.173   1.721  17.478  0.5633 -0.2413  0.9692
  922MPD2    C213545   3.047   1.742  17.538  1.0185  0.1909  0.1506
  922MPD2    C313546   2.957   1.630  17.542  0.2337 -0.1814  0.3913
  922MPD2    C413547   2.993   1.513  17.483 -0.0387 -0.2944 -0.7106
  922MPD2    C513548   3.115   1.498  17.422 -0.5860  0.6855 -0.6071
  922MPD2     H13549   3.022   1.837  17.584 -2.4690 -1.1615  1.0209
  922MPD2    H113550   2.923   1.431  17.471 -0.3299 -0.4778  2.2984
  922MPD2    H213551   3.300   1.583  17.368  0.1340 -0.6925  1.0065
  922MPD2    H313552   3.147   1.408  17.372 -1.4604 -0.6873  1.3058
  922MPD2     N13553   2.825   1.649  17.587 -0.1086 -0.5968 -0.6168
  922MPD2    H513554   2.790   1.745  17.582  0.2162 -0.5424 -1.8869
  922MPD2    N113555   3.256   1.835  17.483 -0.5961  0.3081 -0.3677
  922MPD2    H713556   3.218   1.909  17.541 -1.3961 -0.1950 -0.2398
  923MPD2     C13557   0.090   3.600   8.579  0.4110 -0.0951  0.0050
  923MPD2    C113558   0.054   3.720   8.638 -0.2356  0.2535  0.4688
  923MPD2    C213559   0.122   3.751   8.754 -0.3677  0.1474 -0.1936
  923MPD2    C313560   0.236   3.684   8.789  0.0979 -0.0763 -0.8078
  923MPD2    C413561   0.280   3.573   8.721  0.1615  0.0097  0.0170
  923MPD2    C513562   0.204   3.532   8.616  1.0243 -0.2863  0.2604
  923MPD2     H13563   0.091   3.836   8.815 -0.6330 -1.9907  2.6435
  923MPD2    H113564   0.362   3.506   8.743  0.3959  0.9130  1.8551
  923MPD2    H213565   0.048   3.557   8.488  0.7150 -0.2211 -0.0735
  923MPD2    H313566   0.242   3.441   8.571  1.5732  1.1700 -2.1665
  923MPD2     N13567   0.302   3.696   8.912 -0.3734  0.5829  0.3458
  923MPD2    H513568   0.377   3.630   8.930 -1.6467 -0.6306  1.2555
  923MPD2    N113569   4.675   3.785   8.589 -0.5571 -0.5005  0.3756
  923MPD2    H713570   4.624   3.734   8.517 -1.9794 -1.1940  1.8609
  924MPD2     C13571   0.114   2.124  16.231  0.1346  0.3427  0.2081
  924MPD2    C113572   0.024   2.166  16.335  0.0388 -0.3442 -0.4213
  924MPD2    C213573   4.733   2.300  16.351  0.1820  0.1604 -1.0556
  924MPD2    C313574   0.048   2.394  16.256 -0.6368 -0.3309  0.2649
  924MPD2    C413575   0.131   2.349  16.155  0.3291 -0.0280 -0.3669
  924MPD2    C513576   0.171   2.218  16.150 -0.1239 -0.5522  0.1594
  924MPD2     H13577   4.662   2.335  16.425 -0.3337 -1.6040 -0.7157
  924MPD2    H113578   0.176   2.412  16.080 -0.3234 -0.5205 -1.1707
  924MPD2    H213579   0.135   2.018  16.220  0.4701  0.2525  1.8071
  924MPD2    H313580   0.238   2.184  16.072 -0.7477 -0.5440 -0.3708
  924MPD2     N13581   0.027   2.531  16.268 -0.1950 -0.0792  0.1158
  924MPD2    H513582   0.066   2.586  16.192 -0.1150  0.3248  0.4535
  924MPD2    N113583   4.701   2.062  16.420 -0.3808  0.8440  0.3651
  924MPD2    H713584   0.014   1.974  16.404 -0.5308  0.5432  1.6098
  925MPD2     C13585   3.187   0.111  15.127  0.3056  0.5538 -0.2182
  925MPD2    C113586   3.106   0.203  15.063 -0.8753  0.6712  0.4714
  925MPD2    C213587   3.034   0.293  15.142  0.0390  0.3200  1.1144
  925MPD2    C313588   3.030   0.282  15.282 -0.9526 -0.2747 -0.5967
  925MPD2    C413589   3.110   0.187  15.342 -0.2929 -0.9092  0.2245
  925MPD2    C513590   3.191   0.107  15.267  0.3864 -0.8603 -0.0432
  925MPD2     H13591   2.969   0.360  15.087  1.6591  0.9366 -0.0621
  925MPD2    H113592   3.135   0.191  15.448 -0.1127  0.7648  0.1305
  925MPD2    H213593   3.237   0.028  15.080 -0.5995 -1.0619  1.6702
  925MPD2    H313594   3.250   0.028  15.312  2.0424  0.9401  0.9627
  925MPD2     N13595   2.947   0.353  15.369  0.5223 -0.3583 -0.0428
  925MPD2    H513596   2.969   0.345  15.468 -0.7969 -0.3227  0.2444
  925MPD2    N113597   3.074   0.193  14.926 -0.2976  0.1106  0.2395
  925MPD2    H713598   2.990   0.240  14.894 -0.2730 -0.3914 -0.5810
  926MPD2     C13599   2.064   3.017  13.615 -0.7770 -0.3532  0.1987
  926MPD2    C113600   1.959   3.093  13.574  0.0201  0.2848  0.2887
  926MPD2    C213601   1.966   3.164  13.454 -0.1935 -0.1973  0.3045
  926MPD2    C313602   2.084   3.157  13.381  0.3615  0.4886  0.0936
  926MPD2    C413603   2.191   3.094  13.431  0.6077 -0.0571 -0.2424
  926MPD2    C513604   2.180   3.011  13.540 -0.3048  0.0212  0.5500
  926MPD2     H13605   1.870   3.209  13.429  0.0493  1.1200  1.7262
  926MPD2    H113606   2.284   3.101  13.375  1.2594  0.0064  0.8487
  926MPD2    H213607   2.065   2.960  13.708  2.1296 -1.8803 -0.7592
  926MPD2    H313608   2.271   2.955  13.559 -0.2290 -0.1673 -0.3931
  926MPD2     N13609   2.100   3.219  13.257  0.7795  0.1434  0.4733
  926MPD2    H513610   2.193   3.208  13.218  0.5668 -2.0911  0.6228
  926MPD2    N113611   1.841   3.105  13.659 -0.4601  0.2381  0.5269
  926MPD2    H713612   1.776   3.176  13.626 -0.0152  0.0105 -0.8268
  927MPD2     C13613   2.137   0.645   0.087 -0.0508  0.0528  0.0615
  927MPD2    C113614   2.088   0.773   0.098  0.1948 -0.0086 -1.0646
  927MPD2    C213615   2.058   0.842  17.727 -0.3563 -0.5657  0.2262
  927MPD2    C313616   2.065   0.780  17.601  0.1394 -0.4002 -0.2411
  927MPD2    C413617   2.093   0.645  17.593  0.6818 -0.2500  0.0967
  927MPD2    C513618   2.133   0.580  17.707 -0.5772 -0.3073  0.3087
  927MPD2     H13619   2.044   0.949  17.735 -0.1995 -0.4756 -0.7563
  927MPD2    H113620   2.085   0.587  17.502 -1.0312 -0.3032  0.2883
  927MPD2    H213621   2.172   0.592   0.175  3.4287 -1.0937 -2.0051
  927MPD2    H313622   2.163   0.476  17.699 -3.4055 -1.0983  0.2278
  927MPD2     N13623   2.031   0.854  17.487 -0.0504 -0.0862 -0.0168
  927MPD2    H513624   2.006   0.951  17.502 -2.6088 -0.9882  1.4221
  927MPD2    N113625   2.085   0.836   0.223  0.0476 -0.0996 -0.0081
  927MPD2    H713626   2.116   0.782   0.303  3.3985  1.3578 -0.3026
  928MPD2     C13627   4.588   3.429   0.920  0.0593  0.2272 -0.2466
  928MPD2    C113628   4.646   3.546   0.962 -0.2392  0.1268 -0.1645
  928MPD2    C213629   4.733   3.608   0.876 -0.0192 -0.3369  0.5066
  928MPD2    C313630   0.045   3.542   0.769 -0.6382  0.1518 -0.0610
  928MPD2    C413631   4.719   3.427   0.726  0.7960  0.1459 -0.0499
  928MPD2    C513632   4.624   3.365   0.802 -0.5018 -1.0310  0.3951
  928MPD2     H13633   0.017   3.712   0.899  1.4488 -0.8628  1.6257
  928MPD2    H113634   0.016   3.375   0.637  2.5671 -1.1730  1.3691
  928MPD2    H213635   4.523   3.367   0.981  0.0145  0.8880  0.3761
  928MPD2    H313636   4.592   3.265   0.776  2.6158 -1.2737 -2.6801
  928MPD2     N13637   0.138   3.610   0.690  0.3541  0.4012 -0.1120
  928MPD2    H513638   0.152   3.568   0.598 -0.3030  0.4882 -0.2513
  928MPD2    N113639   4.610   3.617   1.076  0.0289 -0.1833  0.1371
  928MPD2    H713640   4.644   3.712   1.069 -0.4185 -0.1237 -1.2564
  929MPD2     C13641   0.100   3.988  10.218  0.2865  0.2637 -0.1206
  929MPD2    C113642   4.721   3.910  10.222 -0.0166  0.1992  0.4655
  929MPD2    C213643   4.643   3.898  10.111 -0.5055  0.1047  0.8291
  929MPD2    C313644   4.674   3.976   9.998 -0.3724 -0.0602 -0.1371
  929MPD2    C413645   0.050   4.063  10.001  0.9845  0.1189 -0.2175
  929MPD2    C513646   0.126   4.072  10.116 -0.2336  0.0182  0.4680
  929MPD2     H13647   4.545   3.851  10.111  0.6634 -2.3253 -2.4289
  929MPD2    H113648   0.090   4.113   9.913 -1.5409 -1.0036 -1.9940
  929MPD2    H213649   0.178   3.980  10.293 -2.1497 -0.7453  2.3042
  929MPD2    H313650   0.219   4.127  10.114  0.1455 -0.6279  0.0881
  929MPD2     N13651   4.595   3.977   9.882  0.0488 -0.0137 -0.2193
  929MPD2    H513652   4.601   4.064   9.830  0.4175 -0.5168 -1.0253
  929MPD2    N113653   4.698   3.836  10.340 -0.3453 -0.3117  0.2974
  929MPD2    H713654   0.030   3.847  10.415 -0.1881  1.6300 -0.1259
  930MPD2     C13655   1.457   1.049  14.462  0.5865  0.7693 -1.3045
  930MPD2    C113656   1.441   1.162  14.392 -0.0841 -0.2772 -0.8786
  930MPD2    C213657   1.407   1.163  14.262 -0.0625 -0.2709  0.0351
  930MPD2    C313658   1.396   1.039  14.194  0.4585  0.4879 -0.4447
  930MPD2    C413659   1.404   0.925  14.265 -0.0931  0.4542 -0.1847
  930MPD2    C513660   1.440   0.934  14.402 -0.2145  0.1445  0.6754
  930MPD2     H13661   1.406   1.255  14.205 -2.5535  0.6638  1.6004
  930MPD2    H113662   1.382   0.830  14.216  0.3315 -1.2696  2.9855
  930MPD2    H213663   1.480   1.055  14.567  2.5921  1.6093 -1.7901
  930MPD2    H313664   1.442   0.842  14.459 -3.8406 -1.0828 -1.2415
  930MPD2     N13665   1.395   1.050  14.051  0.1918 -0.3249  0.3275
  930MPD2    H513666   1.393   1.147  14.021 -0.6529 -0.4297  0.0421
  930MPD2    N113667   1.471   1.286  14.441  0.7674  0.9345 -0.2432
  930MPD2    H713668   1.449   1.364  14.381  0.5265  0.0600 -1.3024
  931MPD2     C13669   2.463   0.681   0.656  0.2404 -0.2428 -0.4007
  931MPD2    C113670   2.334   0.691   0.704  0.4504 -0.1205  0.2474
  931MPD2    C213671   2.286   0.594   0.786  0.1308  0.7769 -0.5675
  931MPD2    C313672   2.365   0.485   0.827  0.0982  0.6699 -0.5075
  931MPD2    C413673   2.490   0.478   0.780  0.2568 -0.1418 -0.2648
  931MPD2    C513674   2.544   0.578   0.703  0.1725  0.1657 -0.0563
  931MPD2     H13675   2.192   0.602   0.840 -0.0730  0.1887 -0.8279
  931MPD2    H113676   2.563   0.399   0.791 -0.5242 -0.7907  0.2552
  931MPD2    H213677   2.515   0.739   0.581  3.2450 -1.0205  1.0428
  931MPD2    H313678   2.643   0.567   0.662  0.2396 -0.3643  0.2510
  931MPD2     N13679   2.313   0.368   0.875 -0.4235 -0.5412 -0.0338
  931MPD2    H513680   2.379   0.294   0.900  0.4472 -0.2106 -1.3253
  931MPD2    N113681   2.253   0.799   0.657  0.0645  1.0242  0.3382
  931MPD2    H713682   2.293   0.855   0.582 -0.2967  0.3350 -0.3745
  932MPD2     C13683   3.095   4.508  11.160 -0.0045  0.2284 -0.5161
  932MPD2    C113684   3.198   4.539  11.249 -0.5497 -0.2811  0.1794
  932MPD2    C213685   3.192   4.496  11.379 -0.1302  0.7454 -0.3104
  932MPD2    C313686   3.093   4.411  11.426 -0.1451 -0.9062 -0.4296
  932MPD2    C413687   2.997   4.373  11.334 -0.4306 -0.0178 -0.4093
  932MPD2    C513688   2.993   4.419  11.205  0.3597 -0.2232 -0.0173
  932MPD2     H13689   3.270   4.525  11.449 -0.6215  2.3956 -0.4544
  932MPD2    H113690   2.909   4.315  11.359  0.4382 -0.8130  0.7552
  932MPD2    H213691   3.099   4.533  11.055  1.3309 -1.0140 -0.7584
  932MPD2    H313692   2.918   4.391  11.133 -0.6112 -1.2694  1.4032
  932MPD2     N13693   3.073   4.365  11.554  0.4104  0.1787  0.0699
  932MPD2    H513694   2.993   4.304  11.565  1.6092 -1.6317 -1.2265
  932MPD2    N113695   3.309   4.624  11.205  0.4794  0.2643  0.1054
  932MPD2    H713696   3.374   4.651  11.277 -0.2297  0.1480  0.7934
  933MPD2     C13697   3.955   4.091   1.406  0.3347 -0.3885  0.1884
  933MPD2    C113698   4.083   4.094   1.345 -0.1495  0.2860  0.8365
  933MPD2    C213699   4.113   4.206   1.264 -0.0473  0.1953  0.2934
  933MPD2    C313700   4.014   4.300   1.232 -0.1770 -0.1877  0.2918
  933MPD2    C413701   3.890   4.283   1.291 -0.3128 -0.3166  0.2247
  933MPD2    C513702   3.855   4.187   1.381  0.2897 -0.3646 -0.2199
  933MPD2     H13703   4.207   4.231   1.217  0.7785 -1.2317  1.2043
  933MPD2    H113704   3.804   4.342   1.266 -1.7513 -0.2930  5.1849
  933MPD2    H213705   3.934   4.010   1.475 -1.2786  1.2836  1.6625
  933MPD2    H313706   3.755   4.180   1.421  0.7571 -1.7390  0.7176
  933MPD2     N13707   4.045   4.402   1.140 -0.2646 -0.4491 -0.8804
  933MPD2    H513708   4.135   4.393   1.095  0.1232 -0.4736 -0.1017
  933MPD2    N113709   4.180   3.992   1.370 -0.1941 -0.3232  0.1468
  933MPD2    H713710   4.145   3.910   1.420 -0.8822 -0.3682 -0.4029
  934MPD2     C13711   1.506   1.495   1.348 -0.1846 -0.5492 -0.4511
  934MPD2    C113712   1.481   1.369   1.300  0.1509 -0.2179 -0.0818
  934MPD2    C213713   1.357   1.308   1.318 -0.3803  0.3682  0.4830
  934MPD2    C313714   1.255   1.380   1.377 -0.4444 -0.2708 -0.7128
  934MPD2    C413715   1.279   1.509   1.416 -0.2154  0.3369  0.4269
  934MPD2    C513716   1.405   1.562   1.408  0.4497 -0.6339  0.3363
  934MPD2     H13717   1.340   1.208   1.279  3.7077  0.3279 -1.1814
  934MPD2    H113718   1.197   1.568   1.454 -2.3474 -3.0830  1.0818
  934MPD2    H213719   1.605   1.536   1.329  0.2483 -0.4074  2.1805
  934MPD2    H313720   1.427   1.661   1.447  1.4448 -1.0009  0.7053
  934MPD2     N13721   1.129   1.337   1.397  0.0942 -0.0873 -0.8792
  934MPD2    H513722   1.068   1.413   1.424  3.7364  3.0794 -1.5299
  934MPD2    N113723   1.594   1.281   1.264  0.7035 -0.5684 -0.1090
  934MPD2    H713724   1.569   1.187   1.235  0.6340 -0.8384  0.8258
  935MPD2     C13725   0.941   0.396   1.297  0.0580 -1.7903  0.8371
  935MPD2    C113726   0.823   0.438   1.249  0.1064 -0.8840 -0.6561
  935MPD2    C213727   0.791   0.577   1.281 -0.2390  0.7877 -0.4649
  935MPD2    C313728   0.880   0.663   1.349 -0.1975  0.5290  0.2430
  935MPD2    C413729   0.994   0.605   1.396 -0.2328 -0.5554 -0.3310
  935MPD2    C513730   1.028   0.479   1.358  0.2012  0.6152 -0.5626
  935MPD2     H13731   0.689   0.601   1.252  0.8356  2.0411 -3.0981
  935MPD2    H113732   1.077   0.658   1.442 -0.2587 -0.5688 -0.2690
  935MPD2    H213733   0.992   0.301   1.282  1.6442 -0.8007 -0.1009
  935MPD2    H313734   1.122   0.432   1.382  1.2351  2.6134 -0.7144
  935MPD2     N13735   0.866   0.799   1.354 -0.0212 -0.2383  0.0395
  935MPD2    H513736   0.949   0.832   1.402  0.7717 -2.6794  0.3448
  935MPD2    N113737   0.727   0.356   1.175  0.1341  0.2148  0.0128
  935MPD2    H713738   0.643   0.398   1.138 -0.0587 -0.4755 -0.3253
  936MPD2     C13739   3.968   3.299  12.011 -0.2876 -0.5829 -0.7825
  936MPD2    C113740   3.973   3.257  12.147  0.2328  0.5179 -0.4512
  936MPD2    C213741   3.933   3.349  12.241  0.1004 -0.3498  0.1582
  936MPD2    C313742   3.898   3.484  12.213 -0.1113 -0.4191  0.1756
  936MPD2    C413743   3.907   3.522  12.082 -0.2215 -0.1904  0.2900
  936MPD2    C513744   3.948   3.429  11.986  0.8083  0.8160  0.0765
  936MPD2     H13745   3.916   3.316  12.343  1.1144  0.0605  0.4624
  936MPD2    H113746   3.879   3.624  12.055  1.4671  0.0599 -0.5197
  936MPD2    H213747   3.983   3.232  11.927  0.2094  0.2769 -1.3780
  936MPD2    H313748   3.943   3.459  11.882 -0.2306 -2.3610 -0.7764
  936MPD2     N13749   3.854   3.562  12.323 -0.1138  0.3988  0.0351
  936MPD2    H513750   3.858   3.517  12.414 -1.4183  2.3478  1.0482
  936MPD2    N113751   3.990   3.127  12.204 -0.2792  0.1511  1.2842
  936MPD2    H713752   3.984   3.120  12.305 -0.7329 -0.2070  1.2333
  937MPD2     C13753   1.580   4.064  11.582 -0.2203  0.3962 -0.1832
  937MPD2    C113754   1.650   4.182  11.625 -0.0054 -0.2046 -0.3788
  937MPD2    C213755   1.737   4.233  11.533  0.5958 -0.3619 -0.3028
  937MPD2    C313756   1.764   4.165  11.411 -0.2327 -0.4293 -0.2111
  937MPD2    C413757   1.712   4.042  11.384  0.1853 -0.3600 -0.3483
  937MPD2    C513758   1.615   3.998  11.470  0.7870 -0.2030  0.2534
  937MPD2     H13759   1.796   4.319  11.562  0.4358 -0.5989  0.7179
  937MPD2    H113760   1.719   3.978  11.297  1.3406  0.6897 -1.0319
  937MPD2    H213761   1.508   4.005  11.638 -1.5128  2.1016 -0.0481
  937MPD2    H313762   1.569   3.901  11.453 -1.6533  1.0513 -0.2166
  937MPD2     N13763   1.856   4.228  11.317  0.1416 -0.7790  0.3781
  937MPD2    H513764   1.876   4.325  11.341 -1.2431 -0.5433  0.6011
  937MPD2    N113765   1.611   4.253  11.742 -0.3977 -0.3261  0.3866
  937MPD2    H713766   1.653   4.344  11.759  0.3794 -0.7081  0.5336
  938MPD2     C13767   0.316   0.323   1.202 -0.4364  0.6071  0.5969
  938MPD2    C113768   0.208   0.401   1.167  0.2594  0.0365  0.5715
  938MPD2    C213769   0.079   0.358   1.190  0.3899  0.5475 -0.3773
  938MPD2    C313770   0.059   0.227   1.216  0.6372  0.5554 -0.2542
  938MPD2    C413771   0.164   0.140   1.238  0.4462 -0.3661  0.0196
  938MPD2    C513772   0.291   0.192   1.236 -0.1855  0.0356  0.3117
  938MPD2     H13773   4.731   0.426   1.182  1.5175  1.7726 -2.0941
  938MPD2    H113774   0.142   0.038   1.268  0.0443 -0.0335  0.8509
  938MPD2    H213775   0.422   0.344   1.203 -0.3021  0.0201 -0.5537
  938MPD2    H313776   0.375   0.126   1.255 -0.1600  0.2871  1.0555
  938MPD2     N13777   4.673   0.169   1.233  0.0196  1.0422 -0.5252
  938MPD2    H513778   4.676   0.084   1.287 -2.8487  1.9713  1.1159
  938MPD2    N113779   0.228   0.529   1.115  0.8620  0.1390 -0.0318
  938MPD2    H713780   0.155   0.595   1.140  0.5225  0.4382 -1.8291
  939MPD2     C13781   0.584   2.292   0.808 -0.2052  0.1581  0.4084
  939MPD2    C113782   0.712   2.259   0.785 -0.3267  0.0535 -0.1389
  939MPD2    C213783   0.756   2.238   0.660  0.1390  0.4570 -0.1136
  939MPD2    C313784   0.681   2.269   0.547  0.0413  0.4705 -0.3523
  939MPD2    C413785   0.550   2.301   0.566  0.3844 -0.0807 -0.3490
  939MPD2    C513786   0.502   2.311   0.695  0.4795 -0.7689  0.1242
  939MPD2     H13787   0.862   2.221   0.647 -0.0690 -1.0009  0.0939
  939MPD2    H113788   0.476   2.313   0.487  2.7422 -0.4397 -2.6005
  939MPD2    H213789   0.544   2.306   0.908 -0.0379  0.1862  0.4707
  939MPD2    H313790   0.398   2.338   0.713  0.3196 -0.6305 -1.0244
  939MPD2     N13791   0.731   2.246   0.414 -0.3973 -0.1129  0.3106
  939MPD2    H513792   0.821   2.200   0.417  0.0605  0.6393 -1.4843
  939MPD2    N113793   0.798   2.262   0.895 -0.0546  0.6580  0.0428
  939MPD2    H713794   0.759   2.283   0.986 -0.0778 -3.6640  1.0416
  940MPD2     C13795   4.555   2.860  12.750  0.1293 -0.5640  0.3065
  940MPD2    C113796   4.421   2.839  12.790  0.0344 -0.1155  0.6072
  940MPD2    C213797   4.345   2.754  12.705 -0.3103  0.4855  0.1303
  940MPD2    C313798   4.404   2.678  12.608  0.8227  0.2452  0.0623
  940MPD2    C413799   4.535   2.695  12.580  0.1192 -0.6592  0.2614
  940MPD2    C513800   4.608   2.783  12.657 -0.4874 -0.7967 -0.0552
  940MPD2     H13801   4.242   2.736  12.735  0.2093  0.2710  1.8019
  940MPD2    H113802   4.594   2.642  12.507  3.2247 -1.1248  3.0778
  940MPD2    H213803   4.617   2.933  12.801 -2.1759  1.7903 -0.1799
  940MPD2    H313804   4.712   2.802  12.633 -0.3918 -0.6648  0.4696
  940MPD2     N13805   4.341   2.609  12.498 -0.6697  0.1688 -0.3705
  940MPD2    H513806   4.397   2.597  12.415  0.2799 -0.4766  0.3614
  940MPD2    N113807   4.361   2.913  12.899  0.3730 -0.6038 -0.3169
  940MPD2    H713808   4.260   2.907  12.910  0.4929  1.2088  1.8040
  941MPD2     C13809   3.877   2.254  10.042  0.7817 -0.1918  0.3541
  941MPD2    C113810   3.944   2.282  10.159 -0.3729 -0.1678  0.2087
  941MPD2    C213811   3.893   2.232  10.278 -1.2536 -0.3541 -0.0882
  941MPD2    C313812   3.797   2.138  10.277  0.1115 -0.0211 -0.4207
  941MPD2    C413813   3.738   2.102  10.158 -0.3307  0.2671 -0.1103
  941MPD2    C513814   3.772   2.162  10.038 -0.7778  0.7804  0.4445
  941MPD2     H13815   3.943   2.263  10.369 -0.2130  1.1533 -1.1740
  941MPD2    H113816   3.674   2.015  10.156 -0.4155  0.3144  0.7221
  941MPD2    H213817   3.902   2.312   9.954  1.3578 -0.5363  0.2887
  941MPD2    H313818   3.718   2.141   9.947  1.2549 -0.9279 -0.3740
  941MPD2     N13819   3.770   2.052  10.391  0.7842  0.1976 -0.1184
  941MPD2    H513820   3.695   1.985  10.382 -0.8544  1.9995  0.0373
  941MPD2    N113821   4.040   2.381  10.169  0.6736  0.6172 -0.6551
  941MPD2    H713822   4.078   2.410  10.258 -0.0187 -1.8006  0.4059
  942MPD2     C13823   4.427   3.340   8.711 -0.3382 -0.1137 -0.3750
  942MPD2    C113824   4.328   3.433   8.693  0.6967  0.3210 -0.3627
  942MPD2    C213825   4.341   3.565   8.751 -0.3603  0.6833  0.6047
  942MPD2    C313826   4.441   3.590   8.841 -0.3687 -0.3420  0.1987
  942MPD2    C413827   4.543   3.498   8.859  0.6212 -0.1839  0.3004
  942MPD2    C513828   4.534   3.375   8.797  0.3907 -0.8710 -0.9609
  942MPD2     H13829   4.265   3.640   8.737 -0.6640  0.4892  1.2019
  942MPD2    H113830   4.630   3.510   8.923 -1.5376  0.4228  3.1311
  942MPD2    H213831   4.423   3.235   8.682 -0.6988 -0.1377 -0.2433
  942MPD2    H313832   4.613   3.302   8.809  0.7921 -0.9276 -3.8596
  942MPD2     N13833   4.455   3.710   8.910 -0.2059 -0.1402 -0.2742
  942MPD2    H513834   4.532   3.715   8.976 -1.8855 -2.0534  1.8310
  942MPD2    N113835   4.206   3.406   8.625 -0.1678 -0.5250 -0.0079
  942MPD2    H713836   4.137   3.480   8.612  0.5873  0.1601 -0.1715
  943MPD2     C13837   2.963   1.692  10.014 -0.0351 -0.4092  0.2128
  943MPD2    C113838   3.061   1.759  10.083  0.4177 -0.2917  0.4751
  943MPD2    C213839   3.099   1.883  10.044  0.3301 -0.6998 -0.4897
  943MPD2    C313840   3.044   1.938   9.930 -0.7308 -0.5566 -0.1159
  943MPD2    C413841   2.939   1.875   9.870  0.4533 -0.0098 -0.4154
  943MPD2    C513842   2.899   1.751   9.913  0.2960 -0.3868  0.0938
  943MPD2     H13843   3.177   1.938  10.096  1.9453 -1.8085 -1.7143
  943MPD2    H113844   2.880   1.925   9.794  0.4198 -0.5450 -0.7428
  943MPD2    H213845   2.935   1.591  10.041 -0.4882 -0.3679 -0.1073
  943MPD2    H313846   2.820   1.694   9.867 -0.0349  0.8904 -0.9202
  943MPD2     N13847   3.062   2.079   9.902 -0.0201 -0.4128 -0.0411
  943MPD2    H513848   3.001   2.124   9.835  1.7782  0.3275 -1.1951
  943MPD2    N113849   3.100   1.691  10.198 -0.2437  0.2429  0.0105
  943MPD2    H713850   3.050   1.609  10.229  0.6049 -0.5855 -0.8000
  944MPD2     C13851   1.900   1.520  10.979  0.3326 -0.1683  0.2263
  944MPD2    C113852   1.915   1.475  11.110 -0.1375 -0.4990  0.4238
  944MPD2    C213853   1.913   1.572  11.210 -0.3149 -0.3329 -0.2463
  944MPD2    C313854   1.892   1.708  11.190  0.8559  0.2262  0.1544
  944MPD2    C413855   1.865   1.747  11.059  0.0559  0.3266  0.1735
  944MPD2    C513856   1.867   1.654  10.959 -0.3493 -0.4169  0.8469
  944MPD2     H13857   1.939   1.533  11.308  1.3074 -1.4768 -1.1228
  944MPD2    H113858   1.837   1.850  11.037  0.2612  0.5638  1.0148
  944MPD2    H213859   1.885   1.452  10.895  1.4231 -0.5514  0.3443
  944MPD2    H313860   1.827   1.685  10.863 -1.0131 -1.5087  0.7689
  944MPD2     N13861   1.906   1.798  11.299 -0.0440  0.4691  0.4634
  944MPD2    H513862   1.926   1.759  11.391  0.0330  0.2496  0.3532
  944MPD2    N113863   1.937   1.342  11.137  0.0134  0.0972  0.1702
  944MPD2    H713864   1.957   1.284  11.056 -0.0533  0.1446  0.1201
    1TMC1    C113865   0.376   1.874  14.226  0.6302  0.7090 -0.3434
    1TMC1    C213866   0.253   1.905  14.180 -0.6935  0.2896  0.6694
    1TMC1    C313867   0.176   1.811  14.124 -0.4149  0.6477  0.4400
    1TMC1    C413868   0.426   1.743  14.216 -0.4586  0.1335  0.1683
    1TMC1    C513869   0.348   1.654  14.147  0.8660 -0.2668 -0.4034
    1TMC1    C613870   0.225   1.685  14.103 -0.7162  0.0790  0.2689
    1TMC1     C13871   0.454   1.974  14.300 -0.4879 -0.2088 -1.1297
    1TMC1     O13872   0.559   1.920  14.343 -0.1729 -0.8652 -0.4338
    1TMC1     H13873   0.222   2.009  14.191 -1.8524 -0.1688  1.8163
    1TMC1    H113874   0.533   1.723  14.220 -0.5314 -0.8083 -2.2589
    1TMC1    H213875   0.166   1.611  14.049  0.7403  0.0304 -1.2594
    1TMC1    C713876   0.384   1.513  14.152  0.2986  0.1764 -0.4434
    1TMC1    C813877   0.058   1.845  14.049 -0.1188 -0.4442  0.2702
    1TMC1    O113878   0.319   1.424  14.094  0.4617 -0.9041  0.0534
    1TMC1    O213879   0.069   1.847  13.927 -0.8435  0.0802  0.2050
    1TMC1    O313880   0.411   1.513  14.287  0.4206  0.2017 -0.8652
    1TMC1    H313881   0.500   1.551  14.304  0.2577  0.0235  0.3870
    1TMC1    O513882   4.725   1.937  14.115 -0.5901  0.0228  0.2019
    1TMC1    H513883   0.008   1.943  14.211 -0.5341  0.1653  0.1821
    2MPD2     C13884   0.630   2.438  14.405 -0.1478 -0.4300  0.5845
    2MPD2    C113885   0.505   2.450  14.350  0.0969  0.1879 -0.6731
    2MPD2    C213886   0.435   2.334  14.312  0.4144  0.2519 -0.1388
    2MPD2    C313887   0.490   2.209  14.331  0.3340 -0.4105 -1.1671
    2MPD2    C413888   0.617   2.198  14.385 -0.9184  0.2796  0.5504
    2MPD2    C513889   0.683   2.313  14.430 -0.1150 -0.5164  0.3928
    2MPD2     H13890   0.338   2.339  14.264  0.8267 -0.0765 -1.0117
    2MPD2    H113891   0.665   2.104  14.412  0.1160  0.7363  0.2852
    2MPD2    H213892   0.689   2.527  14.427 -1.1369  0.6414 -1.0649
    2MPD2    H313893   0.785   2.308  14.467  0.5330  1.3703 -1.1308
    2MPD2     N13894   0.409   2.102  14.297  0.4456 -0.2329 -0.1950
    2MPD2    H513895   0.322   2.123  14.248  1.2436 -0.1105 -1.5679
    2MPD2    N113896   0.464   2.586  14.334 -0.8712 -0.0330  0.1177
    2MPD2    H713897   0.521   2.658  14.377  0.0291 -0.8611  0.2992
    3TMC2    C113898   0.325   2.765  14.341  0.0560 -0.1427  0.1825
    3TMC2    C213899   0.203   2.816  14.372  0.0934 -0.1523  0.4508
    3TMC2    C313900   0.174   2.946  14.340 -0.2351  0.7257  0.3472
    3TMC2    C413901   0.428   2.851  14.293 -0.2889 -0.1359  0.7536
    3TMC2    C513902   0.405   2.979  14.277  0.3413  0.1979 -0.7779
    3TMC2    C613903   0.277   3.028  14.302  0.5523 -0.3329  0.4178
    3TMC2     C13904   0.330   2.620  14.328 -0.2866 -0.4224  0.1987
    3TMC2     O13905   0.229   2.551  14.322 -0.4250  0.2421 -0.2091
    3TMC2     H13906   0.131   2.745  14.411  1.7647 -2.5525 -0.8371
    3TMC2    H113907   0.526   2.817  14.263 -0.6715 -1.6994  1.2494
    3TMC2    H213908   0.258   3.135  14.310  0.7743 -0.1931 -1.0275
    3TMC2    C713909   0.483   3.050  14.181  0.1946  0.0611 -0.2195
    3TMC2    C813910   0.072   3.015  14.425  0.9506 -0.4021  0.4581
    3TMC2    O113911   0.606   3.062  14.179 -0.1414 -0.6030  0.2519
    3TMC2    O213912   0.099   3.113  14.493  0.0780  0.2161  0.3659
    3TMC2    O513913   4.686   2.968  14.399  0.2062 -0.1593 -0.4947
    3TMC2    H513914   4.682   2.914  14.316 -2.3072  0.3546 -0.6932
    4TMC2    C113915   4.581   3.482  13.574 -0.1782  1.0359  0.0146
    4TMC2    C213916   4.481   3.543  13.648  0.0549  0.5941 -0.0261
    4TMC2    C313917   4.512   3.573  13.782  0.0178  0.7420 -0.0309
    4TMC2    C413918   4.699   3.449  13.632 -0.2569 -0.1617 -0.0603
    4TMC2    C513919   4.723   3.481  13.763  0.9469 -0.2134  0.3008
    4TMC2    C613920   4.631   3.543  13.840  0.2655 -0.3725  0.1906
    4TMC2     C13921   4.549   3.436  13.442  0.0814  0.5518  0.6809
    4TMC2     O13922   4.627   3.360  13.386  0.0716 -0.0575 -0.0292
    4TMC2     H13923   4.388   3.576  13.604  0.0859  0.1443 -0.4362
    4TMC2    H113924   0.034   3.382  13.586 -0.2880 -0.3851  0.2143
    4TMC2    H213925   4.670   3.576  13.936  2.0889 -0.6245 -0.4646
    4TMC2    C713926   0.093   3.412  13.830 -0.3744  0.2981  0.0177
    4TMC2    C813927   4.396   3.591  13.868 -0.0993 -0.1111 -0.4253
    4TMC2    O113928   0.076   3.385  13.949 -1.2247 -0.2560  0.5438
    4TMC2    O213929   4.287   3.612  13.820 -0.3643  0.4032 -0.4972
    4TMC2    O513930   4.420   3.526  13.985  0.2263 -0.0703 -0.0024
    4TMC2    H513931   4.515   3.507  13.994  0.4238  0.1854 -1.4862
    5MPD2     C13932   4.263   3.499  13.018  0.6231  0.4850  0.4738
    5MPD2    C113933   4.203   3.572  13.117 -0.6663 -0.0001  0.4682
    5MPD2    C213934   4.260   3.557  13.241  0.0219  0.3077 -0.1161
    5MPD2    C313935   4.372   3.481  13.265  0.5594  0.1567  0.0627
    5MPD2    C413936   4.425   3.407  13.162 -0.2790 -0.3883  0.8639
    5MPD2    C513937   4.372   3.420  13.033  0.4945 -0.1455  0.4870
    5MPD2     H13938   4.215   3.611  13.323  1.4272 -0.3841  1.1022
    5MPD2    H113939   4.511   3.344  13.182  2.2039  2.5862 -0.5115
    5MPD2    H213940   4.215   3.497  12.921  0.8867  2.3489  0.2993
    5MPD2    H313941   4.412   3.361  12.951  1.0929  1.3319 -0.2771
    5MPD2     N13942   4.436   3.492  13.394 -0.0064 -0.0561 -0.6337
    5MPD2    H513943   4.392   3.562  13.452  0.2303 -0.4452  0.0191
    5MPD2    N113944   4.074   3.631  13.094 -0.4212 -0.3091  0.3994
    5MPD2    H713945   4.030   3.604  13.007  0.1581  1.8765 -0.5813
    6MPD1     C13946   3.570   0.411  13.883 -0.2397  0.0902  0.1341
    6MPD1    C113947   3.632   0.440  13.762 -0.3832 -0.4750 -0.0806
    6MPD1    C213948   3.738   0.362  13.713  0.4656 -0.2469 -0.1035
    6MPD1    C313949   3.774   0.244  13.782  0.3271  0.3922  0.3744
    6MPD1    C413950   3.706   0.203  13.897  0.0119  0.1408 -0.3716
    6MPD1    C513951   3.601   0.286  13.939 -0.5231  0.7473  0.0910
    6MPD1     H13952   3.789   0.398  13.624  2.6191  0.5912  1.4827
    6MPD1    H113953   3.725   0.113  13.954 -0.5869 -0.0411 -0.4538
    6MPD1    H213954   3.482   0.456  13.926 -0.5015 -0.1434 -0.1636
    6MPD1    H313955   3.551   0.255  14.030  1.1198  0.7697  0.9870
    6MPD1     N13956   3.876   0.164  13.736  0.8313  0.8254  0.1000
    6MPD1    H513957   3.896   0.084  13.794 -1.7604 -1.3762 -2.0234
    6MPD1    N113958   3.601   0.560  13.694 -0.3560  0.5433  0.6086
    6MPD1    H613959   3.632   0.557  13.597  1.5938  0.3935  1.2286
    6MPD1    H713960   3.501   0.578  13.700 -0.9426 -2.3856  0.0049
    7MPD2     C13961   3.998   4.180  13.718 -0.0875 -0.2391 -0.6068
    7MPD2    C113962   3.950   4.243  13.604 -0.0106  0.1552  0.8613
    7MPD2    C213963   3.895   4.174  13.501 -0.0012 -0.1214 -0.5390
    7MPD2    C313964   3.871   4.040  13.522  0.8114  0.2314 -0.2746
    7MPD2    C413965   3.925   3.979  13.635 -0.2496 -0.2379  0.3212
    7MPD2    C513966   3.980   4.050  13.733  0.2066 -0.1020 -0.2813
    7MPD2     H13967   3.857   4.230  13.416  0.9058  0.8381 -0.3186
    7MPD2    H113968   3.927   3.872  13.652 -0.7145 -0.4724 -1.1065
    7MPD2    H213969   4.061   4.225  13.794 -0.4446  3.1936 -2.3328
    7MPD2    H313970   4.016   4.007  13.825  2.3274 -0.6694 -1.3808
    7MPD2     N13971   3.815   3.955  13.424  0.7005 -0.0071  1.0046
    7MPD2    H513972   3.828   3.855  13.437 -1.0887 -0.5495 -1.3623
    7MPD2    N113973   3.979   4.381  13.573 -0.7266 -0.7004 -0.3644
    7MPD2    H713974   3.952   4.417  13.482 -0.8362 -2.1140 -0.8954
    8TMC3    C113975   3.738   3.918  13.195 -0.1683 -0.0532  0.3905
    8TMC3    C213976   3.802   3.796  13.211 -0.1740 -0.2889  0.6068
    8TMC3    C313977   3.894   3.764  13.113 -0.0475 -0.1689 -0.2680
    8TMC3    C413978   3.745   3.996  13.081  0.3397 -0.9070 -0.1054
    8TMC3    C513979   3.847   3.957  12.994 -0.0671  0.0483  0.2020
    8TMC3    C613980   3.925   3.844  13.009 -0.0160 -1.0447 -0.2550
    8TMC3     C13981   3.752   4.007  13.309  0.0489 -0.4559 -0.6564
    8TMC3     O13982   3.719   4.123  13.288 -0.0347 -0.2810 -0.9872
    8TMC3     H13983   3.792   3.736  13.300 -2.0718 -1.1213 -0.1680
    8TMC3    H113984   3.681   4.081  13.062  2.1014  0.4679  0.1730
    8TMC3    H213985   4.009   3.820  12.946  0.0548 -1.5652  0.0319
    8TMC3    C713986   3.912   4.072  12.937  0.6679 -0.2872  0.1855
    8TMC3    C813987   4.005   3.702  13.180  0.0402  0.4368 -0.4549
    8TMC3    O113988   3.975   4.059  12.829 -0.1131  0.3055  0.1931
    8TMC3    O213989   4.042   3.747  13.288 -1.0048 -0.4827  0.3322
    9TMC3    C113990   4.049   0.077  13.594  0.2605  0.3521 -0.6155
    9TMC3    C213991   4.095   0.086  13.466  0.0523 -0.0530  0.0966
    9TMC3    C313992   4.114   4.703  13.400  0.2918  0.3346 -0.3981
    9TMC3    C413993   4.044   4.699  13.663 -0.2858  0.6508 -0.5809
    9TMC3    C513994   4.082   4.583  13.596  0.2749  0.0099  0.2070
    9TMC3    C613995   4.096   4.584  13.461 -0.4460  0.0899  0.1148
    9TMC3     C13996   3.949   0.185  13.618 -0.3617  0.7014  0.4101
    9TMC3     O13997   3.924   0.264  13.527 -0.5776 -0.0772  0.3315
    9TMC3     H13998   4.097   0.180  13.411 -0.2476 -0.0985  0.0063
    9TMC3    H113999   4.008   4.698  13.765 -0.9974  1.3723 -0.8336
    9TMC3    H214000   4.137   4.496  13.412  0.4291  0.7401 -0.3204
    9TMC3    C714001   4.034   4.466  13.662 -0.4303  0.2345  0.0916
    9TMC3    C814002   4.101   4.697  13.257 -0.3136  0.2105  0.1961
    9TMC3    O114003   4.051   4.454  13.783  0.8544  0.0963  0.4538
    9TMC3    O214004   4.126   0.059  13.191 -0.4940  1.0700 -0.0433
   10MPD2     C14005   4.026   4.351  12.885 -0.2770  0.1328  0.2376
   10MPD2    C114006   3.965   4.310  13.001  0.2550 -0.2686  0.1366
   10MPD2    C214007   3.956   4.394  13.113  0.0449  0.3424  0.5638
   10MPD2    C314008   4.027   4.516  13.104  0.1638  0.5128  0.4716
   10MPD2    C414009   4.095   4.553  12.989 -0.1479 -0.4095 -0.7959
   10MPD2    C514010   4.095   4.469  12.882  0.4556  0.4447 -0.2307
   10MPD2     H14011   3.898   4.368  13.201 -1.0344  0.5823 -0.0616
   10MPD2    H114012   4.139   4.653  12.984  0.4388 -0.5557  1.3489
   10MPD2    H214013   4.014   4.297  12.792 -0.2048  0.8719 -0.2053
   10MPD2    H314014   4.131   4.497  12.784  1.0959  0.2082 -0.0653
   10MPD2     N14015   4.031   4.586  13.222  0.3167  0.2239  0.5116
   10MPD2    H514016   3.989   4.545  13.305 -2.6730  1.5047 -0.3975
   10MPD2    N114017   3.912   4.179  13.026 -0.0311  0.5600 -0.0968
   10MPD2    H714018   3.887   4.154  13.121  0.0359  0.1726 -0.1797
   11MPD2     C14019   0.534   3.200  13.905 -0.4922  0.3602  0.6013
   11MPD2    C114020   0.408   3.174  13.967  0.4542 -0.4733 -0.0009
   11MPD2    C214021   0.299   3.237  13.909 -0.1947  0.1470  0.3387
   11MPD2    C314022   0.316   3.326  13.806  0.7471 -0.2192 -0.0742
   11MPD2    C414023   0.438   3.345  13.749  0.5567  0.0362  0.9043
   11MPD2    C514024   0.545   3.284  13.801 -0.1902 -0.1030  0.3360
   11MPD2     H14025   0.205   3.208  13.954 -0.1005 -1.0226 -0.2315
   11MPD2    H114026   0.447   3.416  13.668  0.9019 -1.6822 -0.5820
   11MPD2    H214027   0.621   3.142  13.935  0.2325  1.0825 -0.0880
   11MPD2    H314028   0.637   3.303  13.747  0.6588 -1.9925  1.1299
   11MPD2     N14029   0.211   3.400  13.754  0.4166 -0.3712  0.3153
   11MPD2    H514030   0.228   3.466  13.679 -3.0448 -0.0179 -0.1543
   11MPD2    N114031   0.394   3.106  14.092 -0.1604 -0.2751  1.1176
   11MPD2    H714032   0.296   3.090  14.116 -0.0819  0.9534  2.2374
    1MPD1     C14033   3.691   0.192  16.934 -0.0629 -0.2607  0.5289
    1MPD1    C114034   3.629   0.071  16.934 -0.4230 -0.3703 -0.0934
    1MPD1    C214035   3.500   0.062  16.888 -0.6194  0.8184 -0.1967
    1MPD1    C314036   3.423   0.176  16.857 -0.2541 -0.8396 -0.6509
    1MPD1    C414037   3.489   0.297  16.860  0.5279 -0.2453  0.5199
    1MPD1    C514038   3.623   0.304  16.890  0.1916  0.1298 -0.2816
    1MPD1     H14039   3.458   4.701  16.867 -1.3950  0.9939  0.5328
    1MPD1    H114040   3.431   0.385  16.836 -2.0626 -2.7735 -2.5088
    1MPD1    H214041   3.784   0.221  16.983 -0.1494 -0.2272  0.6758
    1MPD1    H314042   3.663   0.405  16.889  0.9552 -0.1728 -0.4082
    1MPD1     N14043   3.286   0.174  16.831 -0.1440  0.3830  0.3809
    1MPD1    H514044   3.235   0.261  16.839  0.3271  0.6991 -0.0877
    1MPD1    N114045   3.705   4.692  16.968  0.4156 -0.0114 -0.1767
    1MPD1    H614046   3.774   4.721  17.038 -0.4975  1.0494  0.2826
    1MPD1    H714047   3.656   4.613  17.009 -1.5450  0.5633 -1.4366
    2MPD1     C14048   2.332   4.358  16.699  0.2016  0.3508 -0.4851
    2MPD1    C114049   2.346   4.468  16.613  0.2737 -0.1441 -0.4761
    2MPD1    C214050   2.441   4.563  16.639  0.4416  0.2132  0.1809
    2MPD1    C314051   2.538   4.541  16.737  1.2003  0.5171 -0.5261
    2MPD1    C414052   2.518   4.441  16.824  0.1470  0.3056 -0.8204
    2MPD1    C514053   2.421   4.346  16.799 -0.6824  0.1926  0.1996
    2MPD1     H14054   2.447   4.655  16.582 -1.1168  0.0724 -0.2144
    2MPD1    H114055   2.577   4.423  16.913 -1.0130 -0.3701 -0.1903
    2MPD1    H214056   2.242   4.299  16.700 -0.2421  1.1150  2.2702
    2MPD1    H314057   2.411   4.265  16.870  2.6274 -1.4224 -1.1796
    2MPD1     N14058   2.645   4.639  16.743 -0.2621 -0.2444  0.3908
    2MPD1    H514059   2.637   4.728  16.695 -0.8854 -0.7746 -0.4865
    2MPD1    N114060   2.238   4.498  16.525 -0.1980  0.3002 -0.4565
    2MPD1    H614061   2.191   4.412  16.497  1.0482 -0.4899 -0.1239
    2MPD1    H714062   2.279   4.542  16.443  1.0254 -0.6533 -0.3416
    3TMC3    C114063   2.851   4.734  16.801  0.6196  0.0349 -0.2796
    3TMC3    C214064   2.792   0.119  16.796 -0.0498 -0.7221  0.9164
    3TMC3    C314065   2.878   0.221  16.777  0.4358  0.1101  0.0019
    3TMC3    C414066   2.987   4.709  16.796 -0.2482  0.1303  0.2415
    3TMC3    C514067   3.070   0.079  16.791 -0.0375  0.3101  0.4142
    3TMC3    C614068   3.015   0.205  16.773 -0.5745 -0.7030  1.0487
    3TMC3     C14069   2.763   4.621  16.811  0.5673 -1.2162  0.0567
    3TMC3     O14070   2.810   4.519  16.866 -0.4725  0.3137 -0.7963
    3TMC3     H14071   2.687   0.144  16.806 -0.0885 -1.0258  1.2708
    3TMC3    H114072   3.014   4.605  16.803 -3.2642 -0.7726 -1.3239
    3TMC3    H214073   3.067   0.300  16.759  0.1736 -1.2493  0.0945
    3TMC3    C714074   3.210   0.056  16.809  0.4536  0.3170  0.5683
    3TMC3    C814075   2.818   0.358  16.766  0.2670 -0.5218 -0.1334
    3TMC3    O114076   3.246   4.677  16.803  0.1671 -0.3747 -0.2332
    3TMC3    O214077   2.886   0.451  16.804 -0.2114  0.2064 -0.3687
    4MPD1     C14078   2.479   0.702  16.600  0.1871 -0.0414  0.2211
    4MPD1    C114079   2.449   0.578  16.549 -0.4468 -0.1854 -0.1265
    4MPD1    C214080   2.523   0.471  16.588 -0.5380 -0.0654 -0.0211
    4MPD1    C314081   2.627   0.478  16.677 -0.5078  0.2365  0.1943
    4MPD1    C414082   2.655   0.600  16.736  0.5501 -0.0987  0.2692
    4MPD1    C514083   2.578   0.711  16.700 -0.0306 -0.3656  0.4995
    4MPD1     H14084   2.505   0.375  16.541 -3.2579  0.4440 -0.0016
    4MPD1    H114085   2.719   0.606  16.823  0.1609  1.7960  0.4160
    4MPD1    H214086   2.438   0.793  16.557  1.5861  0.8199  0.7120
    4MPD1    H314087   2.610   0.809  16.733  1.7613 -0.9535  0.4707
    4MPD1     N14088   2.700   0.360  16.698  0.4592  0.2901 -0.0873
    4MPD1    H514089   2.664   0.270  16.671 -0.4571  0.7305 -0.3377
    4MPD1    N114090   2.381   0.560  16.427 -0.4799  0.1080  0.0664
    4MPD1    H614091   2.350   0.464  16.409  2.6174 -1.2057  1.8228
    4MPD1    H714092   2.301   0.622  16.416  0.2869  1.1411  0.3204
    1TCq1    O114093   0.061   0.025  11.370  0.5534  0.3013 -0.2719
    1TCq1    C114094   4.736   4.649  11.325 -0.3630 -0.0439 -0.4856
    1TCq1    O214095   4.685   4.562  11.401 -0.5305 -0.1864  0.8383
    1TCq1    C214096   4.704   4.660  11.179  0.2039 -0.3716  0.0590
    1TCq1    C314097   0.056   4.731  11.096  0.4049 -0.0211  0.3548
    1TCq1    C414098   0.014   0.021  10.971 -0.3057 -0.1290  0.1830
    1TCq1    C514099   4.612   0.001  10.929  0.1221  0.1105  0.3489
    1TCq1    C614100   4.535   4.667  11.019  0.1506  0.5788 -0.0572
    1TCq1    C714101   4.580   4.628  11.141 -0.6892 -0.4972 -0.1372
    1TCq1    C814102   4.393   4.628  10.991  0.4905 -0.5556 -0.2493
    1TCq1    O414103   4.353   4.522  11.042  0.4702 -0.3381  0.2876
    1TCq1    C914104   0.081   0.130  10.899 -0.1834  0.0818 -0.1460
    1TCq1    O514105   0.018   0.194  10.813 -0.5631  0.6450  0.2271
    1TCq1    O614106   0.191   0.165  10.948  0.1145  0.3315 -0.8903
    1TCq1    H114107   0.090   0.082  11.295  2.4777 -0.3404  0.0080
    1TCq1    H214108   0.159   0.010  11.125  0.1327  1.5417  0.4721
    1TCq1    H314109   4.579   0.021  10.827 -0.1720 -0.2237  0.3766
    1TCq1    H414110   4.524   4.580  11.220 -0.3344  1.2205  1.1472
    2MPD1     C14111   3.939   4.699  10.749  0.2915 -0.0452 -0.1637
    2MPD1    C114112   4.019   0.071  10.716  0.3816  0.1814 -0.7237
    2MPD1    C214113   4.149   0.068  10.765 -0.3451 -0.6813 -0.3105
    2MPD1    C314114   4.196   4.700  10.853 -0.0240 -0.0747  0.0536
    2MPD1    C414115   4.110   4.595  10.882 -0.3458 -0.0534 -0.3911
    2MPD1    C514116   3.988   4.593  10.819 -0.0577 -0.1759  0.2445
    2MPD1     H14117   4.212   0.151  10.738  0.5955 -0.8264  1.4717
    2MPD1    H114118   4.140   4.511  10.944 -1.2247 -0.1219 -0.0549
    2MPD1    H214119   3.837   4.696  10.712  0.2261 -2.1816  0.1932
    2MPD1    H314120   3.922   4.507  10.834 -0.8179  0.4507  0.5264
    2MPD1     N14121   4.325   4.713  10.899 -0.1777 -0.2310  0.3227
    2MPD1    H514122   4.370   0.065  10.877  0.5903 -0.1633  2.1501
    2MPD1    N114123   3.965   0.179  10.636 -0.0557 -0.0297  0.1946
    2MPD1    H614124   4.032   0.255  10.639 -0.5452  0.4345 -0.7495
    2MPD1    H714125   3.883   0.212  10.687  0.7640 -0.2004  1.6312
    1TMC1    C114126   0.139   2.572   9.739  0.3692 -0.1514  0.7321
    1TMC1    C214127   0.184   2.659   9.847 -0.1419 -0.0235 -0.2424
    1TMC1    C314128   0.278   2.747   9.798 -0.1561 -0.4603 -0.0030
    1TMC1    C414129   0.178   2.579   9.608 -0.1917  0.2129 -0.0658
    1TMC1    C514130   0.269   2.674   9.581  0.1358  0.2230 -0.1528
    1TMC1    C614131   0.319   2.762   9.670 -0.1910 -1.3944  0.4142
    1TMC1     C14132   0.059   2.458   9.782  0.0779  0.3853  0.6895
    1TMC1     O14133   0.047   2.451   9.903 -0.3001 -0.0945  0.0496
    1TMC1     H14134   0.160   2.641   9.951 -0.3899  5.1682  0.5901
    1TMC1    H114135   0.140   2.519   9.526  1.2871 -0.6115 -0.1408
    1TMC1    H214136   0.395   2.832   9.639 -1.3693 -0.0480  0.5508
    1TMC1    C714137   0.320   2.692   9.452  0.1551 -0.1579 -0.0837
    1TMC1    C814138   0.304   2.863   9.876 -0.2045 -0.2983  0.7198
    1TMC1    O114139   0.369   2.802   9.428 -0.1731 -0.0493 -0.0497
    1TMC1    O214140   0.391   2.945   9.856 -0.4129  0.2819  0.0800
    1TMC1    O314141   0.358   2.572   9.398  0.4134 -0.7828 -0.5589
    1TMC1    H314142   0.336   2.497   9.457 -0.3543 -0.8153 -0.8791
    1TMC1    O514143   0.189   2.887   9.940  0.0457 -0.0488  0.0237
    1TMC1    H514144   0.143   2.803   9.961  2.5942 -1.5790 -0.5264
    2MPD1     C14145   4.519   2.029   9.730 -0.5129 -0.5517  0.0634
    2MPD1    C114146   4.550   2.076   9.604  0.2938 -0.4505 -0.1866
    2MPD1    C214147   4.636   2.186   9.592 -0.4595  0.1186 -0.2652
    2MPD1    C314148   4.680   2.257   9.706  0.2702 -0.0583  0.4464
    2MPD1    C414149   4.641   2.215   9.831  0.2493  0.7228 -0.3312
    2MPD1    C514150   4.557   2.102   9.839 -0.7422 -0.2513  0.0079
    2MPD1     H14151   4.669   2.213   9.493 -1.5593 -1.4736 -1.0639
    2MPD1    H114152   4.680   2.267   9.918 -1.1923 -1.3485  1.5530
    2MPD1    H214153   4.466   1.936   9.744 -1.0602 -0.6672 -2.7112
    2MPD1    H314154   4.537   2.058   9.936 -3.2463 -0.6033 -0.6638
    2MPD1     N14155   0.033   2.361   9.688  0.1383 -0.0197  0.1103
    2MPD1    H514156   0.058   2.384   9.592 -0.1914 -4.2970 -0.9951
    2MPD1    N114157   4.527   1.990   9.491 -0.2094  0.2147 -0.1023
    2MPD1    H614158   4.523   2.035   9.399 -1.2017 -0.1512 -0.2351
    2MPD1    H714159   4.446   1.929   9.495 -0.6619  0.7993 -0.3848
    1MPD1     C14160   1.331   3.297  11.921 -0.4754 -0.0912  0.6842
    1MPD1    C114161   1.308   3.418  11.975 -1.0118  0.2837 -0.1347
    1MPD1    C214162   1.289   3.530  11.899 -0.2377 -1.1030 -0.0663
    1MPD1    C314163   1.290   3.517  11.762 -0.1574  0.8087  0.0065
    1MPD1    C414164   1.315   3.402  11.702 -0.0360  0.5488 -0.5021
    1MPD1    C514165   1.345   3.294  11.783  0.2485  0.3736 -0.6593
    1MPD1     H14166   1.271   3.629  11.938  0.1794 -0.2794 -1.9850
    1MPD1    H114167   1.331   3.379  11.598  2.1763  0.1508 -0.0800
    1MPD1    H214168   1.356   3.206  11.976 -2.5203  0.6615  2.8305
    1MPD1    H314169   1.391   3.212  11.729  1.3095  0.3036  0.3624
    1MPD1     N14170   1.277   3.639  11.688  0.2397 -0.1265 -0.2616
    1MPD1    H514171   1.283   3.729  11.734 -0.9997  1.2132 -2.6969
    1MPD1    N114172   1.293   3.416  12.118 -0.0050  0.7616  0.0674
    1MPD1    H614173   1.318   3.503  12.165  1.7086 -1.3760  3.0847
    1MPD1    H714174   1.338   3.336  12.162 -0.7337  0.0549 -0.4749
    2MPD1     C14175   0.413   3.980  11.552 -1.0018  0.4706  0.0385
    2MPD1    C114176   0.314   3.917  11.477 -0.3299 -0.4350  0.0577
    2MPD1    C214177   0.302   3.947  11.349 -0.5390  0.4010 -0.0625
    2MPD1    C314178   0.384   4.033  11.281 -0.5183 -0.3820 -0.1904
    2MPD1    C414179   0.487   4.087  11.354  0.2093 -0.2991 -0.4320
    2MPD1    C514180   0.508   4.053  11.483 -0.2093  0.1800  0.7866
    2MPD1     H14181   0.230   3.886  11.296 -1.3327  1.8977 -0.6986
    2MPD1    H114182   0.554   4.156  11.304 -1.2220  1.2697 -0.2047
    2MPD1    H214183   0.421   3.973  11.660 -0.8460 -2.2946 -0.1421
    2MPD1    H314184   0.595   4.090  11.537  1.0379  0.7978 -1.6724
    2MPD1     N14185   0.370   4.066  11.141  0.3454 -0.2254 -0.1386
    2MPD1    H514186   0.443   4.120  11.096 -0.1346  0.2528 -0.3392
    2MPD1    N114187   0.209   3.837  11.539 -0.1511  0.5193 -0.2466
    2MPD1    H614188   0.150   3.793  11.469  0.0901  0.2695 -0.2919
    2MPD1    H714189   0.256   3.775  11.604 -1.0295  0.5833  0.4419
    3MPD1     C14190   4.288   3.941  10.609  1.1227 -0.1760 -0.0600
    3MPD1    C114191   4.318   3.928  10.742 -0.4445  0.2604  0.3380
    3MPD1    C214192   4.449   3.965  10.776  0.6013  0.0852 -0.5449
    3MPD1    C314193   4.539   4.015  10.685 -0.1212  0.6241 -0.6135
    3MPD1    C414194   4.500   4.020  10.550  0.8261  0.2614 -0.0919
    3MPD1    C514195   4.372   3.996  10.517 -0.1484  0.5034  0.1692
    3MPD1     H14196   4.488   3.942  10.875  2.4131  0.4266 -1.1739
    3MPD1    H114197   4.566   4.052  10.470 -0.5066 -0.9266 -1.6615
    3MPD1    H214198   4.192   3.903  10.577  0.0812 -0.2017  3.0997
    3MPD1    H314199   4.357   3.984  10.411 -2.1234 -0.4440  0.5483
    3MPD1     N14200   4.668   4.051  10.737  0.0818 -0.5857  0.0908
    3MPD1    H514201   4.684   4.052  10.837 -1.0884 -0.0575  0.2789
    3MPD1    N114202   4.220   3.907  10.838 -1.1220 -0.1941  0.2918
    3MPD1    H614203   4.260   3.871  10.924 -0.1944  0.8919  0.3162
    3MPD1    H714204   4.141   3.855  10.800  0.0409 -1.9253  0.2401
    4MPD2     C14205   0.849   4.258  11.530 -0.6080  0.0034 -0.1521
    4MPD2    C114206   0.981   4.278  11.492 -0.3463  0.9354  0.6433
    4MPD2    C214207   1.014   4.387  11.409  0.5663  0.2663  0.1769
    4MPD2    C314208   0.920   4.485  11.377 -0.5410  0.8604 -0.0893
    4MPD2    C414209   0.790   4.468  11.427 -0.2950 -0.7954  0.1184
    4MPD2    C514210   0.761   4.360  11.506 -0.6621 -0.2638 -0.5102
    4MPD2     H14211   1.119   4.400  11.385  0.6591 -1.2752 -0.2299
    4MPD2    H114212   0.711   4.540  11.411 -0.4758 -1.3362 -1.4137
    4MPD2    H214213   0.808   4.168  11.576  0.6533 -1.2221 -1.4312
    4MPD2    H314214   0.660   4.344  11.540 -1.1661 -1.2722 -2.5303
    4MPD2     N14215   0.940   4.598  11.287 -0.0204 -0.1508  0.5585
    4MPD2    H514216   0.867   4.622  11.220 -0.4465 -2.3821  0.2165
    4MPD2    N114217   1.084   4.189  11.526 -0.0653  0.3302  0.2865
    4MPD2    H714218   1.178   4.217  11.498 -0.3478  0.3585 -0.6186
    5TMC3    C114219   1.190   3.992  11.537  0.0688 -0.3679  0.2761
    5TMC3    C214220   1.195   3.860  11.574 -0.0590 -0.7758 -0.1843
    5TMC3    C314221   1.250   3.769  11.493  0.0953 -0.2089  0.5576
    5TMC3    C414222   1.241   4.028  11.409  0.2236  0.1325 -0.7971
    5TMC3    C514223   1.294   3.928  11.333 -0.4996  0.4388  0.7524
    5TMC3    C614224   1.304   3.796  11.367  0.0212  0.2657 -0.2187
    5TMC3     C14225   1.071   4.065  11.574  0.7376  0.0210 -0.5767
    5TMC3     O14226   0.975   3.997  11.614 -0.1704  0.1871 -0.4355
    5TMC3     H14227   1.130   3.839  11.658  2.8245 -2.1069  1.7252
    5TMC3    H114228   1.244   4.130  11.372 -0.9485  0.3626 -0.2518
    5TMC3    H214229   1.355   3.718  11.312 -0.8514  0.2545 -1.0125
    5TMC3    C714230   1.377   3.982  11.226  0.0119  0.3849  0.4270
    5TMC3    C814231   1.269   3.635  11.554  0.4898 -0.3986  0.3720
    5TMC3    O114232   1.434   4.086  11.257  0.2530 -0.3496 -0.3595
    5TMC3    O214233   1.250   3.542  11.474 -0.1640  0.3794 -0.4734
    6TMC3    C114234   0.278   4.046  10.922  0.6103  0.6547  0.1104
    6TMC3    C214235   0.153   4.049  10.864  0.1817 -0.5654  0.2357
    6TMC3    C314236   0.153   4.106  10.735 -0.0292 -0.7319  0.2787
    6TMC3    C414237   0.388   4.106  10.866  0.5114 -0.3236 -0.2060
    6TMC3    C514238   0.376   4.168  10.746 -0.3532  0.0532  0.1721
    6TMC3    C614239   0.264   4.160  10.674  0.1531  0.6154 -0.3879
    6TMC3     C14240   0.267   4.017  11.065  0.0248 -0.4002  0.1964
    6TMC3     O14241   0.155   3.974  11.104 -0.4425 -0.1148  0.5449
    6TMC3     H14242   0.069   3.995  10.906  0.0415  0.4257  1.2026
    6TMC3    H114243   0.488   4.095  10.907  0.7215  2.0636 -0.0907
    6TMC3    H214244   0.262   4.192  10.571  0.8977  1.6273 -0.0899
    6TMC3    C714245   0.484   4.263  10.722  0.0791 -0.9162 -0.0905
    6TMC3    C814246   0.033   4.094  10.660  0.3075  0.0682  1.2779
    6TMC3    O114247   0.546   4.288  10.821 -0.3798 -0.4022 -0.0608
    6TMC3    O214248   0.038   4.110  10.541  0.2798 -0.6262 -0.8885
    7MPD2     C14249   1.312   4.140  10.741 -0.1990  1.0663  0.4985
    7MPD2    C114250   1.311   4.213  10.860  0.2964 -0.0777 -0.3735
    7MPD2    C214251   1.326   4.144  10.980  0.2224 -0.1620 -0.4449
    7MPD2    C314252   1.328   4.009  10.985  0.3234  0.3357 -0.4552
    7MPD2    C414253   1.313   3.936  10.869 -0.1028  0.1283 -0.1503
    7MPD2    C514254   1.308   4.004  10.746 -0.0486  0.5269 -0.6013
    7MPD2     H14255   1.336   4.196  11.074  0.6890 -0.6545 -0.2186
    7MPD2    H114256   1.308   3.827  10.875  0.6305  0.0165 -1.7708
    7MPD2    H214257   1.293   4.185  10.644  1.1429 -0.8212 -0.6412
    7MPD2    H314258   1.311   3.954  10.650  0.8322  0.3563 -0.4856
    7MPD2     N14259   1.327   3.938  11.107  0.5803  0.3332  0.4326
    7MPD2    H514260   1.289   3.844  11.107  1.6971 -0.1167 -0.6744
    7MPD2    N114261   1.275   4.353  10.845 -0.2611  0.5406  0.1755
    7MPD2    H714262   1.221   4.381  10.764  0.4089 -0.1810 -0.5160
    8TMC3    C114263   1.212   4.568  10.942  0.1635  0.1502 -0.1234
    8TMC3    C214264   1.107   4.565  10.860  1.1556  0.0632  0.8848
    8TMC3    C314265   0.988   4.605  10.905  0.0957 -0.3802  0.2481
    8TMC3    C414266   1.203   4.619  11.063 -0.8412  0.0640  0.1822
    8TMC3    C514267   1.080   4.655  11.118 -1.0436  0.4326 -0.2357
    8TMC3    C614268   0.969   4.650  11.035  0.3474  0.3044 -0.4622
    8TMC3     C14269   1.291   4.447  10.947  0.6080 -0.7504  0.4641
    8TMC3     O14270   1.343   4.428  11.054 -0.0796  0.3349 -0.1391
    8TMC3     H14271   1.124   4.530  10.758  2.6537 -2.3264  1.9691
    8TMC3    H114272   1.290   4.614  11.127  0.8843 -0.0206 -2.1899
    8TMC3    H214273   0.871   4.690  11.061  0.1546  0.2512 -1.0917
    8TMC3    C714274   1.065   4.636  11.255 -0.1975 -0.5680  0.3367
    8TMC3    C814275   0.865   4.590  10.829  0.6010 -0.3040 -0.6405
    8TMC3    O114276   1.162   4.621  11.328 -0.2097 -0.1630 -0.0188
    8TMC3    O214277   0.759   4.599  10.885 -0.1266  0.2868 -0.1311
    9MPD2     C14278   0.821   4.548  10.460 -0.5316  0.2125 -0.7482
    9MPD2    C114279   0.797   4.532  10.595 -0.0483 -0.0420 -1.2615
    9MPD2    C214280   0.692   4.451  10.635  0.2981 -0.4524  0.2825
    9MPD2    C314281   0.611   4.387  10.547  0.3808  1.1422  0.1742
    9MPD2    C414282   0.622   4.410  10.408  0.4118 -0.4977 -0.2741
    9MPD2    C514283   0.737   4.485  10.369  0.2936  0.2282 -0.2430
    9MPD2     H14284   0.654   4.465  10.736  2.0565 -2.4315  1.2139
    9MPD2    H114285   0.573   4.342  10.340 -0.5623 -0.1885  0.1110
    9MPD2    H214286   0.904   4.603  10.419 -1.3337  1.4638 -0.6855
    9MPD2    H314287   0.740   4.520  10.267  0.8119  0.1852 -0.2451
    9MPD2     N14288   0.508   4.306  10.589  0.2915  0.0123 -0.4689
    9MPD2    H514289   0.440   4.276  10.519 -0.4352  1.5736 -0.4335
    9MPD2    N114290   0.886   4.579  10.693 -0.3578 -0.0458 -0.5051
    9MPD2    H714291   0.976   4.613  10.661  0.5234 -2.1147 -0.2175
    1MPD1     C14292   4.594   2.346  15.918 -0.8988  0.3515  0.6625
    1MPD1    C114293   4.528   2.445  15.845 -0.1772  0.4929  0.1181
    1MPD1    C214294   4.569   2.477  15.715 -0.3338 -0.1300 -0.7901
    1MPD1    C314295   4.673   2.405  15.660 -0.5475 -0.1854 -0.4526
    1MPD1    C414296   0.010   2.316  15.735 -0.0319 -0.3789 -0.2782
    1MPD1    C514297   4.706   2.287  15.861  0.4183 -0.1863 -0.1393
    1MPD1     H14298   4.528   2.563  15.662  1.5506  0.3555 -1.4653
    1MPD1    H114299   0.088   2.258  15.686 -0.3425  0.6838 -2.0174
    1MPD1    H214300   4.572   2.309  16.018  0.0624 -1.0535  0.3557
    1MPD1    H314301   0.031   2.207  15.902  0.0973 -0.4159 -0.1147
    1MPD1     N14302   4.704   2.419  15.519  0.3710 -0.0326  0.1795
    1MPD1    H514303   0.054   2.376  15.486  0.3904  0.4253 -0.3619
    1MPD1    N114304   4.438   2.534  15.913 -0.2263 -0.1472  0.1276
    1MPD1    H614305   4.367   2.565  15.846 -1.8860 -2.1902  0.9197
    1MPD1    H714306   4.397   2.496  15.998 -2.5953  0.4066 -0.7659
    2TMC2    C114307   4.721   2.621  15.093  0.0794 -0.2180  0.0998
    2TMC2    C214308   0.059   2.516  15.040  0.2693 -0.4419  0.6710
    2TMC2    C314309   0.095   2.424  15.128 -0.3268  0.5202  0.5446
    2TMC2    C414310   4.657   2.615  15.214  0.6013 -0.0297 -0.0249
    2TMC2    C514311   4.702   2.517  15.298  0.2853  0.2161  0.0631
    2TMC2    C614312   0.054   2.418  15.258 -0.4915 -0.7140 -0.3157
    2TMC2     C14313   4.665   2.705  14.986  0.5384  0.2886 -0.5032
    2TMC2     O14314   4.708   2.689  14.873  1.1025  0.3862 -0.5729
    2TMC2     H14315   0.106   2.533  14.944  0.9376 -0.2645  1.0287
    2TMC2    H114316   4.576   2.675  15.253  0.6994  0.0289  0.0858
    2TMC2    H214317   0.079   2.329  15.314 -0.4199 -0.4380  0.0916
    2TMC2    C714318   4.638   2.503  15.429  0.3367  0.2486  0.3120
    2TMC2    C814319   0.188   2.324  15.088 -0.3787  0.9160  0.0046
    2TMC2    O114320   4.525   2.553  15.442  0.5384  0.7086 -0.1500
    2TMC2    O214321   0.272   2.280  15.162 -0.5202  0.4771 -0.1209
    2TMC2    O514322   0.116   2.242  15.014  0.0140  0.4768 -0.0396
    2TMC2    H514323   0.028   2.278  14.989 -1.0452 -1.2151  1.2412
    3MPD1     C14324   4.367   3.087  14.839 -0.2795 -0.1167 -1.0194
    3MPD1    C114325   4.362   3.083  14.975  0.4668 -0.7810 -0.1471
    3MPD1    C214326   4.434   2.985  15.035  0.1809  0.0424 -0.0399
    3MPD1    C314327   4.507   2.887  14.963 -0.0986 -0.4776  0.4641
    3MPD1    C414328   4.493   2.883  14.825  0.2965  0.4920 -0.2451
    3MPD1    C514329   4.433   2.987  14.766 -0.9918  0.3132  0.6131
    3MPD1     H14330   4.441   2.965  15.142 -2.0132  0.2536  0.1494
    3MPD1    H114331   4.537   2.802  14.767  0.5207  0.1729  0.3721
    3MPD1    H214332   4.314   3.161  14.781  0.0641 -0.2464 -1.5009
    3MPD1    H314333   4.417   2.999  14.659  0.1932 -0.5059  0.3465
    3MPD1     N14334   4.581   2.794  15.041  0.6213  0.2922 -0.3781
    3MPD1    H514335   4.586   2.815  15.140  2.6126 -1.0514 -0.1937
    3MPD1    N114336   4.309   3.189  15.044 -0.1496  0.3104  0.1711
    3MPD1    H614337   4.261   3.151  15.125  1.0172  0.5230  0.9691
    3MPD1    H714338   4.260   3.255  14.984 -0.8068  0.1703  0.5543
    1TMC1    C114339   3.190   2.186  12.780 -0.3129  0.1445 -1.0111
    1TMC1    C214340   3.181   2.073  12.865  0.5780 -0.5176 -0.5974
    1TMC1    C314341   3.104   1.964  12.813  0.5426 -0.7278  0.2706
    1TMC1    C414342   3.143   2.173  12.652  0.2191  0.0500  0.4091
    1TMC1    C514343   3.084   2.064  12.612  0.5889 -0.3201  0.1456
    1TMC1    C614344   3.039   1.966  12.694  0.1987  0.0864 -0.7192
    1TMC1     C14345   3.240   2.310  12.840  0.3360 -0.6994  0.1268
    1TMC1     O14346   3.208   2.412  12.775  0.0591  0.0280 -0.1519
    1TMC1     H14347   3.215   2.070  12.968  1.0031 -1.4894 -0.7691
    1TMC1    H114348   3.169   2.249  12.580  1.1951  0.2636  0.9721
    1TMC1    H214349   2.984   1.883  12.653  0.7792 -1.1402  0.9646
    1TMC1    C714350   3.033   2.056  12.475  0.0068  0.6354 -0.1475
    1TMC1    C814351   3.132   1.840  12.876  0.4940 -0.0140  0.7001
    1TMC1    O114352   3.010   2.149  12.400 -0.4018  0.1577  0.3211
    1TMC1    O214353   3.221   1.810  12.954  0.4509  0.7149  0.3719
    1TMC1    O314354   3.075   1.939  12.433  0.0821 -0.0428 -0.0869
    1TMC1    H314355   3.114   1.872  12.494  0.2449  0.8458  0.7728
    1TMC1    O514356   3.027   1.764  12.859  0.3303  0.1026 -0.7953
    1TMC1    H514357   2.940   1.807  12.846 -1.2846 -3.1059 -0.6949
    2MPD2     C14358   3.264   2.519  13.043 -0.2146  0.5109 -0.1398
    2MPD2    C114359   3.331   2.392  13.050  0.6505  0.5129 -0.5670
    2MPD2    C214360   3.408   2.367  13.162  0.0967 -0.3970  0.1958
    2MPD2    C314361   3.461   2.465  13.238  0.1893 -0.5238 -0.8280
    2MPD2    C414362   3.402   2.591  13.225  0.7451  0.3883 -0.1619
    2MPD2    C514363   3.296   2.616  13.138 -0.7540 -0.2192 -0.0690
    2MPD2     H14364   3.433   2.267  13.193 -0.3141 -1.1058 -1.8164
    2MPD2    H114365   3.434   2.670  13.292  2.9041 -0.0294 -0.7020
    2MPD2    H214366   3.186   2.545  12.973  0.6219  0.7457 -0.9898
    2MPD2    H314367   3.251   2.715  13.134 -0.1024  0.0738 -0.1671
    2MPD2     N14368   3.549   2.434  13.339  0.1139 -0.3127 -1.2125
    2MPD2    H514369   3.571   2.336  13.356 -2.3835 -1.1932 -3.0842
    2MPD2    N114370   3.306   2.288  12.959 -0.1588  0.0567  0.9214
    2MPD2    H714371   3.338   2.193  12.975 -0.5408 -0.5085 -1.6400
    3TCq1    O114372   4.058   2.543  13.778 -0.1671 -0.1892  0.1522
    3TCq1    C114373   3.922   2.547  13.771  0.1856 -0.8665 -0.2717
    3TCq1    O214374   3.857   2.637  13.823  0.6836  0.3919 -0.4048
    3TCq1    C214375   3.891   2.484  13.647 -0.7624  0.4293 -0.0017
    3TCq1    C314376   3.968   2.381  13.593 -0.7300 -0.4271 -0.8277
    3TCq1    C414377   3.924   2.326  13.476  0.0952  0.6466  1.3740
    3TCq1    C514378   3.817   2.380  13.406 -0.3673  0.4970 -0.4226
    3TCq1    C614379   3.739   2.473  13.466 -0.2996 -0.0143  0.0263
    3TCq1    C714380   3.770   2.524  13.589  0.0036 -0.7800  0.4966
    3TCq1    C814381   3.622   2.525  13.408  0.9855  0.2930 -0.2206
    3TCq1    O414382   3.611   2.646  13.411  0.5129 -0.5741  0.6835
    3TCq1    C914383   4.005   2.225  13.413 -0.5358 -0.2061 -1.0572
    3TCq1    O514384   3.969   2.189  13.296  1.2152  0.3532  0.3707
    3TCq1    O614385   4.125   2.226  13.450 -0.1565 -0.0797  0.0151
    3TCq1    H114386   4.094   2.480  13.711  0.1650  1.5339 -1.2881
    3TCq1    H214387   4.068   2.360  13.627 -0.3969  0.6418 -1.1514
    3TCq1    H314388   3.800   2.355  13.302  0.4116 -2.1443  0.0889
    3TCq1    H414389   3.700   2.586  13.643  1.5502  0.7762  0.7226
    1MPD2     C14390   3.172   3.110  14.905 -0.0760  0.0159  0.0025
    1MPD2    C114391   3.058   3.090  14.830  0.4789 -0.0794  0.5504
    1MPD2    C214392   3.064   2.991  14.740  0.2400 -0.0140 -0.1887
    1MPD2    C314393   3.167   2.910  14.715  0.5975 -0.7397  0.2327
    1MPD2    C414394   3.278   2.934  14.787  0.3311  0.2375  0.5034
    1MPD2    C514395   3.277   3.031  14.888 -0.1393  0.0089  0.1420
    1MPD2     H14396   2.975   2.972  14.680 -0.2782  1.2764  0.1625
    1MPD2    H114397   3.366   2.872  14.776  0.9507  1.3417 -0.7580
    1MPD2    H214398   3.173   3.187  14.981 -0.7776  1.1560 -1.1451
    1MPD2    H314399   3.369   3.050  14.942 -0.1398  2.2754 -0.6772
    1MPD2     N14400   3.166   2.802  14.619  0.1075  0.1228 -0.5910
    1MPD2    H514401   3.251   2.749  14.605  2.8272  3.9622  1.7112
    1MPD2    N114402   2.952   3.175  14.860  0.5322  0.0289  0.3470
    1MPD2    H714403   2.962   3.255  14.921 -1.6191  0.8597 -0.3969
    2TMC3    C114404   2.727   3.250  14.834  0.6005  0.6151 -0.1394
    2TMC3    C214405   2.601   3.211  14.813  0.0833 -0.6059 -0.5034
    2TMC3    C314406   2.528   3.284  14.716 -0.0792 -1.0086  0.5050
    2TMC3    C414407   2.768   3.382  14.804  0.4832 -0.4298  0.2464
    2TMC3    C514408   2.686   3.461  14.728  0.2932 -0.3875  0.4860
    2TMC3    C614409   2.570   3.412  14.672 -0.7750  0.1695 -0.7107
    2TMC3     C14410   2.823   3.145  14.811 -0.6716  0.1234  0.2268
    2TMC3     O14411   2.777   3.037  14.782  0.0348  0.3129 -0.3096
    2TMC3     H14412   2.569   3.110  14.838  3.3964 -1.5813 -0.1799
    2TMC3    H114413   2.872   3.410  14.810  0.3445  0.1977 -0.2328
    2TMC3    H214414   2.511   3.471  14.602 -1.2445 -2.1704 -2.3005
    2TMC3    C714415   2.707   3.599  14.696  0.3960  0.4047  0.5822
    2TMC3    C814416   2.475   3.200  14.608  0.2181  0.2510 -0.6563
    2TMC3    O114417   2.648   3.651  14.603  0.5146  0.2127  0.4769
    2TMC3    O214418   2.390   3.246  14.532  0.8249 -0.2304  0.4815
    3TCq1    O114419   3.264   4.539  15.130  0.6741 -0.4792  0.1512
    3TCq1    C114420   3.328   4.474  15.224 -1.0497  0.0423  0.2032
    3TCq1    O214421   3.443   4.480  15.257 -0.2630  0.6035 -0.8075
    3TCq1    C214422   3.251   4.351  15.231 -0.1131 -0.4948 -0.2063
    3TCq1    C314423   3.270   4.275  15.344  0.1360  0.6155 -0.4067
    3TCq1    C414424   3.240   4.144  15.336 -0.2891  0.0657 -0.5401
    3TCq1    C514425   3.200   4.085  15.219 -0.0068  0.3721 -0.2503
    3TCq1    C614426   3.198   4.158  15.103 -0.3185  0.8415  0.3810
    3TCq1    C714427   3.222   4.296  15.108 -0.0724  0.3236 -0.0250
    3TCq1    C814428   3.163   4.115  14.974  0.5784 -0.4445 -0.1139
    3TCq1    O414429   3.188   4.185  14.878  0.6151  0.5175 -0.3236
    3TCq1    C914430   3.242   4.060  15.450 -0.1141  0.3999  0.0647
    3TCq1    O514431   3.261   4.114  15.565 -0.4869 -0.0792  0.2107
    3TCq1    O614432   3.197   3.942  15.436  0.1196  0.1447  0.0096
    3TCq1    H114433   3.172   4.507  15.122  0.4346  0.4956 -1.0494
    3TCq1    H214434   3.308   4.326  15.432  0.6793 -0.1783 -0.1773
    3TCq1    H314435   3.175   3.979  15.219  0.8310  0.1725 -0.6651
    3TCq1    H414436   3.213   4.351  15.015  0.5151 -0.6833 -0.6704
    4MPD2     C14437   2.961   4.048  14.763 -0.2090 -0.4346 -0.3254
    4MPD2    C114438   2.989   3.966  14.875  0.0804  0.0424  0.1824
    4MPD2    C214439   2.920   3.848  14.882 -0.3614 -0.1076 -0.1055
    4MPD2    C314440   2.842   3.797  14.782  0.2619 -0.2033  0.2671
    4MPD2    C414441   2.819   3.878  14.673  0.6735  0.0083  0.0601
    4MPD2    C514442   2.878   4.003  14.661  0.4236  0.0669 -0.1261
    4MPD2     H14443   2.950   3.788  14.968  1.3310 -0.7196 -1.1308
    4MPD2    H114444   2.746   3.859  14.596  0.8196 -3.5298  0.8023
    4MPD2    H214445   3.010   4.144  14.751  0.1980 -0.5852  0.1675
    4MPD2    H314446   2.869   4.066  14.574  2.7197  0.7408  0.0953
    4MPD2     N14447   2.792   3.662  14.793 -0.3888  0.0849  0.0279
    4MPD2    H514448   2.818   3.614  14.879  0.1285 -0.2158 -0.2927
    4MPD2    N114449   3.080   4.004  14.977  0.3150  0.3440  0.0618
    4MPD2    H714450   3.086   3.938  15.054 -1.1647  2.0261  1.6290
    5TMC2    C114451   2.895   2.518  14.365 -0.2540 -0.0827 -0.8217
    5TMC2    C214452   2.991   2.525  14.267 -0.4608 -0.4053  0.2296
    5TMC2    C314453   3.121   2.563  14.295  0.2088  0.2618 -0.4116
    5TMC2    C414454   2.938   2.556  14.492  0.2454  0.0355 -0.3587
    5TMC2    C514455   3.066   2.604  14.521 -0.0048  0.1581  0.0572
    5TMC2    C614456   3.164   2.612  14.419  0.8276 -0.0246 -0.0672
    5TMC2     C14457   2.778   2.593  14.315 -0.0417 -0.7349  0.3303
    5TMC2     O14458   2.716   2.545  14.220 -0.0895 -0.0094  0.2650
    5TMC2     H14459   2.962   2.523  14.163 -2.5981  2.3978  0.7604
    5TMC2    H114460   2.864   2.560  14.571 -0.0945  0.5510 -0.7069
    5TMC2    H214461   3.257   2.664  14.440  0.5394  0.2381  0.5730
    5TMC2    C714462   3.050   2.738  14.581  0.1982 -0.3139 -0.3500
    5TMC2    C814463   3.227   2.573  14.197  0.3525 -0.6183 -0.0907
    5TMC2    O114464   2.932   2.779  14.592  0.7305 -0.1266  0.3869
    5TMC2    O214465   3.274   2.686  14.170 -0.1682 -0.3889 -0.2969
    5TMC2    O514466   3.184   2.479  14.109 -0.1716 -0.2032  0.0412
    5TMC2    H514467   3.145   2.403  14.157  1.0124 -1.6010 -1.2001
    6MPD2     C14468   2.442   2.983  14.403  0.3872 -0.4026 -0.4921
    6MPD2    C114469   2.552   2.988  14.492  0.0398  1.0221  0.2779
    6MPD2    C214470   2.645   2.886  14.495 -0.1547 -0.6262 -0.4035
    6MPD2    C314471   2.641   2.786  14.397 -0.3761 -0.0272  0.0367
    6MPD2    C414472   2.539   2.789  14.303 -0.1545  0.1938 -0.6255
    6MPD2    C514473   2.442   2.885  14.310  0.0160  0.2447  0.2836
    6MPD2     H14474   2.724   2.882  14.569 -2.7480  0.4589  2.4317
    6MPD2    H114475   2.538   2.711  14.227 -2.8830 -0.5033  0.1431
    6MPD2    H214476   2.363   3.057  14.399  0.6298  0.0336  2.2095
    6MPD2    H314477   2.356   2.874  14.246  1.3215  1.6550 -1.7085
    6MPD2     N14478   2.753   2.700  14.399 -0.1154  0.3238  0.6696
    6MPD2    H514479   2.831   2.720  14.461 -2.0685 -2.1656  3.9741
    6MPD2    N114480   2.561   3.087  14.589 -0.4322 -0.2476  0.1192
    6MPD2    H714481   2.631   3.062  14.658 -0.5829 -1.5687 -0.2069
  945NH3     N114482   1.797   4.645   9.770  0.3272 -0.5612  0.1050
  945NH3     H214483   1.795   4.557   9.720  1.4235  0.9161 -2.5445
  945NH3     H314484   1.863   4.703   9.718 -0.6470  1.3716  1.0146
  945NH3     H414485   1.709   4.685   9.739  0.1391 -1.2879 -0.2866
  946SOD     NA14486   2.608   1.755  14.683  0.5474 -0.0492 -0.1840
  947SOD     NA14487   3.262   3.745  13.084  0.2380  0.1884 -0.5788
  948SOD     NA14488   3.883   1.010   6.801  0.3409 -0.1716  0.3388
  949SOD     NA14489   3.703   4.227  17.427  0.1085 -0.0760 -0.2238
  950SOD     NA14490   3.542   2.497   7.489  0.1664 -0.1671 -0.1757
  951SOD     NA14491   0.146   3.293  12.424  0.0713 -0.4013  0.0190
  952SOD     NA14492   4.433   4.137  11.091 -0.2552 -0.4526  0.1013
  953SOD     NA14493   1.447   3.081  17.472  0.5325 -0.1962 -0.0670
  954SOL     OW14494   2.894   4.504  15.960 -0.4746 -0.1370 -0.7173
  954SOL    HW114495   2.813   4.555  15.960 -0.4622 -0.1050  1.4602
  954SOL    HW214496   2.876   4.455  15.880 -2.2467  1.1024 -1.0793
  955SOL     OW14497   2.526   0.138   0.306  0.3186  0.5381 -0.2085
  955SOL    HW114498   2.459   0.202   0.279 -1.5600 -0.5353  1.9198
  955SOL    HW214499   2.583   0.186   0.366  1.9458 -1.7868  0.0958
  956SOL     OW14500   1.571   0.278   5.345 -0.6808  0.0672  0.0521
  956SOL    HW114501   1.608   0.365   5.359 -0.2505  0.3790 -2.9623
  956SOL    HW214502   1.550   0.253   5.434  1.5649 -0.7781  0.3434
  957SOL     OW14503   3.939   2.695   8.102 -0.2599 -0.0637  0.3110
  957SOL    HW114504   3.858   2.742   8.085 -0.8319 -0.5854  1.5642
  957SOL    HW214505   3.918   2.676   8.193 -0.1490  1.9066  0.7416
  958SOL     OW14506   3.751   0.097  17.404  0.1735 -0.0826 -0.5024
  958SOL    HW114507   3.677   0.088  17.344 -2.3275  1.5495  2.3546
  958SOL    HW214508   3.701   0.103  17.485 -1.2637  0.4862 -1.4231
  959SOL     OW14509   2.184   4.295   8.260 -0.0421 -0.0925 -0.4168
  959SOL    HW114510   2.114   4.340   8.307 -0.7994 -0.3119 -1.3222
  959SOL    HW214511   2.133   4.227   8.216 -1.7215  0.8037  0.1596
  960SOL     OW14512   2.751   2.323   6.506  0.4696 -0.3880  0.5090
  960SOL    HW114513   2.742   2.264   6.432 -0.7303  1.2857 -0.6688
  960SOL    HW214514   2.663   2.316   6.543  0.3764 -1.7553  0.0285
  961SOL     OW14515   2.261   3.305   0.872 -0.2267 -0.4787  0.1649
  961SOL    HW114516   2.166   3.316   0.860 -0.3362  0.1032  1.5740
  961SOL    HW214517   2.290   3.292   0.782  0.2206  0.1997  0.2181
  962SOL     OW14518   0.188   0.926  11.872 -0.4782 -0.2274 -0.0384
  962SOL    HW114519   0.207   0.915  11.966  2.6290 -1.4191 -0.8135
  962SOL    HW214520   0.266   0.967  11.833  1.2715 -1.5838  1.9901
  963SOL     OW14521   4.389   0.673  13.896 -0.0879 -0.8885  0.1380
  963SOL    HW114522   4.348   0.749  13.855 -1.3569 -0.4004  2.3278
  963SOL    HW214523   4.379   0.690  13.989 -0.2985 -1.0526  0.1464
  964SOL     OW14524   3.431   0.654   7.832 -0.4519  0.2280 -0.3165
  964SOL    HW114525   3.388   0.573   7.859  2.1618 -1.2598 -0.6842
  964SOL    HW214526   3.369   0.694   7.771 -1.3457  1.0552  1.1228
  965SOL     OW14527   0.615   1.430   9.985 -0.3249 -0.4364 -0.6339
  965SOL    HW114528   0.564   1.374   9.927  1.3070 -1.7711 -0.7800
  965SOL    HW214529   0.676   1.369  10.028 -0.9042 -0.9099 -0.4789
  966SOL     OW14530   1.587   3.644   7.855 -0.1254  0.5085 -0.5232
  966SOL    HW114531   1.629   3.576   7.802  0.9331  2.9985 -2.8391
  966SOL    HW214532   1.666   3.696   7.869 -0.0051  0.1155  0.2771
  967SOL     OW14533   2.367   3.702   8.443  0.0970  0.5037  0.5311
  967SOL    HW114534   2.299   3.752   8.488 -1.0734 -2.9188  2.6129
  967SOL    HW214535   2.368   3.731   8.352 -1.8409 -1.6836 -0.2032
  968SOL     OW14536   3.232   1.162  16.060  0.0621  0.2358  0.1951
  968SOL    HW114537   3.205   1.148  16.150 -0.8918  0.5220 -0.0439
  968SOL    HW214538   3.314   1.209  16.068  1.2021 -1.7523  0.1947
  969SOL     OW14539   3.047   3.115   5.057  0.5552 -0.0160  0.4150
  969SOL    HW114540   3.032   3.048   5.123  1.4699 -0.5290  0.0975
  969SOL    HW214541   3.000   3.072   4.985  1.6071 -1.1477  0.4132
  970SOL     OW14542   2.056   3.110   8.212  0.2822 -0.1971  0.6208
  970SOL    HW114543   2.105   3.035   8.246 -1.2023 -1.6697 -0.5038
  970SOL    HW214544   2.088   3.094   8.123 -0.5764  0.6116  0.1685
  971SOL     OW14545   1.086   4.722   3.362 -0.5047  0.2034 -0.0591
  971SOL    HW114546   1.163   0.029   3.400  1.1359 -3.6146  0.9496
  971SOL    HW214547   1.014   0.004   3.422 -1.6140 -0.2766 -1.2404
  972SOL     OW14548   3.276   0.939  12.450  0.5944  0.1460  0.3751
  972SOL    HW114549   3.361   0.980  12.463  0.4100  0.5614  0.2618
  972SOL    HW214550   3.232   0.968  12.530 -2.7006 -1.9409 -0.6852
  973SOL     OW14551   0.889   3.339   2.546 -0.0906 -0.0321 -0.6197
  973SOL    HW114552   0.815   3.280   2.563  0.1595  0.4207  2.0705
  973SOL    HW214553   0.881   3.375   2.458  1.6320  0.6281 -0.5070
  974SOL     OW14554   0.458   4.530   7.996 -0.3387 -0.0174  0.1461
  974SOL    HW114555   0.391   4.544   8.063 -0.9884  0.6308 -0.6470
  974SOL    HW214556   0.427   4.449   7.955 -0.3132  0.0353  0.0217
  975SOL     OW14557   3.779   1.270   5.857  0.5600  0.0615 -0.2064
  975SOL    HW114558   3.857   1.217   5.873  1.2715  0.3229 -2.8134
  975SOL    HW214559   3.776   1.332   5.930 -0.5014 -1.7823  1.3291
  976SOL     OW14560   3.628   1.414   5.056  0.1826 -0.3153 -0.3746
  976SOL    HW114561   3.649   1.387   5.145  1.3639  1.0963 -0.2315
  976SOL    HW214562   3.672   1.341   5.012 -0.4763 -0.2952 -1.0652
  977SOL     OW14563   3.527   2.212   4.670  0.0487 -0.3692 -0.0205
  977SOL    HW114564   3.584   2.184   4.741 -1.2199 -2.2155  0.2716
  977SOL    HW214565   3.586   2.257   4.609 -1.2365 -0.3328 -1.2417
  978SOL     OW14566   1.891   2.879   6.264 -0.1904  0.1428 -0.0358
  978SOL    HW114567   1.958   2.937   6.299  0.3528 -0.0465 -0.7637
  978SOL    HW214568   1.936   2.813   6.211  0.4767  0.3934  0.2231
  979SOL     OW14569   4.104   0.241  16.878 -0.1076 -0.1994  0.0337
  979SOL    HW114570   4.028   0.263  16.824  0.0305  0.7102  0.2053
  979SOL    HW214571   4.152   0.191  16.812  1.2024  0.6874  0.3218
  980SOL     OW14572   2.471   0.140   1.004 -0.2400 -0.5724 -0.3882
  980SOL    HW114573   2.552   0.104   1.040  1.0313  0.7508 -1.9141
  980SOL    HW214574   2.423   0.058   1.014 -0.8446 -0.0836  0.6253
  981SOL     OW14575   0.503   4.444   4.206  0.3280  0.6058  0.2809
  981SOL    HW114576   0.421   4.398   4.225 -0.2011  0.4775 -2.4375
  981SOL    HW214577   0.554   4.370   4.241  0.8605  0.0557 -1.6527
  982SOL     OW14578   0.490   3.666   1.924 -0.7740 -0.3716  0.3224
  982SOL    HW114579   0.530   3.582   1.901 -0.2333 -0.4897  1.6542
  982SOL    HW214580   0.397   3.643   1.919 -0.8076 -0.1945  0.1532
  983SOL     OW14581   1.889   1.137   7.733 -0.0868 -0.0896 -0.3561
  983SOL    HW114582   1.832   1.080   7.681 -0.4655  2.1427 -2.4087
  983SOL    HW214583   1.928   1.086   7.804  2.3282 -0.3701 -1.8666
  984SOL     OW14584   3.231   3.984   3.895 -0.7196  0.0804 -0.5759
  984SOL    HW114585   3.160   4.044   3.919 -1.7762 -0.6440 -1.8498
  984SOL    HW214586   3.291   4.042   3.850 -0.2695  0.1631  0.1285
  985SOL     OW14587   1.336   2.105   9.669  0.0525  0.0998 -0.1311
  985SOL    HW114588   1.254   2.103   9.618  0.6036  1.4053 -1.0642
  985SOL    HW214589   1.321   2.181   9.725 -0.1352  0.5198 -0.7500
  986SOL     OW14590   4.357   0.056   6.011  0.3562 -0.0583 -0.1045
  986SOL    HW114591   4.441   0.097   6.033  0.0349  0.2617  0.5424
  986SOL    HW214592   4.308   0.131   5.978  1.0940  1.0806  1.3610
  987SOL     OW14593   0.778   0.372   4.464  0.1335  0.4835  0.2867
  987SOL    HW114594   0.765   0.344   4.554 -0.8827  0.2294  0.0547
  987SOL    HW214595   0.870   0.400   4.466 -0.4157  2.1358  2.1532
  988SOL     OW14596   3.653   3.903  10.726  0.0987 -0.4729 -0.1570
  988SOL    HW114597   3.633   3.943  10.642  0.3935  1.3178  0.6422
  988SOL    HW214598   3.745   3.926  10.744  0.4314 -0.4064 -2.0254
  989SOL     OW14599   3.787   0.168   2.095  0.0241 -0.4899 -0.1394
  989SOL    HW114600   3.842   0.246   2.097 -0.4326 -0.2000  1.2390
  989SOL    HW214601   3.778   0.151   2.001 -1.5204  0.2279 -0.1222
  990SOL     OW14602   2.611   0.185   6.564  0.0152  0.1473  0.1485
  990SOL    HW114603   2.546   0.121   6.590 -0.5944  0.2876 -1.0200
  990SOL    HW214604   2.685   0.146   6.611 -1.8146 -0.2067  2.6919
  991SOL     OW14605   0.033   0.089  10.564 -0.5069 -0.0549 -0.2196
  991SOL    HW114606   0.019   0.151  10.635  2.3971 -1.0884  1.2256
  991SOL    HW214607   0.127   0.097  10.549 -0.3914  0.1491  0.6181
  992SOL     OW14608   2.385   4.502  14.069  0.1355  0.8394  0.0547
  992SOL    HW114609   2.393   4.567  13.999 -1.1099  1.7529  0.7431
  992SOL    HW214610   2.474   4.516  14.102  0.4022  0.3452 -0.4691
  993SOL     OW14611   2.711   3.479   7.282  0.4675 -0.0001  0.0699
  993SOL    HW114612   2.766   3.548   7.245 -1.1333  2.2610  1.9693
  993SOL    HW214613   2.647   3.527   7.333  0.1227  1.3244 -1.6376
  994SOL     OW14614   0.781   2.398   1.984  0.1141  0.0089 -0.5360
  994SOL    HW114615   0.694   2.437   1.988 -0.6975 -1.8160 -0.3597
  994SOL    HW214616   0.830   2.455   2.043 -1.8846  0.8835  0.2821
  995SOL     OW14617   4.526   0.034   2.059 -0.1602  0.0061  0.5310
  995SOL    HW114618   4.495   0.104   2.117 -1.4360 -0.1760  0.0585
  995SOL    HW214619   4.458   4.703   2.070 -1.4585  1.5779  2.1525
  996SOL     OW14620   4.217   3.751  14.855 -0.2270  0.1131 -0.7139
  996SOL    HW114621   4.144   3.731  14.796 -1.1672 -0.2748  0.5677
  996SOL    HW214622   4.185   3.708  14.934 -1.5955  3.5575  0.6229
  997SOL     OW14623   2.994   3.547   5.391  0.2561  0.0471  0.1797
  997SOL    HW114624   2.925   3.592   5.343  2.5100  1.1693 -2.0081
  997SOL    HW214625   2.970   3.456   5.376 -0.2935  0.2318 -0.0432
  998SOL     OW14626   3.745   1.209   8.267  0.7834 -0.8510 -0.4981
  998SOL    HW114627   3.652   1.208   8.242  1.2265 -2.9557 -2.0365
  998SOL    HW214628   3.774   1.120   8.247  1.5490 -0.5862 -0.5659
  999SOL     OW14629   0.657   2.801   1.463 -0.1738 -0.3773 -0.1808
  999SOL    HW114630   0.563   2.787   1.473 -0.5004 -0.2960 -3.2490
  999SOL    HW214631   0.692   2.712   1.468 -3.5731 -1.7260 -0.0570
 1000SOL     OW14632   3.976   0.934  10.195  0.2061 -0.6751 -0.2417
 1000SOL    HW114633   3.970   1.028  10.212  1.5738 -0.4819 -0.8371
 1000SOL    HW214634   3.997   0.941  10.101 -1.3572  2.0102 -0.3806
 1001SOL     OW14635   2.274   0.069   5.185  0.1843  0.2122 -0.1230
 1001SOL    HW114636   2.252   4.721   5.146  0.9963 -0.1422  0.1849
 1001SOL    HW214637   2.369   0.058   5.179 -0.0695 -0.3478 -2.8153
 1002SOL     OW14638   3.594   3.828   5.858 -0.0100  0.2242 -0.5314
 1002SOL    HW114639   3.594   3.891   5.930 -1.7169 -1.0346  0.5781
 1002SOL    HW214640   3.499   3.816   5.849  0.1459  0.2423 -2.1391
 1003SOL     OW14641   0.469   0.954   6.531  0.5592 -0.0919 -0.2727
 1003SOL    HW114642   0.392   0.915   6.488 -0.2193  0.7052  0.4045
 1003SOL    HW214643   0.454   0.942   6.625  0.6283  0.7109 -0.1634
 1004SOL     OW14644   4.323   2.026   7.141  0.0401  0.4459 -0.1247
 1004SOL    HW114645   4.241   1.978   7.127  0.3180 -0.4668  1.3068
 1004SOL    HW214646   4.323   2.085   7.066  1.4195  1.4692  0.6664
 1005SOL     OW14647   2.903   3.484   7.468 -0.4585  0.1342 -0.0200
 1005SOL    HW114648   2.852   3.450   7.394  0.3419 -0.9890 -0.0456
 1005SOL    HW214649   2.971   3.533   7.422  0.5501 -0.0102  1.3361
 1006SOL     OW14650   2.428   4.311  12.353 -0.1337 -0.4247 -0.3709
 1006SOL    HW114651   2.505   4.357  12.386 -0.3217 -1.5977  1.6401
 1006SOL    HW214652   2.449   4.298  12.260  2.2527 -2.4569  0.4579
 1007SOL     OW14653   2.923   4.311   1.888  0.0233  0.1793  0.9010
 1007SOL    HW114654   2.946   4.348   1.803  0.8176 -0.4178  0.8546
 1007SOL    HW214655   2.871   4.233   1.868  0.4331  0.0836  0.2181
 1008SOL     OW14656   0.249   1.285  14.979 -0.4292 -0.6182 -0.4955
 1008SOL    HW114657   0.194   1.211  14.952 -0.3226 -1.3326  1.2344
 1008SOL    HW214658   0.201   1.326  15.051  0.3129 -3.0067  1.3686
 1009SOL     OW14659   4.253   4.116   5.569 -0.2017  0.1577  0.3901
 1009SOL    HW114660   4.204   4.161   5.500 -1.7393 -1.4849  0.3931
 1009SOL    HW214661   4.280   4.187   5.626 -1.3438  2.0328 -1.4025
 1010SOL     OW14662   1.714   0.322  17.553 -0.0266 -0.2459  0.1672
 1010SOL    HW114663   1.742   0.403  17.510 -0.5036 -0.5957 -0.8086
 1010SOL    HW214664   1.651   0.352  17.619 -0.6104  2.6352 -1.6945
 1011SOL     OW14665   0.107   4.598  15.136 -0.3732  0.4736 -0.0682
 1011SOL    HW114666   0.085   4.515  15.179  0.0405  0.4633  0.1211
 1011SOL    HW214667   0.109   4.572  15.044  0.5818  2.5081 -0.6007
 1012SOL     OW14668   2.427   3.433   5.551 -0.6037  0.1515  0.1566
 1012SOL    HW114669   2.452   3.389   5.632  0.8027 -2.3017 -1.6100
 1012SOL    HW214670   2.491   3.504   5.547 -0.1856 -0.1387  1.8561
 1013SOL     OW14671   3.962   4.704   7.987  0.2086  0.0901 -0.0984
 1013SOL    HW114672   4.010   0.008   7.914 -0.9072  0.8257 -0.4158
 1013SOL    HW214673   4.012   4.727   8.065  0.5562  0.9346 -0.5688
 1014SOL     OW14674   0.657   1.714   8.058 -0.5155  0.0769 -0.5743
 1014SOL    HW114675   0.641   1.808   8.045 -1.6592  0.0200  0.3280
 1014SOL    HW214676   0.579   1.670   8.022 -0.2865 -0.8126  0.0309
 1015SOL     OW14677   2.560   1.022  16.593 -0.2807 -0.1120  0.1234
 1015SOL    HW114678   2.485   1.029  16.651 -0.6587 -0.8312 -0.2874
 1015SOL    HW214679   2.536   1.087  16.527  0.0219  1.2512  1.3526
 1016SOL     OW14680   1.918   2.104   3.765 -0.6878 -0.5678 -0.5141
 1016SOL    HW114681   1.931   2.195   3.739 -0.0503  0.0962  2.1145
 1016SOL    HW214682   2.004   2.065   3.747 -0.4507 -0.8178  1.1136
 1017SOL     OW14683   1.665   1.885  10.116 -0.4296 -0.4868  0.1908
 1017SOL    HW114684   1.658   1.955  10.051  0.1588  0.0921  0.7411
 1017SOL    HW214685   1.581   1.845  10.094 -0.7419 -0.5631  1.4919
 1018SOL     OW14686   0.978   1.494  14.074  0.0732  0.6282 -0.3410
 1018SOL    HW114687   1.031   1.553  14.127  0.0517  0.3909 -0.0562
 1018SOL    HW214688   0.896   1.543  14.066  0.6375  1.9461  1.9814
 1019SOL     OW14689   2.025   2.838   8.050  0.4645  0.4473 -0.1133
 1019SOL    HW114690   2.044   2.931   8.042 -0.2124  0.7037  1.3742
 1019SOL    HW214691   1.965   2.830   8.124  0.7935  0.6333  0.1672
 1020SOL     OW14692   1.858   1.020   1.936 -0.1149 -0.2300  0.4358
 1020SOL    HW114693   1.924   0.979   1.880  1.3355  1.6967  0.7215
 1020SOL    HW214694   1.821   0.935   1.960  1.2786 -0.7815  0.6152
 1021SOL     OW14695   4.206   1.390   2.337 -0.0529  0.5249 -0.8772
 1021SOL    HW114696   4.176   1.422   2.252 -3.3150 -0.9056 -0.2729
 1021SOL    HW214697   4.145   1.424   2.403 -0.3054 -0.2723 -0.7050
 1022SOL     OW14698   2.038   0.866   9.595 -0.4743 -0.0342  0.0304
 1022SOL    HW114699   2.101   0.934   9.573 -0.0342 -0.6341 -0.5802
 1022SOL    HW214700   1.992   0.904   9.670  1.0190  1.8350 -0.0161
 1023SOL     OW14701   3.525   2.461   5.883 -0.2297  0.0076  0.1865
 1023SOL    HW114702   3.450   2.402   5.872  1.3456 -2.0279  0.4366
 1023SOL    HW214703   3.501   2.530   5.821  2.4404 -0.4787 -1.3612
 1024SOL     OW14704   1.931   2.081   8.458  0.2047  0.2121  0.1186
 1024SOL    HW114705   2.015   2.039   8.442 -0.1338 -1.2030  2.0545
 1024SOL    HW214706   1.936   2.115   8.548  2.1303 -0.1795  0.1457
 1025SOL     OW14707   4.638   3.660   9.167  0.2570  0.6670 -0.3630
 1025SOL    HW114708   4.708   3.595   9.161 -0.2922  0.0170  0.2312
 1025SOL    HW214709   4.558   3.614   9.194  1.5717 -0.8067  1.0225
 1026SOL     OW14710   3.094   1.855   7.425 -0.3720  0.0950 -0.2001
 1026SOL    HW114711   3.170   1.892   7.379 -0.4720 -0.6644 -0.9887
 1026SOL    HW214712   3.123   1.857   7.516  2.4913 -0.1326 -1.0846
 1027SOL     OW14713   4.276   2.835  17.706 -0.0819  0.0685 -0.1490
 1027SOL    HW114714   4.222   2.903   0.002  2.1304  0.7859  1.6162
 1027SOL    HW214715   4.354   2.888  17.697  0.4599 -1.0646 -2.0750
 1028SOL     OW14716   4.235   0.462   3.578 -0.6293  0.1115 -0.3354
 1028SOL    HW114717   4.171   0.430   3.514  0.3726 -0.4585 -1.0661
 1028SOL    HW214718   4.316   0.414   3.562 -0.6369 -0.1346  0.3693
 1029SOL     OW14719   4.535   1.244  10.973  0.2475 -0.3331  0.3848
 1029SOL    HW114720   4.572   1.158  10.994  1.5003 -0.0589 -0.7151
 1029SOL    HW214721   4.597   1.281  10.910  0.5094  0.6677  1.2256
 1030SOL     OW14722   1.137   4.577   9.701  0.5455  0.4151  0.4540
 1030SOL    HW114723   1.207   4.607   9.644 -0.4131 -0.4882 -1.1848
 1030SOL    HW214724   1.162   4.623   9.781 -0.1244 -1.2911  1.6540
 1031SOL     OW14725   3.821   2.291   1.919  0.2027 -0.4653 -0.5207
 1031SOL    HW114726   3.814   2.233   1.995 -0.5258  2.8452  1.9299
 1031SOL    HW214727   3.881   2.239   1.866  0.9649  1.9454 -2.0204
 1032SOL     OW14728   3.829   1.078   6.180 -0.1969  0.1831  0.4228
 1032SOL    HW114729   3.749   1.027   6.167 -1.0660  1.6705 -0.1887
 1032SOL    HW214730   3.798   1.142   6.245  1.4446  0.2746  1.1092
 1033SOL     OW14731   1.807   1.849   3.564 -0.5443  0.2535  0.1096
 1033SOL    HW114732   1.796   1.780   3.630  1.8161 -0.2464 -0.0292
 1033SOL    HW214733   1.762   1.913   3.619 -0.2282  0.8264 -0.3055
 1034SOL     OW14734   3.948   1.443   8.544  0.4712 -0.0377 -0.1680
 1034SOL    HW114735   3.889   1.431   8.469 -0.1728 -2.3250  0.6926
 1034SOL    HW214736   3.987   1.523   8.510  0.2301 -0.0539 -0.4874
 1035SOL     OW14737   3.788   0.922   8.510 -0.6826 -0.4072 -0.0763
 1035SOL    HW114738   3.762   0.877   8.430  2.0433 -2.0606 -0.0139
 1035SOL    HW214739   3.730   0.998   8.517 -0.1826  0.0584 -1.0743
 1036SOL     OW14740   0.254   0.200   6.381 -0.1947  0.5563  0.3133
 1036SOL    HW114741   0.290   0.228   6.297  2.7785 -0.8391  1.1372
 1036SOL    HW214742   0.246   0.278   6.436 -1.9534  1.9258 -1.8994
 1037SOL     OW14743   3.054   4.113   2.595  0.3727  0.1364  0.0487
 1037SOL    HW114744   3.134   4.166   2.590  0.9291 -0.8119 -1.0631
 1037SOL    HW214745   3.085   4.065   2.672  0.9149  0.1529 -0.1583
 1038SOL     OW14746   1.217   3.549   4.027  0.0256 -0.5705 -0.4459
 1038SOL    HW114747   1.213   3.629   3.975  0.6656 -0.4800 -0.3650
 1038SOL    HW214748   1.277   3.577   4.097 -1.9588  0.2886  0.8987
 1039SOL     OW14749   1.159   1.002  12.312 -0.7736 -0.2342  0.5661
 1039SOL    HW114750   1.180   0.949  12.388 -0.0486 -0.5869  0.1140
 1039SOL    HW214751   1.070   1.024  12.339 -0.7512 -1.0217  1.2692
 1040SOL     OW14752   1.140   0.005  10.307 -0.6876  0.2074 -0.0928
 1040SOL    HW114753   1.211   0.068  10.299 -1.8472  1.6271  0.8655
 1040SOL    HW214754   1.072   0.054  10.261 -0.4355 -0.7408 -1.4469
 1041SOL     OW14755   3.637   2.252   8.368  0.0704  0.3125  0.2776
 1041SOL    HW114756   3.566   2.199   8.405  0.1335  0.5649  0.7487
 1041SOL    HW214757   3.718   2.229   8.412 -0.4897 -0.2124  1.0250
 1042SOL     OW14758   0.241   1.683   6.322 -0.6886  0.0223 -0.9117
 1042SOL    HW114759   0.219   1.595   6.291  2.6145 -1.7183  1.7543
 1042SOL    HW214760   0.308   1.708   6.258 -0.4420  0.7038 -0.3848
 1043SOL     OW14761   3.234   3.056   7.131  0.1943 -0.3410  0.2668
 1043SOL    HW114762   3.305   3.022   7.077  0.8922  0.2916  0.7828
 1043SOL    HW214763   3.174   2.982   7.132 -0.2036 -0.0175  1.1278
 1044SOL     OW14764   4.660   1.565   1.652  0.0169  0.4185 -0.1797
 1044SOL    HW114765   0.013   1.535   1.638 -0.2804  0.1580 -1.5408
 1044SOL    HW214766   4.660   1.592   1.743 -0.2621 -0.3084  0.0334
 1045SOL     OW14767   2.828   4.186   9.278  0.1776 -0.4066  0.3667
 1045SOL    HW114768   2.859   4.234   9.201 -0.5078  1.1103  1.0560
 1045SOL    HW214769   2.894   4.225   9.335 -0.4772  0.4704  0.5122
 1046SOL     OW14770   3.443   2.835   6.695 -0.7936 -0.6948  0.2925
 1046SOL    HW114771   3.465   2.845   6.602  0.4925  1.0308  0.7873
 1046SOL    HW214772   3.449   2.739   6.700 -2.0599 -0.8177 -0.4415
 1047SOL     OW14773   0.176   3.019  11.452 -0.3514 -0.3274 -1.2503
 1047SOL    HW114774   0.184   3.023  11.357  1.6733  0.8666 -1.0301
 1047SOL    HW214775   0.129   3.100  11.473  1.2804  0.2509  0.1482
 1048SOL     OW14776   2.936   0.137   1.379 -0.2111  0.0061 -0.5743
 1048SOL    HW114777   2.965   0.221   1.415  0.4087 -0.3375 -0.2715
 1048SOL    HW214778   3.018   0.109   1.339  0.9691  1.0360  1.1320
 1049SOL     OW14779   0.435   4.685   6.158 -0.7567 -1.0398 -0.0991
 1049SOL    HW114780   0.470   4.649   6.077 -1.4303 -1.0605 -0.3802
 1049SOL    HW214781   0.439   0.042   6.136  1.0565 -1.0958  0.0162
 1050SOL     OW14782   2.805   1.697   1.636 -0.1543 -0.1149  0.6087
 1050SOL    HW114783   2.843   1.722   1.720 -0.2431 -0.3352  0.7167
 1050SOL    HW214784   2.729   1.654   1.675 -0.1136 -0.6195  0.1368
 1051SOL     OW14785   2.234   3.620   2.686  0.3444  0.1607  0.0423
 1051SOL    HW114786   2.257   3.647   2.597  3.0713 -0.4477  0.5708
 1051SOL    HW214787   2.170   3.549   2.678 -1.8150  2.0487  0.6567
 1052SOL     OW14788   3.672   4.308   8.380 -0.0437  0.1231 -0.1328
 1052SOL    HW114789   3.587   4.265   8.368 -0.8178  1.3592  0.8734
 1052SOL    HW214790   3.735   4.241   8.352 -1.6111 -1.3623 -0.1066
 1053SOL     OW14791   2.554   2.521   8.296 -0.5009 -0.2539 -0.2410
 1053SOL    HW114792   2.466   2.558   8.285  0.9770  2.9666 -1.1179
 1053SOL    HW214793   2.610   2.598   8.300 -2.2509  0.9986  0.5759
 1054SOL     OW14794   2.938   1.913   4.095 -0.1290  0.0733 -0.0236
 1054SOL    HW114795   2.927   1.911   4.000 -0.8117  0.2665  0.0519
 1054SOL    HW214796   2.955   2.007   4.108 -0.7862  0.4220 -1.6860
 1055SOL     OW14797   1.157   2.457   9.615 -0.0735  0.5063  0.6307
 1055SOL    HW114798   1.139   2.365   9.631 -0.5526  0.4648 -0.1720
 1055SOL    HW214799   1.232   2.473   9.673 -1.7613  1.9809  2.4254
 1056SOL     OW14800   2.007   3.956   4.484  0.3102  0.1938 -0.4630
 1056SOL    HW114801   2.005   3.913   4.569 -0.6037  1.4056  0.1145
 1056SOL    HW214802   2.099   3.981   4.480 -0.0448  1.4249 -0.9156
 1057SOL     OW14803   1.903   1.052   4.934  0.2902  0.2305  0.0587
 1057SOL    HW114804   1.969   1.121   4.943  0.0606  0.6335 -1.2803
 1057SOL    HW214805   1.853   1.076   4.856  3.0943 -1.5857 -2.2762
 1058SOL     OW14806   3.237   1.348   7.478 -0.3564  0.5437  0.4103
 1058SOL    HW114807   3.322   1.351   7.435  0.2393 -1.2895  1.4856
 1058SOL    HW214808   3.186   1.392   7.409  4.7216  4.3890 -0.8354
 1059SOL     OW14809   0.425   2.339  11.220 -0.1125  0.4643 -0.3741
 1059SOL    HW114810   0.493   2.351  11.286  1.5035 -0.3058 -1.8801
 1059SOL    HW214811   0.465   2.382  11.144  0.1144  1.1549  0.1320
 1060SOL     OW14812   1.549   2.691   8.670  0.0121  0.2291 -0.2671
 1060SOL    HW114813   1.463   2.728   8.686 -0.1491  0.1727 -0.9937
 1060SOL    HW214814   1.536   2.612   8.722  0.5857  1.0741  1.1466
 1061SOL     OW14815   3.080   1.353   6.660 -0.5174 -0.0574  0.5765
 1061SOL    HW114816   3.013   1.329   6.725 -1.3321  1.3493  0.2538
 1061SOL    HW214817   3.072   1.273   6.608 -1.8992 -0.7171  1.8112
 1062SOL     OW14818   1.355   0.921   7.434  0.1530 -0.0018  0.1118
 1062SOL    HW114819   1.350   0.851   7.369  0.2102  2.1304 -2.1889
 1062SOL    HW214820   1.441   0.900   7.472  1.2405  1.4917 -1.5142
 1063SOL     OW14821   3.275   3.199   8.642  0.3581 -0.3348 -0.1285
 1063SOL    HW114822   3.200   3.258   8.636 -0.3229 -0.8485  3.4416
 1063SOL    HW214823   3.259   3.139   8.715 -2.7562  0.6936  0.0554
 1064SOL     OW14824   3.728   4.581   5.054 -0.4237  0.2782 -0.7570
 1064SOL    HW114825   3.694   4.659   5.010 -1.3685 -0.1196 -0.7076
 1064SOL    HW214826   3.728   4.513   4.987  1.1097 -0.3747 -0.0883
 1065SOL     OW14827   2.110   4.389  11.535 -0.1090 -0.4029 -0.0198
 1065SOL    HW114828   2.197   4.413  11.568  0.3379 -1.2435 -0.5869
 1065SOL    HW214829   2.073   4.346  11.611 -2.1703  0.7552 -0.3551
 1066SOL     OW14830   0.948   4.567   5.449  0.2482  0.1707 -0.4690
 1066SOL    HW114831   0.975   4.658   5.461 -1.1840  0.1278  3.1186
 1066SOL    HW214832   0.968   4.540   5.538 -4.5717  1.4566  1.0151
 1067SOL     OW14833   3.741   2.544   7.119  0.1776 -0.1247  0.6389
 1067SOL    HW114834   3.831   2.514   7.129  0.2111  0.1443  1.1759
 1067SOL    HW214835   3.743   2.606   7.046 -0.7071  0.8767  1.4613
 1068SOL     OW14836   3.243   4.235   3.544 -0.5840  1.1868  0.3762
 1068SOL    HW114837   3.212   4.280   3.466  0.3602 -1.9507 -1.7657
 1068SOL    HW214838   3.221   4.295   3.616  1.1883  2.5348 -0.2040
 1069SOL     OW14839   0.935   3.148   4.217  0.1510  0.3632 -0.1581
 1069SOL    HW114840   0.859   3.102   4.254  2.4951 -4.2899 -1.1969
 1069SOL    HW214841   1.010   3.117   4.267  0.6257  2.2704  0.2824
 1070SOL     OW14842   2.794   3.355  11.791  0.1937 -0.4009 -0.4568
 1070SOL    HW114843   2.701   3.370  11.773 -0.3361  0.3014  2.9422
 1070SOL    HW214844   2.827   3.417  11.725 -2.1294  1.2427 -0.0642
 1071SOL     OW14845   2.970   1.440   8.105  0.1117  0.2277 -0.4396
 1071SOL    HW114846   2.969   1.350   8.136  3.0230  0.1298 -0.6174
 1071SOL    HW214847   3.054   1.437   8.059  1.1249  2.0414  1.2703
 1072SOL     OW14848   1.128   1.740   9.930 -0.1371  0.3795  0.2197
 1072SOL    HW114849   1.188   1.808   9.901 -2.1559  1.1587 -2.0895
 1072SOL    HW214850   1.054   1.795   9.953  0.6395  1.5615 -0.1476
 1073SOL     OW14851   0.337   0.406   2.066  0.2564  0.3072 -0.0274
 1073SOL    HW114852   0.246   0.403   2.095  0.8776 -0.3613  1.8334
 1073SOL    HW214853   0.348   0.350   1.990  0.5417 -2.6923  2.2340
 1074SOL     OW14854   4.547   0.015   2.661 -0.0226 -0.3084 -0.3145
 1074SOL    HW114855   4.612   0.046   2.598  0.6212 -0.4669  0.2679
 1074SOL    HW214856   4.488   0.089   2.678 -1.7776 -1.9791  0.9204
 1075SOL     OW14857   0.361   2.731   5.267 -0.1480 -0.2907  0.0371
 1075SOL    HW114858   0.403   2.703   5.186  2.9507  3.0462  0.4787
 1075SOL    HW214859   0.278   2.765   5.232 -0.6338  0.7361  2.1443
 1076SOL     OW14860   2.287   4.045   0.435  0.2416  0.1526  0.0431
 1076SOL    HW114861   2.206   4.075   0.392  0.9216  2.7922  0.6107
 1076SOL    HW214862   2.292   3.954   0.404 -3.2495  0.1104 -0.4248
 1077SOL     OW14863   2.736   2.773   4.557 -0.0763 -0.4504  0.0756
 1077SOL    HW114864   2.810   2.721   4.525 -1.1851 -0.4098 -2.5027
 1077SOL    HW214865   2.746   2.772   4.652 -0.7517 -0.3698  0.1425
 1078SOL     OW14866   3.247   4.449  16.338 -0.3849  0.6248 -0.0244
 1078SOL    HW114867   3.171   4.423  16.285  0.0379  0.9330 -0.7729
 1078SOL    HW214868   3.323   4.423  16.287 -0.8382 -1.0913  0.1699
 1079SOL     OW14869   2.763   3.059   5.124 -0.1031  0.2833  0.6125
 1079SOL    HW114870   2.699   3.106   5.177  2.0523  2.3637  1.3515
 1079SOL    HW214871   2.724   3.076   5.038  0.3988 -0.7072  0.1875
 1080SOL     OW14872   1.733   1.557   0.029  0.2036 -0.4838  0.4115
 1080SOL    HW114873   1.748   1.533   0.120 -0.5824 -2.1573  0.0905
 1080SOL    HW214874   1.704   1.472  17.742  0.2756  0.0516 -1.1544
 1081SOL     OW14875   0.138   0.450   7.802 -0.1930  0.0333  0.2328
 1081SOL    HW114876   0.046   0.476   7.804 -0.3795 -0.5918 -0.2379
 1081SOL    HW214877   0.132   0.398   7.721  1.0726  0.2194  0.0296
 1082SOL     OW14878   2.765   2.863   6.798  0.4727 -0.0219 -0.3511
 1082SOL    HW114879   2.675   2.831   6.805  0.4746 -0.0592 -0.4979
 1082SOL    HW214880   2.761   2.945   6.847 -0.0772  0.0247 -0.4809
 1083SOL     OW14881   1.026   3.339   7.705  0.1630  0.3266  0.0113
 1083SOL    HW114882   0.964   3.310   7.772  1.2217 -0.4720  0.6406
 1083SOL    HW214883   1.083   3.395   7.756 -0.8246  1.5079 -0.1831
 1084SOL     OW14884   2.837   2.755   9.112  0.5416  0.1171 -0.3218
 1084SOL    HW114885   2.880   2.770   9.196  0.1796 -0.6404 -0.0001
 1084SOL    HW214886   2.786   2.834   9.095 -1.2847 -0.7914  0.9977
 1085SOL     OW14887   0.611   0.204   3.084  0.0479  0.5290  0.0368
 1085SOL    HW114888   0.623   0.246   3.169  1.6615  0.8708 -0.3641
 1085SOL    HW214889   0.619   0.288   3.039  2.4775 -0.7309 -1.8704
 1086SOL     OW14890   1.949   3.444   2.275 -0.3639  0.5828 -0.5391
 1086SOL    HW114891   1.901   3.527   2.267 -0.4047  0.4948 -1.1836
 1086SOL    HW214892   1.870   3.390   2.278 -0.4013  0.6613 -0.1594
 1087SOL     OW14893   4.132   3.073   1.045  0.0107  0.3767 -0.2632
 1087SOL    HW114894   4.195   3.120   1.099  1.4481 -1.2814 -0.4981
 1087SOL    HW214895   4.173   3.063   0.959 -0.6040 -2.0325 -0.2595
 1088SOL     OW14896   1.542   0.543   5.794  0.2262 -0.2025 -0.3449
 1088SOL    HW114897   1.612   0.535   5.859 -1.2099 -3.2645  0.8116
 1088SOL    HW214898   1.472   0.583   5.845  0.1496 -0.0457 -0.5717
 1089SOL     OW14899   4.431   0.829   0.341 -0.0169  0.1543 -0.2766
 1089SOL    HW114900   4.368   0.823   0.270 -0.7673 -0.5722  0.4546
 1089SOL    HW214901   4.436   0.739   0.374  0.2780 -0.0285 -0.8304
 1090SOL     OW14902   0.424   1.751   6.116 -0.6500 -0.2142  0.8176
 1090SOL    HW114903   0.393   1.757   6.026 -0.8110  0.9170  0.9535
 1090SOL    HW214904   0.510   1.710   6.119  0.6275  2.4827  0.6890
 1091SOL     OW14905   0.332   0.932   4.909  0.2265  0.5370 -0.1716
 1091SOL    HW114906   0.358   0.888   4.828 -0.1097  2.5083 -1.3481
 1091SOL    HW214907   0.290   1.016   4.894 -3.4659 -1.2128  0.3003
 1092SOL     OW14908   0.434   2.572   6.402 -0.0422 -0.3722 -0.0265
 1092SOL    HW114909   0.521   2.549   6.370  0.5125  1.8421 -0.0470
 1092SOL    HW214910   0.391   2.522   6.332  0.1770  2.2387 -2.0312
 1093SOL     OW14911   2.114   0.761   1.597  0.3819  0.5529 -0.1940
 1093SOL    HW114912   2.080   0.775   1.685 -2.3174  2.8221 -1.6161
 1093SOL    HW214913   2.079   0.680   1.561 -0.8739  0.4824  1.1994
 1094SOL     OW14914   3.537   0.227   0.587  0.0551  0.1973  0.4764
 1094SOL    HW114915   3.508   0.178   0.509  0.9366  1.3865 -0.5833
 1094SOL    HW214916   3.501   0.315   0.577 -0.3289  0.0393  0.4632
 1095SOL     OW14917   4.395   1.573   5.453 -0.2743 -0.6079  0.3644
 1095SOL    HW114918   4.464   1.561   5.518  2.0778  1.3146 -1.7692
 1095SOL    HW214919   4.453   1.593   5.380 -1.4853 -0.2417 -0.4818
 1096SOL     OW14920   0.282   1.268   6.532 -0.3896  0.9049  0.1891
 1096SOL    HW114921   0.309   1.352   6.495 -1.0245  1.4384  0.9221
 1096SOL    HW214922   0.349   1.254   6.599  0.4850 -1.4904 -1.2123
 1097SOL     OW14923   4.256   2.281   8.423 -0.3702 -0.0640 -0.3366
 1097SOL    HW114924   4.328   2.298   8.362  0.7532  1.7752  1.5324
 1097SOL    HW214925   4.197   2.222   8.375 -0.2983 -1.2358  1.0203
 1098SOL     OW14926   4.442   3.492   4.121 -0.1382 -0.5542  0.1195
 1098SOL    HW114927   4.453   3.469   4.213  0.9399  1.0301  0.3821
 1098SOL    HW214928   4.362   3.543   4.130  0.0716 -0.2948  0.5005
 1099SOL     OW14929   3.661   2.674   7.366  0.2900  0.0193 -0.1040
 1099SOL    HW114930   3.610   2.750   7.336  0.0569 -0.7669 -1.6877
 1099SOL    HW214931   3.680   2.624   7.286 -0.7786  0.2333 -0.4993
 1100SOL     OW14932   2.719   1.703   5.454 -0.1937  0.1859  0.4280
 1100SOL    HW114933   2.781   1.637   5.484 -3.0097 -1.1689  3.2331
 1100SOL    HW214934   2.740   1.716   5.362  0.1445 -2.0913  0.2049
 1101SOL     OW14935   2.646   2.200   2.153  0.2901 -0.3155 -0.3061
 1101SOL    HW114936   2.637   2.107   2.135  0.4847 -0.0569 -1.7064
 1101SOL    HW214937   2.710   2.228   2.087 -0.1402 -0.3411 -0.7320
 1102SOL     OW14938   3.227   3.811  13.525  0.4235 -0.0896 -0.0956
 1102SOL    HW114939   3.133   3.828  13.526  0.3020 -0.7960  0.4283
 1102SOL    HW214940   3.269   3.864  13.457 -2.6016 -0.7474 -2.4721
 1103SOL     OW14941   1.883   2.676   1.718 -0.0279 -0.4569  0.2923
 1103SOL    HW114942   1.839   2.727   1.787  0.9020  0.7915 -0.0302
 1103SOL    HW214943   1.834   2.715   1.645  1.4100  1.2966  0.2507
 1104SOL     OW14944   3.228   0.936   4.829 -0.1450 -0.1438 -0.3084
 1104SOL    HW114945   3.306   0.961   4.879 -0.2192  1.9703 -1.2370
 1104SOL    HW214946   3.158   0.948   4.893 -0.4423 -1.2165 -0.4332
 1105SOL     OW14947   0.629   3.847   2.643  0.1741  0.3659 -0.0417
 1105SOL    HW114948   0.616   3.811   2.730  1.5469  1.7543  0.7280
 1105SOL    HW214949   0.541   3.864   2.609  0.3310  0.1697 -0.5496
 1106SOL     OW14950   1.576   2.973   7.453 -0.4647  0.4263 -0.3825
 1106SOL    HW114951   1.538   2.947   7.536 -2.2802 -0.7152 -1.5835
 1106SOL    HW214952   1.504   2.990   7.392 -1.4889 -0.9356  0.4603
 1107SOL     OW14953   1.549   2.407   7.498  0.0698 -0.3855  0.0789
 1107SOL    HW114954   1.572   2.457   7.420  1.6027 -0.9707  0.1590
 1107SOL    HW214955   1.472   2.460   7.517 -0.4750  0.0685 -3.4029
 1108SOL     OW14956   1.073   2.771   7.536  0.3654  0.3251  0.2410
 1108SOL    HW114957   1.046   2.772   7.444 -0.5363 -0.0927  0.4920
 1108SOL    HW214958   1.056   2.677   7.542 -1.5552  0.6974  0.6621
 1109SOL     OW14959   3.096   1.132  10.549  0.4373  0.2054  0.2715
 1109SOL    HW114960   3.092   1.089  10.635  2.9095 -2.2032 -0.8151
 1109SOL    HW214961   3.147   1.067  10.501  0.5788 -0.1698  0.9204
 1110SOL     OW14962   0.726   4.510   7.938  0.5317 -0.0850 -0.2643
 1110SOL    HW114963   0.637   4.544   7.941  0.5849 -0.3716  3.5161
 1110SOL    HW214964   0.722   4.452   7.861  3.4226  0.1779 -0.6219
 1111SOL     OW14965   1.327   0.035   4.188 -0.1452 -0.1320  0.1765
 1111SOL    HW114966   1.389   0.103   4.212 -1.4131  0.6721  1.1323
 1111SOL    HW214967   1.376   4.725   4.119 -0.2991 -0.1548  0.0810
 1112SOL     OW14968   0.187   2.434   5.817 -0.8389 -0.2521 -0.8201
 1112SOL    HW114969   0.121   2.408   5.881  1.4451 -1.2453  1.1497
 1112SOL    HW214970   0.152   2.400   5.735 -0.5353 -2.1072 -0.1830
 1113SOL     OW14971   2.382   2.951   8.505  0.0552  0.0040 -0.4690
 1113SOL    HW114972   2.437   2.873   8.510  0.3094  0.2024 -0.1729
 1113SOL    HW214973   2.315   2.947   8.574 -2.0744 -1.2262 -2.5958
 1114SOL     OW14974   1.024   4.018   8.561 -0.0730  0.7346  0.5545
 1114SOL    HW114975   0.982   4.058   8.637 -1.4305 -0.6096  0.5275
 1114SOL    HW214976   1.084   4.084   8.529  1.8076 -1.2672 -0.0417
 1115SOL     OW14977   4.568   0.475   7.454  0.2139 -0.3056 -1.0234
 1115SOL    HW114978   4.597   0.561   7.485  2.1321 -1.7739  1.2588
 1115SOL    HW214979   4.501   0.456   7.520  0.7058  0.4494 -0.2934
 1116SOL     OW14980   0.742   3.222   9.194  0.1873 -0.1384  0.0292
 1116SOL    HW114981   0.800   3.297   9.183  1.7222 -1.8490 -3.4175
 1116SOL    HW214982   0.768   3.166   9.122 -1.1020 -1.7154  0.7936
 1117SOL     OW14983   0.089   0.210  15.893 -0.0343  0.1212 -0.0214
 1117SOL    HW114984   0.035   0.224  15.816 -0.9612 -0.2531  0.5521
 1117SOL    HW214985   0.111   0.302  15.908  1.7752 -0.1957 -0.7405
 1118SOL     OW14986   0.000   1.128   3.525 -0.1865  0.2162 -0.0703
 1118SOL    HW114987   0.060   1.106   3.596 -2.5671  0.4907  2.0348
 1118SOL    HW214988   4.683   1.192   3.572 -1.5528 -0.9824  0.0265
 1119SOL     OW14989   2.573   0.549   5.008 -0.6645 -0.3102 -0.1222
 1119SOL    HW114990   2.505   0.493   4.970 -2.6373  0.6784  1.9716
 1119SOL    HW214991   2.647   0.489   5.010 -1.2427 -0.9673  1.4870
 1120SOL     OW14992   4.136   3.161   1.530 -0.2060  0.1426  0.7032
 1120SOL    HW114993   4.098   3.091   1.477 -1.1835  1.2722 -0.1040
 1120SOL    HW214994   4.194   3.203   1.466  0.7735 -2.3991 -0.0732
 1121SOL     OW14995   2.266   1.376   4.352 -0.2177  0.1342  0.7837
 1121SOL    HW114996   2.334   1.370   4.420 -0.1052 -1.1294  0.5556
 1121SOL    HW214997   2.303   1.312   4.291 -0.0405  0.4737  0.5304
 1122SOL     OW14998   2.297   0.146   3.177 -0.1532  0.4988 -0.5952
 1122SOL    HW114999   2.269   0.233   3.149  0.2168 -0.0312 -2.6081
 1122SOL    HW215000   2.287   0.155   3.272 -0.2552  1.6479 -0.7069
 1123SOL     OW15001   1.020   1.112  14.051 -0.4908 -0.0669 -0.0484
 1123SOL    HW115002   1.099   1.164  14.037 -0.7126 -0.3065 -2.2730
 1123SOL    HW215003   0.994   1.139  14.139 -0.4283  1.0735 -0.3843
 1124SOL     OW15004   0.261   2.979  12.636 -0.3904 -0.2924 -0.0440
 1124SOL    HW115005   0.197   3.049  12.632 -2.6049 -2.4273 -1.9617
 1124SOL    HW215006   0.286   3.002  12.725 -1.8485  0.9513  0.0331
 1125SOL     OW15007   0.437   0.057   3.966  0.3103  0.4962 -0.6769
 1125SOL    HW115008   0.481   0.135   3.933 -0.5275  0.5134 -1.7470
 1125SOL    HW215009   0.444   0.002   3.888  0.8736 -0.0719 -0.2234
 1126SOL     OW15010   2.057   0.684   3.216 -0.1193 -0.0550  0.0150
 1126SOL    HW115011   2.038   0.712   3.126  1.0922  2.1536  0.4481
 1126SOL    HW215012   2.148   0.713   3.228 -0.2778  0.0753  0.8803
 1127SOL     OW15013   4.575   4.675  10.153 -0.8238 -0.0684 -0.3581
 1127SOL    HW115014   4.619   0.003  10.210 -0.2671 -2.4146  1.8681
 1127SOL    HW215015   4.511   4.731  10.109 -1.1777 -1.4426 -1.5827
 1128SOL     OW15016   4.385   3.830   7.769  0.7915  0.3360 -0.5073
 1128SOL    HW115017   4.309   3.802   7.719  1.3863 -0.8149 -0.7719
 1128SOL    HW215018   4.394   3.766   7.839  1.2762  0.5734 -0.3503
 1129SOL     OW15019   0.094   2.839   5.211 -0.4853 -0.1951 -0.2153
 1129SOL    HW115020   0.086   2.934   5.202  0.4573 -0.1118 -0.1697
 1129SOL    HW215021   0.001   2.817   5.221 -1.1014  3.3715  1.8285
 1130SOL     OW15022   0.349   0.532   5.097  0.1357 -0.4501  0.5465
 1130SOL    HW115023   0.307   0.471   5.158 -2.2021  0.2557 -0.3545
 1130SOL    HW215024   0.271   0.571   5.059  0.2983 -0.0218  0.6428
 1131SOL     OW15025   2.530   2.643   4.820  0.3362  0.1648  0.1043
 1131SOL    HW115026   2.507   2.659   4.729  0.7952  0.1547 -0.0149
 1131SOL    HW215027   2.613   2.691   4.827  1.3963 -1.8374  1.5481
 1132SOL     OW15028   0.034   3.224  11.523  0.0799 -0.4211  0.5527
 1132SOL    HW115029   4.682   3.210  11.490  0.3284  1.1559 -0.7768
 1132SOL    HW215030   0.005   3.235  11.614  1.5756  0.7947  0.8789
 1133SOL     OW15031   1.062   4.657   9.303  0.6816  0.0256 -0.0628
 1133SOL    HW115032   1.036   4.590   9.240  1.1150 -1.0671  0.9235
 1133SOL    HW215033   0.971   4.684   9.316  0.2223 -1.6977  0.3762
 1134SOL     OW15034   0.415   0.136   3.510  0.3661 -0.2140 -0.3105
 1134SOL    HW115035   0.421   0.042   3.525 -1.8209 -0.0665  1.3988
 1134SOL    HW215036   0.325   0.149   3.540  0.8234  2.4662 -0.1075
 1135SOL     OW15037   3.905   3.605   6.805  0.4536  0.9298  0.1539
 1135SOL    HW115038   3.848   3.547   6.755 -0.7557  1.3813  1.0262
 1135SOL    HW215039   3.990   3.584   6.767  1.0535  1.7347  1.0318
 1136SOL     OW15040   0.242   3.446  17.305 -0.0225 -0.4546  0.3488
 1136SOL    HW115041   0.282   3.460  17.219  0.5491  1.5314  0.9310
 1136SOL    HW215042   0.275   3.357  17.317 -1.2312 -0.9860 -0.2309
 1137SOL     OW15043   3.506   3.550   0.292  0.7704 -0.1324 -0.1545
 1137SOL    HW115044   3.418   3.568   0.325  0.7929 -1.6085  0.6951
 1137SOL    HW215045   3.505   3.462   0.329 -1.4492 -0.2586 -0.4874
 1138SOL     OW15046   2.522   4.289   8.016  0.4021  0.1948  0.4708
 1138SOL    HW115047   2.466   4.333   8.080  1.6568  0.6028  1.2767
 1138SOL    HW215048   2.593   4.352   8.004  1.2977 -0.7617  0.7934
 1139SOL     OW15049   1.421   3.422  15.463 -0.2258 -0.6134  0.5904
 1139SOL    HW115050   1.434   3.514  15.439 -0.3994 -1.0378 -1.1075
 1139SOL    HW215051   1.505   3.380  15.478 -0.0829 -1.3202 -2.1917
 1140SOL     OW15052   3.805   3.827   5.435 -0.1955  0.2240 -0.0267
 1140SOL    HW115053   3.718   3.795   5.415 -0.9229  2.1488  0.0228
 1140SOL    HW215054   3.825   3.869   5.351 -1.1966 -0.3839 -0.5658
 1141SOL     OW15055   3.042   3.663   3.626  0.0191  0.0543  0.2470
 1141SOL    HW115056   3.045   3.584   3.680 -0.6764  0.0462  0.2731
 1141SOL    HW215057   2.958   3.657   3.581 -0.9021  2.6147  1.6428
 1142SOL     OW15058   3.214   3.010   5.940  0.5883  0.5324 -0.7144
 1142SOL    HW115059   3.186   2.928   5.980 -0.8828  0.7142 -1.3749
 1142SOL    HW215060   3.132   3.055   5.919 -1.5073 -2.6728  0.6598
 1143SOL     OW15061   2.768   1.610   7.802 -0.3734  0.1963 -0.2329
 1143SOL    HW115062   2.823   1.649   7.870  1.0910 -2.9326  0.3700
 1143SOL    HW215063   2.817   1.645   7.727  0.0744 -1.3626 -0.6638
 1144SOL     OW15064   3.254   2.782   8.916 -0.0122  0.1446 -0.6233
 1144SOL    HW115065   3.292   2.864   8.945  0.6110 -0.1852 -0.5100
 1144SOL    HW215066   3.190   2.762   8.984  0.7357 -0.1486 -0.0035
 1145SOL     OW15067   2.680   4.538   9.997 -0.7712 -0.4227  0.5869
 1145SOL    HW115068   2.698   4.571   9.909  1.5801  1.7234  1.8524
 1145SOL    HW215069   2.757   4.484  10.016 -1.1008 -1.5779 -1.3540
 1146SOL     OW15070   3.293   3.822   9.455 -0.6672 -0.4728  0.0770
 1146SOL    HW115071   3.238   3.872   9.394  0.4749  2.4485  1.4859
 1146SOL    HW215072   3.346   3.770   9.395  0.3302 -1.0931  1.5042
 1147SOL     OW15073   3.013   4.457   6.010  0.0717 -0.6534  0.0650
 1147SOL    HW115074   3.092   4.509   6.019  0.1610 -0.6736 -0.6209
 1147SOL    HW215075   3.027   4.395   6.082 -3.1607  0.8475  1.9876
 1148SOL     OW15076   3.922   2.787  11.806  0.1898  0.1389 -0.4915
 1148SOL    HW115077   3.860   2.717  11.828 -1.6687  1.7599 -0.5816
 1148SOL    HW215078   3.892   2.845  11.876 -0.6993 -1.4169  0.4336
 1149SOL     OW15079   2.820   1.297   6.072  0.6183 -0.5932 -0.3201
 1149SOL    HW115080   2.802   1.345   6.153  0.1517  1.7321 -1.7854
 1149SOL    HW215081   2.732   1.297   6.033  0.1595 -1.5210  0.7305
 1150SOL     OW15082   0.690   4.076  14.830  0.1712 -0.5397 -0.5145
 1150SOL    HW115083   0.732   4.076  14.744  1.4160 -1.1154  0.1072
 1150SOL    HW215084   0.603   4.115  14.818  1.7221  2.5902 -1.2959
 1151SOL     OW15085   4.559   1.070   1.750 -0.1476 -0.2574 -0.2123
 1151SOL    HW115086   4.601   1.122   1.682  1.0066 -1.0215 -0.0766
 1151SOL    HW215087   4.626   1.056   1.816  1.3896 -2.0260 -2.1402
 1152SOL     OW15088   0.685   0.027   1.888 -1.1641 -0.6290  0.3710
 1152SOL    HW115089   0.682   4.696   1.820 -0.3414  0.4605 -0.7361
 1152SOL    HW215090   0.747   0.088   1.847 -2.4923 -0.2469 -1.0804
 1153SOL     OW15091   1.948   1.873  15.804 -0.8421  1.0366 -0.0495
 1153SOL    HW115092   1.979   1.937  15.739 -0.0013 -0.0257 -0.6940
 1153SOL    HW215093   1.950   1.789  15.758 -4.1936  0.8094  0.2674
 1154SOL     OW15094   2.748   1.858   2.735 -0.1921  0.1830  0.0092
 1154SOL    HW115095   2.671   1.831   2.784  0.7207 -1.4422  0.5792
 1154SOL    HW215096   2.820   1.801   2.764  0.6951  1.1142 -0.3701
 1155SOL     OW15097   4.240   0.998   5.068  0.0400  0.2610 -0.4311
 1155SOL    HW115098   4.234   0.953   4.984  1.9433 -1.4096  0.3310
 1155SOL    HW215099   4.189   1.078   5.052 -1.9857 -0.8341  0.5548
 1156SOL     OW15100   2.979   4.603   3.600  0.0717 -0.1074  0.0242
 1156SOL    HW115101   3.068   4.617   3.566 -0.1087 -1.6364 -1.0696
 1156SOL    HW215102   2.928   4.683   3.583  1.0729  0.8370  1.4474
 1157SOL     OW15103   4.076   1.896  11.495 -0.4618  0.4362 -0.0680
 1157SOL    HW115104   3.987   1.886  11.460 -0.1951 -0.9512 -0.3468
 1157SOL    HW215105   4.069   1.864  11.585  1.2183  0.3990  0.0353
 1158SOL     OW15106   0.337   4.332   5.195  0.1208 -0.1482 -0.1207
 1158SOL    HW115107   0.268   4.372   5.248  0.6050 -0.4474  0.7484
 1158SOL    HW215108   0.336   4.251   5.246 -1.6223  1.2911  2.1439
 1159SOL     OW15109   1.592   3.393   1.844  0.0364  0.5753  0.3917
 1159SOL    HW115110   1.521   3.455   1.832 -2.4231 -2.2296  0.3400
 1159SOL    HW215111   1.592   3.342   1.763 -0.7517  0.7824  0.2636
 1160SOL     OW15112   0.995   0.666   3.259  0.5159  0.7825  0.3696
 1160SOL    HW115113   1.075   0.655   3.310 -0.0127  0.1338  1.0612
 1160SOL    HW215114   0.927   0.654   3.326  0.3917  0.3112  0.1564
 1161SOL     OW15115   3.844   3.381  11.640  0.0323  0.1033  0.2261
 1161SOL    HW115116   3.909   3.311  11.632 -2.1402 -1.7690 -0.9844
 1161SOL    HW215117   3.822   3.386  11.547 -0.7826  1.6035  0.5071
 1162SOL     OW15118   2.329   0.794   3.169 -0.2198 -0.0396  0.0455
 1162SOL    HW115119   2.348   0.852   3.095 -3.0535  0.5166 -0.2410
 1162SOL    HW215120   2.361   0.707   3.143  0.8269  0.5930 -0.7871
 1163SOL     OW15121   1.934   4.240   7.679 -0.2414 -0.2555  0.2646
 1163SOL    HW115122   1.943   4.145   7.691  0.6384 -0.1134  0.7593
 1163SOL    HW215123   1.846   4.259   7.711 -0.6132 -1.0808 -0.2840
 1164SOL     OW15124   1.747   4.439   3.724 -0.0548  0.4239  0.1003
 1164SOL    HW115125   1.687   4.368   3.748  2.1378 -1.1130  0.9901
 1164SOL    HW215126   1.700   4.487   3.656 -0.5417  2.0660  1.6086
 1165SOL     OW15127   4.082   4.573   2.018 -0.0807 -0.7850  0.1409
 1165SOL    HW115128   4.034   4.626   1.953 -0.2893 -2.4438 -1.0508
 1165SOL    HW215129   4.018   4.508   2.048 -0.1095 -1.0915 -0.6042
 1166SOL     OW15130   0.543   0.284   8.797  0.0971 -0.3030  0.6253
 1166SOL    HW115131   0.604   0.245   8.734  0.4171 -0.6101  1.1283
 1166SOL    HW215132   0.483   0.211   8.816 -0.1629 -0.4129 -0.5902
 1167SOL     OW15133   2.734   2.239   5.275  0.3815 -0.2640 -0.2878
 1167SOL    HW115134   2.652   2.261   5.319  0.0574  1.4406 -1.7394
 1167SOL    HW215135   2.771   2.322   5.244 -2.1469  0.8416 -0.3729
 1168SOL     OW15136   3.299   3.124  14.140  0.8874 -0.9225  0.4828
 1168SOL    HW115137   3.301   3.094  14.231  1.3457 -0.1113  0.7462
 1168SOL    HW215138   3.384   3.093  14.109  1.3541  0.1200  0.6959
 1169SOL     OW15139   0.716   1.499   3.140 -0.4026  0.6037 -0.0131
 1169SOL    HW115140   0.737   1.531   3.228 -1.1444  0.3362  0.2599
 1169SOL    HW215141   0.707   1.408   3.171  2.7865 -0.5891 -2.5902
 1170SOL     OW15142   0.762   3.624   6.960  0.2851 -0.0895 -0.4128
 1170SOL    HW115143   0.752   3.715   6.931  0.2881 -0.2779 -1.0177
 1170SOL    HW215144   0.806   3.619   7.044  1.3552 -0.2912 -0.9843
 1171SOL     OW15145   0.143   1.531   7.670 -0.4099  0.1984  0.5334
 1171SOL    HW115146   0.113   1.616   7.637  0.0801  0.2736  0.2762
 1171SOL    HW215147   0.207   1.505   7.604 -2.2018 -3.7395  0.3247
 1172SOL     OW15148   1.918   0.417   5.658 -0.8763 -0.4702  0.2845
 1172SOL    HW115149   1.938   0.364   5.580  0.3715  0.9837 -0.3750
 1172SOL    HW215150   1.991   0.479   5.662 -1.4447  0.2415 -0.3028
 1173SOL     OW15151   3.303   4.563  14.628 -0.5256  0.6618  0.3102
 1173SOL    HW115152   3.338   4.474  14.630 -0.1626  0.8094  0.6021
 1173SOL    HW215153   3.341   4.598  14.709  1.3573  1.4960 -0.9462
 1174SOL     OW15154   1.909   2.295   7.425 -0.2724 -0.3631 -0.5101
 1174SOL    HW115155   1.883   2.313   7.515  0.3356  0.1286 -0.4321
 1174SOL    HW215156   2.003   2.293   7.440 -0.3233  1.4564 -0.0094
 1175SOL     OW15157   4.459   2.994   3.796  0.3433 -0.3882  0.2187
 1175SOL    HW115158   4.437   2.987   3.889  1.7010  0.4741  0.5958
 1175SOL    HW215159   4.481   3.086   3.783  0.4267 -0.8898 -3.4463
 1176SOL     OW15160   1.170   1.944   7.513 -0.0792  0.4164 -0.1620
 1176SOL    HW115161   1.266   1.940   7.515 -0.1222  0.3067  1.5550
 1176SOL    HW215162   1.148   1.895   7.592  2.9850 -3.4664 -1.6947
 1177SOL     OW15163   3.595   4.707   7.981 -0.1023 -0.0381  0.0372
 1177SOL    HW115164   3.519   4.652   8.000  0.9122 -0.8379  1.7741
 1177SOL    HW215165   3.668   4.646   7.981 -0.0218  0.0573  1.9609
 1178SOL     OW15166   0.199   1.867   9.135  1.2499 -0.5473 -0.2402
 1178SOL    HW115167   0.136   1.893   9.203  0.1395 -0.8834 -1.1425
 1178SOL    HW215168   0.240   1.791   9.177 -2.5185 -3.1700 -1.2444
 1179SOL     OW15169   3.713   2.043   4.812  0.0457 -0.1095 -0.6682
 1179SOL    HW115170   3.695   1.972   4.873  0.3401 -0.4602 -0.9935
 1179SOL    HW215171   3.725   2.003   4.726  1.8708 -0.1103 -0.4247
 1180SOL     OW15172   0.082   0.960  12.736  0.6251  0.4604 -0.7209
 1180SOL    HW115173   0.052   0.880  12.693 -0.5446  1.1006 -1.1127
 1180SOL    HW215174   0.084   0.938  12.829  0.7805  2.3118 -0.2692
 1181SOL     OW15175   0.938   0.205   7.070 -0.1500  0.1783  0.2265
 1181SOL    HW115176   0.960   0.114   7.051 -1.6913  0.2853 -2.0420
 1181SOL    HW215177   0.994   0.218   7.146  1.0139  3.6854 -1.2250
 1182SOL     OW15178   3.313   0.499   1.425  0.5074  0.8078  0.3519
 1182SOL    HW115179   3.299   0.557   1.500 -0.6971 -1.0015  1.5392
 1182SOL    HW215180   3.392   0.542   1.394  0.7127 -0.1853 -0.5055
 1183SOL     OW15181   4.523   0.330  15.852 -0.0018 -0.1965  0.9426
 1183SOL    HW115182   4.489   0.347  15.764 -0.6063  0.2261  1.2597
 1183SOL    HW215183   4.598   0.390  15.852 -0.5739  0.4970 -0.1727
 1184SOL     OW15184   2.008   1.624   5.146 -0.0185 -0.0405  0.3010
 1184SOL    HW115185   1.953   1.631   5.068 -0.0077 -0.8144  0.2248
 1184SOL    HW215186   2.050   1.710   5.147 -3.2788  1.5493 -0.0281
 1185SOL     OW15187   0.751   4.563   4.697  0.2396  0.2000 -0.5417
 1185SOL    HW115188   0.815   4.629   4.726 -1.4027  0.3275  2.7393
 1185SOL    HW215189   0.692   4.562   4.772 -0.2114  0.0646 -0.9018
 1186SOL     OW15190   0.738   3.472   0.703 -0.2301 -0.1386 -0.0363
 1186SOL    HW115191   0.784   3.473   0.787 -0.9667  0.2696  0.3638
 1186SOL    HW215192   0.759   3.385   0.671 -1.1931 -0.7285  0.9239
 1187SOL     OW15193   1.539   2.561   9.104 -0.1344  0.4084  0.4412
 1187SOL    HW115194   1.630   2.588   9.109  0.3921 -1.5880  1.4730
 1187SOL    HW215195   1.545   2.469   9.129 -0.0850  0.5977  1.1112
 1188SOL     OW15196   2.500   1.720  16.899  0.2008 -0.0232 -0.3603
 1188SOL    HW115197   2.435   1.654  16.878  2.4967 -1.8430 -1.7445
 1188SOL    HW215198   2.531   1.683  16.982 -3.1231 -1.2692  0.2940
 1189SOL     OW15199   0.696   1.970   9.067 -0.1677 -0.0440 -0.0109
 1189SOL    HW115200   0.766   1.909   9.043 -1.3727 -1.3324 -0.2194
 1189SOL    HW215201   0.609   1.932   9.057  0.3365 -0.6805 -1.9235
 1190SOL     OW15202   3.921   1.950  14.721 -0.1795  0.2664  0.4060
 1190SOL    HW115203   3.902   1.860  14.697 -1.6629  0.5414  0.5922
 1190SOL    HW215204   3.973   1.970  14.643 -0.0692  0.5371  0.5474
 1191SOL     OW15205   1.044   0.231   4.399  0.3216 -0.4600 -0.3382
 1191SOL    HW115206   1.035   0.325   4.385 -0.1718 -0.1815  1.8922
 1191SOL    HW215207   1.106   0.227   4.325  0.6790  1.1056 -0.1157
 1192SOL     OW15208   3.997   1.660   4.780  0.1156 -0.4949  0.1597
 1192SOL    HW115209   4.078   1.631   4.737 -1.3178 -1.8927 -1.6065
 1192SOL    HW215210   4.013   1.616   4.863 -1.5027 -0.2534  0.5880
 1193SOL     OW15211   1.407   3.060   4.601  0.4910 -0.0281 -0.1752
 1193SOL    HW115212   1.413   3.080   4.694  0.4289  1.8323 -0.5729
 1193SOL    HW215213   1.375   3.144   4.566  0.9252  0.4070  0.4792
 1194SOL     OW15214   0.500   4.183  12.293 -0.0353  0.8498  0.0075
 1194SOL    HW115215   0.455   4.215  12.372 -0.7938  0.6754 -0.3574
 1194SOL    HW215216   0.443   4.200  12.219 -1.2047  0.7458  0.8784
 1195SOL     OW15217   4.717   2.677   2.489 -0.1192 -0.2472  0.6901
 1195SOL    HW115218   4.646   2.681   2.425 -1.6895 -0.3620  2.4188
 1195SOL    HW215219   4.730   2.582   2.482  0.4338  0.2876 -4.9341
 1196SOL     OW15220   2.791   1.309   3.582  0.0773  0.5960 -0.0797
 1196SOL    HW115221   2.784   1.404   3.590 -0.9359  0.3929  1.3050
 1196SOL    HW215222   2.709   1.283   3.623 -0.1789  1.1958 -0.2169
 1197SOL     OW15223   3.431   0.157   4.754  0.0750  0.5438 -0.5458
 1197SOL    HW115224   3.514   0.115   4.730  0.3760  3.0182 -3.8886
 1197SOL    HW215225   3.401   0.177   4.665 -0.1122 -0.7987 -0.7927
 1198SOL     OW15226   1.946   0.960   4.487 -0.2330  0.1482  0.0535
 1198SOL    HW115227   1.861   0.995   4.458 -0.4857 -0.3343  0.2047
 1198SOL    HW215228   1.997   0.962   4.406 -1.8177 -0.8649 -0.9790
 1199SOL     OW15229   1.999   4.137   3.213  0.0926  0.0433  0.0763
 1199SOL    HW115230   2.064   4.206   3.202 -0.6483  0.3178 -2.5851
 1199SOL    HW215231   2.019   4.081   3.138 -1.9792 -2.3958  1.3696
 1200SOL     OW15232   4.344   2.261   3.492 -0.0751  0.1269  0.0746
 1200SOL    HW115233   4.280   2.251   3.421 -0.3862 -1.2708  0.5555
 1200SOL    HW215234   4.336   2.180   3.542 -0.5736  0.3924  0.4193
 1201SOL     OW15235   1.518   4.364   6.629  0.0989  0.0609  0.6979
 1201SOL    HW115236   1.560   4.449   6.644 -0.1599  0.4364 -0.6503
 1201SOL    HW215237   1.484   4.359   6.718 -1.3319 -1.3339  0.0604
 1202SOL     OW15238   1.685   0.077   8.598  0.3816 -0.0485 -0.0225
 1202SOL    HW115239   1.723   4.735   8.559 -3.2295 -0.8276 -1.9891
 1202SOL    HW215240   1.735   0.085   8.679  0.7625 -3.2198  0.0419
 1203SOL     OW15241   0.176   0.228   8.593 -0.4601  0.1977  1.1554
 1203SOL    HW115242   0.239   0.156   8.584  0.3360  1.0444 -0.0696
 1203SOL    HW215243   0.088   0.193   8.608  0.1272 -0.0604  3.8810
 1204SOL     OW15244   4.697   1.493   7.005  0.7742 -0.0914 -0.5050
 1204SOL    HW115245   4.686   1.410   7.051 -0.3586  0.4809  0.2609
 1204SOL    HW215246   0.052   1.477   6.981  1.0501 -1.4543  1.4568
 1205SOL     OW15247   1.800   4.721   6.861 -0.1157  0.1856 -0.1077
 1205SOL    HW115248   1.849   4.712   6.779  2.6391  0.2343  1.5484
 1205SOL    HW215249   1.822   0.072   6.894  2.2485 -0.6436  0.4965
 1206SOL     OW15250   3.424   3.692   6.216  0.1127  0.1484 -0.1198
 1206SOL    HW115251   3.343   3.702   6.266 -0.8915  0.4453 -1.8129
 1206SOL    HW215252   3.389   3.675   6.129 -0.9344 -0.7822  0.4704
 1207SOL     OW15253   3.953   3.547   2.753 -0.3740  0.1133  0.6049
 1207SOL    HW115254   3.918   3.458   2.754 -2.3025  0.8392 -1.0319
 1207SOL    HW215255   4.028   3.537   2.812 -0.3859 -1.9505  0.2744
 1208SOL     OW15256   3.727   3.434   0.699  0.0256 -0.1850  0.1525
 1208SOL    HW115257   3.786   3.421   0.773  2.3764  2.1553 -1.2730
 1208SOL    HW215258   3.758   3.520   0.669  0.7923 -0.2860  0.6532
 1209SOL     OW15259   3.019   2.289   5.388 -0.6821 -0.0383  0.4172
 1209SOL    HW115260   2.961   2.263   5.316  0.6480 -1.9909  0.0341
 1209SOL    HW215261   3.066   2.211   5.417 -1.6888 -0.5418  0.6846
 1210SOL     OW15262   1.329   0.298   8.156 -0.3305  0.3476 -0.8318
 1210SOL    HW115263   1.313   0.229   8.220  0.8495 -0.5586 -1.5110
 1210SOL    HW215264   1.365   0.240   8.089  0.9773  1.3709 -1.0191
 1211SOL     OW15265   4.594   3.814  14.007  0.5434 -0.4117 -0.4180
 1211SOL    HW115266   4.686   3.797  14.025  0.4986  0.3093  0.5038
 1211SOL    HW215267   4.593   3.875  13.934 -2.1944 -0.9018 -0.7906
 1212SOL     OW15268   1.000   4.390   0.507 -0.5713  0.3251 -0.1364
 1212SOL    HW115269   1.057   4.447   0.558  1.2766 -0.2350 -1.5584
 1212SOL    HW215270   0.984   4.442   0.428 -0.7324  0.1341 -0.2304
 1213SOL     OW15271   1.442   0.531   9.123 -0.2230 -0.1475 -0.0190
 1213SOL    HW115272   1.355   0.514   9.086  0.2781 -1.1778 -0.7257
 1213SOL    HW215273   1.451   0.446   9.167 -0.8767 -0.6631 -0.8942
 1214SOL     OW15274   3.115   2.215  17.623  0.2100  0.1177 -0.3675
 1214SOL    HW115275   3.102   2.300  17.663  0.4426  0.4819 -1.0655
 1214SOL    HW215276   3.121   2.249  17.534 -1.2865 -1.2093 -0.9945
 1215SOL     OW15277   2.454   4.185   4.093 -0.0932 -0.5235  0.2212
 1215SOL    HW115278   2.386   4.237   4.049 -0.3742 -1.3713 -0.3389
 1215SOL    HW215279   2.535   4.224   4.059 -0.9288  1.5740  0.5934
 1216SOL     OW15280   2.466   1.775   4.891  0.0809 -0.2969 -0.4740
 1216SOL    HW115281   2.388   1.829   4.881  0.4496  0.5961  1.5462
 1216SOL    HW215282   2.453   1.731   4.806 -2.3200 -2.2518  0.9058
 1217SOL     OW15283   3.599   3.307  10.175  0.1079 -0.0210 -0.6102
 1217SOL    HW115284   3.606   3.219  10.138 -0.0077 -0.5189  0.5648
 1217SOL    HW215285   3.538   3.343  10.111 -0.3476 -0.5184 -0.4521
 1218SOL     OW15286   4.000   2.480   2.695  0.2791  0.0955  0.3257
 1218SOL    HW115287   3.957   2.490   2.780 -1.6490 -4.0630 -0.1592
 1218SOL    HW215288   4.090   2.458   2.722  0.5885  1.4902  0.4403
 1219SOL     OW15289   2.227   2.805   2.542  0.3422 -0.2379  0.3787
 1219SOL    HW115290   2.262   2.888   2.576 -1.1592 -0.3628  2.2079
 1219SOL    HW215291   2.147   2.793   2.593 -0.4123  0.7351 -0.5878
 1220SOL     OW15292   3.047   4.168   5.913 -0.2297  0.2303 -0.0889
 1220SOL    HW115293   3.124   4.225   5.918  0.5752 -0.9405  0.8837
 1220SOL    HW215294   2.987   4.222   5.965 -0.6808 -1.1897  0.8923
 1221SOL     OW15295   1.043   2.915  12.083  0.3317 -0.1147 -0.0968
 1221SOL    HW115296   0.967   2.859  12.068  1.2253 -0.9513 -1.4552
 1221SOL    HW215297   1.086   2.917  11.998 -1.2516 -1.7739 -0.9347
 1222SOL     OW15298   3.700   1.713   1.173  0.1724  0.3013 -0.3812
 1222SOL    HW115299   3.624   1.657   1.189  1.2056 -1.5464 -1.8721
 1222SOL    HW215300   3.706   1.759   1.257  1.0342  2.0956 -1.4287
 1223SOL     OW15301   3.154   3.212   2.681 -0.3128 -0.0919 -0.1321
 1223SOL    HW115302   3.200   3.296   2.677  0.3841 -0.4802 -0.2043
 1223SOL    HW215303   3.210   3.157   2.736  0.4715  1.2014  0.3808
 1224SOL     OW15304   0.764   0.768   7.644  0.7434 -0.3415 -0.4328
 1224SOL    HW115305   0.787   0.719   7.723 -0.9715 -1.5826 -0.7090
 1224SOL    HW215306   0.689   0.821   7.671  1.0775 -0.0855  0.0036
 1225SOL     OW15307   4.033   3.018   5.760 -0.0758 -0.6605  0.5662
 1225SOL    HW115308   4.116   2.969   5.760 -0.5138 -1.4087  2.1527
 1225SOL    HW215309   4.040   3.065   5.843 -3.6002  0.9565 -0.0769
 1226SOL     OW15310   4.236   4.382  16.199  0.1061  0.1125  0.3328
 1226SOL    HW115311   4.188   4.309  16.238 -1.3165 -0.3652 -2.2606
 1226SOL    HW215312   4.295   4.412  16.267  0.5123 -0.0582  0.0540
 1227SOL     OW15313   2.202   4.431  13.711 -0.2786 -0.8543 -0.1634
 1227SOL    HW115314   2.216   4.526  13.710  0.4166 -0.9488  1.4164
 1227SOL    HW215315   2.116   4.419  13.750  0.3568 -0.2457  1.3841
 1228SOL     OW15316   3.186   3.098   4.763 -0.3065 -0.4224 -0.1269
 1228SOL    HW115317   3.215   3.187   4.741  1.5402 -0.9972  0.0532
 1228SOL    HW215318   3.269   3.055   4.782 -0.6923 -1.3371 -0.4872
 1229SOL     OW15319   3.832   1.129   3.518  0.3532  0.0763 -0.4356
 1229SOL    HW115320   3.878   1.174   3.447  0.1810  0.7325 -0.1320
 1229SOL    HW215321   3.782   1.067   3.466 -0.8745  0.6438  0.0739
 1230SOL     OW15322   2.270   1.925   9.560 -0.3917  0.2082 -0.1936
 1230SOL    HW115323   2.189   1.947   9.514  0.0459  2.5156  0.1482
 1230SOL    HW215324   2.245   1.836   9.583 -0.1259 -0.0388 -0.8698
 1231SOL     OW15325   2.352   1.435   9.580  0.2837  0.4434  0.4336
 1231SOL    HW115326   2.301   1.362   9.615  1.2526 -0.8056 -0.7655
 1231SOL    HW215327   2.417   1.384   9.531 -1.8892 -2.1135  0.1836
 1232SOL     OW15328   1.464   1.227   9.260 -0.1767 -0.1260  0.8911
 1232SOL    HW115329   1.410   1.303   9.280 -1.0239 -0.7008  0.7550
 1232SOL    HW215330   1.531   1.234   9.329 -0.3829  1.5417  0.9161
 1233SOL     OW15331   2.579   3.902   3.538 -0.7191 -0.0880 -0.3067
 1233SOL    HW115332   2.605   3.992   3.556 -1.9971 -0.0848  1.5024
 1233SOL    HW215333   2.514   3.919   3.469 -0.6812  0.8311 -0.1153
 1234SOL     OW15334   3.606   1.934   6.246  0.1540 -0.2969  0.7390
 1234SOL    HW115335   3.587   2.024   6.272  0.0090  0.6156 -2.4369
 1234SOL    HW215336   3.595   1.932   6.151 -0.8315 -0.2401  0.8511
 1235SOL     OW15337   4.296   2.399   9.523 -0.0899 -0.1898  0.2383
 1235SOL    HW115338   4.337   2.365   9.443 -0.2472  0.9135 -0.3263
 1235SOL    HW215339   4.242   2.324   9.547 -0.1793  0.3815  1.7721
 1236SOL     OW15340   1.652   2.931   5.553  0.2034  0.6221 -0.2283
 1236SOL    HW115341   1.666   2.840   5.579 -2.1532  0.2349 -0.2646
 1236SOL    HW215342   1.713   2.983   5.604  0.0257  1.5433 -0.9531
 1237SOL     OW15343   4.448   3.421   7.015 -0.0464  0.2178  0.1279
 1237SOL    HW115344   4.372   3.422   7.074  0.1543  3.0717  0.3474
 1237SOL    HW215345   4.440   3.328   6.993 -0.9107  0.2119  0.4328
 1238SOL     OW15346   1.209   4.442  14.816  0.6018  0.4076 -0.0962
 1238SOL    HW115347   1.234   4.508  14.880 -0.5350  2.1802 -1.4819
 1238SOL    HW215348   1.177   4.368  14.868  1.5517 -0.5446 -0.8623
 1239SOL     OW15349   2.140   0.109   7.856  0.0155 -0.1749 -0.3922
 1239SOL    HW115350   2.067   0.137   7.912  2.1147  0.9428  1.8044
 1239SOL    HW215351   2.141   0.013   7.855  1.0918 -0.1544 -1.4201
 1240SOL     OW15352   3.424   4.364  12.948  0.2778 -0.4581  0.1657
 1240SOL    HW115353   3.468   4.445  12.921  0.3410 -0.2030  1.0069
 1240SOL    HW215354   3.459   4.348  13.036  0.9901 -2.1658 -0.4276
 1241SOL     OW15355   2.708   3.341   7.056 -0.1089  0.1797 -0.4579
 1241SOL    HW115356   2.715   3.387   7.139 -0.7604 -2.9893  1.3244
 1241SOL    HW215357   2.794   3.299   7.049  0.8113  2.2507 -1.6817
 1242SOL     OW15358   1.347   0.751   7.228  0.3304  0.4753 -0.5767
 1242SOL    HW115359   1.380   0.665   7.202  1.3037  0.5117  0.5231
 1242SOL    HW215360   1.256   0.724   7.234  1.2626 -2.2643  1.3699
 1243SOL     OW15361   2.062   0.610   0.446 -0.6139  0.8599  0.6703
 1243SOL    HW115362   2.004   0.541   0.413  1.2656 -0.1786 -0.4085
 1243SOL    HW215363   2.042   0.609   0.540 -1.6191 -0.4401  0.4436
 1244SOL     OW15364   3.364   2.520   2.658 -0.1712  0.2066 -0.3002
 1244SOL    HW115365   3.454   2.513   2.626 -0.9530 -3.0955 -1.7199
 1244SOL    HW215366   3.302   2.477   2.599  1.7164 -0.1089 -2.0741
 1245SOL     OW15367   1.850   3.409  11.847  0.2179 -0.3310 -0.4245
 1245SOL    HW115368   1.857   3.326  11.894  2.3052  0.6730  1.0109
 1245SOL    HW215369   1.932   3.424  11.800 -0.5521  0.6002 -1.4607
 1246SOL     OW15370   1.360   4.356   3.825  0.3687 -0.0992 -0.1923
 1246SOL    HW115371   1.404   4.279   3.789  0.5910  0.8715 -1.9929
 1246SOL    HW215372   1.269   4.329   3.817  0.1372 -0.0335  2.2526
 1247SOL     OW15373   0.210   2.970   4.358 -0.0024  0.3983 -0.1818
 1247SOL    HW115374   0.129   2.968   4.307 -0.4649 -2.1065  0.6211
 1247SOL    HW215375   0.273   2.944   4.291  1.3406  0.4406  1.0845
 1248SOL     OW15376   0.159   2.553   8.964  0.0799 -0.1243  0.4678
 1248SOL    HW115377   0.201   2.468   8.982 -1.3681 -0.8185  0.5817
 1248SOL    HW215378   0.214   2.609   9.019 -2.0096  2.0359  0.3702
 1249SOL     OW15379   2.218   4.185   4.419  0.4801 -0.3565 -0.2439
 1249SOL    HW115380   2.178   4.211   4.336 -0.1675 -1.1959 -0.1955
 1249SOL    HW215381   2.310   4.210   4.410  0.8739 -1.4077  1.0343
 1250SOL     OW15382   3.898   4.526   6.960 -0.4824 -0.2063  0.0869
 1250SOL    HW115383   3.887   4.590   7.030  3.2601  0.7921 -0.2316
 1250SOL    HW215384   3.848   4.455   7.000 -0.4854  0.8251  1.9075
 1251SOL     OW15385   4.358   2.600   5.288 -0.1432 -0.2127  0.6258
 1251SOL    HW115386   4.280   2.545   5.284  0.0273 -0.5877  2.3564
 1251SOL    HW215387   4.422   2.543   5.332 -1.0617 -1.0779  0.8400
 1252SOL     OW15388   3.785   0.602  10.040 -0.5179 -0.1578  0.5348
 1252SOL    HW115389   3.845   0.658   9.991 -2.0942  0.7423 -0.3743
 1252SOL    HW215390   3.764   0.657  10.115 -0.1428 -1.1125  1.3391
 1253SOL     OW15391   3.963   3.738   3.147  0.3980  0.4138 -0.7627
 1253SOL    HW115392   3.885   3.695   3.182 -0.8346  0.6016 -3.2746
 1253SOL    HW215393   3.934   3.761   3.058 -0.2184 -1.3486 -1.0102
 1254SOL     OW15394   2.143   0.300   7.621 -0.6132  0.3889  0.1980
 1254SOL    HW115395   2.058   0.318   7.662  0.4222 -0.8216  2.8923
 1254SOL    HW215396   2.123   0.298   7.527  0.3697  2.7347 -0.0360
 1255SOL     OW15397   2.307   2.557   1.626 -0.2169  0.2654 -0.4154
 1255SOL    HW115398   2.358   2.538   1.705 -1.1274 -0.7648 -0.0909
 1255SOL    HW215399   2.290   2.472   1.586 -0.4519 -0.4323  1.1558
 1256SOL     OW15400   2.536   0.714  11.555 -0.2271 -0.2392 -0.0473
 1256SOL    HW115401   2.612   0.771  11.571 -0.6543  0.0294  0.9911
 1256SOL    HW215402   2.466   0.777  11.538  0.2168  0.6284  1.3319
 1257SOL     OW15403   2.536   0.569   9.207 -0.0029  0.0511  0.2768
 1257SOL    HW115404   2.510   0.635   9.271 -0.7918  0.1695 -0.1699
 1257SOL    HW215405   2.443   0.550   9.190 -0.0727 -0.9319  1.7788
 1258SOL     OW15406   4.102   1.509   7.154  0.4077  0.4443 -0.4099
 1258SOL    HW115407   4.063   1.570   7.092 -0.5263 -0.3265 -0.5830
 1258SOL    HW215408   4.058   1.522   7.238 -0.4627 -2.5542 -0.3951
 1259SOL     OW15409   2.247   4.253   3.633  0.3598  0.1853  0.4457
 1259SOL    HW115410   2.221   4.178   3.579  0.2860  2.5764 -2.8432
 1259SOL    HW215411   2.171   4.308   3.612 -0.0783  0.4504  2.6969
 1260SOL     OW15412   2.947   2.392  17.031  0.0016  0.2570  0.2033
 1260SOL    HW115413   2.949   2.439  16.948  3.1120 -0.4466 -0.1538
 1260SOL    HW215414   2.916   2.463  17.086 -1.1062 -0.4944  0.5439
 1261SOL     OW15415   3.083   0.806   9.044 -0.4627 -0.8297  0.5364
 1261SOL    HW115416   3.076   0.711   9.052  3.9006 -1.1763  0.1154
 1261SOL    HW215417   2.997   0.819   9.004 -0.5196 -0.5767  0.7369
 1262SOL     OW15418   2.181   2.303   7.454  0.2316 -0.3232  0.1516
 1262SOL    HW115419   2.245   2.237   7.426  1.1652  0.9044 -0.6219
 1262SOL    HW215420   2.233   2.341   7.526  1.5200 -2.0781  0.1480
 1263SOL     OW15421   2.070   1.824  13.831  1.2074 -0.2163  0.3766
 1263SOL    HW115422   2.129   1.755  13.800  2.3040  2.0245 -2.4776
 1263SOL    HW215423   2.035   1.865  13.752  3.1956 -0.6785 -0.7496
 1264SOL     OW15424   3.490   4.396   2.545  0.1631 -0.0872 -0.6183
 1264SOL    HW115425   3.479   4.485   2.579 -2.1012 -0.3600 -0.6619
 1264SOL    HW215426   3.559   4.408   2.480  0.3111  1.4089 -0.1688
 1265SOL     OW15427   1.812   1.163  13.034  0.4902  0.0677 -0.4526
 1265SOL    HW115428   1.894   1.198  13.067  2.3560 -1.9044 -3.0211
 1265SOL    HW215429   1.836   1.081  12.992 -1.7624 -0.7228 -0.1841
 1266SOL     OW15430   2.298   3.161   3.695 -0.3382 -0.1175 -0.4918
 1266SOL    HW115431   2.283   3.256   3.695 -0.3416 -0.1206 -0.1972
 1266SOL    HW215432   2.286   3.140   3.602  1.4366  1.8197 -1.1742
 1267SOL     OW15433   2.512   4.682   6.949 -0.3907  0.0704  0.1970
 1267SOL    HW115434   2.596   4.636   6.955 -0.9420 -0.8928  0.6194
 1267SOL    HW215435   2.464   4.600   6.961 -0.9167  0.5067  1.0301
 1268SOL     OW15436   1.567   1.650   5.724 -0.5914  0.6290 -0.1664
 1268SOL    HW115437   1.491   1.592   5.721  0.0489 -0.2749  1.1555
 1268SOL    HW215438   1.626   1.623   5.653  2.2821  3.4082  1.1675
 1269SOL     OW15439   0.924   0.872   5.466 -0.2940 -0.1178  0.0754
 1269SOL    HW115440   0.980   0.929   5.411  0.3408 -0.5975  0.2274
 1269SOL    HW215441   0.980   0.879   5.543  2.1749  1.0460 -1.7914
 1270SOL     OW15442   2.593   1.344   8.892  0.2340  0.6512  0.0637
 1270SOL    HW115443   2.567   1.423   8.845  1.6060  1.3498  0.5091
 1270SOL    HW215444   2.525   1.332   8.959  0.9732 -0.5674  0.6001
 1271SOL     OW15445   4.049   1.369   6.538 -0.0051 -0.5309  0.0202
 1271SOL    HW115446   4.131   1.377   6.586  0.6093 -0.4001 -1.0728
 1271SOL    HW215447   4.072   1.311   6.466 -1.1302 -0.0902 -0.6981
 1272SOL     OW15448   4.627   4.544   5.750  0.2906  0.3363  0.0811
 1272SOL    HW115449   4.594   4.512   5.666 -0.0522 -1.0734  0.7428
 1272SOL    HW215450   4.714   4.576   5.729 -0.2376  1.5932 -0.2129
 1273SOL     OW15451   3.821   2.469  11.623  0.5024 -0.7862 -0.4183
 1273SOL    HW115452   3.879   2.394  11.640  0.2993 -0.8804 -0.1525
 1273SOL    HW215453   3.876   2.507  11.555  0.0008 -0.9312 -0.9083
 1274SOL     OW15454   3.766   4.457   2.877  0.1036  0.8156  0.1344
 1274SOL    HW115455   3.810   4.502   2.805  0.7966 -1.2283 -0.7225
 1274SOL    HW215456   3.689   4.511   2.894 -1.2041 -0.6734 -1.0183
 1275SOL     OW15457   1.792   2.391  11.657 -0.3177  0.2712 -0.5220
 1275SOL    HW115458   1.794   2.335  11.735  1.3819  1.0467  0.0036
 1275SOL    HW215459   1.698   2.411  11.656 -0.5376 -0.7954 -0.8512
 1276SOL     OW15460   2.098   4.720  13.334  0.4160  0.1175 -0.1228
 1276SOL    HW115461   2.046   0.042  13.389  0.5945  1.5977 -1.5269
 1276SOL    HW215462   2.118   4.640  13.383 -4.2324 -0.1313  1.3279
 1277SOL     OW15463   0.374   1.413  15.278 -0.2824  0.8850  0.0192
 1277SOL    HW115464   0.384   1.450  15.190  2.7400 -0.1524 -0.0696
 1277SOL    HW215465   0.319   1.481  15.319 -1.5942  1.2140 -2.3225
 1278SOL     OW15466   3.940   3.482  16.794  0.1484  0.0886  0.1615
 1278SOL    HW115467   3.895   3.553  16.749  0.1067  0.2511  0.4573
 1278SOL    HW215468   4.003   3.535  16.843 -0.3590  0.6716  0.1731
 1279SOL     OW15469   2.690   0.894   5.606  0.0308  0.0883 -0.3040
 1279SOL    HW115470   2.667   0.875   5.515  2.3924 -0.8163 -0.7155
 1279SOL    HW215471   2.666   0.986   5.611 -2.2845 -0.6184  2.0975
 1280SOL     OW15472   3.707   3.689   6.285  0.1964 -0.0993 -0.0737
 1280SOL    HW115473   3.619   3.652   6.285  0.6533 -1.1901 -1.6579
 1280SOL    HW215474   3.723   3.675   6.192 -0.8820 -1.3141 -0.0744
 1281SOL     OW15475   0.039   4.235   4.517 -0.0111  0.0674  0.3889
 1281SOL    HW115476   0.084   4.284   4.448 -1.7647 -0.2975 -1.0072
 1281SOL    HW215477   0.045   4.142   4.493 -2.8027  0.0308 -0.1050
 1282SOL     OW15478   2.880   2.196  15.716  0.5844 -0.5553 -0.6235
 1282SOL    HW115479   2.847   2.198  15.806 -0.4482  0.5717 -1.0308
 1282SOL    HW215480   2.874   2.102  15.697  1.2696 -0.1195 -3.0056
 1283SOL     OW15481   0.553   1.300   0.760  0.3996 -0.6281  0.1473
 1283SOL    HW115482   0.577   1.221   0.808  0.4017 -1.6893 -1.6159
 1283SOL    HW215483   0.458   1.292   0.760  0.3341  0.1775 -1.8701
 1284SOL     OW15484   4.287   4.477   9.701  0.0741 -0.0596 -0.1377
 1284SOL    HW115485   4.242   4.406   9.745 -0.6975  0.6442  0.2072
 1284SOL    HW215486   4.267   4.462   9.608 -2.2346 -0.9636  0.5060
 1285SOL     OW15487   1.526   1.831  15.926 -0.2880 -0.2178  0.6970
 1285SOL    HW115488   1.562   1.898  15.867 -0.9807  1.2604  1.9324
 1285SOL    HW215489   1.454   1.881  15.966 -1.0618 -0.9843  0.2431
 1286SOL     OW15490   0.579   4.144   4.273  0.3375 -0.3169 -0.3698
 1286SOL    HW115491   0.659   4.126   4.322  0.2029  1.4484  0.5257
 1286SOL    HW215492   0.595   4.107   4.186  3.5000  1.5336 -0.5630
 1287SOL     OW15493   2.968   2.623   5.414 -0.2594 -0.2918 -0.0229
 1287SOL    HW115494   3.045   2.565   5.412  0.1833  0.2247  1.9616
 1287SOL    HW215495   2.998   2.700   5.366  2.2593 -1.0797  0.2457
 1288SOL     OW15496   1.236   0.095   6.461 -0.1608  0.5954  0.0922
 1288SOL    HW115497   1.196   0.115   6.545 -1.0475 -2.2207  0.3034
 1288SOL    HW215498   1.297   0.170   6.455  1.5593 -1.0240 -2.7591
 1289SOL     OW15499   3.681   0.307   8.884 -0.3280  0.1882 -0.3880
 1289SOL    HW115500   3.605   0.360   8.860 -1.3357 -0.3519  1.6659
 1289SOL    HW215501   3.737   0.383   8.900 -0.2625 -0.0608  0.5374
 1290SOL     OW15502   4.464   2.445  14.808  0.4351 -0.2834  0.1946
 1290SOL    HW115503   4.402   2.515  14.832  0.1464  0.4082 -2.5290
 1290SOL    HW215504   4.400   2.381  14.776  0.4493  1.1985 -2.7979
 1291SOL     OW15505   4.058   2.634   4.333  0.2990  0.6543 -0.0530
 1291SOL    HW115506   4.016   2.663   4.415 -0.9154 -0.4476 -0.2893
 1291SOL    HW215507   3.998   2.672   4.268  1.1386  1.0351 -0.5931
 1292SOL     OW15508   3.083   4.052   7.036  0.3475 -0.6510 -0.2307
 1292SOL    HW115509   3.022   4.061   6.963 -0.6476 -2.0917  0.4208
 1292SOL    HW215510   3.031   4.105   7.096  3.3758  0.1916  1.6431
 1293SOL     OW15511   4.239   3.508   7.204  0.1942  0.3477 -0.5230
 1293SOL    HW115512   4.178   3.562   7.155  0.8128  0.2250 -1.4411
 1293SOL    HW215513   4.303   3.568   7.243  0.7773  0.5962 -1.8309
 1294SOL     OW15514   1.224   3.156   3.900 -0.0452  1.0274  0.2379
 1294SOL    HW115515   1.260   3.075   3.935  0.3308  0.4308 -1.5531
 1294SOL    HW215516   1.202   3.203   3.981 -2.0931  1.2735 -0.4500
 1295SOL     OW15517   0.019   0.570   6.781 -0.0418 -0.7252  0.0226
 1295SOL    HW115518   0.064   0.508   6.839  0.5275 -2.1760 -1.9776
 1295SOL    HW215519   4.669   0.578   6.820 -0.2017  0.9870 -0.6531
 1296SOL     OW15520   2.384   0.069   9.430  0.1233  0.6836 -0.5789
 1296SOL    HW115521   2.342   0.136   9.484  0.4286  0.5117 -0.1237
 1296SOL    HW215522   2.469   0.113   9.419  0.5261  0.1421  0.3355
 1297SOL     OW15523   4.519   0.262  10.791 -0.2678 -0.2771 -0.5210
 1297SOL    HW115524   4.499   0.277  10.883 -1.4361 -0.4622 -0.7430
 1297SOL    HW215525   4.606   0.222  10.795 -0.6557 -0.8479  1.9494
 1298SOL     OW15526   4.606   1.288   4.390  0.2622 -0.3375  0.2625
 1298SOL    HW115527   4.665   1.215   4.412 -0.6171 -1.1153  0.0607
 1298SOL    HW215528   4.635   1.360   4.445 -1.1568 -0.0146  0.5833
 1299SOL     OW15529   0.037   4.212   6.515  0.3948  0.0799 -0.1205
 1299SOL    HW115530   0.060   4.257   6.434 -1.1949 -0.5389 -0.8930
 1299SOL    HW215531   0.099   4.256   6.575 -0.4088 -0.7206  1.2969
 1300SOL     OW15532   3.877   0.545   3.727 -0.1722  0.3138 -0.0438
 1300SOL    HW115533   3.805   0.525   3.787  1.2130 -0.0525  1.4885
 1300SOL    HW215534   3.887   0.461   3.681 -4.1760 -1.5681  2.4702
 1301SOL     OW15535   3.380   2.337  14.350 -0.0687  0.3530 -0.0819
 1301SOL    HW115536   3.416   2.424  14.372  2.3087 -0.4437 -0.7926
 1301SOL    HW215537   3.348   2.310  14.436  0.5347 -0.2437 -0.0405
 1302SOL     OW15538   3.015   0.200   8.458 -0.0515 -0.4121  0.1952
 1302SOL    HW115539   3.110   0.188   8.451  0.0073 -0.3087  0.7939
 1302SOL    HW215540   2.997   0.192   8.552 -0.5169  0.7807  0.2091
 1303SOL     OW15541   2.212   1.166   9.020 -0.2111 -0.7040  0.5016
 1303SOL    HW115542   2.216   1.146   8.927  2.2501 -0.9800  0.6585
 1303SOL    HW215543   2.176   1.082   9.051 -0.9873 -0.7298 -0.4566
 1304SOL     OW15544   1.789   0.316  12.572 -0.5029  0.0515  0.4854
 1304SOL    HW115545   1.775   0.341  12.663 -1.6043  1.0834  0.0341
 1304SOL    HW215546   1.766   0.398  12.527  0.3901 -0.0730 -0.1881
 1305SOL     OW15547   3.638   4.338  16.720  0.7305  0.1212 -0.0243
 1305SOL    HW115548   3.713   4.328  16.778  0.0317 -1.7854  0.5367
 1305SOL    HW215549   3.616   4.431  16.721  1.4945  0.3430 -2.5152
 1306SOL     OW15550   2.568   3.720   5.756 -0.6017 -0.3786  0.3205
 1306SOL    HW115551   2.572   3.681   5.668  1.1925  2.7933 -0.9811
 1306SOL    HW215552   2.497   3.664   5.787 -0.0807 -0.2416  1.7473
 1307SOL     OW15553   1.644   1.782   8.760  0.1291 -0.4462  0.3215
 1307SOL    HW115554   1.663   1.748   8.673 -1.1076 -2.4574  0.8391
 1307SOL    HW215555   1.729   1.760   8.797 -0.2295 -0.9302  0.8767
 1308SOL     OW15556   0.996   0.268   3.216  0.3789 -0.0919 -0.2618
 1308SOL    HW115557   1.052   0.337   3.249  0.7766  0.8024 -2.7760
 1308SOL    HW215558   1.039   0.186   3.239 -0.9815 -0.3904  1.1743
 1309SOL     OW15559   4.622   2.781   6.085 -0.6533 -0.8553 -0.5021
 1309SOL    HW115560   4.708   2.738   6.076  0.1836  0.6349  0.2809
 1309SOL    HW215561   4.587   2.773   5.997  2.0257 -2.7345 -1.4049
 1310SOL     OW15562   3.340   0.716   1.646  0.6673 -0.1041 -0.0937
 1310SOL    HW115563   3.400   0.775   1.600 -0.7047  0.7915 -0.6967
 1310SOL    HW215564   3.308   0.778   1.712 -1.1406  0.8794 -1.9084
 1311SOL     OW15565   1.303   0.790  13.031  0.0789  0.2245  0.3163
 1311SOL    HW115566   1.282   0.789  13.125  1.4857 -1.1313  0.6117
 1311SOL    HW215567   1.216   0.806  12.994 -0.2208 -0.7928  0.5747
 1312SOL     OW15568   1.930   3.509   6.600  0.1017 -0.1253  0.2922
 1312SOL    HW115569   2.019   3.480   6.579 -0.8264 -1.7373 -1.4482
 1312SOL    HW215570   1.907   3.567   6.528  0.3354 -1.6437 -1.0175
 1313SOL     OW15571   0.467   3.311  12.142 -0.5946  0.5451  0.0759
 1313SOL    HW115572   0.560   3.331  12.156 -0.6159  0.9094 -0.2920
 1313SOL    HW215573   0.464   3.220  12.172  2.9541  0.1812 -0.6425
 1314SOL     OW15574   4.682   1.334   7.709 -0.0095 -0.0178 -0.4718
 1314SOL    HW115575   0.012   1.403   7.708 -0.7815  0.7623  1.6294
 1314SOL    HW215576   4.649   1.355   7.622 -0.5448  1.4080  0.0893
 1315SOL     OW15577   0.373   3.833   2.552 -0.2298  0.3889 -0.5479
 1315SOL    HW115578   0.382   3.767   2.483 -0.5028  0.4708 -0.6618
 1315SOL    HW215579   0.293   3.804   2.594 -1.4459  1.4130 -2.1469
 1316SOL     OW15580   2.920   0.856  12.352 -0.1993  0.3401  0.4234
 1316SOL    HW115581   2.950   0.927  12.296  2.0823  0.8945  2.3455
 1316SOL    HW215582   2.856   0.813  12.296  1.6455 -0.1243 -1.3274
 1317SOL     OW15583   3.452   4.640  14.832  0.0560 -0.1392 -0.1588
 1317SOL    HW115584   3.373   4.677  14.870 -0.0187  1.1107 -1.4829
 1317SOL    HW215585   3.516   4.621  14.900 -0.8537 -2.9275 -0.1206
 1318SOL     OW15586   3.157   1.670  13.639 -0.6672 -0.2313  0.7248
 1318SOL    HW115587   3.121   1.644  13.555  0.9317 -0.3553  0.0767
 1318SOL    HW215588   3.237   1.619  13.623 -0.6313  0.1437 -0.2663
 1319SOL     OW15589   4.696   1.472  10.826  0.1074 -0.0059  0.4168
 1319SOL    HW115590   4.660   1.560  10.840 -0.2523 -0.1049  0.1370
 1319SOL    HW215591   0.028   1.473  10.892  1.4890  0.8627 -1.0188
 1320SOL     OW15592   1.498   1.314   2.045  0.0648 -0.0302 -0.5075
 1320SOL    HW115593   1.523   1.406   2.047 -1.9691  0.5220 -0.7023
 1320SOL    HW215594   1.412   1.322   2.086 -0.9972  1.0766 -2.9987
 1321SOL     OW15595   1.153   2.304   2.809  0.8853 -0.0968 -0.4220
 1321SOL    HW115596   1.219   2.370   2.830  2.3579 -1.5490 -0.5301
 1321SOL    HW215597   1.197   2.222   2.829 -0.7084 -1.1262 -1.1776
 1322SOL     OW15598   0.547   0.638   3.083  0.5292 -0.1921 -0.9981
 1322SOL    HW115599   0.596   0.662   3.004  1.9713 -1.5116 -0.5124
 1322SOL    HW215600   0.531   0.722   3.125 -3.6270 -0.0998 -2.7546
 1323SOL     OW15601   2.952   0.503   1.908 -0.3423 -0.3789  0.2642
 1323SOL    HW115602   2.900   0.431   1.945 -1.7416  0.9196  0.8314
 1323SOL    HW215603   3.000   0.535   1.984  1.0844 -3.5603  0.6813
 1324SOL     OW15604   0.664   0.031   2.154 -0.2785  0.1798  0.2175
 1324SOL    HW115605   0.656   0.017   2.060  0.9630 -1.2723  0.3412
 1324SOL    HW215606   0.714   0.112   2.144 -1.5613  1.0664  0.9463
 1325SOL     OW15607   3.354   4.445   4.229 -0.0327  0.3617 -0.1838
 1325SOL    HW115608   3.437   4.492   4.239 -0.3484  1.0801 -0.8972
 1325SOL    HW215609   3.344   4.398   4.312 -0.7295  2.2172  0.7744
 1326SOL     OW15610   1.103   2.732   3.970 -0.0610 -0.2630 -0.5714
 1326SOL    HW115611   1.099   2.675   4.046 -0.3571  0.7094  0.1508
 1326SOL    HW215612   1.100   2.666   3.901 -3.4744 -0.2003 -0.4509
 1327SOL     OW15613   3.684   2.845   5.479  0.1859 -0.3012  0.1929
 1327SOL    HW115614   3.738   2.769   5.457 -1.9878 -1.2853 -1.6394
 1327SOL    HW215615   3.700   2.853   5.573  2.9693 -1.6651 -0.1824
 1328SOL     OW15616   4.214   1.359  10.118 -0.5874  0.7093 -0.1885
 1328SOL    HW115617   4.205   1.274  10.074 -0.1295  0.9935 -0.8280
 1328SOL    HW215618   4.232   1.339  10.210  0.5743 -0.1951 -0.6128
 1329SOL     OW15619   4.423   1.582   6.290 -0.3722 -0.2113  0.5539
 1329SOL    HW115620   4.368   1.557   6.216 -2.0604 -2.2200  2.4944
 1329SOL    HW215621   4.465   1.496   6.298  2.0024  0.8517 -0.4056
 1330SOL     OW15622   1.057   4.531  13.727 -0.4349  0.0470 -0.4402
 1330SOL    HW115623   1.088   4.603  13.673  2.7101 -1.1549 -0.2297
 1330SOL    HW215624   1.138   4.529  13.778 -0.4732 -2.7597 -0.4997
 1331SOL     OW15625   0.739   3.694   2.357  0.0446 -0.0126  0.4813
 1331SOL    HW115626   0.663   3.705   2.300  0.7466  0.2400 -0.3916
 1331SOL    HW215627   0.715   3.749   2.432 -0.6799  2.3523 -1.4848
 1332SOL     OW15628   3.378   1.011   5.059 -0.1687 -0.1647 -1.0070
 1332SOL    HW115629   3.354   0.947   5.126  0.6235  0.1125 -0.4569
 1332SOL    HW215630   3.462   0.975   5.030  1.2245  1.7515  0.6937
 1333SOL     OW15631   3.818   1.768  11.365 -0.2882  0.1483 -0.5358
 1333SOL    HW115632   3.723   1.781  11.363  0.2791  3.9403 -2.5786
 1333SOL    HW215633   3.824   1.768  11.269 -1.2123 -0.2509 -0.5857
 1334SOL     OW15634   2.568   3.237   4.444 -0.4375  0.8743 -0.0781
 1334SOL    HW115635   2.568   3.149   4.405 -1.0505 -0.1888  2.3168
 1334SOL    HW215636   2.657   3.264   4.423 -0.8240  0.7862 -1.8873
 1335SOL     OW15637   4.075   1.973   3.834 -0.3482 -0.0577  0.4604
 1335SOL    HW115638   4.154   1.989   3.782  0.4406  1.8679  2.2758
 1335SOL    HW215639   4.046   1.903   3.775 -2.8067  2.3104 -1.1428
 1336SOL     OW15640   2.862   0.582  17.663  0.2617 -0.5246  0.1149
 1336SOL    HW115641   2.868   0.676  17.641  2.0482 -0.6702 -0.0665
 1336SOL    HW215642   2.792   0.563  17.601 -0.6197 -0.4203  1.0957
 1337SOL     OW15643   1.994   2.414   9.758 -0.7297 -0.0157  0.1764
 1337SOL    HW115644   2.079   2.424   9.800 -0.0684 -0.9319 -0.9518
 1337SOL    HW215645   1.933   2.446   9.825 -1.4518 -0.3166 -0.3279
 1338SOL     OW15646   4.713   1.849  11.102 -0.0306 -0.5001 -0.1695
 1338SOL    HW115647   0.021   1.786  11.046  0.4695 -0.9533  0.7294
 1338SOL    HW215648   0.044   1.879  11.164 -0.3471 -0.4489  0.1515
 1339SOL     OW15649   0.749   4.175   8.223  0.3039 -0.2578  0.2159
 1339SOL    HW115650   0.681   4.136   8.168 -0.2952  2.1381 -0.7318
 1339SOL    HW215651   0.769   4.102   8.281 -0.0274 -1.9462 -1.7866
 1340SOL     OW15652   4.145   1.341   0.122 -0.0367  0.0697  0.5707
 1340SOL    HW115653   4.127   1.422   0.073 -0.0634 -0.7641 -0.8030
 1340SOL    HW215654   4.234   1.319   0.094 -1.4301 -0.3421 -3.5283
 1341SOL     OW15655   1.107   4.381  10.002  0.2304 -0.0040 -0.7431
 1341SOL    HW115656   1.090   4.471  10.029 -1.6921 -0.1698 -1.3693
 1341SOL    HW215657   1.200   4.358  10.013 -0.0862 -0.6247  0.7093
 1342SOL     OW15658   0.303   4.272   6.646  0.1180 -0.4425 -0.1334
 1342SOL    HW115659   0.376   4.272   6.585  0.1192  1.5560 -0.1199
 1342SOL    HW215660   0.340   4.215   6.713 -0.6435 -1.3942 -0.5191
 1343SOL     OW15661   0.421   0.729   9.819  0.3038 -0.2018  0.1031
 1343SOL    HW115662   0.376   0.670   9.759 -0.5116  0.1422  0.3837
 1343SOL    HW215663   0.369   0.809   9.817 -0.6519 -0.8677 -1.3975
 1344SOL     OW15664   2.744   1.842   4.394  0.1723  0.0253  0.7870
 1344SOL    HW115665   2.649   1.850   4.401 -0.1014 -1.3789 -1.3470
 1344SOL    HW215666   2.765   1.862   4.485  0.9048  2.3132  0.1353
 1345SOL     OW15667   4.265   2.877   5.695  0.1523  0.2545 -0.2455
 1345SOL    HW115668   4.287   2.970   5.693  3.0925 -0.4472  1.2409
 1345SOL    HW215669   4.268   2.868   5.599 -0.4860  1.5525 -0.3919
 1346SOL     OW15670   2.853   3.743   7.232 -0.4424  0.3196 -0.7813
 1346SOL    HW115671   2.807   3.825   7.218 -0.6255  0.3146 -0.1875
 1346SOL    HW215672   2.920   3.779   7.290 -0.6802 -0.4353 -0.0283
 1347SOL     OW15673   4.040   1.822   9.332  0.5729 -0.4357  0.3554
 1347SOL    HW115674   3.984   1.749   9.306  1.1472 -0.1672 -1.5865
 1347SOL    HW215675   4.012   1.846   9.421 -1.4266 -1.5764  0.0402
 1348SOL     OW15676   4.466   0.603   4.214  0.0798  0.2478 -0.3585
 1348SOL    HW115677   4.384   0.604   4.164 -0.6433  0.0012  0.7990
 1348SOL    HW215678   4.532   0.622   4.148  2.0151  1.0014  1.7847
 1349SOL     OW15679   2.539   3.338   2.125 -0.1544  0.0771  0.6814
 1349SOL    HW115680   2.574   3.427   2.121 -0.1457 -0.1192 -3.4811
 1349SOL    HW215681   2.611   3.289   2.164  1.1669  4.8429  4.2660
 1350SOL     OW15682   1.903   4.398   4.462 -0.2371 -0.6995  0.2214
 1350SOL    HW115683   1.889   4.307   4.438 -1.5623  0.0561 -1.8259
 1350SOL    HW215684   1.812   4.426   4.470 -0.3624 -0.9678 -0.2617
 1351SOL     OW15685   3.235   4.291   2.494  0.1785 -1.1859 -0.5922
 1351SOL    HW115686   3.241   4.243   2.412  2.7072 -1.1570 -0.4316
 1351SOL    HW215687   3.326   4.316   2.510  0.0144  0.1617 -1.7429
 1352SOL     OW15688   1.871   3.310  11.362  0.5709 -0.3963 -0.0393
 1352SOL    HW115689   1.780   3.337  11.349  0.5008 -0.9750 -0.7207
 1352SOL    HW215690   1.895   3.276  11.276  2.5291  0.5497  0.1372
 1353SOL     OW15691   3.333   1.135  11.816 -0.3152  0.5577  0.4811
 1353SOL    HW115692   3.340   1.220  11.858 -0.7419  0.7385  0.1801
 1353SOL    HW215693   3.278   1.163  11.743 -0.1864  1.7471  0.8511
 1354SOL     OW15694   1.658   2.953   8.890 -0.2621 -0.4541  0.1892
 1354SOL    HW115695   1.732   2.912   8.934  0.8015  0.5155 -0.6795
 1354SOL    HW215696   1.703   3.035   8.872  0.6654 -0.4561  2.5694
 1355SOL     OW15697   2.095   0.056  16.081 -0.1425  0.0069 -0.4367
 1355SOL    HW115698   2.053   0.142  16.083 -1.4018 -0.6411  0.3405
 1355SOL    HW215699   2.186   0.077  16.058  0.0010  1.9152  1.9133
 1356SOL     OW15700   2.957   1.927  13.248 -0.1948  0.3969  0.3768
 1356SOL    HW115701   2.978   1.886  13.331 -2.4367  0.0781  0.7911
 1356SOL    HW215702   2.915   1.856  13.199  0.7389  0.6089 -0.7249
 1357SOL     OW15703   2.270   3.756   6.415 -0.5555  0.0760 -0.5058
 1357SOL    HW115704   2.197   3.697   6.397  0.3850 -1.2720  0.0871
 1357SOL    HW215705   2.255   3.824   6.350  0.2394 -0.1169 -0.8876
 1358SOL     OW15706   1.525   3.403   8.820 -0.2000 -0.3409 -0.1019
 1358SOL    HW115707   1.467   3.330   8.797  0.0676 -0.1630 -1.3070
 1358SOL    HW215708   1.481   3.437   8.899  0.1409  0.0265 -0.0682
 1359SOL     OW15709   0.129   1.744   2.443 -0.5758 -0.1173  0.1854
 1359SOL    HW115710   0.067   1.788   2.384  1.3540  0.4480 -1.4161
 1359SOL    HW215711   0.094   1.655   2.439 -1.3230  0.2168 -0.7875
 1360SOL     OW15712   3.259   2.446   7.847 -0.2034 -0.1842 -0.4842
 1360SOL    HW115713   3.185   2.469   7.791 -0.6626 -2.1589 -0.6807
 1360SOL    HW215714   3.299   2.532   7.860 -0.7779  0.5092 -3.2249
 1361SOL     OW15715   1.103   1.118   2.383 -0.2781 -0.3499 -0.2792
 1361SOL    HW115716   1.081   1.152   2.297 -0.4439  0.2870  0.0117
 1361SOL    HW215717   1.182   1.170   2.399 -0.3170  0.6091 -3.3627
 1362SOL     OW15718   4.126   2.998  17.388  0.0337  0.1709 -0.1007
 1362SOL    HW115719   4.041   3.037  17.368  0.1090  0.0338 -0.6622
 1362SOL    HW215720   4.089   2.911  17.401 -0.9642  0.7180  0.7615
 1363SOL     OW15721   1.163   3.363   2.142 -0.2042 -0.0817  0.1214
 1363SOL    HW115722   1.178   3.345   2.050 -1.7540 -0.9034  0.0336
 1363SOL    HW215723   1.175   3.458   2.140 -0.1971 -0.1054 -0.8123
 1364SOL     OW15724   1.537   2.954  11.854 -0.5344  0.0613 -0.2331
 1364SOL    HW115725   1.513   2.926  11.943 -2.1219  0.3038 -0.5780
 1364SOL    HW215726   1.628   2.926  11.850 -0.2132  0.8153  1.6495
 1365SOL     OW15727   3.434   1.301   6.327  0.0381 -0.4261  0.4132
 1365SOL    HW115728   3.464   1.343   6.246 -0.6252  1.1072  0.9795
 1365SOL    HW215729   3.344   1.298   6.294  0.2962  1.0440 -0.4135
 1366SOL     OW15730   0.210   2.164  16.880 -0.5119 -0.0646  0.2635
 1366SOL    HW115731   0.215   2.259  16.869  1.0267 -0.3816 -1.7341
 1366SOL    HW215732   0.275   2.150  16.949  2.5729  0.6065 -2.5040
 1367SOL     OW15733   3.116   0.946  15.945  0.2897 -0.1234  0.0882
 1367SOL    HW115734   3.136   1.031  15.983 -2.0461  0.2818  0.4151
 1367SOL    HW215735   3.184   0.899  15.993  1.0547  0.8148 -0.0948
 1368SOL     OW15736   1.244   0.905   3.900  0.6257  0.3456  0.0912
 1368SOL    HW115737   1.235   0.819   3.939  0.3475  0.4626  0.2888
 1368SOL    HW215738   1.305   0.945   3.962  0.9602  0.6489 -0.4339
 1369SOL     OW15739   2.410   2.103  13.483  0.3152 -0.4860  0.1910
 1369SOL    HW115740   2.377   2.148  13.405 -0.9198 -2.5266 -0.4709
 1369SOL    HW215741   2.455   2.027  13.446  0.8335 -0.2149  0.2698
 1370SOL     OW15742   1.492   4.425   5.326  0.0576  0.3966 -0.3537
 1370SOL    HW115743   1.428   4.401   5.260 -1.5946 -0.7371  1.6673
 1370SOL    HW215744   1.536   4.492   5.274 -3.4698  1.7062 -1.6474
 1371SOL     OW15745   1.844   0.410   6.402 -0.5719 -0.4143 -0.2900
 1371SOL    HW115746   1.930   0.451   6.392 -1.1521  0.0786 -3.1217
 1371SOL    HW215747   1.820   0.424   6.311  1.6975 -1.6245 -1.0699
 1372SOL     OW15748   3.163   1.548   8.709 -0.0660  0.4660  0.1634
 1372SOL    HW115749   3.156   1.611   8.781  0.8498  0.5193  0.2018
 1372SOL    HW215750   3.112   1.468   8.723  0.2496  0.0899 -0.8478
 1373SOL     OW15751   2.482   4.329   2.238  0.1118  0.0121  0.0873
 1373SOL    HW115752   2.390   4.348   2.257 -0.3210 -0.9127 -1.0838
 1373SOL    HW215753   2.468   4.276   2.159 -0.5702 -0.1588  0.3220
 1374SOL     OW15754   4.520   1.910   2.691  0.2150  0.0960  0.1579
 1374SOL    HW115755   4.505   1.892   2.598 -1.4658  2.1051  0.0378
 1374SOL    HW215756   4.603   1.866   2.709  0.3295 -0.1556 -0.9926
 1375SOL     OW15757   1.883   2.404   3.800 -0.3138  0.0999 -0.3292
 1375SOL    HW115758   1.862   2.427   3.710  3.6068  0.2632 -1.2126
 1375SOL    HW215759   1.955   2.467   3.812  0.5618 -1.2585  1.4827
 1376SOL     OW15760   3.526   0.537   4.578 -0.3290 -0.4537 -0.4491
 1376SOL    HW115761   3.531   0.515   4.671 -0.6369 -1.7803 -0.7474
 1376SOL    HW215762   3.576   0.618   4.570  0.1109 -0.8035 -1.1600
 1377SOL     OW15763   2.234   0.260   5.784 -0.2180 -0.1062 -0.7342
 1377SOL    HW115764   2.192   0.327   5.730 -0.8439 -0.2004 -0.3586
 1377SOL    HW215765   2.329   0.275   5.778 -0.1411 -0.5792 -0.6981
 1378SOL     OW15766   0.572   2.877   6.121  0.1194  0.8921  0.3115
 1378SOL    HW115767   0.609   2.955   6.082  1.3200  1.4918  2.6314
 1378SOL    HW215768   0.488   2.876   6.075 -0.4229 -0.7054  1.3167
 1379SOL     OW15769   0.639   3.125   3.451 -0.2954  0.3034 -0.1745
 1379SOL    HW115770   0.633   3.158   3.541 -0.1775  2.0357 -0.8026
 1379SOL    HW215771   0.719   3.076   3.471  0.2495  0.2209 -2.5730
 1380SOL     OW15772   2.691   0.930   0.967  0.5435 -0.4226 -0.2674
 1380SOL    HW115773   2.654   0.899   1.050 -1.9191  0.9923 -0.8556
 1380SOL    HW215774   2.717   0.845   0.931  0.6685  0.7879 -3.0282
 1381SOL     OW15775   1.633   4.735  10.568  0.0687  0.5680  0.3263
 1381SOL    HW115776   1.669   0.082  10.599  0.0908  0.9592 -0.7369
 1381SOL    HW215777   1.546   0.033  10.547  0.6163  1.4515 -0.5236
 1382SOL     OW15778   1.946   1.854   5.721 -0.2851  0.2353 -0.2828
 1382SOL    HW115779   1.878   1.792   5.694 -1.4615  2.4910 -2.4907
 1382SOL    HW215780   1.909   1.916   5.783  1.8161  0.5908  0.6117
 1383SOL     OW15781   2.505   0.736   3.584 -0.3391 -0.1444  0.3420
 1383SOL    HW115782   2.580   0.690   3.546 -1.6489  0.0815 -2.4569
 1383SOL    HW215783   2.485   0.793   3.510  2.5484  1.2660  0.6311
 1384SOL     OW15784   2.741   0.561   6.625 -0.1197  0.6094  0.2523
 1384SOL    HW115785   2.680   0.589   6.557  1.3314 -0.2043 -1.3999
 1384SOL    HW215786   2.810   0.525   6.569  0.7789  0.7183  1.2940
 1385SOL     OW15787   2.386   1.336   5.676 -0.9517 -0.0784 -0.5545
 1385SOL    HW115788   2.383   1.386   5.595  0.9379 -2.9992 -2.4448
 1385SOL    HW215789   2.295   1.315   5.694 -1.4852  1.9705 -0.8696
 1386SOL     OW15790   4.346   1.336   8.641  0.5448 -0.1249 -0.0004
 1386SOL    HW115791   4.354   1.340   8.545  1.5717 -0.6758  0.0657
 1386SOL    HW215792   4.261   1.296   8.661 -0.4983  1.3248 -1.4730
 1387SOL     OW15793   2.183   4.557   3.889 -0.4689  0.2622 -0.2800
 1387SOL    HW115794   2.134   4.628   3.930 -1.7727  0.0467 -1.4269
 1387SOL    HW215795   2.195   4.590   3.799  0.5968  0.4471 -0.0710
 1388SOL     OW15796   4.578   3.178  12.052  0.0784  0.3176  0.7344
 1388SOL    HW115797   4.543   3.259  12.014 -1.4073 -0.6435  0.0490
 1388SOL    HW215798   4.536   3.183  12.138  0.2407 -2.0091  0.9499
 1389SOL     OW15799   1.458   3.287   5.892 -0.1918  0.1438  0.0891
 1389SOL    HW115800   1.376   3.258   5.852 -0.7311 -0.6948  1.8043
 1389SOL    HW215801   1.418   3.333   5.966 -1.8277  2.1487 -2.0073
 1390SOL     OW15802   1.862   2.875   9.034  0.4186 -0.0999  0.2548
 1390SOL    HW115803   1.865   2.938   9.106 -1.7372 -1.9912  1.9827
 1390SOL    HW215804   1.946   2.883   8.988  1.3651 -0.1764  1.9783
 1391SOL     OW15805   3.057   1.879  13.500 -0.1951 -0.2206 -0.5549
 1391SOL    HW115806   3.038   1.871  13.593  4.6012 -2.1420  0.2798
 1391SOL    HW215807   3.141   1.925  13.497 -0.1483 -0.1769  1.1702
 1392SOL     OW15808   2.816   4.624   1.476 -0.5115 -0.0811 -0.1435
 1392SOL    HW115809   2.735   4.674   1.464  0.1182  0.6565 -1.2760
 1392SOL    HW215810   2.876   4.694   1.450  1.1549 -0.8859  1.5735
 1393SOL     OW15811   2.933   1.145   9.461 -0.0267  0.4406 -0.5357
 1393SOL    HW115812   2.997   1.151   9.390  0.7857  1.2621  0.2750
 1393SOL    HW215813   2.920   1.238   9.476  1.6846 -0.0852  4.0343
 1394SOL     OW15814   1.733   3.881   3.461  0.1600 -0.2580 -0.6895
 1394SOL    HW115815   1.722   3.822   3.536  0.1183  0.4993 -0.0952
 1394SOL    HW215816   1.724   3.964   3.508  1.1181 -1.1253  1.0371
 1395SOL     OW15817   3.561   1.453   9.174 -0.0048 -0.1921 -0.5715
 1395SOL    HW115818   3.499   1.446   9.102  1.3645  0.1502 -1.7954
 1395SOL    HW215819   3.590   1.363   9.188 -1.3122 -0.3942  0.8154
 1396SOL     OW15820   0.797   2.548   1.702  0.6967 -0.2318 -0.4369
 1396SOL    HW115821   0.769   2.460   1.726  2.2133 -0.3518  0.8679
 1396SOL    HW215822   0.781   2.542   1.607  0.1190 -1.7807 -0.2406
 1397SOL     OW15823   4.361   2.243   9.318  0.1661 -0.2068  0.6501
 1397SOL    HW115824   4.442   2.202   9.290  0.7189  0.4575  1.2803
 1397SOL    HW215825   4.303   2.201   9.255  1.7657 -0.6344 -0.5227
 1398SOL     OW15826   2.653   0.387   6.826 -0.4351 -0.1258  0.1601
 1398SOL    HW115827   2.587   0.334   6.780  0.2091  1.8124 -2.9919
 1398SOL    HW215828   2.675   0.452   6.760  2.0246 -1.1830 -0.0364
 1399SOL     OW15829   1.927   0.351  13.304 -0.2925  0.4089  0.2448
 1399SOL    HW115830   1.942   0.287  13.373 -0.0550 -1.6323 -1.6945
 1399SOL    HW215831   1.886   0.301  13.233  0.0646 -0.3387  0.5758
 1400SOL     OW15832   3.186   0.576   7.277  0.4274 -0.5571  0.1068
 1400SOL    HW115833   3.149   0.645   7.222  1.3480  0.8970  1.2843
 1400SOL    HW215834   3.134   0.594   7.356  0.5960 -0.5840  0.2236
 1401SOL     OW15835   1.765   1.017   9.643  0.0313  0.3999  0.5322
 1401SOL    HW115836   1.771   1.005   9.548 -0.1473  0.4290  0.5163
 1401SOL    HW215837   1.674   1.047   9.654 -0.2047 -0.1149 -0.0235
 1402SOL     OW15838   3.724   2.778  16.018  0.3870  0.1189  0.3623
 1402SOL    HW115839   3.733   2.873  16.025  0.1720  0.2839 -1.8324
 1402SOL    HW215840   3.791   2.758  15.953  0.3797  0.0749  0.3678
 1403SOL     OW15841   1.594   1.657   0.332  0.3503 -0.2567  0.3240
 1403SOL    HW115842   1.508   1.677   0.369  0.0317  0.8592 -1.0154
 1403SOL    HW215843   1.590   1.702   0.247 -1.0622  1.8670  1.4992
 1404SOL     OW15844   1.905   2.088   4.029 -0.1863 -0.4398 -0.9967
 1404SOL    HW115845   1.815   2.060   4.049  0.2956 -1.2091  0.1250
 1404SOL    HW215846   1.906   2.088   3.933  1.6681 -1.1635 -0.9768
 1405SOL     OW15847   3.288   3.063   1.643 -0.1999 -0.1479  0.7082
 1405SOL    HW115848   3.256   3.071   1.733  0.0112 -2.3208  0.9916
 1405SOL    HW215849   3.274   2.970   1.625  1.3343  0.0843 -1.6978
 1406SOL     OW15850   2.463   1.023   1.516  0.2725  0.0408  0.6319
 1406SOL    HW115851   2.383   1.071   1.494  0.8738  1.5339  1.7189
 1406SOL    HW215852   2.493   1.067   1.595 -3.0186 -0.1492  1.9707
 1407SOL     OW15853   0.010   0.374   3.739  0.0428 -0.2636 -0.1574
 1407SOL    HW115854   0.040   0.360   3.829 -0.3783  2.1388  0.3443
 1407SOL    HW215855   4.692   0.452   3.748 -0.8231 -0.8254 -0.6061
 1408SOL     OW15856   2.613   4.150   8.603 -0.1569  0.4018 -0.2836
 1408SOL    HW115857   2.696   4.166   8.559 -0.2291 -1.0897 -0.9665
 1408SOL    HW215858   2.554   4.180   8.534 -2.3683  2.1154  2.3443
 1409SOL     OW15859   2.501   4.674   2.831  0.3533  0.2657 -0.3762
 1409SOL    HW115860   2.466   4.608   2.770 -0.8977 -0.1451  0.7983
 1409SOL    HW215861   2.443   0.012   2.818  1.3716  1.6770  3.1941
 1410SOL     OW15862   1.666   4.527   1.161 -0.2590  0.9025 -0.5264
 1410SOL    HW115863   1.712   4.573   1.232 -0.4192  0.1187  0.0914
 1410SOL    HW215864   1.740   4.479   1.123 -1.2972 -2.5877  1.8161
 1411SOL     OW15865   3.939   0.513   3.189  0.0518 -0.2285 -0.1511
 1411SOL    HW115866   3.854   0.546   3.217  0.6899  0.9345  0.3997
 1411SOL    HW215867   3.954   0.592   3.137  0.4089 -0.1639  0.0527
 1412SOL     OW15868   3.574   1.584   5.833 -0.4145 -0.4337 -0.9363
 1412SOL    HW115869   3.631   1.546   5.900  0.2625  0.9533 -0.7191
 1412SOL    HW215870   3.541   1.659   5.883  1.9144  0.0092 -0.0728
 1413SOL     OW15871   0.730   0.887   5.756  0.1555  0.6903  0.2277
 1413SOL    HW115872   0.641   0.892   5.790 -0.6654 -1.0397 -1.6481
 1413SOL    HW215873   0.736   0.978   5.726  0.5974  0.0638 -1.5907
 1414SOL     OW15874   4.573   4.390  17.354  0.1599  0.4345 -0.7557
 1414SOL    HW115875   4.655   4.342  17.363  0.0758  0.8140  2.1108
 1414SOL    HW215876   4.591   4.469  17.405 -0.5394  0.8752 -1.1992
 1415SOL     OW15877   4.405   0.566  10.099 -0.3608  0.1052 -0.3986
 1415SOL    HW115878   4.422   0.479  10.062 -0.2438 -0.2834  0.5579
 1415SOL    HW215879   4.312   0.573  10.117 -0.2641 -1.5449  0.7958
 1416SOL     OW15880   2.719   2.070   8.717  0.4677  0.1991  0.4578
 1416SOL    HW115881   2.729   2.134   8.646 -0.8021  1.4404  1.3951
 1416SOL    HW215882   2.809   2.038   8.715  0.2844 -0.3140  0.4530
 1417SOL     OW15883   1.400   1.108   3.403 -0.5087  0.5627  0.2739
 1417SOL    HW115884   1.471   1.058   3.442 -0.9087 -1.0712 -1.0944
 1417SOL    HW215885   1.361   1.138   3.485 -1.0765  2.8842 -0.8395
 1418SOL     OW15886   3.718   2.841   8.073  0.3902 -0.1134 -0.1401
 1418SOL    HW115887   3.752   2.924   8.108 -1.2464  0.7225 -0.5263
 1418SOL    HW215888   3.631   2.831   8.110 -0.3430 -0.2794 -1.9341
 1419SOL     OW15889   0.784   2.081   8.091  0.3729  0.0709  0.4073
 1419SOL    HW115890   0.874   2.052   8.083  0.6432  0.9778  0.1430
 1419SOL    HW215891   0.788   2.171   8.058 -1.8328  0.5735  1.5020
 1420SOL     OW15892   0.289   3.351   3.051 -0.3435 -0.1820 -0.5331
 1420SOL    HW115893   0.216   3.396   3.010 -2.9720 -1.1428  3.0529
 1420SOL    HW215894   0.288   3.259   3.025  2.1176  0.2395 -2.1069
 1421SOL     OW15895   1.344   0.419   2.891 -0.4026 -0.3914 -0.1671
 1421SOL    HW115896   1.430   0.418   2.934 -0.2128  2.1960 -0.4882
 1421SOL    HW215897   1.286   0.428   2.967 -0.1017 -1.4956  0.2024
 1422SOL     OW15898   2.296   0.145  13.213  0.6591  0.2225  0.1842
 1422SOL    HW115899   2.214   0.098  13.228  0.0829  1.8223  2.0270
 1422SOL    HW215900   2.284   0.154  13.118 -2.3933  0.2266  0.5611
 1423SOL     OW15901   0.759   0.938   8.874 -0.2105 -0.2563 -0.0073
 1423SOL    HW115902   0.712   0.976   8.800  1.4569 -0.3830 -1.1423
 1423SOL    HW215903   0.718   0.971   8.954  0.4300  0.9577 -0.1897
 1424SOL     OW15904   4.508   3.769   4.406 -0.2299 -0.1184  0.2676
 1424SOL    HW115905   4.591   3.749   4.448  0.4207 -0.3677 -1.1345
 1424SOL    HW215906   4.470   3.682   4.400 -1.3254  0.2237  2.3721
 1425SOL     OW15907   2.316   2.484   6.978  0.1554  0.1834  0.5750
 1425SOL    HW115908   2.408   2.506   6.993  0.5522 -1.9929  1.3687
 1425SOL    HW215909   2.269   2.566   6.993  1.6599  1.0782  0.4717
 1426SOL     OW15910   3.321   1.803   1.102 -0.2614 -0.1725 -0.3138
 1426SOL    HW115911   3.369   1.729   1.140  3.1321  2.5367  0.6652
 1426SOL    HW215912   3.265   1.817   1.178  0.7645 -2.0488  0.8010
 1427SOL     OW15913   1.692   0.793   8.204  0.1065  0.1700 -0.4406
 1427SOL    HW115914   1.763   0.810   8.265 -0.7059  2.5580 -0.1808
 1427SOL    HW215915   1.625   0.805   8.271 -1.4543  0.8870 -2.1137
 1428SOL     OW15916   3.080   3.989   9.293 -0.8438  0.0425 -0.0224
 1428SOL    HW115917   3.041   3.945   9.218 -0.5033  0.2134 -0.3033
 1428SOL    HW215918   3.031   3.945   9.362  1.5238 -1.0467  0.9723
 1429SOL     OW15919   4.472   3.599   7.557 -0.5153 -0.2360 -0.0198
 1429SOL    HW115920   4.502   3.548   7.632 -1.2613 -0.2217  0.2771
 1429SOL    HW215921   4.385   3.620   7.589 -0.9248 -2.0341  0.0057
 1430SOL     OW15922   0.311   0.748   4.160  0.3947  0.2431 -0.4819
 1430SOL    HW115923   0.289   0.769   4.069  0.6247  0.2660 -0.5325
 1430SOL    HW215924   0.394   0.699   4.156 -0.1592 -0.7068 -0.5250
 1431SOL     OW15925   0.607   2.409   5.627  0.1459  0.2173 -0.5781
 1431SOL    HW115926   0.648   2.470   5.689  2.1582 -0.1003 -1.5899
 1431SOL    HW215927   0.552   2.369   5.694 -0.5362 -0.1227 -1.3363
 1432SOL     OW15928   2.285   2.233   4.942  0.1175 -0.1893  0.2794
 1432SOL    HW115929   2.191   2.243   4.960  0.2821 -0.6773  1.4614
 1432SOL    HW215930   2.315   2.180   5.016  1.8265 -0.1350 -0.3859
 1433SOL     OW15931   3.986   3.574   2.494 -0.3729 -0.1720 -0.7801
 1433SOL    HW115932   3.977   3.479   2.499  0.8914 -0.3071 -1.2240
 1433SOL    HW215933   4.005   3.595   2.586 -1.4640 -0.6181 -0.4492
 1434SOL     OW15934   2.358   2.707   1.991 -0.2561 -0.8440 -0.4299
 1434SOL    HW115935   2.371   2.786   1.939  0.7144 -0.8923 -0.2653
 1434SOL    HW215936   2.368   2.633   1.932 -0.3265 -0.2850 -1.1409
 1435SOL     OW15937   2.185   0.475  13.345  0.2563 -0.1766 -0.0544
 1435SOL    HW115938   2.107   0.422  13.328 -0.3953  1.1534 -1.1412
 1435SOL    HW215939   2.149   0.523  13.419  3.2346  2.1510 -0.1157
 1436SOL     OW15940   0.164   3.077  16.974  0.0639 -0.5741 -0.0112
 1436SOL    HW115941   0.196   3.145  17.033  0.6808  0.0577 -1.0859
 1436SOL    HW215942   0.078   3.109  16.947  0.2358  0.4183  0.6229
 1437SOL     OW15943   0.438   0.148   8.526  0.3389 -0.6162  0.5644
 1437SOL    HW115944   0.532   0.156   8.543  0.5198  1.0522 -1.2255
 1437SOL    HW215945   0.429   0.061   8.486 -0.9648 -0.0701 -0.3381
 1438SOL     OW15946   0.347   4.368   5.540  0.1034 -0.5039  0.0383
 1438SOL    HW115947   0.322   4.413   5.621  0.4488  0.0841 -0.1826
 1438SOL    HW215948   0.443   4.368   5.541  0.1024 -1.8810 -0.6963
 1439SOL     OW15949   0.461   2.020   5.653  0.2548  0.7769 -0.1194
 1439SOL    HW115950   0.386   1.962   5.640  0.4602  1.0113 -2.3127
 1439SOL    HW215951   0.485   2.044   5.563 -1.3676 -0.3330 -0.8560
 1440SOL     OW15952   0.122   0.202   6.780 -0.0796 -0.2589  0.1767
 1440SOL    HW115953   0.066   0.211   6.857  0.7382  1.2730  0.5924
 1440SOL    HW215954   0.150   0.112   6.797  0.3127 -0.6825 -2.8130
 1441SOL     OW15955   3.713   3.040   7.769  0.1162 -0.3110  0.0252
 1441SOL    HW115956   3.619   3.032   7.753  0.0349  0.6431  0.0184
 1441SOL    HW215957   3.741   2.949   7.766 -0.3641 -0.4872  0.7300
 1442SOL     OW15958   2.784   1.562   7.320  0.3960  0.5672  0.2426
 1442SOL    HW115959   2.752   1.647   7.288 -0.7396  0.2163  0.4383
 1442SOL    HW215960   2.716   1.513   7.273  0.2062 -0.3041  1.4404
 1443SOL     OW15961   4.298   0.284   3.287 -0.2868  0.1932  0.6561
 1443SOL    HW115962   4.215   0.291   3.333  0.3084  0.5109  1.6666
 1443SOL    HW215963   4.276   0.318   3.200  1.6863 -0.1083  0.0415
 1444SOL     OW15964   1.974   4.016   9.268  0.7485 -0.4616 -0.0976
 1444SOL    HW115965   2.048   4.046   9.214  1.6758 -1.5980  0.5370
 1444SOL    HW215966   1.960   4.092   9.325  1.0380  1.1216 -2.1326
 1445SOL     OW15967   0.918   1.129  16.664  0.4304 -0.4501  0.3968
 1445SOL    HW115968   0.873   1.211  16.683  1.2040  0.6462 -2.5622
 1445SOL    HW215969   0.994   1.144  16.720  1.1246 -2.2403 -0.0538
 1446SOL     OW15970   4.166   1.409   8.175  0.0909  0.1868 -0.3555
 1446SOL    HW115971   4.199   1.497   8.193  1.7776 -0.7002  0.8839
 1446SOL    HW215972   4.075   1.421   8.200 -0.1459  2.7871 -2.4914
 1447SOL     OW15973   3.548   2.081   1.098  0.3514  0.1331  0.1240
 1447SOL    HW115974   3.482   2.020   1.131 -0.9239  0.9015 -1.0236
 1447SOL    HW215975   3.597   2.036   1.029 -0.3827 -1.2091  0.4752
 1448SOL     OW15976   1.206   2.445   6.164  0.3331 -0.3230  0.1385
 1448SOL    HW115977   1.212   2.477   6.075  0.1305  2.2364  1.0471
 1448SOL    HW215978   1.118   2.407   6.167 -0.7045  2.0938  0.4913
 1449SOL     OW15979   3.474   2.013   7.721 -0.0001  0.1294 -0.1632
 1449SOL    HW115980   3.443   1.934   7.766  0.2521 -0.4158 -0.9479
 1449SOL    HW215981   3.456   2.076   7.791  1.6072 -1.0153  1.3084
 1450SOL     OW15982   1.196   0.660   6.369 -0.1446  0.2714 -0.6258
 1450SOL    HW115983   1.123   0.664   6.308 -0.4781  2.3963 -0.0910
 1450SOL    HW215984   1.276   0.696   6.329 -0.2926  2.3700  0.9753
 1451SOL     OW15985   1.501   1.353   7.769 -0.4463 -0.7217 -0.5389
 1451SOL    HW115986   1.481   1.279   7.711 -0.7207 -0.3321 -0.9507
 1451SOL    HW215987   1.445   1.419   7.728 -0.3407  0.5179  1.3350
 1452SOL     OW15988   0.441   1.892  10.115 -0.5691  0.0447 -0.3207
 1452SOL    HW115989   0.501   1.850  10.177 -1.1197  0.4241  0.4802
 1452SOL    HW215990   0.430   1.816  10.058 -2.6851  0.2129 -0.1317
 1453SOL     OW15991   0.002   2.449   4.597 -0.0928  0.2634  0.1499
 1453SOL    HW115992   0.079   2.395   4.579 -1.9333 -2.8605  1.8107
 1453SOL    HW215993   0.023   2.486   4.683  1.5324 -1.3371  0.4318
 1454SOL     OW15994   2.595   0.506   5.577 -0.7253  0.3282  0.0167
 1454SOL    HW115995   2.548   0.590   5.582  0.5299  0.9805  0.9800
 1454SOL    HW215996   2.518   0.453   5.557 -0.3748  0.1232 -0.7720
 1455SOL     OW15997   1.083   2.870  12.500 -0.0131  0.1456  0.2775
 1455SOL    HW115998   1.064   2.833  12.586  3.4178 -0.6152  0.6931
 1455SOL    HW215999   0.995   2.877  12.462  0.2737  0.4753 -0.3337
 1456SOL     OW16000   0.503   2.435   4.594 -0.3042  0.3995 -0.6409
 1456SOL    HW116001   0.427   2.486   4.566 -0.1127  0.8975 -0.2464
 1456SOL    HW216002   0.571   2.490   4.557 -1.0943  1.4212 -0.5654
 1457SOL     OW16003   2.334   3.928   4.357  0.0548 -0.1173  0.2235
 1457SOL    HW116004   2.304   3.955   4.270 -2.2938 -0.9603  0.7529
 1457SOL    HW216005   2.352   4.015   4.393  0.5385  0.1150 -0.5793
 1458SOL     OW16006   2.245   4.319   7.522  0.7226 -0.5514  0.4706
 1458SOL    HW116007   2.248   4.412   7.545  2.6793 -0.1934 -1.2682
 1458SOL    HW216008   2.297   4.283   7.594  0.6806  0.4986  1.0184
 1459SOL     OW16009   0.573   2.794  17.001 -0.0404 -0.0338 -0.3310
 1459SOL    HW116010   0.502   2.849  16.967 -1.6455 -0.8692  1.6821
 1459SOL    HW216011   0.649   2.852  17.004  0.1298 -0.4305  2.9056
 1460SOL     OW16012   4.366   4.178  11.668 -0.0924  0.0573 -0.1501
 1460SOL    HW116013   4.311   4.144  11.739 -1.6716 -0.2833 -1.5448
 1460SOL    HW216014   4.453   4.187  11.706 -1.0874  0.5555  1.9953
 1461SOL     OW16015   1.852   3.350  15.198 -0.7776 -0.1249  0.2354
 1461SOL    HW116016   1.908   3.428  15.203  1.0329 -1.4192  0.2978
 1461SOL    HW216017   1.803   3.349  15.281 -1.1370 -0.2184  0.0194
 1462SOL     OW16018   2.385   2.352   9.535 -0.6379 -0.5341 -0.1830
 1462SOL    HW116019   2.342   2.278   9.578 -0.7032 -0.9114 -0.8957
 1462SOL    HW216020   2.332   2.423   9.570 -4.0216 -1.5536 -3.2364
 1463SOL     OW16021   0.283   2.080   9.936 -0.0122  0.2635 -0.0859
 1463SOL    HW116022   0.327   2.002   9.970  1.6684  1.0307 -0.5044
 1463SOL    HW216023   0.197   2.070   9.976  0.1635 -1.6275 -0.1836
 1464SOL     OW16024   2.217   1.459   1.844 -0.6441 -0.0117 -0.0986
 1464SOL    HW116025   2.302   1.486   1.879  0.3202 -0.5945 -2.0048
 1464SOL    HW216026   2.228   1.505   1.761 -0.4185 -0.0441 -0.0872
 1465SOL     OW16027   3.473   4.316  10.390  0.6717  0.0871  0.0979
 1465SOL    HW116028   3.437   4.316  10.301  3.3425 -1.6850 -1.0102
 1465SOL    HW216029   3.559   4.355  10.372 -0.0482  1.6966  0.1333
 1466SOL     OW16030   2.522   2.701   7.924 -0.3481  0.1757 -0.2283
 1466SOL    HW116031   2.435   2.660   7.922  0.3296 -1.4052  2.7396
 1466SOL    HW216032   2.499   2.794   7.929 -1.4188 -0.1635  1.1784
 1467SOL     OW16033   2.644   1.927  13.643  0.2846  0.1997 -0.2677
 1467SOL    HW116034   2.594   1.932  13.561  2.3168 -2.0275 -1.6444
 1467SOL    HW216035   2.693   2.009  13.648  1.7820 -0.4719 -3.8164
 1468SOL     OW16036   0.486   3.176  11.172 -0.3092 -0.1790  0.7592
 1468SOL    HW116037   0.575   3.184  11.138 -0.8287  4.1603  0.3390
 1468SOL    HW216038   0.471   3.083  11.185  1.8602 -0.8574 -1.7235
 1469SOL     OW16039   3.015   2.295   6.885  0.2743 -0.0422 -0.2566
 1469SOL    HW116040   3.060   2.350   6.822  0.6179  2.1561  1.9115
 1469SOL    HW216041   2.973   2.236   6.823 -1.2237  0.0597  0.6545
 1470SOL     OW16042   4.548   0.077   5.780 -0.2700  0.4009  0.2457
 1470SOL    HW116043   4.577   4.722   5.770 -1.1085  0.1056  0.5059
 1470SOL    HW216044   4.474   0.051   5.834  1.4352 -0.5426  2.1564
 1471SOL     OW16045   3.649   3.627   7.917  0.1158 -0.2379  0.1794
 1471SOL    HW116046   3.599   3.571   7.976 -2.2574  0.6573 -1.0078
 1471SOL    HW216047   3.697   3.567   7.859 -0.5961  0.1944 -0.8507
 1472SOL     OW16048   1.179   4.067   2.784  0.0881 -0.6973  0.5088
 1472SOL    HW116049   1.168   4.149   2.832 -0.3252 -1.2923  1.4357
 1472SOL    HW216050   1.091   4.042   2.755  0.0669  0.3906 -0.3637
 1473SOL     OW16051   3.028   0.273   4.335  0.5691 -0.1716 -0.6858
 1473SOL    HW116052   3.074   0.206   4.285  2.4496  0.4302  0.2625
 1473SOL    HW216053   3.018   0.228   4.419  2.6707  2.1057  0.7619
 1474SOL     OW16054   2.727   0.764   8.141  0.1960  0.3007  0.5324
 1474SOL    HW116055   2.633   0.771   8.158  0.3547  1.2342  1.0050
 1474SOL    HW216056   2.744   0.835   8.080  0.7517  1.9537  2.5838
 1475SOL     OW16057   3.220   3.360   3.134  0.1382 -0.2680 -0.2818
 1475SOL    HW116058   3.178   3.376   3.218  1.2685  0.0604  0.2069
 1475SOL    HW216059   3.204   3.269   3.109  1.4858 -0.1347 -1.6164
 1476SOL     OW16060   2.888   1.047   8.720  0.1053  0.6169 -0.2865
 1476SOL    HW116061   2.798   1.072   8.741  0.6067  0.4242  2.0796
 1476SOL    HW216062   2.872   0.976   8.657  1.2827 -1.3862  1.6738
 1477SOL     OW16063   0.266   1.107   9.409 -0.4201 -0.2956 -0.1489
 1477SOL    HW116064   0.171   1.112   9.397 -0.4818 -2.0647 -0.3035
 1477SOL    HW216065   0.282   1.171   9.479 -2.7151 -0.9318  0.9766
 1478SOL     OW16066   2.088   1.583   2.219 -0.2838 -0.2874 -0.0175
 1478SOL    HW116067   2.034   1.578   2.140 -1.4232  1.3958  0.6631
 1478SOL    HW216068   2.033   1.599   2.295  0.9019  0.9730  0.5896
 1479SOL     OW16069   2.357   0.268  16.271  0.0552 -0.2321  0.2294
 1479SOL    HW116070   2.447   0.299  16.265  0.2045 -1.1329 -2.2823
 1479SOL    HW216071   2.300   0.336  16.235  0.5075 -1.6782 -3.2606
 1480SOL     OW16072   1.985   2.691   8.478  0.1973  0.4502  0.0549
 1480SOL    HW116073   1.922   2.672   8.547  0.0433  0.1801 -0.1601
 1480SOL    HW216074   2.033   2.609   8.463 -0.8432 -0.1791  0.2204
 1481SOL     OW16075   3.702   3.872   3.635 -0.0179  0.1531  0.1095
 1481SOL    HW116076   3.650   3.951   3.634  0.8185  0.7170  0.8758
 1481SOL    HW216077   3.753   3.895   3.713 -1.1356 -3.0208  1.8073
 1482SOL     OW16078   3.849   4.226   3.687 -0.0360  0.1252 -1.0081
 1482SOL    HW116079   3.767   4.178   3.680  0.1574 -0.1362 -1.5454
 1482SOL    HW216080   3.855   4.249   3.594 -0.3090  0.2362 -0.9949
 1483SOL     OW16081   3.698   4.211   1.729 -0.3416  0.4444 -0.5279
 1483SOL    HW116082   3.792   4.195   1.738 -0.6416 -1.8437 -1.4060
 1483SOL    HW216083   3.680   4.235   1.820  2.3005 -1.0840  0.4038
 1484SOL     OW16084   2.409   0.913   8.430 -0.1443 -0.3598 -0.2280
 1484SOL    HW116085   2.424   0.910   8.525 -1.0306  0.8718 -0.0486
 1484SOL    HW216086   2.470   0.981   8.401  0.2332  0.1148  1.6693
 1485SOL     OW16087   3.148   2.678   3.105 -0.6081 -0.2497 -0.4654
 1485SOL    HW116088   3.170   2.705   3.015 -0.7838 -0.2328 -0.5024
 1485SOL    HW216089   3.123   2.586   3.095 -1.0838 -0.2918  1.1486
 1486SOL     OW16090   2.821   0.709   5.184  0.0217 -0.3201 -0.3418
 1486SOL    HW116091   2.874   0.633   5.206  1.9618  0.3601 -2.6714
 1486SOL    HW216092   2.832   0.728   5.091 -1.2464 -0.5624 -0.5337
 1487SOL     OW16093   0.845   1.917   4.050  0.9517 -0.5758 -0.3818
 1487SOL    HW116094   0.870   1.860   4.123  0.6674 -1.7032 -1.1604
 1487SOL    HW216095   0.835   2.000   4.095  1.9208 -0.4451 -0.3938
 1488SOL     OW16096   3.500   3.513   6.757  0.1525  0.3010  0.2885
 1488SOL    HW116097   3.544   3.598   6.764 -0.7842  0.8251 -0.1301
 1488SOL    HW216098   3.428   3.538   6.815 -0.5144 -1.2192  0.1163
 1489SOL     OW16099   0.523   0.328  13.843  0.6216 -0.3221  0.2519
 1489SOL    HW116100   0.599   0.386  13.831 -0.0742  0.5739  0.1720
 1489SOL    HW216101   0.502   0.371  13.925  0.1261 -0.5215  0.2251
 1490SOL     OW16102   0.564   2.270  11.762 -0.2508  0.3266  0.0384
 1490SOL    HW116103   0.519   2.354  11.751  0.1716  0.4001 -1.1391
 1490SOL    HW216104   0.492   2.210  11.742 -1.0136  1.0889  0.5115
 1491SOL     OW16105   2.176   1.579   7.629  0.1450  0.5060 -0.5444
 1491SOL    HW116106   2.128   1.527   7.693  0.5126  1.0194  0.1523
 1491SOL    HW216107   2.205   1.511   7.569 -0.1121 -2.2752  2.4949
 1492SOL     OW16108   0.108   0.325   3.994 -0.1519 -0.1407  0.1654
 1492SOL    HW116109   0.132   0.291   4.081 -2.2328  0.2152  0.8758
 1492SOL    HW216110   0.200   0.318   3.969 -0.2999  1.1073 -0.7289
 1493SOL     OW16111   4.067   0.693   7.551  0.3679  0.6634 -0.0964
 1493SOL    HW116112   4.002   0.685   7.621  0.0528  1.1943 -0.3302
 1493SOL    HW216113   4.127   0.760   7.582  0.3522 -0.4005  2.2516
 1494SOL     OW16114   3.641   1.911   4.336 -0.2084  0.2513  0.0623
 1494SOL    HW116115   3.684   1.945   4.257 -0.8397  2.2171  0.5505
 1494SOL    HW216116   3.574   1.978   4.350 -0.6056  0.2066 -1.5794
 1495SOL     OW16117   3.974   1.516   9.294 -0.4277  0.1032  0.2149
 1495SOL    HW116118   4.002   1.436   9.249  0.6932  1.3765 -1.3424
 1495SOL    HW216119   3.900   1.547   9.242 -2.2336  1.1978  3.4253
 1496SOL     OW16120   4.569   0.497   8.913  0.1325  0.4738 -0.4062
 1496SOL    HW116121   4.477   0.518   8.926  0.2134  0.5769  0.0261
 1496SOL    HW216122   4.589   0.568   8.853  0.0222 -1.1738 -2.3734
 1497SOL     OW16123   2.601   0.156   8.434  0.1420  0.3115 -0.5230
 1497SOL    HW116124   2.627   0.087   8.374 -0.8169  0.0116 -0.5994
 1497SOL    HW216125   2.653   0.221   8.387 -1.0582  1.2898 -0.5217
 1498SOL     OW16126   1.388   2.654   2.001  0.2511 -0.0991  0.4310
 1498SOL    HW116127   1.413   2.731   1.949  2.0201 -1.0951 -0.2248
 1498SOL    HW216128   1.465   2.598   1.986  0.6726  1.3685 -2.8605
 1499SOL     OW16129   3.908   1.090   7.406 -0.2666 -0.5304 -0.5680
 1499SOL    HW116130   3.987   1.080   7.459  0.9308  2.5139 -1.7820
 1499SOL    HW216131   3.834   1.082   7.467  0.2815 -0.3707  0.1169
 1500SOL     OW16132   2.737   1.173  17.714 -0.4430  0.4433  0.0303
 1500SOL    HW116133   2.669   1.177   0.038 -1.2806  0.2117 -0.8032
 1500SOL    HW216134   2.732   1.262  17.679  3.2844  0.5828 -0.1145
 1501SOL     OW16135   4.312   0.253   2.486 -0.0946  0.1843 -0.3514
 1501SOL    HW116136   4.324   0.282   2.577  1.7114  1.1399 -0.8984
 1501SOL    HW216137   4.304   0.338   2.443 -0.0784  0.2643 -0.1985
 1502SOL     OW16138   0.190   2.853   4.860  0.3647 -0.2313  0.1027
 1502SOL    HW116139   0.130   2.917   4.900  1.1765  0.8984 -0.4689
 1502SOL    HW216140   0.189   2.884   4.769  1.5541 -2.3272 -0.6124
 1503SOL     OW16141   1.060   2.925   6.833 -0.0834  0.4833  0.0794
 1503SOL    HW116142   1.101   2.850   6.789  0.2270  2.2754 -2.7435
 1503SOL    HW216143   0.971   2.923   6.796  0.2827 -0.7220 -0.7437
 1504SOL     OW16144   3.025   3.403   3.752  0.0727 -0.5313  0.7601
 1504SOL    HW116145   3.062   3.330   3.703 -1.0841 -1.0749  0.6836
 1504SOL    HW216146   2.944   3.357   3.776 -1.2201  1.0110 -0.6168
 1505SOL     OW16147   0.467   3.503   5.588 -0.0527 -0.1317  0.9691
 1505SOL    HW116148   0.556   3.532   5.563 -0.2755  0.6969  1.1274
 1505SOL    HW216149   0.414   3.532   5.513 -0.6445  0.2950  1.5567
 1506SOL     OW16150   3.008   0.126   4.569  0.0816 -0.0427  0.5306
 1506SOL    HW116151   3.015   0.211   4.612  1.0061 -0.3120  0.8994
 1506SOL    HW216152   3.039   0.069   4.639  0.5586 -0.5681 -0.1112
 1507SOL     OW16153   2.437   3.786   0.002  0.0998  0.0933 -0.3627
 1507SOL    HW116154   2.501   3.850   0.032  0.7057 -0.0983 -1.2221
 1507SOL    HW216155   2.410   3.736   0.079 -0.5508  1.6358  0.3937
 1508SOL     OW16156   0.239   1.430   7.898 -0.1961  0.1586  0.5050
 1508SOL    HW116157   0.222   1.435   7.804 -0.0831  1.7711  0.5782
 1508SOL    HW216158   0.293   1.508   7.910  0.8645 -0.6303  0.9597
 1509SOL     OW16159   3.638   2.087   7.089  0.5139 -0.0520 -0.3794
 1509SOL    HW116160   3.604   1.997   7.086  0.2721 -0.0372  1.5218
 1509SOL    HW216161   3.621   2.117   7.000  1.3894  3.4791  0.6576
 1510SOL     OW16162   3.704   2.710   7.847  0.4518 -0.1417  0.2519
 1510SOL    HW116163   3.710   2.750   7.933  0.2137  1.0312 -0.2813
 1510SOL    HW216164   3.732   2.622   7.871  2.0773  0.2913 -0.0697
 1511SOL     OW16165   3.964   2.216   3.444  0.4578  0.4109 -0.3641
 1511SOL    HW116166   3.875   2.212   3.411  0.4632 -1.1151 -0.2258
 1511SOL    HW216167   3.990   2.127   3.421 -0.1961  0.1395 -0.0468
 1512SOL     OW16168   3.689   3.906   8.728 -0.9066 -0.4061  0.0858
 1512SOL    HW116169   3.638   3.977   8.688 -0.5609  1.2370  2.6084
 1512SOL    HW216170   3.750   3.893   8.654 -0.4583  1.5173  0.1047
 1513SOL     OW16171   1.692   3.301  15.430 -0.7291  0.1786 -0.5148
 1513SOL    HW116172   1.661   3.225  15.382  0.5536  0.4304 -1.7470
 1513SOL    HW216173   1.691   3.263  15.517 -3.1961  1.3396 -0.0492
 1514SOL     OW16174   0.909   3.269   5.608  0.5601 -0.6004 -0.2917
 1514SOL    HW116175   0.941   3.180   5.617  0.3236 -0.6690 -0.1345
 1514SOL    HW216176   0.893   3.267   5.513  3.6902  1.4307 -0.9092
 1515SOL     OW16177   0.518   0.933   7.750 -0.1273  0.6390 -0.1957
 1515SOL    HW116178   0.501   1.025   7.730 -0.1245  0.5144 -0.7706
 1515SOL    HW216179   0.497   0.926   7.843  0.5187  2.2859  0.0691
 1516SOL     OW16180   2.788   3.704   5.283  0.2946 -0.1579  0.1602
 1516SOL    HW116181   2.742   3.688   5.201 -0.0231  1.4627  0.0117
 1516SOL    HW216182   2.797   3.800   5.283  2.0234 -0.3181 -1.6639
 1517SOL     OW16183   2.908   1.062   4.842  0.1015 -0.1399  0.2135
 1517SOL    HW116184   2.962   1.026   4.912 -2.2996 -3.4946  0.2887
 1517SOL    HW216185   2.885   1.147   4.880 -0.2443 -0.4848  0.7656
 1518SOL     OW16186   4.679   3.275   1.573  0.6986 -0.0004 -0.1498
 1518SOL    HW116187   4.592   3.242   1.552 -0.0782  1.3797  0.8472
 1518SOL    HW216188   4.723   3.191   1.584 -0.8965 -0.5501  2.0384
 1519SOL     OW16189   2.321   0.317   3.726  0.2483 -0.7566  0.7881
 1519SOL    HW116190   2.347   0.387   3.786 -2.5157  0.6830  0.2617
 1519SOL    HW216191   2.238   0.288   3.763 -0.3675 -0.2014 -0.1819
 1520SOL     OW16192   2.222   2.174  10.597  0.5722 -0.4480  0.2890
 1520SOL    HW116193   2.196   2.086  10.624 -1.4297 -0.0535 -0.3423
 1520SOL    HW216194   2.317   2.166  10.586  0.5316 -1.1160  0.4445
 1521SOL     OW16195   4.676   4.314  16.397  0.7219 -0.0613  0.1881
 1521SOL    HW116196   4.596   4.262  16.409  0.9897 -0.5656 -0.1986
 1521SOL    HW216197   0.016   4.259  16.417  0.4446  0.1325  1.7397
 1522SOL     OW16198   3.729   2.017   6.524 -0.0266 -0.1500  0.4340
 1522SOL    HW116199   3.687   2.080   6.465  1.7756 -0.1295 -0.8405
 1522SOL    HW216200   3.795   2.073   6.566 -0.7656  0.1007  1.2572
 1523SOL     OW16201   2.862   0.307   7.230 -0.7931  0.2567 -0.2749
 1523SOL    HW116202   2.856   0.395   7.194 -3.1921  0.6547  1.0765
 1523SOL    HW216203   2.952   0.281   7.213 -0.0013  2.2515  0.9459
 1524SOL     OW16204   3.447   2.025   9.229 -0.5454  0.0860 -0.5715
 1524SOL    HW116205   3.412   2.113   9.221  2.2535  1.3321  0.9532
 1524SOL    HW216206   3.536   2.041   9.196 -0.1297 -0.5747  0.2152
 1525SOL     OW16207   0.234   4.499  11.853  0.2694 -0.6812  0.0827
 1525SOL    HW116208   0.305   4.477  11.913  2.1476  2.5240 -0.9967
 1525SOL    HW216209   0.271   4.575  11.808  0.3649 -0.7014  0.1285
 1526SOL     OW16210   3.606   1.513   7.350 -0.6982  0.3987  0.2894
 1526SOL    HW116211   3.526   1.472   7.317 -0.1487 -0.4796  0.0252
 1526SOL    HW216212   3.567   1.589   7.392  1.7825  0.1361  3.1179
 1527SOL     OW16213   0.373   3.599   6.121  0.3433 -0.0019 -0.2814
 1527SOL    HW116214   0.395   3.586   6.028  0.2788  1.5864 -0.5123
 1527SOL    HW216215   0.368   3.694   6.129 -1.7940 -0.2168  0.8501
 1528SOL     OW16216   4.173   3.832  12.125  0.1751 -0.1403 -0.4838
 1528SOL    HW116217   4.092   3.820  12.076 -1.6194  2.3225  1.9246
 1528SOL    HW216218   4.150   3.915  12.165 -0.7191  0.0769 -1.4492
 1529SOL     OW16219   4.047   0.227   2.537  0.2981  0.5522  0.1966
 1529SOL    HW116220   4.140   0.233   2.516 -0.1166  0.1473 -1.7323
 1529SOL    HW216221   4.028   0.135   2.517 -0.8429  1.1802 -1.6645
 1530SOL     OW16222   0.628   1.862   2.014  0.5357  0.5636 -0.0084
 1530SOL    HW116223   0.557   1.858   2.079 -0.5342 -3.6454 -1.4480
 1530SOL    HW216224   0.644   1.769   1.997 -0.7325  0.6014 -1.4674
 1531SOL     OW16225   4.322   4.202   7.073  0.3111  0.3174 -0.0841
 1531SOL    HW116226   4.291   4.115   7.050  0.7103 -0.2120  1.3815
 1531SOL    HW216227   4.241   4.231   7.115  0.4032  1.2523 -0.5533
 1532SOL     OW16228   0.855   4.235  10.050  0.1758 -0.0220 -0.3778
 1532SOL    HW116229   0.789   4.294  10.014  0.6935  0.6333 -0.2539
 1532SOL    HW216230   0.935   4.284  10.029  0.1435 -0.6350 -1.9521
 1533SOL     OW16231   3.700   1.415   0.125  0.0067  0.2439  0.3076
 1533SOL    HW116232   3.648   1.439   0.202 -0.9243  1.4642 -0.7262
 1533SOL    HW216233   3.764   1.486   0.118 -0.7144  0.7661 -0.8345
 1534SOL     OW16234   2.106   4.537   2.170 -0.8745 -0.3433  0.6492
 1534SOL    HW116235   2.131   4.605   2.234 -0.2251 -1.4076  1.5287
 1534SOL    HW216236   2.151   4.463   2.212  2.1205  1.1913  0.1771
 1535SOL     OW16237   1.909   0.598  13.206 -0.1999  0.5566 -0.0807
 1535SOL    HW116238   1.920   0.511  13.246 -0.6167  1.1898  1.3976
 1535SOL    HW216239   1.924   0.656  13.281 -2.2539 -0.4744  1.1037
 1536SOL     OW16240   2.113   1.906  10.745 -0.3549  0.2395 -0.5492
 1536SOL    HW116241   2.071   1.880  10.663 -0.0498  2.0253 -1.2703
 1536SOL    HW216242   2.147   1.823  10.779 -2.0167  0.1517  0.8630
 1537SOL     OW16243   2.521   1.757  14.890 -0.0269 -0.2416 -0.2704
 1537SOL    HW116244   2.448   1.819  14.894  2.8479  2.8534  4.2054
 1537SOL    HW216245   2.504   1.700  14.964  2.0211 -1.6176 -0.8558
 1538SOL     OW16246   2.237   3.536   9.881 -0.0165  0.2002  0.5193
 1538SOL    HW116247   2.250   3.604   9.946  1.1133 -0.6336  1.1577
 1538SOL    HW216248   2.246   3.599   9.809 -1.6124  0.2924  0.3987
 1539SOL     OW16249   2.293   1.798   7.799  0.1792  0.1232  0.4382
 1539SOL    HW116250   2.305   1.726   7.736 -2.3036 -0.7071  0.9343
 1539SOL    HW216251   2.198   1.808   7.803  0.3422  0.9365  2.2306
 1540SOL     OW16252   0.298   1.092   2.890  0.2542 -0.1100 -0.2049
 1540SOL    HW116253   0.245   1.106   2.968  0.5063  0.7953 -0.1941
 1540SOL    HW216254   0.322   1.001   2.904 -0.2755 -0.0601  1.0342
 1541SOL     OW16255   1.209   0.039   9.916 -0.3983 -0.2094  0.6624
 1541SOL    HW116256   1.193   0.117   9.863  1.4039  0.5870  1.2877
 1541SOL    HW216257   1.129   0.033   9.968 -0.2388  0.6592  1.0088
 1542SOL     OW16258   4.450   1.499   2.197 -0.3188  0.8575 -0.4127
 1542SOL    HW116259   4.381   1.494   2.263 -0.7999  1.9469 -0.8283
 1542SOL    HW216260   4.479   1.408   2.202 -0.3067  0.9086  0.4639
 1543SOL     OW16261   1.963   3.796   8.011 -0.4898 -0.1506  0.2028
 1543SOL    HW116262   2.038   3.856   8.019 -0.2660 -0.5198  0.8206
 1543SOL    HW216263   1.989   3.734   8.079 -1.2350  1.0751  1.5767
 1544SOL     OW16264   4.575   3.189   7.559 -0.0242 -0.4278 -0.3055
 1544SOL    HW116265   4.592   3.220   7.469  0.1950 -0.6808 -0.3494
 1544SOL    HW216266   4.583   3.269   7.610 -0.3090 -0.9199  0.4992
 1545SOL     OW16267   2.237   4.329   7.887  0.1321  0.0335  0.2690
 1545SOL    HW116268   2.325   4.366   7.890  0.2677 -0.2862  0.1734
 1545SOL    HW216269   2.261   4.257   7.830 -0.0338 -1.0376  1.5549
 1546SOL     OW16270   1.113   0.987   5.274 -0.4641  0.1663 -0.6208
 1546SOL    HW116271   1.189   0.936   5.245 -0.6820 -1.8079  2.2415
 1546SOL    HW216272   1.067   1.010   5.193  0.8754  1.7791 -0.9160
 1547SOL     OW16273   4.176   3.256   2.176 -0.1411  0.3884  0.8780
 1547SOL    HW116274   4.224   3.180   2.143  1.7880  2.9503 -2.1443
 1547SOL    HW216275   4.244   3.322   2.173  0.6934 -0.3829  3.1735
 1548SOL     OW16276   3.560   3.865   4.161 -0.3125 -0.1523 -0.0127
 1548SOL    HW116277   3.497   3.820   4.217  0.0303 -1.0096 -0.3208
 1548SOL    HW216278   3.583   3.790   4.106  1.3955  2.2255 -2.5404
 1549SOL     OW16279   0.898   0.701  12.585  0.9507  0.1586  0.1682
 1549SOL    HW116280   0.965   0.654  12.634 -1.3771 -3.1003  0.2033
 1549SOL    HW216281   0.817   0.659  12.614  1.9616 -0.0444  2.7076
 1550SOL     OW16282   3.390   3.935   4.542 -0.1173  0.1169  0.4397
 1550SOL    HW116283   3.389   3.840   4.559 -0.2960  0.2053  0.9480
 1550SOL    HW216284   3.391   3.945   4.447 -2.0822 -0.9501  0.2910
 1551SOL     OW16285   1.012   0.063  12.963  0.2829 -0.5180  0.2006
 1551SOL    HW116286   0.937   0.014  12.996  0.5383 -1.6479 -0.8738
 1551SOL    HW216287   0.972   0.148  12.979  1.8582  0.3020 -0.1317
 1552SOL     OW16288   0.752   1.448   7.338 -0.2146 -0.0330 -0.2085
 1552SOL    HW116289   0.837   1.422   7.303  0.2935  0.4724  0.6218
 1552SOL    HW216290   0.784   1.527   7.382 -0.1270  0.6407 -1.4949
 1553SOL     OW16291   0.889   3.291   7.955 -0.2783 -1.0854 -0.1170
 1553SOL    HW116292   0.955   3.344   8.001 -1.6205 -1.3224  2.0714
 1553SOL    HW216293   0.897   3.204   7.995  1.7547 -0.9304 -0.1696
 1554SOL     OW16294   1.797   2.597   7.813 -0.1961 -0.4958 -0.3874
 1554SOL    HW116295   1.823   2.538   7.884 -0.1230  0.7764  0.6555
 1554SOL    HW216296   1.707   2.610   7.844 -0.1926 -0.0836 -0.5486
 1555SOL     OW16297   1.822   4.315   1.349 -0.3566  0.3728 -0.2909
 1555SOL    HW116298   1.771   4.301   1.429 -0.7395  1.8948 -0.2693
 1555SOL    HW216299   1.811   4.410   1.347  0.6314  0.5365  2.1457
 1556SOL     OW16300   0.633   3.224   5.201 -0.3582 -0.3853  0.4875
 1556SOL    HW116301   0.660   3.250   5.113  0.9075 -0.0388  0.9834
 1556SOL    HW216302   0.554   3.172   5.183 -1.3795  0.9820  0.9634
 1557SOL     OW16303   3.992   4.251   0.180 -0.1761  0.4233  0.3727
 1557SOL    HW116304   3.973   4.238   0.273 -1.7451  2.9000  0.4006
 1557SOL    HW216305   4.077   4.296   0.180 -0.1781  0.4263 -0.4969
 1558SOL     OW16306   3.553   1.091   8.517 -0.3048 -0.0743 -0.1034
 1558SOL    HW116307   3.556   1.179   8.478 -0.1968  0.5062  1.2107
 1558SOL    HW216308   3.500   1.098   8.596  0.7075  0.4759  0.5258
 1559SOL     OW16309   1.818   0.696  11.912  0.4075  0.2555 -0.0054
 1559SOL    HW116310   1.801   0.789  11.923  2.2103  0.5572  0.2487
 1559SOL    HW216311   1.911   0.695  11.889  0.3769 -1.0803 -0.1106
 1560SOL     OW16312   3.408   3.116   2.697  0.3114 -0.0095  0.1440
 1560SOL    HW116313   3.398   3.183   2.629  0.4108 -1.3631 -1.2080
 1560SOL    HW216314   3.481   3.062   2.665  0.1023  1.3001 -2.6079
 1561SOL     OW16315   4.140   3.291   0.421  0.0836  0.4540 -0.1796
 1561SOL    HW116316   4.061   3.329   0.460 -0.5738 -2.4633  1.3437
 1561SOL    HW216317   4.101   3.265   0.337  2.9569  0.7426 -1.6045
 1562SOL     OW16318   3.024   2.690   9.628  0.2389 -0.1309  0.6548
 1562SOL    HW116319   2.966   2.632   9.677 -0.8160 -0.6127 -1.1560
 1562SOL    HW216320   3.065   2.619   9.577  1.2255  2.1565 -1.7209
 1563SOL     OW16321   3.812   3.205   0.593  0.1698  0.0526  0.2485
 1563SOL    HW116322   3.769   3.279   0.635 -0.5451  0.5718 -1.3863
 1563SOL    HW216323   3.854   3.247   0.518 -1.3022  0.9524 -0.0873
 1564SOL     OW16324   0.863   2.011   6.473  0.0308 -0.1381  0.2060
 1564SOL    HW116325   0.775   1.985   6.500  0.3771  0.6885  2.1669
 1564SOL    HW216326   0.917   1.933   6.489 -2.1359 -1.6945 -0.0147
 1565SOL     OW16327   0.902   0.314  10.507 -0.0904  0.2863  0.5694
 1565SOL    HW116328   0.913   0.401  10.467 -0.4058  0.5696  1.1003
 1565SOL    HW216329   0.947   0.254  10.448  2.6161 -0.3408  3.2820
 1566SOL     OW16330   1.806   2.620   9.123 -0.2321 -0.2440 -0.6022
 1566SOL    HW116331   1.817   2.711   9.095 -1.6763  0.6201  1.6900
 1566SOL    HW216332   1.893   2.582   9.110 -0.0149  0.5855 -1.6071
 1567SOL     OW16333   0.049   2.058  12.411  0.3097 -0.2703  0.4921
 1567SOL    HW116334   0.057   2.016  12.325 -1.2848  1.8150 -0.6747
 1567SOL    HW216335   4.726   2.131  12.392 -0.6091 -0.7928  1.3358
 1568SOL     OW16336   4.408   3.596   6.767  0.0155  0.2045 -0.5106
 1568SOL    HW116337   4.432   3.552   6.848  0.2792 -0.2081 -0.8141
 1568SOL    HW216338   4.421   3.686   6.797  1.9372  0.0175 -0.7875
 1569SOL     OW16339   4.361   4.601   1.726 -0.2885 -0.4055 -0.1192
 1569SOL    HW116340   4.371   4.600   1.821 -0.8113 -1.7990 -0.0873
 1569SOL    HW216341   4.308   4.524   1.705  0.1665 -0.4605 -1.0548
 1570SOL     OW16342   4.529   0.338  16.139  0.7959 -0.1328 -0.6809
 1570SOL    HW116343   4.500   0.329  16.048 -0.6083  1.7875 -0.4379
 1570SOL    HW216344   4.588   0.264  16.150  1.3084 -0.1947 -3.8216
 1571SOL     OW16345   1.807   3.067   1.602 -0.2211  0.0802 -0.1421
 1571SOL    HW116346   1.901   3.059   1.622  0.2120  0.6149 -1.9683
 1571SOL    HW216347   1.788   2.978   1.574 -1.0346  0.5999 -1.2223
 1572SOL     OW16348   0.212   4.412   8.647  0.0514  0.2291 -1.1305
 1572SOL    HW116349   0.168   4.428   8.731  1.7093  0.2557 -0.2753
 1572SOL    HW216350   0.168   4.328   8.635 -2.6495  1.8563 -2.5824
 1573SOL     OW16351   1.725   3.770   5.814 -0.3481 -0.2047 -0.2319
 1573SOL    HW116352   1.802   3.790   5.761  0.6194 -2.9066  0.1461
 1573SOL    HW216353   1.660   3.757   5.745 -0.2571  2.0777 -0.7419
 1574SOL     OW16354   3.764   1.162   3.011 -0.5872  0.0523  0.1422
 1574SOL    HW116355   3.793   1.070   3.013  1.1370  0.6095  1.1386
 1574SOL    HW216356   3.748   1.163   2.917  0.7908 -0.4054 -0.1001
 1575SOL     OW16357   3.241   0.761   8.398 -0.5731 -0.2222 -0.4857
 1575SOL    HW116358   3.327   0.800   8.383  0.5670 -2.6513 -0.2393
 1575SOL    HW216359   3.224   0.784   8.489 -0.1269 -5.1740  0.8762
 1576SOL     OW16360   0.166   1.315   6.819 -0.0684 -0.7607 -0.3693
 1576SOL    HW116361   0.180   1.409   6.821  0.5288 -0.8096 -1.7478
 1576SOL    HW216362   0.258   1.287   6.818  0.2066  0.0988  1.0816
 1577SOL     OW16363   0.736   2.388  15.800  0.0991  0.8059  0.0889
 1577SOL    HW116364   0.731   2.320  15.868 -2.1651  1.1620  0.2827
 1577SOL    HW216365   0.774   2.338  15.727  0.0341  2.9100 -1.3828
 1578SOL     OW16366   0.185   2.627   0.040 -0.8172 -0.1925 -0.1354
 1578SOL    HW116367   0.229   2.633   0.125 -0.1152 -0.6288 -0.4653
 1578SOL    HW216368   0.203   2.707  17.734  2.9676  0.4437  2.3181
 1579SOL     OW16369   3.210   4.354   9.946  0.4766 -0.0658 -0.2244
 1579SOL    HW116370   3.297   4.395   9.948  1.5133 -2.1701 -2.4106
 1579SOL    HW216371   3.169   4.422   9.893 -1.8806 -2.1157 -1.0157
 1580SOL     OW16372   1.458   0.726   0.784 -0.0146  0.6278 -0.3256
 1580SOL    HW116373   1.509   0.687   0.713  0.0056 -0.0719  0.0710
 1580SOL    HW216374   1.501   0.811   0.787  2.3317 -0.5375 -0.8463
 1581SOL     OW16375   1.082   1.096   3.484 -0.3384  0.3894 -0.1203
 1581SOL    HW116376   1.103   1.159   3.554  0.1200 -1.9594  1.8454
 1581SOL    HW216377   1.168   1.056   3.473 -0.9836 -1.3544  1.2424
 1582SOL     OW16378   2.800   1.729   7.028  0.3980  0.4418 -0.1739
 1582SOL    HW116379   2.779   1.636   7.036 -2.2762  1.0345 -0.3377
 1582SOL    HW216380   2.733   1.757   6.965 -1.3547  1.1399  1.9977
 1583SOL     OW16381   0.703   4.282   6.875  0.4705  0.5888  0.7282
 1583SOL    HW116382   0.767   4.296   6.805  1.4046 -1.2804  1.2114
 1583SOL    HW216383   0.761   4.253   6.945  2.4624 -1.8108 -1.9473
 1584SOL     OW16384   3.306   4.585   6.048 -0.5349 -0.1401  0.3089
 1584SOL    HW116385   3.400   4.588   6.033 -0.8055  0.1952 -1.2991
 1584SOL    HW216386   3.304   4.649   6.119  0.2807 -1.2119  1.2982
 1585SOL     OW16387   0.907   2.711  13.617  0.3087 -0.0175 -0.9196
 1585SOL    HW116388   0.979   2.731  13.677 -0.4953 -1.1586  0.4340
 1585SOL    HW216389   0.837   2.759  13.661  1.4613  0.5613  0.2949
 1586SOL     OW16390   0.144   0.435  12.577 -0.1728 -0.1594  0.1536
 1586SOL    HW116391   0.195   0.516  12.568  1.2526 -1.3582 -2.4912
 1586SOL    HW216392   0.181   0.369  12.519 -1.9850 -0.3526 -0.7804
 1587SOL     OW16393   2.355   0.016  16.010  0.1774  0.2091  0.6709
 1587SOL    HW116394   2.441   0.048  16.035 -0.6742  3.1236 -0.1474
 1587SOL    HW216395   2.360   0.015  15.914 -1.3977  1.8556  0.5655
 1588SOL     OW16396   3.102   4.727   4.189 -0.0712  0.0724  0.0125
 1588SOL    HW116397   3.049   0.006   4.110 -1.3608  0.0846  0.8762
 1588SOL    HW216398   3.052   4.662   4.239  2.6306 -0.9399  1.3908
 1589SOL     OW16399   3.031   3.526   4.037 -0.0535 -0.0478  0.6796
 1589SOL    HW116400   3.028   3.476   3.955 -0.2474  1.3737 -0.1699
 1589SOL    HW216401   3.078   3.608   4.025 -0.0938 -0.0448  0.5434
 1590SOL     OW16402   2.118   4.658   1.341 -0.2611  0.5144  0.2956
 1590SOL    HW116403   2.180   4.688   1.408  0.2539 -0.9148  0.4536
 1590SOL    HW216404   2.177   4.609   1.284 -0.2275  0.9636 -0.0555
 1591SOL     OW16405   1.719   0.898   6.409  0.0521 -0.1928  0.1202
 1591SOL    HW116406   1.705   0.832   6.477 -0.3969  1.1953  1.3747
 1591SOL    HW216407   1.803   0.930   6.443 -0.3101 -0.0377  0.8668
 1592SOL     OW16408   2.208   3.819   8.878 -0.5152 -0.7419  0.3039
 1592SOL    HW116409   2.120   3.834   8.912  0.1709  0.4073  1.6028
 1592SOL    HW216410   2.262   3.888   8.918 -1.4376  1.7662 -2.8355
 1593SOL     OW16411   1.445   2.700   0.245  0.3011  0.0245  0.4186
 1593SOL    HW116412   1.351   2.690   0.252  0.2015  1.4839  1.3701
 1593SOL    HW216413   1.469   2.627   0.302  0.3239  1.7801  2.6786
 1594SOL     OW16414   0.984   2.825   6.204  0.3364 -0.5990 -0.1345
 1594SOL    HW116415   1.020   2.890   6.264  0.8350 -0.0206 -1.0637
 1594SOL    HW216416   0.931   2.879   6.146 -1.2686 -1.5958  0.4007
 1595SOL     OW16417   1.916   2.286   4.449  0.8411  0.5730 -0.3708
 1595SOL    HW116418   2.011   2.279   4.440  0.8805  1.8772 -0.8927
 1595SOL    HW216419   1.896   2.378   4.465 -1.2186 -0.3609  2.4119
 1596SOL     OW16420   1.289   0.150   5.805 -0.1522  0.1230  0.6185
 1596SOL    HW116421   1.336   0.211   5.861  1.3217  0.4062 -0.9115
 1596SOL    HW216422   1.329   0.069   5.836 -0.6310  0.2386  1.5310
 1597SOL     OW16423   3.093   0.632  16.038 -0.1373  0.6827 -1.0711
 1597SOL    HW116424   3.176   0.638  16.084 -0.6885  1.1815 -0.1310
 1597SOL    HW216425   3.045   0.670  16.112 -0.0360 -3.3555  1.1005
 1598SOL     OW16426   1.587   2.355   4.417 -0.2958 -0.7398 -0.2431
 1598SOL    HW116427   1.681   2.363   4.403 -0.5139 -0.8462 -1.7973
 1598SOL    HW216428   1.582   2.395   4.504  0.4831  0.3811 -0.7106
 1599SOL     OW16429   0.111   1.809  10.056  0.0888  0.0614  0.4703
 1599SOL    HW116430   0.091   1.884  10.113  1.5785  0.5148  0.3870
 1599SOL    HW216431   0.024   1.783  10.023 -0.0437 -0.7503  1.4605
 1600SOL     OW16432   2.723   1.038   5.887 -0.2140  0.4358  0.2992
 1600SOL    HW116433   2.815   1.055   5.904  0.3232 -0.3851 -1.8187
 1600SOL    HW216434   2.692   1.123   5.856  0.1356  0.0463 -1.1141
 1601SOL     OW16435   2.418   4.511   9.913 -0.1459  0.6023 -0.2413
 1601SOL    HW116436   2.434   4.525   9.820 -2.2027  2.2922 -0.3576
 1601SOL    HW216437   2.501   4.544   9.946 -1.8983  1.9538  2.7714
 1602SOL     OW16438   1.907   0.252   2.554  0.5575 -0.0988  0.1211
 1602SOL    HW116439   1.853   0.326   2.526 -1.6176 -1.0051  1.9514
 1602SOL    HW216440   1.851   0.200   2.611  2.1665 -3.0491 -0.9598
 1603SOL     OW16441   2.699   2.228  11.950  0.3193 -0.3762  0.7361
 1603SOL    HW116442   2.658   2.142  11.959  2.9663 -1.5143  1.9426
 1603SOL    HW216443   2.741   2.242  12.035  1.2379  1.4625 -0.0225
 1604SOL     OW16444   0.371   1.857   9.723  0.1365  0.3982 -0.1986
 1604SOL    HW116445   0.405   1.769   9.704 -0.0256  0.1226  0.7555
 1604SOL    HW216446   0.277   1.843   9.712  0.1008  0.1664  0.3905
 1605SOL     OW16447   0.044   2.765  10.132 -0.5573  0.0853 -0.3075
 1605SOL    HW116448   4.723   2.688  10.135 -0.8683  0.2815 -1.2231
 1605SOL    HW216449   4.721   2.839  10.147 -0.0808  0.5894 -0.9040
 1606SOL     OW16450   2.243   1.187   9.632  0.2676  0.3156  0.0968
 1606SOL    HW116451   2.159   1.157   9.599 -0.2211  0.5990  1.0931
 1606SOL    HW216452   2.307   1.146   9.574  0.2557 -0.9450  0.9909
 1607SOL     OW16453   4.381   1.845   4.167  0.3364  0.3154 -0.5884
 1607SOL    HW116454   4.417   1.888   4.090  0.6899  1.0536 -0.0097
 1607SOL    HW216455   4.403   1.912   4.231  0.4975  1.1378 -1.5042
 1608SOL     OW16456   0.434   2.484  16.098 -0.1844  0.0337 -0.5036
 1608SOL    HW116457   0.411   2.409  16.043 -0.0404 -0.5970  0.3006
 1608SOL    HW216458   0.451   2.442  16.183 -3.6308 -0.6923 -0.1621
 1609SOL     OW16459   2.569   1.395  14.862 -0.2183  0.1104 -0.1683
 1609SOL    HW116460   2.528   1.439  14.937 -1.0082 -1.7250  0.4948
 1609SOL    HW216461   2.506   1.416  14.793  0.9019  3.8272 -0.0407
 1610SOL     OW16462   0.413   2.946   3.127  0.0253 -0.0455 -0.1765
 1610SOL    HW116463   0.417   2.857   3.163 -1.5286  0.2030  0.6150
 1610SOL    HW216464   0.487   2.983   3.176 -1.2436  0.3250  1.4653
 1611SOL     OW16465   2.574   0.150  16.557  0.2488  0.6796 -0.7001
 1611SOL    HW116466   2.603   0.099  16.481  2.6181 -2.9161  2.6492
 1611SOL    HW216467   2.483   0.161  16.532 -0.4150 -1.5323  0.7837
 1612SOL     OW16468   1.273   3.698   7.188  0.4363 -0.3305 -0.1000
 1612SOL    HW116469   1.298   3.613   7.226  1.6914 -0.2546 -0.7575
 1612SOL    HW216470   1.248   3.685   7.097  0.4257 -1.5980  0.0879
 1613SOL     OW16471   0.790   2.862   1.104 -0.4116 -0.4455  0.1476
 1613SOL    HW116472   0.766   2.771   1.121 -1.4289 -0.3714 -0.8983
 1613SOL    HW216473   0.869   2.868   1.051  0.3589 -1.5236  1.1696
 1614SOL     OW16474   3.644   1.251  11.009  0.3031  0.2795  0.3992
 1614SOL    HW116475   3.589   1.225  10.936  1.5227  0.9529 -0.7709
 1614SOL    HW216476   3.706   1.314  10.970 -0.4682  1.6233  1.3206
 1615SOL     OW16477   4.427   1.976   2.135  0.5322  0.5764  0.0090
 1615SOL    HW116478   4.432   2.017   2.049 -0.3475  1.9968  0.6400
 1615SOL    HW216479   4.458   2.044   2.194  0.9668 -0.8544  1.4560
 1616SOL     OW16480   1.630   4.560   1.692  0.5973  0.0900  0.0680
 1616SOL    HW116481   1.716   4.600   1.679  0.3005  1.2126  1.6806
 1616SOL    HW216482   1.610   4.583   1.782  0.9101  0.9293 -0.0736
 1617SOL     OW16483   2.443   0.866   2.251  0.3524 -0.3632  0.2480
 1617SOL    HW116484   2.474   0.779   2.275  0.1873 -0.3241  0.6154
 1617SOL    HW216485   2.402   0.846   2.167  1.4399 -0.5916 -0.2204
 1618SOL     OW16486   2.388   2.242   4.492  1.0161 -0.1927  0.3144
 1618SOL    HW116487   2.442   2.170   4.525  0.5126 -0.7118  0.0095
 1618SOL    HW216488   2.308   2.227   4.543  1.3346 -1.1299  0.5327
 1619SOL     OW16489   1.435   3.061  17.252  0.1969  0.2565 -0.4143
 1619SOL    HW116490   1.345   3.037  17.233  0.2428  0.3591 -0.7526
 1619SOL    HW216491   1.449   3.106  17.169  0.4958 -3.0038 -2.1078
 1620SOL     OW16492   4.061   4.329  14.534  0.5691 -0.1301  0.8113
 1620SOL    HW116493   3.994   4.308  14.600 -0.5355 -1.5400 -0.7579
 1620SOL    HW216494   4.140   4.315  14.586  2.5482 -1.5996 -2.5971
 1621SOL     OW16495   3.425   2.917   3.913 -0.1277  0.1756 -0.4147
 1621SOL    HW116496   3.353   2.880   3.860 -2.0633  0.0940  2.2540
 1621SOL    HW216497   3.368   2.953   3.980 -1.7905 -1.0267 -1.1686
 1622SOL     OW16498   1.607   2.508   1.967  0.5140  0.5479  0.1722
 1622SOL    HW116499   1.637   2.469   1.885  2.4013  1.1853  0.5594
 1622SOL    HW216500   1.688   2.544   2.002 -0.4641  0.8499  2.1005
 1623SOL     OW16501   3.157   2.832   4.624  0.0152  0.6396  0.4215
 1623SOL    HW116502   3.186   2.924   4.624  0.6278  0.4463  0.6836
 1623SOL    HW216503   3.099   2.842   4.699 -0.3323  2.6493 -0.0907
 1624SOL     OW16504   2.287   1.829  14.261  0.6101  0.3739  0.1940
 1624SOL    HW116505   2.298   1.830  14.166 -2.4729  1.5084 -0.1693
 1624SOL    HW216506   2.349   1.895  14.291  0.7362  0.4456 -0.2279
 1625SOL     OW16507   2.497   1.083   6.740  0.2015  0.0334  0.3927
 1625SOL    HW116508   2.456   1.144   6.678  1.4569  0.5607  0.0909
 1625SOL    HW216509   2.466   1.001   6.702 -0.2827  0.6189 -0.4697
 1626SOL     OW16510   0.638   3.157   3.721  0.2946  0.4070 -0.0852
 1626SOL    HW116511   0.623   3.063   3.734  1.8662  0.1645  0.0020
 1626SOL    HW216512   0.655   3.193   3.807 -2.8513 -0.0607  0.7249
 1627SOL     OW16513   2.162   3.566   7.864  0.8349 -0.0572 -0.1092
 1627SOL    HW116514   2.092   3.500   7.866 -1.1453  2.0036 -1.7477
 1627SOL    HW216515   2.209   3.554   7.946 -0.3739 -0.9485  0.4601
 1628SOL     OW16516   0.878   4.116   3.418 -0.0249  0.4469  0.3758
 1628SOL    HW116517   0.853   4.146   3.331 -1.5216  0.3347  0.7657
 1628SOL    HW216518   0.971   4.107   3.397  0.2637  2.2848  0.8470
 1629SOL     OW16519   4.204   3.885   7.503  0.7222 -0.1985 -0.2213
 1629SOL    HW116520   4.224   3.878   7.410 -1.9400  1.4543 -0.9011
 1629SOL    HW216521   4.127   3.828   7.505  0.2621  0.4581  0.8084
 1630SOL     OW16522   3.981   1.960   1.364 -0.2702 -0.4082  0.1209
 1630SOL    HW116523   3.924   1.889   1.392 -0.1947 -1.1513 -1.6116
 1630SOL    HW216524   4.070   1.932   1.385 -0.4828 -2.5310 -1.7679
 1631SOL     OW16525   3.252   4.371   8.105 -0.1043  0.1184 -0.7525
 1631SOL    HW116526   3.207   4.297   8.063 -0.2632  0.1656 -0.6666
 1631SOL    HW216527   3.241   4.338   8.194 -0.8475 -0.2808 -0.9907
 1632SOL     OW16528   4.171   4.118  11.381 -0.1716 -0.8526 -0.2372
 1632SOL    HW116529   4.095   4.131  11.439  0.2212  1.4191 -0.2263
 1632SOL    HW216530   4.228   4.193  11.396  0.3843 -0.7764 -2.7244
 1633SOL     OW16531   4.250   0.868   5.330  0.1754 -0.1342  0.0512
 1633SOL    HW116532   4.254   0.934   5.262 -0.8960  0.7727  0.8803
 1633SOL    HW216533   4.256   0.787   5.279 -2.1803 -0.1198 -0.2089
 1634SOL     OW16534   0.792   3.496   3.150  0.2770 -0.1475 -0.8207
 1634SOL    HW116535   0.799   3.591   3.139 -3.5903  0.3888  1.4429
 1634SOL    HW216536   0.697   3.486   3.160  0.5764 -2.4892 -0.5423
 1635SOL     OW16537   3.886   2.828   3.060  0.9066  0.7005  0.2188
 1635SOL    HW116538   3.976   2.861   3.054  1.5258 -1.6882 -3.3416
 1635SOL    HW216539   3.836   2.902   3.095  1.5318  0.8954  0.7110
 1636SOL     OW16540   0.769   3.161   2.206  0.6339  0.0333 -0.3609
 1636SOL    HW116541   0.857   3.170   2.241 -0.3507  1.7616  1.6471
 1636SOL    HW216542   0.724   3.236   2.244  0.7197  0.3648 -0.9060
 1637SOL     OW16543   0.610   2.149   7.340  0.1877  0.7907 -0.7160
 1637SOL    HW116544   0.691   2.177   7.381 -1.3568  1.4650  1.8759
 1637SOL    HW216545   0.633   2.070   7.291  0.2191  0.4177 -0.0906
 1638SOL     OW16546   4.353   0.922   2.285  0.1150  0.2523  0.0778
 1638SOL    HW116547   4.305   0.881   2.212  0.7293 -1.4132  0.5973
 1638SOL    HW216548   4.294   0.989   2.319  0.7446  0.6733  0.3321
 1639SOL     OW16549   3.373   0.485   3.175 -0.1668  0.1490 -0.0852
 1639SOL    HW116550   3.452   0.505   3.126  0.3159 -0.0930  0.5984
 1639SOL    HW216551   3.339   0.573   3.188 -0.0838 -0.0208  1.3059
 1640SOL     OW16552   1.239   2.391   2.032  0.4380  0.3500  0.2281
 1640SOL    HW116553   1.191   2.415   2.111 -1.9604 -2.1684 -0.4649
 1640SOL    HW216554   1.292   2.470   2.022 -1.5437  1.5470 -0.8503
 1641SOL     OW16555   2.128   1.142  17.561  0.2739  0.1304 -0.1424
 1641SOL    HW116556   2.106   1.226  17.522  3.0588  0.0785 -1.7356
 1641SOL    HW216557   2.082   1.161  17.643  0.8869  0.3912  0.1365
 1642SOL     OW16558   1.699   2.725   3.992 -0.4452  0.1863 -0.3977
 1642SOL    HW116559   1.732   2.639   4.019 -4.0785 -0.9834  0.2607
 1642SOL    HW216560   1.659   2.684   3.916 -0.2819  1.5741 -1.2344
 1643SOL     OW16561   4.564   2.201   4.586  0.3204  0.4797  0.7047
 1643SOL    HW116562   4.639   2.253   4.559  1.7838 -1.6362  0.7451
 1643SOL    HW216563   4.589   2.184   4.677 -2.4444  0.1898  1.4354
 1644SOL     OW16564   2.205   1.607   6.396 -0.2419  0.1422 -0.4821
 1644SOL    HW116565   2.218   1.597   6.490  1.0395  1.1770 -0.5320
 1644SOL    HW216566   2.286   1.648   6.365 -0.1477  0.2609 -0.0868
 1645SOL     OW16567   0.775   2.542   9.638  0.6176 -0.0772 -0.1335
 1645SOL    HW116568   0.759   2.634   9.616 -2.2082 -0.5659 -0.0057
 1645SOL    HW216569   0.761   2.510   9.549 -1.6280 -1.5295  0.7503
 1646SOL     OW16570   1.086   0.900  12.898  0.5416 -0.0268 -0.6064
 1646SOL    HW116571   1.140   0.979  12.890  1.1331 -0.3409  0.3207
 1646SOL    HW216572   1.000   0.935  12.876  0.5271 -1.5683 -3.1057
 1647SOL     OW16573   3.132   1.232   1.214 -0.4805 -0.2680  0.6227
 1647SOL    HW116574   3.156   1.167   1.280  1.6898 -0.3524 -0.2276
 1647SOL    HW216575   3.076   1.180   1.156 -0.9220 -0.0006  0.8191
 1648SOL     OW16576   3.380   4.618   4.970  0.3884  0.1247  0.5453
 1648SOL    HW116577   3.340   4.686   4.916  0.2931 -1.2949 -1.1489
 1648SOL    HW216578   3.334   4.642   5.050  0.9583  0.7019  0.7059
 1649SOL     OW16579   3.779   2.508   0.030  0.5429 -0.1204  0.1571
 1649SOL    HW116580   3.838   2.462   0.090 -1.5672 -4.6248 -1.2953
 1649SOL    HW216581   3.755   2.432  17.721  1.0561  0.2023 -0.5431
 1650SOL     OW16582   0.845   2.800   5.245 -0.0490  0.0931 -0.7422
 1650SOL    HW116583   0.786   2.863   5.285  1.7786  1.4018 -0.1350
 1650SOL    HW216584   0.887   2.760   5.321 -0.8096  2.8799  1.1330
 1651SOL     OW16585   1.691   3.992   5.265  0.5515 -0.2401 -0.8343
 1651SOL    HW116586   1.680   4.085   5.246 -1.4995 -0.3134 -0.0112
 1651SOL    HW216587   1.689   3.956   5.176 -0.4660 -2.9905  0.2781
 1652SOL     OW16588   4.008   3.553   3.953  0.0074  0.1699  0.4837
 1652SOL    HW116589   4.059   3.563   4.033 -2.1396  1.1835  1.7442
 1652SOL    HW216590   4.046   3.469   3.929  2.6812  1.7205 -0.6231
 1653SOL     OW16591   2.828   2.376   3.767 -0.4394  0.4048  0.4008
 1653SOL    HW116592   2.813   2.301   3.824  0.5942 -0.8217 -0.9595
 1653SOL    HW216593   2.876   2.339   3.693 -0.7348 -0.5778  0.7037
 1654SOL     OW16594   1.225   3.794   2.898  0.6549  0.3866  0.5849
 1654SOL    HW116595   1.282   3.785   2.975 -0.2941  1.0907  1.3749
 1654SOL    HW216596   1.248   3.881   2.866 -0.9877  0.2604 -0.9162
 1655SOL     OW16597   0.216   1.576   6.804 -0.0583  0.0184  0.1519
 1655SOL    HW116598   0.171   1.659   6.789  0.2667  0.3495  0.9824
 1655SOL    HW216599   0.301   1.594   6.763  0.3579 -0.0495  0.9674
 1656SOL     OW16600   4.133   2.857   3.623  0.5355 -0.1527 -0.0230
 1656SOL    HW116601   4.057   2.862   3.565 -0.0216 -1.4221  0.5879
 1656SOL    HW216602   4.201   2.898   3.570 -0.0697 -0.0205 -0.6949
 1657SOL     OW16603   1.059   2.282  17.349  0.4805 -0.1085  0.7168
 1657SOL    HW116604   0.982   2.337  17.365  0.3761 -0.6253  2.0300
 1657SOL    HW216605   1.117   2.326  17.288 -1.6727  1.1681 -0.4078
 1658SOL     OW16606   0.319   3.903   8.025 -0.0939  0.2313  0.0310
 1658SOL    HW116607   0.325   3.878   7.932 -0.3696  0.5504 -0.0744
 1658SOL    HW216608   0.249   3.844   8.051  1.1089 -1.0244  0.4477
 1659SOL     OW16609   1.383   1.622   4.081 -0.2075  0.1255  0.4842
 1659SOL    HW116610   1.477   1.622   4.062 -0.1381  1.2341  0.8432
 1659SOL    HW216611   1.397   1.643   4.173  0.8269 -1.4996  0.7033
 1660SOL     OW16612   0.331   3.932   8.403 -0.5867 -0.1097  0.3592
 1660SOL    HW116613   0.381   3.851   8.410  1.6787  1.3132  0.3857
 1660SOL    HW216614   0.243   3.902   8.379 -1.6422  2.8226  0.5474
 1661SOL     OW16615   4.131   4.437   4.805 -0.3081  0.6131  0.6620
 1661SOL    HW116616   4.187   4.479   4.740  0.8956  1.0064  1.9296
 1661SOL    HW216617   4.074   4.514   4.819 -3.1827 -1.7925  2.1894
 1662SOL     OW16618   0.278   4.177   9.157 -0.0569  0.4167 -0.7757
 1662SOL    HW116619   0.183   4.189   9.161 -0.1952 -1.3976  0.8989
 1662SOL    HW216620   0.294   4.126   9.078 -2.0168  3.3734 -3.1180
 1663SOL     OW16621   3.213   4.096   1.256  0.0905  0.1077 -0.2135
 1663SOL    HW116622   3.298   4.137   1.241  0.9329 -1.3076  0.7057
 1663SOL    HW216623   3.201   4.055   1.170  0.6747 -1.4606  0.4593
 1664SOL     OW16624   1.496   3.932   0.508  0.8923  0.9253  0.6399
 1664SOL    HW116625   1.464   4.000   0.567  2.1547  1.7371  0.3972
 1664SOL    HW216626   1.428   3.865   0.519 -0.5281  2.2935  0.1992
 1665SOL     OW16627   4.246   4.245  13.426 -0.4858  0.6643  0.0850
 1665SOL    HW116628   4.214   4.155  13.433  1.5814  0.0318  1.3494
 1665SOL    HW216629   4.253   4.251  13.331 -0.5542  1.7734  0.1521
 1666SOL     OW16630   1.029   1.581   8.265 -0.1927 -0.1446  0.3961
 1666SOL    HW116631   0.938   1.564   8.241  0.0652  0.2435 -0.8669
 1666SOL    HW216632   1.083   1.510   8.230 -0.7844 -0.2884 -0.2175
 1667SOL     OW16633   2.764   0.844  11.619  0.5911 -0.0691  0.2314
 1667SOL    HW116634   2.788   0.850  11.712  2.0909  0.4181 -0.1854
 1667SOL    HW216635   2.841   0.805  11.578  0.7700 -1.8470  2.2424
 1668SOL     OW16636   0.675   2.554   7.880  1.1579 -0.2790 -0.7206
 1668SOL    HW116637   0.685   2.622   7.946  2.4235 -1.6994  0.5462
 1668SOL    HW216638   0.693   2.589   7.793  2.0836 -0.5589 -0.6452
 1669SOL     OW16639   1.592   3.278   7.390 -0.1049  0.2811 -0.0738
 1669SOL    HW116640   1.622   3.188   7.402 -1.6258 -0.1008  0.8267
 1669SOL    HW216641   1.642   3.313   7.316 -1.6385  0.7909 -0.8670
 1670SOL     OW16642   2.379   1.421   3.281 -0.6746  0.3557 -0.0435
 1670SOL    HW116643   2.349   1.483   3.215 -0.8754 -0.1930 -0.4680
 1670SOL    HW216644   2.457   1.464   3.318 -2.0909  0.3516  2.9857
 1671SOL     OW16645   0.954   1.056   5.057  0.1062 -0.1467 -0.2421
 1671SOL    HW116646   0.969   0.989   4.990  1.5403 -1.3495  1.2941
 1671SOL    HW216647   0.872   1.092   5.021 -1.5030 -1.4721  2.0839
 1672SOL     OW16648   3.143   0.577   4.744  0.0525  0.1595 -0.4497
 1672SOL    HW116649   3.112   0.635   4.674  0.4352  0.5567 -0.2855
 1672SOL    HW216650   3.200   0.521   4.691  2.6921  1.6743  0.8274
 1673SOL     OW16651   1.899   0.176   6.174  0.0826  0.3696  0.0309
 1673SOL    HW116652   1.940   0.254   6.136 -1.0072  0.6509 -0.5805
 1673SOL    HW216653   1.813   0.213   6.193  0.2118  0.2347  0.8816
 1674SOL     OW16654   4.127   1.510   0.597  0.3325  0.7952 -0.0792
 1674SOL    HW116655   4.120   1.524   0.503 -2.3164  2.6193  0.3886
 1674SOL    HW216656   4.214   1.471   0.601  0.3333  0.9735  1.6840
 1675SOL     OW16657   0.369   1.464   8.777  0.2802  0.2857 -0.1440
 1675SOL    HW116658   0.346   1.468   8.684 -0.8849 -0.4094  0.1207
 1675SOL    HW216659   0.419   1.542   8.801 -1.4869  1.3629  0.0593
 1676SOL     OW16660   0.600   4.315  13.407 -0.4438  0.0457  0.1436
 1676SOL    HW116661   0.579   4.228  13.373 -1.6796  0.5081 -0.2715
 1676SOL    HW216662   0.530   4.364  13.364  0.8518  2.6763  1.0963
 1677SOL     OW16663   2.035   1.320  13.130  0.8324  0.3176  0.2856
 1677SOL    HW116664   2.088   1.337  13.053  0.1625  1.4602  0.0841
 1677SOL    HW216665   2.022   1.409  13.163  0.5783  0.2402  0.3927
 1678SOL     OW16666   3.263   3.242   7.703 -0.0838  0.2674  0.3254
 1678SOL    HW116667   3.341   3.198   7.668 -0.0871  0.3680  0.1903
 1678SOL    HW216668   3.304   3.304   7.763  0.4791 -0.5505  0.7876
 1679SOL     OW16669   4.134   3.636  14.060  0.2559 -0.0522 -0.3140
 1679SOL    HW116670   4.147   3.731  14.062 -0.1583  0.0246 -0.9805
 1679SOL    HW216671   4.223   3.604  14.048 -0.5328 -2.8364  1.1589
 1680SOL     OW16672   1.421   1.660   3.261 -0.2706 -0.1664 -0.1255
 1680SOL    HW116673   1.392   1.575   3.294  0.2282 -0.5615 -0.7010
 1680SOL    HW216674   1.351   1.716   3.295  0.4706  0.6671  0.0092
 1681SOL     OW16675   3.670   0.404  14.255  0.3737 -0.5379 -0.0020
 1681SOL    HW116676   3.649   0.374  14.344  0.2041  0.5816  0.3289
 1681SOL    HW216677   3.729   0.472  14.287  1.3699 -0.6011 -1.7331
 1682SOL     OW16678   4.438   1.902   6.622  0.1729  0.1521  0.1993
 1682SOL    HW116679   4.431   1.806   6.615  0.4443  0.3039 -2.1418
 1682SOL    HW216680   4.349   1.919   6.650  0.0934  1.7758 -1.0609
 1683SOL     OW16681   1.922   3.869   8.883  0.3989  0.4788 -0.3450
 1683SOL    HW116682   1.849   3.931   8.877 -1.6862 -1.9319  0.1842
 1683SOL    HW216683   1.912   3.820   8.801 -1.1218 -1.2218  0.8513
 1684SOL     OW16684   1.677   0.746   6.655  0.2939 -0.2580 -0.1597
 1684SOL    HW116685   1.659   0.750   6.749 -0.7465  0.2620 -0.3783
 1684SOL    HW216686   1.772   0.740   6.657  0.3527 -0.7515 -5.0619
 1685SOL     OW16687   2.976   4.462   1.668 -0.0876 -0.3815 -0.5687
 1685SOL    HW116688   3.060   4.440   1.627  0.2168 -0.6601  0.2033
 1685SOL    HW216689   2.922   4.508   1.604  0.4751  0.1639 -0.6457
 1686SOL     OW16690   4.519   1.370  10.312  0.0013 -0.5744 -0.0303
 1686SOL    HW116691   4.583   1.304  10.285  0.4128 -0.1469 -0.0957
 1686SOL    HW216692   4.447   1.320  10.351  0.5299  1.0732  3.0612
 1687SOL     OW16693   0.036   2.309   5.604 -0.0320  0.2788 -0.2992
 1687SOL    HW116694   0.032   2.315   5.509 -0.1236 -0.6203 -0.3483
 1687SOL    HW216695   4.684   2.339   5.626  0.2987  1.0287  0.0193
 1688SOL     OW16696   1.348   3.218  12.557  0.1551 -0.3751 -0.1091
 1688SOL    HW116697   1.420   3.166  12.594  0.0943  0.6926  1.4987
 1688SOL    HW216698   1.330   3.274  12.632 -0.4444  1.5600 -1.7092
 1689SOL     OW16699   0.130   3.490   4.716  0.3553 -0.0763 -0.2718
 1689SOL    HW116700   0.171   3.405   4.730 -2.4169 -1.4740 -0.6211
 1689SOL    HW216701   0.207   3.547   4.706 -0.8832  1.5628 -0.4542
 1690SOL     OW16702   0.498   4.012   7.691 -0.4784  0.0916  1.0412
 1690SOL    HW116703   0.564   3.967   7.638 -2.4213 -0.3291 -0.9957
 1690SOL    HW216704   0.434   3.942   7.695 -0.1750 -0.2021  0.7512
 1691SOL     OW16705   0.663   3.059  14.462 -0.2866 -0.3052 -0.6827
 1691SOL    HW116706   0.669   3.086  14.370  1.5418 -1.2966 -0.8428
 1691SOL    HW216707   0.672   2.964  14.449 -0.2254 -0.5549  1.1214
 1692SOL     OW16708   2.674   2.727  17.195  0.4045  0.0720  0.0494
 1692SOL    HW116709   2.699   2.778  17.118  0.7663 -0.6365 -0.3085
 1692SOL    HW216710   2.596   2.685  17.161  1.0313 -2.2780  1.4883
 1693SOL     OW16711   3.390   1.217   9.648 -0.2710 -0.2482  0.7542
 1693SOL    HW116712   3.318   1.154   9.652  1.0232 -1.4964  4.2380
 1693SOL    HW216713   3.349   1.269   9.579  2.7238  1.9065  0.6026
 1694SOL     OW16714   1.525   0.316   7.378 -0.1025 -0.4784 -0.3221
 1694SOL    HW116715   1.466   0.245   7.352 -1.2824  0.1235  0.7223
 1694SOL    HW216716   1.608   0.279   7.347  1.2350  1.6530  0.7225
 1695SOL     OW16717   1.063   2.279   3.812 -0.0454  0.1602 -0.5023
 1695SOL    HW116718   1.055   2.336   3.888 -0.3388  0.7474 -0.9715
 1695SOL    HW216719   1.059   2.191   3.849 -1.2330  0.4239 -0.0091
 1696SOL     OW16720   3.989   1.671   1.611  0.1347 -0.0511 -0.2420
 1696SOL    HW116721   4.079   1.694   1.632  0.6885 -1.6939 -0.8081
 1696SOL    HW216722   3.988   1.576   1.625  2.7529  0.2508  1.9818
 1697SOL     OW16723   1.178   2.394   4.939  0.2790 -0.5089  0.8395
 1697SOL    HW116724   1.225   2.436   4.867 -0.5604 -1.0152 -0.0053
 1697SOL    HW216725   1.086   2.412   4.923  0.1634 -1.0196  0.9448
 1698SOL     OW16726   1.295   3.275   5.430  0.2574 -0.3081  0.6464
 1698SOL    HW116727   1.389   3.255   5.433  0.6563  1.4973 -0.1050
 1698SOL    HW216728   1.279   3.278   5.335 -1.4390 -2.7825  0.8473
 1699SOL     OW16729   4.367   3.170   6.947  0.6535  0.4603  0.2917
 1699SOL    HW116730   4.374   3.098   7.010  0.4763  1.8641  1.9152
 1699SOL    HW216731   4.342   3.123   6.867  0.3256  0.3520  0.4581
 1700SOL     OW16732   0.133   3.456   3.647 -0.1027 -0.2689  0.8286
 1700SOL    HW116733   0.159   3.540   3.686  1.0034 -0.6851  0.9746
 1700SOL    HW216734   0.105   3.405   3.723  1.1492 -2.3222 -0.1038
 1701SOL     OW16735   3.138   3.063   8.335 -0.7144  0.4925  0.4514
 1701SOL    HW116736   3.086   3.131   8.293 -0.0391  0.1945 -0.8676
 1701SOL    HW216737   3.147   3.086   8.427  0.0557 -0.4463  0.6174
 1702SOL     OW16738   2.512   1.987   7.542  0.0813 -0.2629 -0.3458
 1702SOL    HW116739   2.484   1.898   7.520  1.6285 -1.3530  2.0088
 1702SOL    HW216740   2.602   1.970   7.571 -0.3092  0.3970  1.2961
 1703SOL     OW16741   2.351   0.352   9.457  0.4742 -0.0189 -0.3824
 1703SOL    HW116742   2.440   0.387   9.445  0.6528  0.7517  3.3129
 1703SOL    HW216743   2.307   0.434   9.481 -2.6642 -2.0797  0.8314
 1704SOL     OW16744   3.505   3.818   4.853  0.3298  0.2900 -0.8418
 1704SOL    HW116745   3.591   3.839   4.816  0.8491  1.2988  0.9445
 1704SOL    HW216746   3.530   3.851   4.939 -1.2314  0.3467 -0.4273
 1705SOL     OW16747   0.221   3.760  12.315 -0.5966  0.2484  0.0146
 1705SOL    HW116748   0.253   3.842  12.355 -0.8038  0.0687  0.5450
 1705SOL    HW216749   0.304   3.738  12.272 -0.2372  0.9179  0.3609
 1706SOL     OW16750   1.733   1.434   6.571 -0.4967  0.4266 -0.9230
 1706SOL    HW116751   1.749   1.358   6.515 -0.9564  1.0577 -1.9357
 1706SOL    HW216752   1.807   1.436   6.631 -0.3108  0.7011 -1.1611
 1707SOL     OW16753   1.821   4.167   8.090  0.8046 -0.0158  0.4554
 1707SOL    HW116754   1.914   4.157   8.066  0.7910 -1.6101  1.0384
 1707SOL    HW216755   1.795   4.106   8.159 -1.2075 -0.9071 -1.1060
 1708SOL     OW16756   0.493   4.609   5.906  0.0917 -0.0039  0.8192
 1708SOL    HW116757   0.469   4.522   5.876  1.5922  0.7785 -2.6416
 1708SOL    HW216758   0.457   4.667   5.838 -0.3979  1.0427  1.9782
 1709SOL     OW16759   1.540   4.098   6.283 -0.2820 -0.0362  0.1173
 1709SOL    HW116760   1.499   4.022   6.242 -0.2856  1.0252 -1.8550
 1709SOL    HW216761   1.531   4.077   6.376  2.7179  1.6892  0.7880
 1710SOL     OW16762   2.495   3.293   9.528 -0.5497 -0.0367 -0.0945
 1710SOL    HW116763   2.426   3.255   9.582  1.0161 -2.1756  0.4158
 1710SOL    HW216764   2.521   3.367   9.583  0.7099 -0.2589 -0.3756
 1711SOL     OW16765   0.024   3.114   2.702  0.1003  0.0346 -0.4371
 1711SOL    HW116766   0.086   3.186   2.694 -0.0916  0.1256 -1.1670
 1711SOL    HW216767   0.069   3.050   2.757 -1.6058 -0.9236 -0.1476
 1712SOL     OW16768   0.331   0.074   5.414  0.0782 -0.6437  0.3469
 1712SOL    HW116769   0.239   0.087   5.391  0.9816  0.8886 -2.3882
 1712SOL    HW216770   0.343   4.726   5.370  1.0088 -0.5783  0.4718
 1713SOL     OW16771   1.376   2.341  17.461 -0.1787 -0.2589  0.4007
 1713SOL    HW116772   1.411   2.269  17.512  0.4804  0.3292  0.7684
 1713SOL    HW216773   1.411   2.314  17.376  0.2428  0.5294  0.3217
 1714SOL     OW16774   3.956   1.033   7.688  0.4930 -0.5937  0.3337
 1714SOL    HW116775   4.021   1.029   7.758  2.0664 -0.5391 -1.1088
 1714SOL    HW216776   3.883   0.986   7.727  1.4213 -2.1135  0.2267
 1715SOL     OW16777   0.804   1.292  10.129 -0.1633  0.1517  0.1531
 1715SOL    HW116778   0.844   1.236  10.195  0.3128 -0.6156 -0.7909
 1715SOL    HW216779   0.858   1.281  10.051 -0.2417 -1.3746  0.3015
 1716SOL     OW16780   0.176   2.418  17.014  0.1601  0.0489  0.1489
 1716SOL    HW116781   0.267   2.431  17.043 -0.0064 -3.2766  2.1654
 1716SOL    HW216782   0.130   2.489  17.058 -0.6066  1.0479 -2.2829
 1717SOL     OW16783   1.726   1.973   9.105  0.3658  0.1134 -0.5978
 1717SOL    HW116784   1.749   2.053   9.059  0.6136  1.5182  1.9789
 1717SOL    HW216785   1.742   1.920   9.026 -3.2311 -1.6185 -0.1472
 1718SOL     OW16786   2.827   1.313   7.711  0.3528 -0.1352  0.5427
 1718SOL    HW116787   2.860   1.254   7.779  1.7731 -0.7821 -0.7086
 1718SOL    HW216788   2.828   1.396   7.759 -0.2546  1.7432 -2.6642
 1719SOL     OW16789   0.482   1.093   4.333  0.2287  0.2321  0.3415
 1719SOL    HW116790   0.468   1.083   4.239  2.6723  1.3951 -0.1567
 1719SOL    HW216791   0.412   1.031   4.351  1.1441 -0.9648 -0.2073
 1720SOL     OW16792   3.038   0.797   1.757 -0.6595 -0.7814  0.3834
 1720SOL    HW116793   3.043   0.846   1.839 -0.7616  0.7876 -0.5474
 1720SOL    HW216794   2.949   0.763   1.751 -0.4794 -1.4203  1.3150
 1721SOL     OW16795   2.142   1.923   4.084 -0.0400 -0.2299  0.0951
 1721SOL    HW116796   2.061   1.972   4.073  0.5219  0.6128 -0.2882
 1721SOL    HW216797   2.117   1.833   4.062 -1.3292  0.0919  0.2380
 1722SOL     OW16798   2.356   0.510  10.548  0.6485  0.7547 -0.7540
 1722SOL    HW116799   2.331   0.432  10.597  0.3848  0.2001 -1.7799
 1722SOL    HW216800   2.424   0.479  10.488  0.3894  0.4320 -0.8761
 1723SOL     OW16801   3.238   1.004   8.095 -0.0072 -0.0473  0.1388
 1723SOL    HW116802   3.254   0.999   8.001 -2.0746  2.0045 -0.3259
 1723SOL    HW216803   3.178   0.930   8.102 -1.4101  1.0897  0.0169
 1724SOL     OW16804   1.743   2.039  12.949  0.6539 -0.3038  0.7136
 1724SOL    HW116805   1.826   2.087  12.943  1.6806 -2.0383  1.0520
 1724SOL    HW216806   1.721   2.048  12.857 -0.4080  1.6159  1.1590
 1725SOL     OW16807   1.532   1.394  17.033 -0.1113 -0.7676 -0.3538
 1725SOL    HW116808   1.564   1.317  17.080  0.0380  0.1183  1.0031
 1725SOL    HW216809   1.577   1.373  16.952  0.8139 -1.7955  0.4282
 1726SOL     OW16810   3.830   3.542   5.753 -0.1553  0.7651 -1.0393
 1726SOL    HW116811   3.911   3.498   5.726  0.0905  0.5801  0.0001
 1726SOL    HW216812   3.775   3.533   5.675 -0.5733  0.6590 -0.7338
 1727SOL     OW16813   4.420   1.895  10.542 -0.3245 -0.2802 -0.5296
 1727SOL    HW116814   4.459   1.895  10.629 -1.8529  0.1310  0.1487
 1727SOL    HW216815   4.416   1.800  10.529  0.6920 -0.4000 -0.0012
 1728SOL     OW16816   3.272   0.476  16.681  0.1648  0.0466  0.2843
 1728SOL    HW116817   3.287   0.448  16.591  0.6716  0.9282  0.0931
 1728SOL    HW216818   3.345   0.534  16.701 -0.7835  1.6369 -0.8734
 1729SOL     OW16819   1.301   4.663   6.026  0.1743 -0.1994 -0.4857
 1729SOL    HW116820   1.330   4.597   6.089 -3.0092 -1.7155 -0.5594
 1729SOL    HW216821   1.229   4.688   6.083 -0.0404 -1.2157 -0.3007
 1730SOL     OW16822   3.721   0.914  17.258  0.0610 -0.5378  0.2197
 1730SOL    HW116823   3.803   0.883  17.296 -0.7427 -2.1342  0.6738
 1730SOL    HW216824   3.684   0.831  17.228 -0.2732 -0.8187  1.4251
 1731SOL     OW16825   0.439   2.947  17.223 -0.3292  0.1083 -0.1029
 1731SOL    HW116826   0.485   2.881  17.172 -0.4713 -0.2485  0.2315
 1731SOL    HW216827   0.513   2.995  17.260 -0.4946  0.3312 -0.0567
 1732SOL     OW16828   0.246   1.853   5.010  0.3460  0.3726 -0.4630
 1732SOL    HW116829   0.254   1.759   5.029 -2.5820  0.3377  0.6715
 1732SOL    HW216830   0.251   1.887   5.099  1.1930  0.5038 -0.5694
 1733SOL     OW16831   1.535   0.985   9.057 -0.2457 -0.7743 -0.2732
 1733SOL    HW116832   1.455   1.028   9.028 -0.7063 -1.3255  0.1660
 1733SOL    HW216833   1.492   0.910   9.099 -1.6814  0.3238  0.1877
 1734SOL     OW16834   2.531   4.736   7.405 -0.0232 -0.2872  0.2064
 1734SOL    HW116835   2.490   0.050   7.476  1.4004 -0.3436  1.0742
 1734SOL    HW216836   2.494   0.034   7.324  3.4659  1.4008 -0.6291
 1735SOL     OW16837   3.790   4.410   4.665 -0.1479 -0.1166  0.1639
 1735SOL    HW116838   3.749   4.350   4.727 -0.1761 -0.6536 -0.3673
 1735SOL    HW216839   3.711   4.445   4.624  1.0770  1.7628 -0.5869
 1736SOL     OW16840   4.240   2.097  15.931  0.0735  0.0234  0.4284
 1736SOL    HW116841   4.220   2.016  15.978 -0.2225 -0.3193 -0.2892
 1736SOL    HW216842   4.266   2.153  16.004  1.3411  0.3050 -0.2215
 1737SOL     OW16843   3.057   4.476   8.421  0.3530 -0.1206  0.0619
 1737SOL    HW116844   3.120   4.512   8.483 -1.7871 -0.8407  2.6503
 1737SOL    HW216845   3.013   4.556   8.391 -0.7254 -1.0530 -0.8413
 1738SOL     OW16846   3.646   1.393   3.515 -0.2964 -0.4489  0.4210
 1738SOL    HW116847   3.554   1.391   3.488  0.1251 -0.5692 -0.9939
 1738SOL    HW216848   3.659   1.298   3.507  1.1099 -0.5381  3.6119
 1739SOL     OW16849   2.773   1.775   9.247  0.4189 -0.0668 -0.3015
 1739SOL    HW116850   2.710   1.733   9.189  0.1108 -0.8353  0.5918
 1739SOL    HW216851   2.732   1.862   9.250  0.3679 -0.0240 -2.3350
 1740SOL     OW16852   3.660   2.754  16.998  0.1839 -0.3031 -0.0078
 1740SOL    HW116853   3.587   2.710  17.042 -1.8912  1.3556 -1.7688
 1740SOL    HW216854   3.616   2.837  16.978  2.4512  0.2943 -2.4766
 1741SOL     OW16855   4.632   4.409  14.740  0.0434  0.2958 -0.2798
 1741SOL    HW116856   4.665   4.376  14.657  1.6184 -1.3249  0.9972
 1741SOL    HW216857   4.630   4.329  14.792 -1.8272  1.7715  1.9277
 1742SOL     OW16858   1.214   3.355   6.947  0.2050 -0.5697 -0.0278
 1742SOL    HW116859   1.216   3.303   7.027  0.1972  3.0479  2.3540
 1742SOL    HW216860   1.209   3.294   6.874  3.8469  0.0765 -0.8254
 1743SOL     OW16861   1.832   0.098   3.387 -0.1665  0.3292 -0.1902
 1743SOL    HW116862   1.819   0.172   3.446 -2.1222  0.8273 -1.2562
 1743SOL    HW216863   1.905   0.043   3.416  0.4493  0.5800 -1.2552
 1744SOL     OW16864   1.438   3.093  15.700 -0.4542 -0.1678 -0.6862
 1744SOL    HW116865   1.422   3.002  15.673 -2.8127  0.0435 -0.0087
 1744SOL    HW216866   1.528   3.105  15.669 -0.1810  0.4178  0.3461
 1745SOL     OW16867   1.085   0.299   3.586  0.4279  0.1960 -0.4203
 1745SOL    HW116868   1.021   0.242   3.542  1.5762 -1.3374 -0.0895
 1745SOL    HW216869   1.033   0.333   3.659 -3.6389 -0.1781 -3.1430
 1746SOL     OW16870   4.546   4.605  16.976  0.2197  0.3446 -0.0460
 1746SOL    HW116871   4.579   4.671  16.915  1.0441 -0.7090 -0.7190
 1746SOL    HW216872   4.516   4.658  17.051 -0.0924  1.2764 -0.8220
 1747SOL     OW16873   2.285   0.949   6.217 -0.4748 -0.7305 -0.4442
 1747SOL    HW116874   2.231   1.009   6.165  3.1763 -0.4309 -3.9346
 1747SOL    HW216875   2.343   0.911   6.152  0.6267  0.6022 -0.2554
 1748SOL     OW16876   3.188   1.249  11.590 -0.2735  0.6543  0.1529
 1748SOL    HW116877   3.269   1.291  11.562 -0.7197  0.5566 -1.2878
 1748SOL    HW216878   3.126   1.244  11.516  1.1165  1.7386 -1.0842
 1749SOL     OW16879   4.011   1.549   8.873  0.3240 -0.1180 -0.2424
 1749SOL    HW116880   4.006   1.543   8.969  1.2752 -0.6783 -0.2360
 1749SOL    HW216881   3.944   1.485   8.850  1.1433 -1.1649  0.3030
 1750SOL     OW16882   4.242   0.057   8.434 -0.3115  0.3394 -0.0492
 1750SOL    HW116883   4.246   4.708   8.478 -0.0549 -0.3287 -1.3664
 1750SOL    HW216884   4.329   0.097   8.440 -0.1572  0.2779 -1.8598
 1751SOL     OW16885   0.018   2.852   2.234 -0.0355 -0.4929 -0.1478
 1751SOL    HW116886   4.713   2.889   2.312 -1.9240 -0.6186 -1.0892
 1751SOL    HW216887   4.698   2.893   2.169 -0.4534  1.6452  1.5686
 1752SOL     OW16888   1.666   0.088   8.024  0.4036 -0.2329  0.2063
 1752SOL    HW116889   1.632   0.120   8.107 -0.5175 -0.3998 -0.1107
 1752SOL    HW216890   1.615   0.007   8.018 -1.7249  1.0401  1.2848
 1753SOL     OW16891   2.459   1.056   7.466  0.8001  0.3146  0.3977
 1753SOL    HW116892   2.472   1.120   7.536 -2.8452  1.2484  0.2068
 1753SOL    HW216893   2.542   1.055   7.418  0.6352  1.9386  0.0634
 1754SOL     OW16894   4.547   1.672   7.160 -0.1127 -0.3077 -0.1271
 1754SOL    HW116895   4.484   1.672   7.087  1.7263  0.0366 -1.7188
 1754SOL    HW216896   4.606   1.601   7.136 -1.7270 -2.0751  1.1632
 1755SOL     OW16897   1.700   4.695   9.416  0.0378  0.2185  0.9846
 1755SOL    HW116898   1.712   4.637   9.340 -0.5944  1.4846 -0.0827
 1755SOL    HW216899   1.793   4.702   9.437  0.5222 -0.2327 -1.0107
 1756SOL     OW16900   1.377   4.102   5.760  0.6802 -0.2602  0.2410
 1756SOL    HW116901   1.403   4.166   5.693 -1.6584  1.3494  0.8816
 1756SOL    HW216902   1.453   4.098   5.817  2.2194 -1.7880 -1.9262
 1757SOL     OW16903   3.878   2.952   0.224  0.5088  0.4710 -0.2009
 1757SOL    HW116904   3.867   2.870   0.176 -0.2370  1.4088 -1.6306
 1757SOL    HW216905   3.807   2.957   0.288  0.3335 -2.8788 -0.1357
 1758SOL     OW16906   3.771   3.760   8.120 -0.1973  0.4389 -0.4401
 1758SOL    HW116907   3.740   3.727   8.035  1.2464 -1.2754 -0.3011
 1758SOL    HW216908   3.737   3.692   8.179  0.4376  0.0636 -0.5117
 1759SOL     OW16909   2.038   4.211   6.023 -0.7601  0.2164  0.3366
 1759SOL    HW116910   1.958   4.218   5.972 -0.7767  0.3246  0.3784
 1759SOL    HW216911   2.014   4.139   6.082  1.2600 -0.8778 -0.1678
 1760SOL     OW16912   2.411   0.387   4.841  0.3519  0.1427  0.4180
 1760SOL    HW116913   2.445   0.326   4.775 -0.7903 -0.5238  0.4602
 1760SOL    HW216914   2.327   0.346   4.858  1.2829 -1.0822  1.9970
 1761SOL     OW16915   2.857   2.959   4.320 -0.5057  0.3028  0.1446
 1761SOL    HW116916   2.857   2.999   4.232 -1.7709  0.8739  0.3905
 1761SOL    HW216917   2.765   2.966   4.346 -0.4154  2.8642 -0.1561
 1762SOL     OW16918   3.790   3.008   8.656 -0.5240 -0.6031 -0.5450
 1762SOL    HW116919   3.864   2.981   8.710  0.4943  0.8699 -1.2110
 1762SOL    HW216920   3.755   2.926   8.622 -0.1967 -1.3036  0.8196
 1763SOL     OW16921   3.074   4.067   6.412 -0.0363  0.2780 -0.1060
 1763SOL    HW116922   3.153   4.059   6.359 -0.6660 -0.9881 -0.8502
 1763SOL    HW216923   3.052   3.980   6.445  0.7534  0.8249  1.8319
 1764SOL     OW16924   3.607   2.794  14.707 -0.8855 -0.3664 -0.4881
 1764SOL    HW116925   3.530   2.738  14.711 -0.9656 -0.1602  0.6486
 1764SOL    HW216926   3.624   2.786  14.801  3.4673  0.2009 -1.2296
 1765SOL     OW16927   2.085   1.368  12.842  0.0660 -0.5568 -0.7185
 1765SOL    HW116928   2.001   1.400  12.810  0.0990 -0.7308 -0.9705
 1765SOL    HW216929   2.107   1.301  12.778  0.1512 -1.5720  0.3721
 1766SOL     OW16930   1.916   0.377   9.807  0.6244 -0.4194  0.5320
 1766SOL    HW116931   1.894   0.465   9.835  0.8732 -0.3067  0.3725
 1766SOL    HW216932   1.914   0.334   9.892  0.8706  0.0127  0.7542
 1767SOL     OW16933   2.687   2.305  14.930  0.3115 -0.6046 -0.2936
 1767SOL    HW116934   2.675   2.400  14.940  0.4713 -0.5845 -0.2978
 1767SOL    HW216935   2.632   2.284  14.854  0.1826  0.7215 -0.5839
 1768SOL     OW16936   1.332   3.506   2.495  0.3344 -0.2845 -0.0216
 1768SOL    HW116937   1.413   3.543   2.531  0.6009 -0.3613 -0.5501
 1768SOL    HW216938   1.362   3.417   2.476  0.6582  0.0037 -0.8674
 1769SOL     OW16939   0.855   3.786   3.183 -0.6712  0.0497  0.3751
 1769SOL    HW116940   0.826   3.842   3.112 -0.3626 -0.1704  0.0739
 1769SOL    HW216941   0.950   3.796   3.177 -0.5034 -1.2442  0.7005
 1770SOL     OW16942   2.290   2.447   8.988  0.1530  0.1330  0.1375
 1770SOL    HW116943   2.384   2.455   9.004  0.5943 -1.4554 -1.6616
 1770SOL    HW216944   2.288   2.355   8.960  1.7764  0.0288  0.3844
 1771SOL     OW16945   3.617   2.993   1.713  0.0642 -0.0591 -0.3859
 1771SOL    HW116946   3.574   2.925   1.765 -0.3674  2.1990  2.1992
 1771SOL    HW216947   3.615   2.961   1.623 -2.1779  0.5908 -0.5845
 1772SOL     OW16948   2.042   0.583  10.550 -0.1597  0.5410  0.1392
 1772SOL    HW116949   2.133   0.569  10.574 -0.4562 -0.7037  0.5553
 1772SOL    HW216950   2.047   0.597  10.455  2.1033  1.5438  0.4135
 1773SOL     OW16951   0.377   1.567  15.039 -0.3346 -0.1755 -0.1679
 1773SOL    HW116952   0.303   1.611  15.080  1.5224  0.8028  2.1773
 1773SOL    HW216953   0.367   1.609  14.954  0.2936  3.9166  1.7678
 1774SOL     OW16954   4.707   0.103   1.852  0.1237  0.0016  0.0787
 1774SOL    HW116955   4.658   0.089   1.932  0.9941  0.5618  0.7157
 1774SOL    HW216956   0.016   0.019   1.859 -0.5614 -0.4150 -0.6556
 1775SOL     OW16957   3.362   2.122   3.024  0.2245 -0.3500  0.2229
 1775SOL    HW116958   3.331   2.187   2.961 -2.1552 -1.7350 -0.0507
 1775SOL    HW216959   3.281   2.076   3.047  0.5670 -0.5872  0.9473
 1776SOL     OW16960   3.367   0.218   7.092 -0.1451 -0.0711  0.0272
 1776SOL    HW116961   3.394   0.189   7.005 -2.3006  3.0384 -1.6771
 1776SOL    HW216962   3.396   0.309   7.082 -0.9953  0.1934  0.0436
 1777SOL     OW16963   1.101   4.576   5.847  0.0962  0.2386 -0.3871
 1777SOL    HW116964   1.182   4.585   5.898 -1.2623 -0.4506  1.9140
 1777SOL    HW216965   1.124   4.497   5.799 -2.5036 -0.7295 -0.0185
 1778SOL     OW16966   2.941   4.387   9.757  0.0167 -0.5803  0.2637
 1778SOL    HW116967   2.932   4.482   9.753 -0.5815 -0.6509  0.0718
 1778SOL    HW216968   2.911   4.367   9.846 -0.3846 -2.3500 -0.2696
 1779SOL     OW16969   4.141   0.281   7.129  0.4229 -0.2353  0.1064
 1779SOL    HW116970   4.079   0.319   7.191 -0.7692  2.7907 -2.9185
 1779SOL    HW216971   4.194   0.359   7.109  0.6411 -0.0817  1.2895
 1780SOL     OW16972   1.599   1.073   6.743  0.0309  0.0831 -0.0524
 1780SOL    HW116973   1.567   1.162   6.731  2.8198  1.0117 -0.6127
 1780SOL    HW216974   1.531   1.017   6.705  0.1258 -0.5247  0.6811
 1781SOL     OW16975   0.152   2.046  17.571 -0.9313 -0.1928  0.0774
 1781SOL    HW116976   0.116   2.088  17.493 -1.4019  0.5205  0.6659
 1781SOL    HW216977   0.157   2.120  17.632  1.8874  0.0326 -0.4615
 1782SOL     OW16978   2.028   1.260  14.160 -0.3990  0.3554 -0.3121
 1782SOL    HW116979   2.097   1.222  14.214 -0.7671  0.2945  0.1160
 1782SOL    HW216980   1.958   1.261  14.226 -0.4882 -0.0972 -0.4015
 1783SOL     OW16981   1.388   4.542  10.625  0.6252 -0.4396  0.3379
 1783SOL    HW116982   1.439   4.603  10.573  0.2993 -2.4395 -2.3112
 1783SOL    HW216983   1.453   4.483  10.663  0.9585 -0.2045  0.1255
 1784SOL     OW16984   1.507   3.397   2.943 -0.5679  0.2715 -0.0464
 1784SOL    HW116985   1.600   3.375   2.930 -0.3182  1.2391  0.1317
 1784SOL    HW216986   1.505   3.490   2.922 -0.8321  0.2340 -0.1847
 1785SOL     OW16987   3.723   3.371   1.840 -0.8170 -0.3785  0.1477
 1785SOL    HW116988   3.810   3.408   1.824 -1.2973  0.4946 -0.4628
 1785SOL    HW216989   3.669   3.422   1.780  2.0575  1.1715 -1.1450
 1786SOL     OW16990   3.607   2.361   1.082 -0.7287 -0.3821  0.0607
 1786SOL    HW116991   3.599   2.266   1.078 -0.9609 -0.3946  0.8069
 1786SOL    HW216992   3.608   2.378   1.176 -0.4933  2.1694 -0.4163
 1787SOL     OW16993   0.317   4.528  11.500  0.4183  0.0136 -0.0751
 1787SOL    HW116994   0.342   4.571  11.418  2.0168 -0.4935  0.1443
 1787SOL    HW216995   0.294   4.605  11.551  2.3077 -0.5710  1.6237
 1788SOL     OW16996   1.896   0.026  10.878 -0.2598  0.2703 -0.2243
 1788SOL    HW116997   1.829   0.089  10.906  1.1237  1.2506  0.8974
 1788SOL    HW216998   1.957   0.025  10.951  1.2494 -0.0422 -1.4886
 1789SOL     OW16999   3.105   1.322   6.167  0.5784  0.2370 -0.2304
 1789SOL    HW117000   3.010   1.321   6.163  0.5478 -0.0647  0.5713
 1789SOL    HW217001   3.136   1.233   6.180 -0.3949  0.3915  3.0660
 1790SOL     OW17002   1.492   3.342   3.558 -0.4289  0.2072 -0.1883
 1790SOL    HW117003   1.461   3.404   3.493 -1.0264 -0.2047 -0.2966
 1790SOL    HW217004   1.408   3.323   3.599  0.7081  0.1995  2.1600
 1791SOL     OW17005   3.472   0.574  14.127 -0.4577  0.4205 -0.4199
 1791SOL    HW117006   3.398   0.591  14.185 -1.4278 -1.4672 -1.1057
 1791SOL    HW217007   3.512   0.505  14.181 -0.5395 -0.5610 -1.5968
 1792SOL     OW17008   3.551   0.605   1.350 -0.0587  0.2589  0.5483
 1792SOL    HW117009   3.620   0.587   1.287 -0.8995 -0.9668 -0.0195
 1792SOL    HW217010   3.567   0.696   1.375 -2.9152  0.8986  0.1204
 1793SOL     OW17011   4.601   3.848   7.492  0.4225 -0.7499 -0.1181
 1793SOL    HW117012   4.613   3.913   7.562  1.3344 -0.7059 -0.3199
 1793SOL    HW217013   4.540   3.795   7.543 -0.8749 -0.2919 -1.1894
 1794SOL     OW17014   2.692   4.199   8.281  0.1929 -0.6870  0.5423
 1794SOL    HW117015   2.750   4.268   8.313 -1.9593  1.2990  0.1161
 1794SOL    HW217016   2.607   4.220   8.320 -0.2219 -0.6437 -0.3778
 1795SOL     OW17017   3.607   2.829  14.168 -0.1874  0.5949  0.0364
 1795SOL    HW117018   3.541   2.859  14.105  0.3480  2.0596  0.1772
 1795SOL    HW217019   3.619   2.899  14.233 -1.0034  2.2412 -1.5816
 1796SOL     OW17020   0.653   4.712   7.239 -0.0787  0.1756 -0.0542
 1796SOL    HW117021   0.623   0.015   7.157  0.9101 -1.2281 -1.0968
 1796SOL    HW217022   0.566   4.690   7.271  0.7146 -1.9857  0.6503
 1797SOL     OW17023   1.159   2.056   6.047  0.5969  0.4232 -0.0225
 1797SOL    HW117024   1.117   2.129   6.000  3.3862  2.0191 -0.0387
 1797SOL    HW217025   1.204   2.093   6.123  0.8833  0.6090 -0.2851
 1798SOL     OW17026   1.692   0.400   2.717  0.3712 -0.1939 -0.0414
 1798SOL    HW117027   1.697   0.415   2.811 -1.7170 -0.5264  0.1238
 1798SOL    HW217028   1.693   0.305   2.724  0.7748 -0.4247 -2.9813
 1799SOL     OW17029   1.420   1.674   4.383 -0.4675 -0.2192  0.3854
 1799SOL    HW117030   1.410   1.739   4.452  0.3686  2.1370 -1.7291
 1799SOL    HW217031   1.497   1.625   4.414 -0.4019  1.0928  2.2372
 1800SOL     OW17032   2.413   4.412   8.219 -0.6415 -1.0090  0.1692
 1800SOL    HW117033   2.446   4.446   8.302 -0.4809  1.4531 -0.9068
 1800SOL    HW217034   2.330   4.377   8.249 -0.8719  0.2690  1.0183
 1801SOL     OW17035   0.740   1.173  14.757  0.0795 -0.3807  0.3568
 1801SOL    HW117036   0.654   1.214  14.766  0.1463  0.0059 -0.7776
 1801SOL    HW217037   0.754   1.147  14.848 -1.0137  2.4322  1.3133
 1802SOL     OW17038   2.494   3.178   7.418  0.0608 -0.4961  0.0747
 1802SOL    HW117039   2.470   3.086   7.419 -0.6239 -0.3248 -0.7390
 1802SOL    HW217040   2.461   3.199   7.331 -0.7742 -1.2075  0.2144
 1803SOL     OW17041   1.711   0.209   3.690 -0.2464 -0.1418 -0.0069
 1803SOL    HW117042   1.707   0.258   3.772  0.8500 -1.8360  1.0579
 1803SOL    HW217043   1.762   0.135   3.721 -0.0309 -0.2778 -0.6925
 1804SOL     OW17044   2.273   3.117   4.349 -0.4573 -0.3253  0.1449
 1804SOL    HW117045   2.299   3.153   4.264  0.4663 -1.7910 -0.1998
 1804SOL    HW217046   2.297   3.191   4.405 -4.0872  0.4362  0.6630
 1805SOL     OW17047   0.916   2.366  14.795 -0.5495  0.2943 -0.5384
 1805SOL    HW117048   0.877   2.442  14.837 -3.6499  0.1486 -3.1143
 1805SOL    HW217049   0.980   2.407  14.737  0.6794 -1.8375 -0.7009
 1806SOL     OW17050   1.110   0.674   3.578 -0.0395  0.3438  0.7489
 1806SOL    HW117051   1.057   0.632   3.646 -2.6980  0.3971 -1.2547
 1806SOL    HW217052   1.193   0.631   3.598 -1.4920 -2.1378  1.4432
 1807SOL     OW17053   2.884   2.410  17.356  0.4295 -0.0495 -0.6718
 1807SOL    HW117054   2.792   2.431  17.342  0.2525  0.4038  1.2296
 1807SOL    HW217055   2.924   2.483  17.309  1.9286 -1.1761 -1.1442
 1808SOL     OW17056   4.146   1.760   2.326 -0.4538 -0.0162  0.1613
 1808SOL    HW117057   4.146   1.769   2.231  1.4981 -1.7458  0.0102
 1808SOL    HW217058   4.056   1.768   2.358 -0.9540  1.7319 -1.7032
 1809SOL     OW17059   1.834   0.040  12.513  0.3825  0.0381  0.0614
 1809SOL    HW117060   1.822   4.728  12.595  0.2273 -0.6829 -0.3827
 1809SOL    HW217061   1.812   0.130  12.538 -0.6592  0.2092 -1.5030
 1810SOL     OW17062   2.658   4.307   8.967 -0.4379 -0.2101  0.9099
 1810SOL    HW117063   2.728   4.372   8.966 -1.6036  0.9789 -2.3969
 1810SOL    HW217064   2.716   4.231   8.965 -0.2161  0.0198 -1.4533
 1811SOL     OW17065   2.415   1.959   6.914  0.0619 -0.1647 -0.3210
 1811SOL    HW117066   2.399   2.033   6.973 -1.3722 -0.8560  0.1649
 1811SOL    HW217067   2.492   1.994   6.871 -1.1156  2.0169 -0.6687
 1812SOL     OW17068   3.542   4.352   1.541 -0.8296 -0.0656 -0.0938
 1812SOL    HW117069   3.589   4.436   1.547 -0.1906 -0.2805 -2.2023
 1812SOL    HW217070   3.583   4.311   1.617 -1.7457 -2.1561 -0.7427
 1813SOL     OW17071   3.136   1.930   0.881 -0.0238  0.4365 -0.2232
 1813SOL    HW117072   3.215   1.911   0.932 -0.0754  0.6837 -0.0514
 1813SOL    HW217073   3.140   1.879   0.800 -2.0547  0.6566 -0.4715
 1814SOL     OW17074   4.520   3.143  11.325 -0.5564 -0.6476  0.2241
 1814SOL    HW117075   4.466   3.128  11.403 -2.3264 -0.9138 -1.0328
 1814SOL    HW217076   4.486   3.084  11.258  0.4173 -0.4642 -0.4286
 1815SOL     OW17077   0.500   3.180   0.205 -0.4643 -0.0070 -0.1115
 1815SOL    HW117078   0.595   3.187   0.219 -0.3468  0.3233 -1.0531
 1815SOL    HW217079   0.480   3.156   0.295 -1.1233 -1.7458 -0.7231
 1816SOL     OW17080   2.019   2.193   9.608  0.6077  0.4297  0.2427
 1816SOL    HW117081   2.110   2.210   9.632  1.1908 -1.4875 -0.5998
 1816SOL    HW217082   1.982   2.256   9.669  1.0795  0.8900  0.0578
 1817SOL     OW17083   3.090   1.855   0.531 -0.2353  0.8013  0.1881
 1817SOL    HW117084   3.180   1.859   0.563  0.3043  1.0857 -1.3258
 1817SOL    HW217085   3.045   1.812   0.604 -0.6210 -1.6592 -1.5153
 1818SOL     OW17086   0.964   1.750  12.696 -0.4344 -0.1228 -0.0559
 1818SOL    HW117087   1.016   1.805  12.637 -0.0495  0.3184  0.7030
 1818SOL    HW217088   1.000   1.767  12.783  1.2652  0.5986 -0.9105
 1819SOL     OW17089   1.714   4.001   2.197  0.1349 -0.0063  0.1535
 1819SOL    HW117090   1.659   4.077   2.213 -0.6033 -0.5357  0.1714
 1819SOL    HW217091   1.687   3.933   2.260 -2.2435  1.5577  0.8235
 1820SOL     OW17092   4.432   3.959   3.586 -0.2664 -0.1344  0.1236
 1820SOL    HW117093   4.424   4.037   3.642 -0.7119 -0.1033  0.0189
 1820SOL    HW217094   4.345   3.920   3.576  0.0805 -0.5817 -1.1583
 1821SOL     OW17095   3.503   0.579   3.986  0.3401 -0.1167 -0.1031
 1821SOL    HW117096   3.545   0.536   3.912  0.0514  1.3847 -1.1173
 1821SOL    HW217097   3.486   0.493   4.025  1.6415 -0.0772  0.5620
 1822SOL     OW17098   1.376   0.378   2.378 -0.3212 -0.1089  0.3355
 1822SOL    HW117099   1.328   0.460   2.370  1.4229  0.7199 -1.6879
 1822SOL    HW217100   1.433   0.397   2.453  1.4803  3.8743 -2.0189
 1823SOL     OW17101   4.482   1.269   4.692  0.8025  0.1255 -0.8212
 1823SOL    HW117102   4.487   1.353   4.739  0.4131 -0.2786 -0.0601
 1823SOL    HW217103   4.576   1.258   4.678  0.5559 -0.3261 -2.1239
 1824SOL     OW17104   2.910   3.131  13.473  0.5537  0.1476  0.0239
 1824SOL    HW117105   2.963   3.052  13.480 -1.4089 -1.2745 -1.3316
 1824SOL    HW217106   2.839   3.116  13.535  0.8653  1.5527  0.7330
 1825SOL     OW17107   0.061   1.241   2.251  0.3066 -0.0624 -0.3739
 1825SOL    HW117108   0.137   1.244   2.192 -0.2755  4.2549 -0.9161
 1825SOL    HW217109   4.726   1.219   2.192 -0.2462  1.0874 -0.1273
 1826SOL     OW17110   1.451   3.421   4.877 -0.1810  0.6829 -0.0764
 1826SOL    HW117111   1.541   3.418   4.844 -0.2675  0.3842 -0.2791
 1826SOL    HW217112   1.405   3.440   4.796 -0.0347 -2.0343 -0.8004
 1827SOL     OW17113   1.085   4.195  17.212  0.1979 -0.1111 -0.0767
 1827SOL    HW117114   1.082   4.148  17.128  1.6017  0.0951 -0.2467
 1827SOL    HW217115   0.995   4.224  17.198  0.4666  0.3921 -0.8197
 1828SOL     OW17116   2.998   1.681   3.396 -0.5088  0.0359 -0.0108
 1828SOL    HW117117   3.000   1.776   3.400 -0.7538  0.0762 -0.7716
 1828SOL    HW217118   3.082   1.665   3.353 -0.9620 -2.8510  0.1246
 1829SOL     OW17119   0.577   3.565   6.483  0.6721  0.3453 -0.3322
 1829SOL    HW117120   0.607   3.491   6.536  1.3137  0.0153 -1.1703
 1829SOL    HW217121   0.660   3.598   6.450  0.0684  1.1408 -1.0458
 1830SOL     OW17122   2.441   0.029  10.257  0.2210  1.1184  0.0867
 1830SOL    HW117123   2.477   4.679  10.276  3.0354  2.2454 -0.0727
 1830SOL    HW217124   2.516   0.080  10.224 -0.8164  1.1819 -2.1267
 1831SOL     OW17125   2.398   1.305   6.043  0.0786 -0.0596  0.1250
 1831SOL    HW117126   2.343   1.227   6.043  0.6959 -0.4941 -1.9955
 1831SOL    HW217127   2.368   1.326   6.132 -1.6491 -0.9155 -0.2586
 1832SOL     OW17128   0.005   0.369   3.169 -0.6068 -0.1627 -0.9113
 1832SOL    HW117129   0.007   0.273   3.173 -0.8828 -0.1586 -0.6375
 1832SOL    HW217130   4.707   0.393   3.255  1.1415 -1.0518  0.0390
 1833SOL     OW17131   0.240   3.966   1.575  0.3069  0.2807  0.1848
 1833SOL    HW117132   0.209   3.949   1.486  1.3206 -1.6922  0.2095
 1833SOL    HW217133   0.249   3.877   1.608  0.2975 -0.1967 -1.0908
 1834SOL     OW17134   4.435   3.338   5.968  0.3875  0.8498  0.0308
 1834SOL    HW117135   4.378   3.414   5.958 -1.9120 -0.6332  1.5910
 1834SOL    HW217136   4.512   3.382   6.002  0.4908  0.1636  0.6796
 1835SOL     OW17137   1.937   1.304   9.361 -0.3680 -0.9491 -0.1153
 1835SOL    HW117138   1.915   1.351   9.281 -1.7840  0.0633  0.8475
 1835SOL    HW217139   2.014   1.254   9.333 -2.0548 -3.2864 -0.6498
 1836SOL     OW17140   0.189   1.096   3.759 -0.1640 -0.0801 -0.0477
 1836SOL    HW117141   0.277   1.131   3.746 -0.7391  1.2913 -0.3265
 1836SOL    HW217142   0.178   1.078   3.853 -1.7356  4.3624  0.6195
 1837SOL     OW17143   1.033   3.372   7.438  0.6591 -1.3705  0.0005
 1837SOL    HW117144   1.019   3.466   7.431  2.0088 -1.2029 -0.4244
 1837SOL    HW217145   1.032   3.358   7.533 -0.5202 -1.2472  0.0066
 1838SOL     OW17146   0.801   1.507   8.134 -0.8260 -0.4566 -0.2724
 1838SOL    HW117147   0.746   1.577   8.099 -2.4046 -0.8308  1.4661
 1838SOL    HW217148   0.739   1.452   8.181 -1.8807  1.8143  0.9842
 1839SOL     OW17149   3.660   3.130   3.508  0.3592  0.4256  0.2219
 1839SOL    HW117150   3.573   3.168   3.493 -1.4661 -3.2666  1.4407
 1839SOL    HW217151   3.677   3.169   3.594 -1.9530 -1.2844  1.4625
 1840SOL     OW17152   3.165   3.461  13.363  0.1235 -0.3097  0.2757
 1840SOL    HW117153   3.154   3.454  13.458 -0.7158  0.7055  0.2506
 1840SOL    HW217154   3.212   3.544  13.372  1.1133 -0.7228 -1.0748
 1841SOL     OW17155   0.731   2.759   7.648 -0.1064 -0.0427 -0.3353
 1841SOL    HW117156   0.698   2.728   7.563 -1.0173  1.3651 -0.4918
 1841SOL    HW217157   0.784   2.836   7.628 -2.4161  1.7142  0.3395
 1842SOL     OW17158   3.307   0.408   4.405 -0.4409 -0.0764 -0.4291
 1842SOL    HW117159   3.379   0.436   4.461  0.7981  0.0193 -2.0695
 1842SOL    HW217160   3.334   0.316   4.405  0.1581  0.1130  2.1188
 1843SOL     OW17161   2.795   0.559   1.221 -0.4293  1.3241  0.1547
 1843SOL    HW117162   2.871   0.549   1.279  0.3188  3.4777 -0.4319
 1843SOL    HW217163   2.825   0.539   1.133  2.1495 -0.0208  1.3302
 1844SOL     OW17164   3.677   3.754   6.820  0.5404 -0.5121 -0.5904
 1844SOL    HW117165   3.762   3.713   6.802  1.0006 -0.6656  1.8564
 1844SOL    HW217166   3.663   3.730   6.912  1.3552 -1.5957 -0.7445
 1845SOL     OW17167   0.684   3.287  16.181  0.0586 -0.8943  0.9286
 1845SOL    HW117168   0.629   3.236  16.240 -1.6078  0.0881  0.2434
 1845SOL    HW217169   0.760   3.292  16.238 -0.3301  1.4643  1.2442
 1846SOL     OW17170   0.106   1.248   1.318  0.4662 -0.0174 -0.6554
 1846SOL    HW117171   0.051   1.263   1.396 -0.4162 -2.1637 -0.8700
 1846SOL    HW217172   0.042   1.250   1.247  0.4942  0.1438 -0.6768
 1847SOL     OW17173   3.612   3.146   6.118  0.2856 -0.9170 -0.0884
 1847SOL    HW117174   3.661   3.195   6.052  4.0324 -3.2568  0.9986
 1847SOL    HW217175   3.552   3.216   6.144  0.7370 -0.7318  0.4462
 1848SOL     OW17176   0.752   4.244   0.129 -0.6074  0.0243  0.0035
 1848SOL    HW117177   0.826   4.237   0.190 -0.7017 -2.8175 -0.2155
 1848SOL    HW217178   0.724   4.336   0.130  0.2347  0.2886 -0.0199
 1849SOL     OW17179   3.111   0.753  12.039  0.1491  0.0653 -0.2636
 1849SOL    HW117180   3.157   0.709  12.111  2.3721 -0.6085 -2.0807
 1849SOL    HW217181   3.160   0.835  12.033 -2.2831  1.4562 -1.0311
 1850SOL     OW17182   2.024   2.304   6.805 -0.4883 -0.2353  0.9545
 1850SOL    HW117183   1.936   2.275   6.783  0.1011 -0.1703 -1.4704
 1850SOL    HW217184   2.038   2.279   6.897  0.5791 -2.3079  0.2080
 1851SOL     OW17185   3.829   0.838  10.784 -0.3977 -0.2272 -0.3904
 1851SOL    HW117186   3.915   0.880  10.796 -0.0523 -1.2049  0.4917
 1851SOL    HW217187   3.789   0.853  10.870  1.1678  1.9573 -0.0310
 1852SOL     OW17188   1.002   0.830   5.825  0.5457  0.0366  0.1319
 1852SOL    HW117189   0.911   0.850   5.805  0.1601 -0.8619  1.0002
 1852SOL    HW217190   0.996   0.736   5.844  1.9951 -0.2113 -0.5791
 1853SOL     OW17191   0.781   1.169   8.457  0.1227  0.1730 -0.6332
 1853SOL    HW117192   0.813   1.238   8.516 -2.0907  0.1057  0.6541
 1853SOL    HW217193   0.769   1.096   8.518 -1.5313  0.0851 -1.0625
 1854SOL     OW17194   4.601   1.674  17.673  0.0827  0.2113  0.5927
 1854SOL    HW117195   4.613   1.769  17.665 -1.8823  0.3150 -1.3641
 1854SOL    HW217196   4.689   1.648  17.648  0.0717  0.8298 -0.1229
 1855SOL     OW17197   0.587   0.915   6.233  0.0693  0.3659 -0.2099
 1855SOL    HW117198   0.542   0.964   6.302  0.7850 -0.2593  0.7109
 1855SOL    HW217199   0.519   0.852   6.211  1.7146 -1.1003 -1.0304
 1856SOL     OW17200   3.331   1.297   5.018 -0.6666  0.0258 -0.3581
 1856SOL    HW117201   3.330   1.201   5.017  0.0782  0.0127  0.4161
 1856SOL    HW217202   3.421   1.314   4.991  0.4414  0.5053  3.6005
 1857SOL     OW17203   3.051   2.272   3.238  0.1214  0.4032 -0.4217
 1857SOL    HW117204   3.111   2.197   3.236 -1.3267 -0.7320 -1.6457
 1857SOL    HW217205   3.015   2.267   3.150 -3.0390  2.5212  0.7425
 1858SOL     OW17206   0.589   1.752  15.145 -0.4515  0.2954  0.6750
 1858SOL    HW117207   0.514   1.712  15.099 -0.0110  1.6037 -1.1923
 1858SOL    HW217208   0.615   1.676  15.197  0.0282  2.7341  3.9201
 1859SOL     OW17209   2.702   0.928   4.609 -0.4079 -0.4520 -0.3689
 1859SOL    HW117210   2.608   0.916   4.626 -0.5936  0.1999 -0.9366
 1859SOL    HW217211   2.738   0.903   4.694 -0.3441  1.0506  0.0415
 1860SOL     OW17212   1.903   4.611   1.988 -0.0118  0.0108  0.0527
 1860SOL    HW117213   1.960   4.589   2.062  1.7648  3.5395 -0.2774
 1860SOL    HW217214   1.880   4.530   1.943  0.9387  0.2371 -0.8426
 1861SOL     OW17215   1.432   1.186   8.008  0.2092 -0.3161  0.3839
 1861SOL    HW117216   1.435   1.244   7.932 -2.1998 -1.0898 -0.3107
 1861SOL    HW217217   1.483   1.112   7.976  0.8695  1.2723 -2.2190
 1862SOL     OW17218   1.573   4.480   6.369  0.4442  0.1628  0.4939
 1862SOL    HW117219   1.667   4.496   6.376  0.6372 -0.5368 -0.6715
 1862SOL    HW217220   1.539   4.457   6.456  0.2390  1.2723  0.7064
 1863SOL     OW17221   2.269   3.138   6.584  0.1567  0.1584  0.2703
 1863SOL    HW117222   2.364   3.132   6.582  0.2234  2.0293 -2.5238
 1863SOL    HW217223   2.253   3.172   6.672 -0.5863 -1.9600  0.9626
 1864SOL     OW17224   0.362   1.483  16.066  0.0620 -0.4068  0.1262
 1864SOL    HW117225   0.391   1.513  16.152  0.3756 -1.6093  0.4369
 1864SOL    HW217226   0.439   1.512  16.017 -0.0700 -1.7287 -0.8453
 1865SOL     OW17227   4.381   0.216   0.694 -0.1682  0.0812 -0.8192
 1865SOL    HW117228   4.328   0.296   0.693  0.9618  0.8658  1.3385
 1865SOL    HW217229   4.456   0.248   0.643  0.8501 -2.0924 -0.6525
 1866SOL     OW17230   1.623   0.727   3.274 -0.0334  0.4617 -0.5646
 1866SOL    HW117231   1.671   0.735   3.191  1.5652 -1.8495  0.1412
 1866SOL    HW217232   1.624   0.632   3.284 -0.1973  0.5420  0.2096
 1867SOL     OW17233   2.242   1.463   3.530  0.0206  0.9968 -0.6947
 1867SOL    HW117234   2.287   1.425   3.455  0.5263  0.2233 -0.0033
 1867SOL    HW217235   2.153   1.457   3.494  0.8874  3.0134 -3.1329
 1868SOL     OW17236   1.588   1.316   3.050 -0.1165 -0.3616 -1.0187
 1868SOL    HW117237   1.639   1.250   3.098 -0.3771  0.1372 -0.0749
 1868SOL    HW217238   1.502   1.280   3.069 -0.3814  0.3982 -0.7805
 1869SOL     OW17239   0.694   3.011   8.834  0.3267 -0.2528  0.1396
 1869SOL    HW117240   0.754   3.033   8.904  1.4133 -0.2377 -0.7928
 1869SOL    HW217241   0.635   2.955   8.884  0.3228 -0.3536  0.0237
 1870SOL     OW17242   3.433   3.925  13.093  0.0312 -0.5760 -0.1858
 1870SOL    HW117243   3.418   3.953  13.183  2.0386  1.7522 -0.5620
 1870SOL    HW217244   3.412   4.008  13.050 -2.3157 -0.6919  0.7863
 1871SOL     OW17245   3.070   4.669   5.505  0.2231  0.3989 -0.0272
 1871SOL    HW117246   3.077   4.581   5.469  0.6545  0.2746  0.3676
 1871SOL    HW217247   3.046   4.653   5.596 -0.2725 -1.3669 -0.4645
 1872SOL     OW17248   2.465   2.147   9.951 -0.2267  0.1889 -0.0502
 1872SOL    HW117249   2.442   2.121  10.040 -0.0788 -0.7447 -0.2810
 1872SOL    HW217250   2.552   2.106   9.951 -0.2455  0.1521 -0.3159
 1873SOL     OW17251   4.089   2.599   6.589  0.2157 -0.1821 -0.1411
 1873SOL    HW117252   4.106   2.633   6.502  1.4407  3.7636  1.6374
 1873SOL    HW217253   4.174   2.569   6.623 -0.0726 -0.4092  0.3829
 1874SOL     OW17254   4.669   1.952   0.817 -0.2282  0.0987 -0.4878
 1874SOL    HW117255   4.672   2.017   0.747  0.2539  1.4668  0.8141
 1874SOL    HW217256   0.008   1.977   0.871 -0.4099 -2.3049  0.8645
 1875SOL     OW17257   1.134   2.558   3.771  0.0223 -0.0816 -0.3075
 1875SOL    HW117258   1.076   2.577   3.697 -2.0741  3.7643  2.3407
 1875SOL    HW217259   1.109   2.466   3.783 -1.1995  0.4589  1.2983
 1876SOL     OW17260   1.532   2.349   5.146  0.3044 -0.4990  0.0396
 1876SOL    HW117261   1.584   2.302   5.081  0.9248  1.0415 -0.5731
 1876SOL    HW217262   1.527   2.265   5.193 -0.4774  0.0644  0.9587
 1877SOL     OW17263   0.291   4.079  14.436  0.0284  0.1537  0.3008
 1877SOL    HW117264   0.278   4.022  14.361 -1.3405  1.7217 -0.6518
 1877SOL    HW217265   0.349   4.031  14.496 -1.7326 -1.5891  0.6277
 1878SOL     OW17266   1.626   2.035   8.676  0.1993 -0.4629  0.6565
 1878SOL    HW117267   1.669   2.065   8.756  3.4912  0.4611 -1.4542
 1878SOL    HW217268   1.617   1.943   8.700  0.0968  0.4230  4.0707
 1879SOL     OW17269   4.117   1.849   9.071  0.0065  0.0156  0.1547
 1879SOL    HW117270   4.143   1.842   9.163 -1.9004 -0.4454  0.6607
 1879SOL    HW217271   4.044   1.911   9.073 -1.4834 -1.6973 -0.7568
 1880SOL     OW17272   3.074   3.254  14.061 -0.1902  0.4164  0.3163
 1880SOL    HW117273   3.156   3.216  14.094 -0.0129 -0.4680 -1.1231
 1880SOL    HW217274   3.061   3.321  14.128  1.9329  2.1564 -1.0140
 1881SOL     OW17275   4.187   1.320   3.621 -0.1468 -0.4857 -0.3297
 1881SOL    HW117276   4.263   1.299   3.676  0.4870 -1.1460 -1.4485
 1881SOL    HW217277   4.121   1.349   3.683  0.8970 -1.0212  1.0226
 1882SOL     OW17278   2.158   3.245   5.230  0.1706 -0.3903 -0.0771
 1882SOL    HW117279   2.102   3.169   5.247 -0.5885  0.5469  1.6763
 1882SOL    HW217280   2.117   3.322   5.269  2.8991  0.8985  0.2427
 1883SOL     OW17281   0.256   1.028   5.663  0.3344  0.0448  0.2680
 1883SOL    HW117282   0.326   1.081   5.623  0.1975 -0.3251 -0.4778
 1883SOL    HW217283   0.296   0.941   5.663  1.1633  0.4249  1.6655
 1884SOL     OW17284   0.294   3.216  16.361  0.4457 -0.4443  0.1174
 1884SOL    HW117285   0.381   3.192  16.394  1.9369  1.9778 -2.1283
 1884SOL    HW217286   0.313   3.293  16.307  0.1675 -0.2578  0.2832
 1885SOL     OW17287   2.241   0.358  12.510  0.4232  0.3244  0.3049
 1885SOL    HW117288   2.219   0.333  12.420 -0.3420 -0.1864  0.6311
 1885SOL    HW217289   2.333   0.334  12.523  0.2672 -0.2694  0.3373
 1886SOL     OW17290   2.141   0.967   5.303 -0.6941  0.1869 -0.4995
 1886SOL    HW117291   2.233   0.946   5.316 -0.9588 -0.0367  1.0332
 1886SOL    HW217292   2.145   0.958   5.208 -0.5856 -0.9136 -0.3878
 1887SOL     OW17293   1.040   0.801   9.695 -0.1280  0.0498  0.5333
 1887SOL    HW117294   0.987   0.736   9.739 -0.5831  0.7148  0.9627
 1887SOL    HW217295   1.116   0.759   9.654  1.0600  1.9064  0.8063
 1888SOL     OW17296   0.808   3.207   7.322  0.2451  0.1992  0.0788
 1888SOL    HW117297   0.879   3.262   7.356  0.1850  0.0498  0.4535
 1888SOL    HW217298   0.738   3.272   7.330 -0.8768 -1.0011  0.0592
 1889SOL     OW17299   3.598   3.985   0.500 -0.3319  0.1326  0.2244
 1889SOL    HW117300   3.633   3.906   0.459  0.3060  0.2231  0.5805
 1889SOL    HW217301   3.512   3.965   0.536  1.4988 -3.4734  2.6635
 1890SOL     OW17302   0.369   1.749   1.773 -0.4030  0.1534  0.4841
 1890SOL    HW117303   0.355   1.824   1.831 -1.9664  1.9472 -2.2364
 1890SOL    HW217304   0.321   1.682   1.823  0.0232 -0.0066  0.6823
 1891SOL     OW17305   1.342   1.348   8.451  0.3675  0.0139 -0.0342
 1891SOL    HW117306   1.394   1.310   8.379 -0.9412 -1.1737 -0.3342
 1891SOL    HW217307   1.267   1.289   8.450  1.2213 -1.0511 -1.3495
 1892SOL     OW17308   1.932   2.353   8.838 -0.2142 -0.9952 -0.6883
 1892SOL    HW117309   1.969   2.437   8.865 -1.6003 -0.1584 -1.3499
 1892SOL    HW217310   2.000   2.333   8.774 -0.3132  1.5506 -1.5889
 1893SOL     OW17311   1.127   3.516   6.544  0.1256 -0.1079  0.0897
 1893SOL    HW117312   1.111   3.590   6.602 -2.5159 -1.5048  1.1352
 1893SOL    HW217313   1.086   3.446   6.595 -0.7465  0.9273  0.7871
 1894SOL     OW17314   3.129   2.028   0.319 -0.4780 -0.0530  0.2845
 1894SOL    HW117315   3.128   2.115   0.358 -2.4721 -0.6006  1.4784
 1894SOL    HW217316   3.109   1.976   0.397 -1.3114  0.4574  0.4078
 1895SOL     OW17317   1.966   1.339  17.449 -0.2753  0.0478  0.1667
 1895SOL    HW117318   1.915   1.320  17.528  0.5219  2.7808  1.3355
 1895SOL    HW217319   1.945   1.428  17.421 -1.9549 -0.1503  0.8080
 1896SOL     OW17320   3.455   4.708   7.197 -0.5389  0.1822 -0.1940
 1896SOL    HW117321   3.437   0.064   7.176  0.5177  0.0982 -1.4245
 1896SOL    HW217322   3.389   4.688   7.264  0.2912 -0.3057  0.4784
 1897SOL     OW17323   2.095   0.697   6.105 -0.0449  0.3001  0.2701
 1897SOL    HW117324   1.999   0.703   6.110 -0.0590 -0.9354  1.5329
 1897SOL    HW217325   2.108   0.773   6.049 -0.8547 -0.6698 -1.2199
 1898SOL     OW17326   4.539   2.295   5.753  0.1112  0.4785 -0.3503
 1898SOL    HW117327   4.587   2.291   5.836 -0.0300  4.8132 -0.0321
 1898SOL    HW217328   4.455   2.328   5.786  0.5141  1.9962 -0.8387
 1899SOL     OW17329   1.059   2.468   3.414  0.0058 -0.3314  0.4460
 1899SOL    HW117330   1.071   2.385   3.459  0.7790 -0.6296 -0.3226
 1899SOL    HW217331   1.004   2.514   3.478  1.3581  2.6920 -0.5490
 1900SOL     OW17332   3.063   0.140   7.863 -0.4769 -0.5264  0.1686
 1900SOL    HW117333   3.105   0.171   7.944 -1.1034 -0.4450  0.4617
 1900SOL    HW217334   3.053   0.047   7.881  0.3560 -0.8293 -0.9379
 1901SOL     OW17335   4.261   3.021   4.346 -0.2495 -0.9816 -0.0598
 1901SOL    HW117336   4.318   3.022   4.423 -0.9517 -1.4466  0.4689
 1901SOL    HW217337   4.188   2.977   4.391  0.0239  0.5737  1.9262
 1902SOL     OW17338   4.313   4.552   8.514 -0.3569 -0.2928  0.2428
 1902SOL    HW117339   4.247   4.494   8.552  1.2564 -1.0032  1.9516
 1902SOL    HW217340   4.394   4.502   8.508 -0.1472  0.0881 -0.1321
 1903SOL     OW17341   0.389   0.787   1.365  0.3126 -0.4776 -0.2192
 1903SOL    HW117342   0.332   0.859   1.336  0.8985  0.1546  0.2282
 1903SOL    HW217343   0.471   0.796   1.317 -0.0502 -1.1545 -0.9678
 1904SOL     OW17344   1.176   4.294   7.278  0.3906 -0.5854  0.4571
 1904SOL    HW117345   1.196   4.382   7.312  2.5665  0.1160 -2.6883
 1904SOL    HW217346   1.104   4.265   7.333  0.3604 -0.1608  0.6421
 1905SOL     OW17347   1.682   3.292   4.102 -0.0637  0.3908  0.1606
 1905SOL    HW117348   1.693   3.350   4.027  2.0794  0.0919  0.2294
 1905SOL    HW217349   1.722   3.214   4.062  0.6931 -0.4548  2.5025
 1906SOL     OW17350   2.179   0.262  12.274 -0.2605 -0.2965 -0.1369
 1906SOL    HW117351   2.102   0.274  12.218  0.2208  1.8915 -0.3333
 1906SOL    HW217352   2.206   0.171  12.270 -3.8922 -1.5114  2.6788
 1907SOL     OW17353   2.716   3.527   2.306 -0.2242  0.4267  0.6059
 1907SOL    HW117354   2.757   3.565   2.228 -0.7169 -0.2905 -0.0083
 1907SOL    HW217355   2.630   3.564   2.288 -0.2063  0.5827  0.8424
 1908SOL     OW17356   4.605   3.803   2.788 -0.2252  0.1576  0.8080
 1908SOL    HW117357   4.526   3.844   2.753  0.4563  0.8236  0.0619
 1908SOL    HW217358   4.641   3.874   2.841 -0.1799  0.8004 -0.0807
 1909SOL     OW17359   1.263   0.748   4.850 -0.2276  0.2155  0.0102
 1909SOL    HW117360   1.278   0.655   4.837  2.7618  0.6744  0.1116
 1909SOL    HW217361   1.294   0.754   4.941  0.7191  1.1702 -0.3623
 1910SOL     OW17362   2.761   1.203   7.107 -0.4990  0.1271  0.1105
 1910SOL    HW117363   2.760   1.287   7.061 -1.6182  0.4417  0.7076
 1910SOL    HW217364   2.708   1.157   7.043  0.3556  1.5417 -1.6015
 1911SOL     OW17365   4.587   1.801   2.298  0.5935  0.3787 -0.0532
 1911SOL    HW117366   4.520   1.811   2.366 -1.2275  2.6175 -2.1605
 1911SOL    HW217367   4.526   1.823   2.228  2.8219 -1.3129 -2.5302
 1912SOL     OW17368   2.449   3.437  16.356  0.4481  0.1466 -0.1315
 1912SOL    HW117369   2.466   3.488  16.277  1.9760  0.8243  0.6331
 1912SOL    HW217370   2.394   3.496  16.408  2.6107  0.3053  2.0175
 1913SOL     OW17371   0.178   1.017   4.044  0.2614 -0.2483 -0.1952
 1913SOL    HW117372   0.120   0.949   4.009  1.1856 -0.7021 -0.8385
 1913SOL    HW217373   0.110   1.080   4.068 -1.3926 -1.1713 -2.4444
 1914SOL     OW17374   3.234   1.028   2.308 -0.1847  0.4759  0.4178
 1914SOL    HW117375   3.268   1.105   2.263 -0.7850  1.0673  0.9753
 1914SOL    HW217376   3.248   1.050   2.400  2.6964  1.8074 -0.3311
 1915SOL     OW17377   1.938   2.109   9.228 -0.2388  0.0090 -0.1531
 1915SOL    HW117378   1.957   2.030   9.278 -0.1740  1.0491  1.5010
 1915SOL    HW217379   1.851   2.124   9.264 -0.7066 -2.4664 -0.3063
 1916SOL     OW17380   3.782   1.312   9.024 -0.1717  0.5120 -0.0179
 1916SOL    HW117381   3.709   1.260   8.991 -1.7752  1.6341  1.7434
 1916SOL    HW217382   3.811   1.358   8.945  0.3563  1.1660  0.5503
 1917SOL     OW17383   4.505   0.103   6.918 -0.4241 -0.3249 -0.7081
 1917SOL    HW117384   4.483   0.194   6.900 -0.8250 -0.4619 -0.9028
 1917SOL    HW217385   4.423   0.071   6.957  0.2355 -0.3177  0.6896
 1918SOL     OW17386   0.690   2.092  13.419 -0.3129  0.7742  0.5882
 1918SOL    HW117387   0.720   2.014  13.465 -1.8272 -0.7256 -0.9677
 1918SOL    HW217388   0.619   2.127  13.473 -2.1895  0.1081 -1.4230
 1919SOL     OW17389   4.239   2.239  17.628  0.0367 -0.8939  0.4314
 1919SOL    HW117390   4.279   2.219  17.544 -0.7798 -0.1676 -0.1263
 1919SOL    HW217391   4.146   2.216  17.618 -0.3461  0.4589  0.8960
 1920SOL     OW17392   4.580   3.374  16.080 -0.0336 -0.1065 -0.5067
 1920SOL    HW117393   4.625   3.343  16.001 -0.0300  2.0118 -1.3450
 1920SOL    HW217394   4.487   3.382  16.057  0.4213  3.6951 -1.0756
 1921SOL     OW17395   4.529   0.063  16.322  0.4905 -0.1424 -0.2977
 1921SOL    HW117396   4.590   0.002  16.363  1.7492  0.7918 -0.7798
 1921SOL    HW217397   4.575   0.082  16.240 -0.5879  2.0092 -0.4107
 1922SOL     OW17398   4.623   0.897   4.154 -0.1058 -0.0759 -0.2910
 1922SOL    HW117399   4.635   0.870   4.063 -0.2278 -3.4288  0.6716
 1922SOL    HW217400   4.534   0.932   4.156 -0.3380 -0.5744 -2.4668
 1923SOL     OW17401   2.075   0.264   7.363 -0.5322  0.1245  0.0444
 1923SOL    HW117402   2.097   0.326   7.293 -0.9248 -0.7679 -0.8649
 1923SOL    HW217403   2.043   0.188   7.315 -1.9784  0.7067  0.0655
 1924SOL     OW17404   3.620   2.683  14.958 -0.2162 -0.3242  0.0980
 1924SOL    HW117405   3.617   2.776  14.980  2.3501 -0.8368  2.6101
 1924SOL    HW217406   3.702   2.668  15.005  0.3465  0.8313 -0.5319
 1925SOL     OW17407   2.174   1.867   3.081 -0.2810 -0.1795 -0.0931
 1925SOL    HW117408   2.201   1.958   3.091  0.3012 -0.4852  1.0952
 1925SOL    HW217409   2.087   1.885   3.045  0.7009  1.4891 -1.5980
 1926SOL     OW17410   2.393   3.295   7.153  0.3008  0.0377 -0.0567
 1926SOL    HW117411   2.466   3.354   7.135  2.5078 -3.1672 -1.5806
 1926SOL    HW217412   2.330   3.360   7.184  1.4452  0.4750  1.3270
 1927SOL     OW17413   3.419   0.802   4.085  0.3363  0.0556  0.1165
 1927SOL    HW117414   3.435   0.749   4.007  1.3967 -0.9634  1.0227
 1927SOL    HW217415   3.497   0.778   4.135  0.1041  0.1720  0.5413
 1928SOL     OW17416   3.727   4.260  16.992 -0.0276  0.1255  0.5754
 1928SOL    HW117417   3.664   4.310  17.043 -0.4227  1.0355 -0.7971
 1928SOL    HW217418   3.716   4.172  17.029 -3.5858  0.5433  0.5419
 1929SOL     OW17419   3.577   0.454  16.195  0.1292 -0.1410 -0.3643
 1929SOL    HW117420   3.605   0.542  16.168  1.0118 -0.8236 -1.6680
 1929SOL    HW217421   3.650   0.432  16.254 -1.5124 -2.7115  0.6742
 1930SOL     OW17422   1.101   0.710  10.082 -1.1882 -0.6861  0.5799
 1930SOL    HW117423   1.171   0.650  10.110  0.3745  0.2591 -1.2994
 1930SOL    HW217424   1.137   0.795  10.110  2.9362 -2.1691 -0.2707
 1931SOL     OW17425   3.749   1.784   8.388  0.4239  0.7010  0.0352
 1931SOL    HW117426   3.727   1.801   8.480  2.6520  0.4789  0.6056
 1931SOL    HW217427   3.741   1.688   8.390 -1.0857  0.8324  0.8264
 1932SOL     OW17428   3.943   2.874  17.634 -0.2840  0.2565  0.3606
 1932SOL    HW117429   3.949   2.827  17.551  2.0483  0.5176  0.3918
 1932SOL    HW217430   4.027   2.846  17.671 -0.0322 -0.8633 -1.0642
 1933SOL     OW17431   2.645   0.051   5.825  0.5564  0.6508  0.3076
 1933SOL    HW117432   2.590   0.128   5.840 -1.0888 -0.8818  2.2582
 1933SOL    HW217433   2.725   0.087   5.788  0.1098  2.0461  0.6935
 1934SOL     OW17434   1.286   0.838   2.142  0.2031  0.3966 -0.8217
 1934SOL    HW117435   1.246   0.876   2.063 -0.4152 -1.1380 -1.2459
 1934SOL    HW217436   1.209   0.828   2.198  0.3055  1.2751 -0.5168
 1935SOL     OW17437   2.158   0.956  16.259  0.0361 -0.6692 -0.1863
 1935SOL    HW117438   2.143   1.008  16.338 -0.4565  0.6264 -1.1249
 1935SOL    HW217439   2.253   0.947  16.255  0.0848 -0.1743 -0.1478
 1936SOL     OW17440   2.302   3.612   1.608 -0.1819 -0.0272  0.1977
 1936SOL    HW117441   2.379   3.587   1.659  0.1450  1.8523  0.6280
 1936SOL    HW217442   2.334   3.591   1.521  0.5551  3.0546 -0.2594
 1937SOL     OW17443   3.647   2.198   5.832 -0.2188  0.4127  0.6546
 1937SOL    HW117444   3.597   2.123   5.865 -0.4548  1.9228  3.6696
 1937SOL    HW217445   3.589   2.272   5.844 -1.1194 -0.3607  1.0623
 1938SOL     OW17446   0.791   1.386  16.731  0.0538  0.0746  0.1339
 1938SOL    HW117447   0.794   1.420  16.642  1.0525  0.0128  0.1429
 1938SOL    HW217448   0.785   1.468  16.781 -1.1203 -1.7714  2.9840
 1939SOL     OW17449   2.203   2.997   4.947 -0.0532 -0.2023  0.1589
 1939SOL    HW117450   2.155   2.962   5.022 -1.0415  2.5940  0.8323
 1939SOL    HW217451   2.231   3.087   4.961 -0.3402 -0.2766  1.2448
 1940SOL     OW17452   3.806   0.942   1.812  0.4405 -0.7032 -0.4414
 1940SOL    HW117453   3.900   0.952   1.830  0.4339 -1.5002  0.0518
 1940SOL    HW217454   3.793   0.849   1.791  2.3213 -1.0457 -0.1373
 1941SOL     OW17455   1.929   2.170   7.773  0.2270 -0.0448  0.0520
 1941SOL    HW117456   1.873   2.126   7.836 -0.1651  0.4646  0.0628
 1941SOL    HW217457   1.872   2.239   7.739  0.4756  0.5328  0.8035
 1942SOL     OW17458   1.007   2.875   1.884  0.0088 -0.0990  0.4740
 1942SOL    HW117459   0.956   2.885   1.965 -1.1512  0.6649 -0.3534
 1942SOL    HW217460   1.059   2.802   1.917 -2.0972 -0.2748  3.4671
 1943SOL     OW17461   3.445   3.903  10.942 -0.4029  0.7949  0.5676
 1943SOL    HW117462   3.408   3.990  10.957 -1.9250  0.0583  1.0916
 1943SOL    HW217463   3.521   3.925  10.889 -0.9230 -0.0407 -0.5470
 1944SOL     OW17464   0.131   4.425   6.296 -0.2059  0.5724  0.0530
 1944SOL    HW117465   0.207   4.396   6.246  0.3127  3.7612 -1.0094
 1944SOL    HW217466   0.175   4.483   6.358 -0.9809 -2.3185  3.2828
 1945SOL     OW17467   1.268   0.939  16.624 -0.6170 -0.4559  0.2314
 1945SOL    HW117468   1.179   0.947  16.589 -0.8591  1.2264  1.1878
 1945SOL    HW217469   1.289   0.846  16.621 -1.5702 -0.6470 -0.6009
 1946SOL     OW17470   4.278   0.605   7.409 -0.4413 -0.0423  0.1190
 1946SOL    HW117471   4.297   0.685   7.362 -1.5005  0.9388  1.3613
 1946SOL    HW217472   4.203   0.614   7.467 -0.2845  0.2977  0.2710
 1947SOL     OW17473   1.037   1.020   7.226  0.2025 -0.0394  0.2256
 1947SOL    HW117474   1.003   0.942   7.270 -0.7013  0.0689 -0.2980
 1947SOL    HW217475   1.012   0.985   7.141 -3.0552  0.0512  1.1512
 1948SOL     OW17476   0.576   3.136   6.024 -0.0807 -0.2541  0.5197
 1948SOL    HW117477   0.562   3.169   5.936 -1.5486 -1.6633  0.2266
 1948SOL    HW217478   0.559   3.216   6.074  1.5110  1.1526 -1.2101
 1949SOL     OW17479   2.141   4.073   3.456 -0.4099  0.3399  0.3499
 1949SOL    HW117480   2.088   4.047   3.531 -1.2959  3.7827  0.9481
 1949SOL    HW217481   2.075   4.078   3.387 -0.6570  3.4194  0.7934
 1950SOL     OW17482   0.673   0.735   4.660 -0.1627  0.0073  0.4909
 1950SOL    HW117483   0.721   0.779   4.730  1.3968 -1.5439  0.3769
 1950SOL    HW217484   0.583   0.744   4.693 -0.6350  1.8599 -1.2813
 1951SOL     OW17485   1.819   0.589   1.071 -0.1506  0.3520  0.4735
 1951SOL    HW117486   1.771   0.587   1.154  0.0763  0.4569  0.6067
 1951SOL    HW217487   1.913   0.599   1.089 -0.5952  1.8909  1.9101
 1952SOL     OW17488   4.448   0.037   7.713  0.2103 -0.0971  0.2313
 1952SOL    HW117489   4.406   4.687   7.715 -1.9818  0.9774  0.4233
 1952SOL    HW217490   4.395   0.074   7.642 -0.4489 -1.5644 -0.0381
 1953SOL     OW17491   2.319   1.425  13.814 -0.2333  0.1819 -0.6335
 1953SOL    HW117492   2.274   1.452  13.734  1.1845  1.2958 -1.0661
 1953SOL    HW217493   2.261   1.362  13.857  1.1450 -0.2225  0.6472
 1954SOL     OW17494   3.586   0.058   8.720 -0.4171 -0.7044 -0.3471
 1954SOL    HW117495   3.610   0.045   8.812 -0.4359  0.7060 -0.1456
 1954SOL    HW217496   3.548   4.709   8.697  0.9920 -2.1353  2.5956
 1955SOL     OW17497   3.951   4.304   4.030 -0.4666  0.1809 -0.2035
 1955SOL    HW117498   3.984   4.223   3.992 -1.3682 -0.0747 -0.4269
 1955SOL    HW217499   4.027   4.350   4.067 -0.9418  0.3777  0.5297
 1956SOL     OW17500   1.408   4.530   4.031  0.7356  0.2610  0.1753
 1956SOL    HW117501   1.425   4.483   4.112 -0.0498 -1.9364 -0.9438
 1956SOL    HW217502   1.386   4.463   3.966 -2.1315 -0.1028  1.5444
 1957SOL     OW17503   4.314   3.429   0.254  0.0385  0.2940 -0.1909
 1957SOL    HW117504   4.277   3.375   0.325  1.5976  1.7444  1.7022
 1957SOL    HW217505   4.288   3.374   0.180 -1.3815 -0.5975  0.9559
 1958SOL     OW17506   3.927   4.046   7.499  0.7337 -0.4553  0.4303
 1958SOL    HW117507   3.984   4.074   7.571 -0.4505 -2.3086  2.0907
 1958SOL    HW217508   3.892   3.967   7.539  0.6001 -0.8817 -0.5444
 1959SOL     OW17509   2.811   0.298   8.285  0.5300  0.1317 -0.1845
 1959SOL    HW117510   2.889   0.267   8.330  0.1323  0.3932  0.6927
 1959SOL    HW217511   2.822   0.393   8.287 -2.5811  0.5230 -1.0804
 1960SOL     OW17512   1.270   2.800   2.668  0.1490 -0.2147 -0.2942
 1960SOL    HW117513   1.340   2.828   2.609 -0.2325  0.7177 -0.3067
 1960SOL    HW217514   1.197   2.788   2.608  1.2746  1.1492 -1.9275
 1961SOL     OW17515   1.570   3.521   5.233 -0.0625  0.2231 -0.0175
 1961SOL    HW117516   1.544   3.444   5.183  1.9990 -0.3973 -0.1261
 1961SOL    HW217517   1.620   3.560   5.162 -1.7457 -0.3663 -1.5076
 1962SOL     OW17518   0.373   2.919   0.811  0.5408 -0.0725 -0.5864
 1962SOL    HW117519   0.319   2.996   0.792  1.6095  0.8078 -0.0979
 1962SOL    HW217520   0.370   2.927   0.906 -0.2118 -0.0174 -0.6122
 1963SOL     OW17521   1.676   3.368  15.936 -0.3281  0.0984  0.1067
 1963SOL    HW117522   1.623   3.379  15.858 -0.2277 -1.3666 -0.1611
 1963SOL    HW217523   1.766   3.370  15.904 -0.6482  2.2178 -0.6645
 1964SOL     OW17524   3.259   3.272   9.960  0.1290 -0.5659 -0.0181
 1964SOL    HW117525   3.234   3.260  10.052 -0.0540 -0.4056 -0.0466
 1964SOL    HW217526   3.173   3.305   9.932  1.3260  3.0598  0.6178
 1965SOL     OW17527   1.826   2.817   6.953  0.4160 -0.5278 -0.1508
 1965SOL    HW117528   1.864   2.856   7.032  0.7700  1.5150 -1.3466
 1965SOL    HW217529   1.845   2.724   6.969 -0.8998 -0.6227  0.9054
 1966SOL     OW17530   3.645   1.596   7.750 -0.2944 -0.1228  0.6263
 1966SOL    HW117531   3.706   1.584   7.677 -2.5960 -3.5752 -0.6843
 1966SOL    HW217532   3.703   1.584   7.825  3.4917  0.7344 -2.1488
 1967SOL     OW17533   0.750   1.171   2.919 -0.0897  0.5273  0.9798
 1967SOL    HW117534   0.818   1.119   2.961 -0.0922 -0.2302  0.0608
 1967SOL    HW217535   0.668   1.141   2.958  0.1257  0.7229  1.5779
 1968SOL     OW17536   1.806   0.243   7.572 -0.6816 -0.2988  0.0134
 1968SOL    HW117537   1.768   0.246   7.660  0.5170 -1.6457  0.5812
 1968SOL    HW217538   1.817   0.149   7.555  1.0605 -0.4298  1.7948
 1969SOL     OW17539   1.584   3.753   8.530 -0.1425  0.1922 -0.1062
 1969SOL    HW117540   1.526   3.678   8.542  0.4367  0.0584  1.8040
 1969SOL    HW217541   1.520   3.824   8.534  0.9827  1.2464 -0.4150
 1970SOL     OW17542   4.531   1.146   8.279  0.2258  0.4130  0.3024
 1970SOL    HW117543   4.600   1.203   8.314  0.6696  0.4253 -0.5950
 1970SOL    HW217544   4.466   1.206   8.313 -2.1529 -0.5390 -2.6440
 1971SOL     OW17545   1.406   1.104   8.640  0.2614  0.3493  0.1571
 1971SOL    HW117546   1.371   1.033   8.694 -1.2686  0.9992  0.0314
 1971SOL    HW217547   1.325   1.150   8.617 -0.0041 -0.1819  0.0264
 1972SOL     OW17548   4.691   1.545   6.561 -0.9106  0.0487 -0.2043
 1972SOL    HW117549   0.016   1.582   6.625 -0.5399 -1.4816  0.3046
 1972SOL    HW217550   4.612   1.594   6.586  0.9206  2.0370  1.7181
 1973SOL     OW17551   2.116   0.846   8.368  0.0239  0.1896 -0.0802
 1973SOL    HW117552   2.169   0.885   8.438  0.7653  0.9990 -1.0891
 1973SOL    HW217553   2.166   0.764   8.360 -2.1887 -1.0189 -1.5366
 1974SOL     OW17554   4.673   3.314  17.623 -0.1622 -0.4361  0.6046
 1974SOL    HW117555   4.669   3.397  17.669 -0.4353 -0.7266  1.1075
 1974SOL    HW217556   4.584   3.305  17.587  0.1913 -0.2820 -0.2883
 1975SOL     OW17557   3.429   4.349   7.540 -0.0913  0.2545 -0.1715
 1975SOL    HW117558   3.463   4.273   7.587  2.3968  2.1813  1.1336
 1975SOL    HW217559   3.498   4.412   7.560  2.0989 -2.5526  1.0130
 1976SOL     OW17560   2.891   4.662   7.624 -0.7458  0.6469  0.2161
 1976SOL    HW117561   2.935   4.727   7.569 -0.2667  0.7508  0.7241
 1976SOL    HW217562   2.948   4.652   7.700 -0.2442  0.4715 -0.1831
 1977SOL     OW17563   4.266   3.677   0.430 -0.0552  0.3228  0.2090
 1977SOL    HW117564   4.258   3.597   0.378 -1.7630 -1.0514  2.5827
 1977SOL    HW217565   4.260   3.744   0.363 -0.3828  0.7177  0.6348
 1978SOL     OW17566   2.370   2.113   6.473 -0.0240  0.1326  0.0290
 1978SOL    HW117567   2.278   2.115   6.500 -0.0016 -2.1544  0.3068
 1978SOL    HW217568   2.380   2.084   6.383 -1.9928  0.1242 -0.1751
 1979SOL     OW17569   0.292   1.443   0.988  0.3536  0.0886 -0.1691
 1979SOL    HW117570   0.311   1.352   1.009 -0.9310  0.3021  1.9247
 1979SOL    HW217571   0.215   1.429   0.932  0.9429  2.9242 -1.6604
 1980SOL     OW17572   2.439   0.148   7.193 -0.3249 -0.2070  0.1514
 1980SOL    HW117573   2.478   0.087   7.130  0.7042 -0.1432  0.7196
 1980SOL    HW217574   2.453   0.225   7.138 -0.4084  0.7761  1.5070
 1981SOL     OW17575   4.340   2.526   6.624 -0.1116  1.0158  0.1579
 1981SOL    HW117576   4.358   2.475   6.545 -1.0359  0.4571  0.3017
 1981SOL    HW217577   4.421   2.576   6.618  0.5029  0.2385  1.8516
 1982SOL     OW17578   0.148   1.962   3.280 -0.3829  0.1890 -0.6086
 1982SOL    HW117579   0.226   1.908   3.277 -1.5391 -1.5392  0.7396
 1982SOL    HW217580   0.190   2.049   3.286  1.4795 -0.6503 -1.6417
 1983SOL     OW17581   1.567   2.467  10.819 -0.2463  0.1566 -0.1140
 1983SOL    HW117582   1.588   2.505  10.733  1.5637 -2.6734 -0.9294
 1983SOL    HW217583   1.607   2.536  10.870  2.8031 -0.9352 -1.0442
 1984SOL     OW17584   3.427   3.177  17.127 -0.2188  0.1769 -0.2866
 1984SOL    HW117585   3.424   3.271  17.140  0.1480  0.3888 -1.7750
 1984SOL    HW217586   3.426   3.150  17.219 -0.4445 -2.8054 -1.1480
 1985SOL     OW17587   0.598   1.703  11.929 -0.0089 -0.1960  0.4788
 1985SOL    HW117588   0.622   1.680  12.019 -1.6832  0.2456  1.0239
 1985SOL    HW217589   0.673   1.761  11.916 -1.0153  1.3218  1.4710
 1986SOL     OW17590   2.840   2.599   6.399  0.4148  0.0948 -0.0511
 1986SOL    HW117591   2.790   2.521   6.422  3.6843 -2.7289 -2.4992
 1986SOL    HW217592   2.773   2.649   6.352 -1.6836 -2.8376 -0.1288
 1987SOL     OW17593   2.805   4.201   2.503 -0.5380  0.4553  0.1650
 1987SOL    HW117594   2.770   4.222   2.589 -2.6031 -0.6376 -0.3989
 1987SOL    HW217595   2.879   4.153   2.540 -0.4569  0.2775 -0.2223
 1988SOL     OW17596   3.541   4.000   7.233 -0.2269  0.1585 -0.7683
 1988SOL    HW117597   3.466   3.966   7.185 -0.3515  0.4926 -0.8087
 1988SOL    HW217598   3.543   4.086   7.192  0.1034  0.6704  0.3084
 1989SOL     OW17599   4.341   4.171  12.119 -0.1952 -0.1154 -0.5917
 1989SOL    HW117600   4.302   4.120  12.048  0.5558 -0.4075 -0.7916
 1989SOL    HW217601   4.407   4.230  12.084  0.6249 -0.5991  0.1586
 1990SOL     OW17602   1.251   0.902  17.475  0.3054 -0.0653 -0.4521
 1990SOL    HW117603   1.317   0.938  17.415  0.4693  1.7612  0.8570
 1990SOL    HW217604   1.311   0.906  17.549  0.4243 -2.5946 -0.3917
 1991SOL     OW17605   1.005   4.163   9.184  0.1087 -0.6338 -0.2204
 1991SOL    HW117606   1.048   4.195   9.264 -0.9933 -1.9173  0.8972
 1991SOL    HW217607   1.063   4.190   9.114  0.5874 -1.2008 -0.0455
 1992SOL     OW17608   0.084   4.002  14.711 -0.2155 -0.1676  0.1910
 1992SOL    HW117609   0.078   4.060  14.635 -0.9833 -0.8736 -0.2883
 1992SOL    HW217610   0.145   3.939  14.672 -1.8471  0.3765 -3.2008
 1993SOL     OW17611   4.110   4.693   2.715 -0.3279  0.3673 -0.0985
 1993SOL    HW117612   4.161   0.003   2.781 -1.5929 -1.3113  2.0814
 1993SOL    HW217613   4.176   4.651   2.660 -0.6776  0.6690 -0.7468
 1994SOL     OW17614   3.749   0.792  11.065 -0.2407 -0.0251 -0.3921
 1994SOL    HW117615   3.786   0.708  11.093  0.5939  1.1289  1.9983
 1994SOL    HW217616   3.815   0.853  11.096 -1.0878  0.3387  0.6975
 1995SOL     OW17617   3.561   1.629   4.281 -0.1530  0.4171  0.5611
 1995SOL    HW117618   3.616   1.703   4.306  0.3020 -0.3141  1.7529
 1995SOL    HW217619   3.509   1.672   4.214  0.9544  0.8434 -0.0375
 1996SOL     OW17620   1.713   0.568  15.166 -0.4527 -0.2311 -0.1896
 1996SOL    HW117621   1.745   0.651  15.131  1.5574 -0.3644  1.3214
 1996SOL    HW217622   1.780   0.558  15.233 -0.9072  0.2464  0.3359
 1997SOL     OW17623   1.088   4.107   6.775  0.3000  0.0233  0.1586
 1997SOL    HW117624   1.031   4.077   6.846 -0.7750 -0.7011 -1.0191
 1997SOL    HW217625   1.043   4.187   6.745  1.9452  0.9090  0.0351
 1998SOL     OW17626   1.251   3.298   4.123 -0.2979 -0.1201 -0.5935
 1998SOL    HW117627   1.334   3.320   4.164 -1.0986  1.8008 -0.0227
 1998SOL    HW217628   1.229   3.383   4.086 -0.0198 -0.1001 -0.7120
 1999SOL     OW17629   2.597   1.589   8.771 -0.2735  0.0803 -0.4126
 1999SOL    HW117630   2.528   1.653   8.751 -0.0855  0.3960 -0.0478
 1999SOL    HW217631   2.657   1.653   8.809  0.1240 -0.2201 -0.5391
 2000SOL     OW17632   2.180   2.824   9.427  0.0198 -0.5393  0.0192
 2000SOL    HW117633   2.175   2.802   9.334  0.2704  0.6617 -0.2782
 2000SOL    HW217634   2.087   2.822   9.450  0.3997  1.0123  1.6476
 2001SOL     OW17635   3.993   4.545  10.022 -0.3905  0.5432  0.2001
 2001SOL    HW117636   4.039   4.478  10.072  2.5666 -0.1612 -3.4745
 2001SOL    HW217637   4.044   4.624  10.038 -1.1957  1.2357 -0.6659
 2002SOL     OW17638   4.552   3.480   7.854  0.8475 -0.6642 -0.3941
 2002SOL    HW117639   4.531   3.407   7.912 -0.1019 -0.9666 -1.1300
 2002SOL    HW217640   4.615   3.430   7.802  1.8146  0.8445 -0.7097
 2003SOL     OW17641   4.149   3.732   5.825 -0.2896  0.4188  0.2009
 2003SOL    HW117642   4.237   3.722   5.788 -0.9548  0.7594 -1.4722
 2003SOL    HW217643   4.102   3.733   5.742  1.0545 -0.1322 -0.5716
 2004SOL     OW17644   4.114   3.181   2.739 -0.6020  0.3960  0.4857
 2004SOL    HW117645   4.198   3.172   2.694  0.0414  0.2173  1.7259
 2004SOL    HW217646   4.132   3.160   2.830  0.6472 -0.1733  0.0996
 2005SOL     OW17647   3.167   2.806  10.779  0.9307 -0.2306 -0.3321
 2005SOL    HW117648   3.234   2.874  10.769 -0.3639  0.8398 -1.7227
 2005SOL    HW217649   3.200   2.735  10.833 -0.3169  1.3509  2.5276
 2006SOL     OW17650   0.385   1.659   5.518  0.8774 -0.1407 -0.4868
 2006SOL    HW117651   0.384   1.619   5.605 -0.9554  2.0731  0.4860
 2006SOL    HW217652   0.347   1.584   5.472  0.1959 -0.4018  0.5165
 2007SOL     OW17653   0.886   0.868   7.408  0.2535  0.7618 -0.0922
 2007SOL    HW117654   0.845   0.834   7.488  0.3174  0.8958 -0.0024
 2007SOL    HW217655   0.852   0.801   7.349  0.6319  0.0633  0.4785
 2008SOL     OW17656   0.717   4.016  16.955 -0.5895  0.1784  0.2062
 2008SOL    HW117657   0.697   3.997  16.864  1.6595  1.4755 -0.5652
 2008SOL    HW217658   0.685   4.106  16.959 -0.5492  0.1500  1.1114
 2009SOL     OW17659   4.449   4.413  10.235  0.3057  0.4380 -0.2415
 2009SOL    HW117660   4.475   4.504  10.223  1.9983 -0.0965 -0.6921
 2009SOL    HW217661   4.512   4.381  10.300 -0.7734  0.3934  0.7789
 2010SOL     OW17662   0.109   1.859   1.535  0.3111 -0.0310  0.5679
 2010SOL    HW117663   0.122   1.773   1.576 -1.1749 -0.8371 -0.6049
 2010SOL    HW217664   0.102   1.838   1.441  0.4768 -0.7180  0.7078
 2011SOL     OW17665   4.004   0.367   7.424  0.0380 -0.2006 -0.3539
 2011SOL    HW117666   3.945   0.388   7.496  1.2776 -0.2181  0.6695
 2011SOL    HW217667   3.940   0.322   7.369  0.7371  0.2528 -1.5245
 2012SOL     OW17668   4.731   0.716   1.190 -0.3503 -0.5955 -0.2456
 2012SOL    HW117669   4.644   0.679   1.201 -0.0245 -0.6120  2.1597
 2012SOL    HW217670   0.028   0.697   1.277  1.2212 -0.4649 -0.8158
 2013SOL     OW17671   4.429   3.685  11.994 -0.1428 -0.6207  0.1856
 2013SOL    HW117672   4.344   3.709  12.031  0.0593  0.8218 -0.2779
 2013SOL    HW217673   4.461   3.754  11.936 -0.9322  0.1479  0.6732
 2014SOL     OW17674   2.500   2.151   3.824 -0.5313  0.4409  0.8982
 2014SOL    HW117675   2.438   2.078   3.826 -0.1745  0.1074 -0.5018
 2014SOL    HW217676   2.455   2.206   3.888  1.8787 -0.0111  2.9826
 2015SOL     OW17677   2.664   2.087   2.614 -0.2558  0.0495  0.3628
 2015SOL    HW117678   2.694   2.006   2.657  1.2107 -0.6740 -2.0570
 2015SOL    HW217679   2.608   2.056   2.543 -0.4766 -1.1046  1.0344
 2016SOL     OW17680   2.270   3.566   4.985  0.5235  0.2991  0.3102
 2016SOL    HW117681   2.241   3.579   5.076 -2.1430 -0.1706 -0.4822
 2016SOL    HW217682   2.261   3.656   4.954  2.1342  0.8479  1.4133
 2017SOL     OW17683   0.448   1.016  12.860 -0.2137 -0.0845  0.3076
 2017SOL    HW117684   0.514   1.076  12.895 -0.1772 -0.5622  1.0622
 2017SOL    HW217685   0.413   0.975  12.939  0.7390  1.0915  1.3254
 2018SOL     OW17686   2.888   3.496   7.736 -0.1931 -0.4003 -0.0475
 2018SOL    HW117687   2.880   3.489   7.641  0.8146  0.9050 -0.2358
 2018SOL    HW217688   2.893   3.402   7.752 -1.1776 -0.5217 -0.4627
 2019SOL     OW17689   0.482   4.552   5.318  0.2352  0.5768  0.4936
 2019SOL    HW117690   0.511   4.600   5.240  0.9825 -1.1353 -0.2881
 2019SOL    HW217691   0.420   4.487   5.283  0.8699  0.6567 -0.8038
 2020SOL     OW17692   1.657   3.951   7.210  0.0647 -0.4764 -0.2185
 2020SOL    HW117693   1.723   3.884   7.194  1.0967  0.2661  0.9278
 2020SOL    HW217694   1.581   3.898   7.186  0.9112 -0.4536 -2.8608
 2021SOL     OW17695   1.370   2.577   7.617  0.2018 -0.3046 -0.4965
 2021SOL    HW117696   1.381   2.532   7.701  0.4281  0.0814 -0.3217
 2021SOL    HW217697   1.346   2.665   7.649 -0.1513 -0.4531 -0.3431
 2022SOL     OW17698   2.505   1.330   8.519  0.0249 -0.0504  0.6006
 2022SOL    HW117699   2.498   1.426   8.521  0.8379 -0.0176  2.1104
 2022SOL    HW217700   2.433   1.301   8.575 -0.5370  0.4844  0.1561
 2023SOL     OW17701   0.515   2.060   5.368  0.0765  0.0680 -0.3034
 2023SOL    HW117702   0.435   2.112   5.369 -0.4630 -0.7809  2.5313
 2023SOL    HW217703   0.500   1.996   5.298  0.4670 -2.1040  1.5709
 2024SOL     OW17704   2.178   4.325   1.096  0.0538 -0.8619 -0.8647
 2024SOL    HW117705   2.159   4.248   1.042 -2.8569  0.2631 -1.4465
 2024SOL    HW217706   2.267   4.304   1.124 -0.3027  0.1641  1.0322
 2025SOL     OW17707   2.258   0.492   7.806  0.0854 -0.2226  0.0225
 2025SOL    HW117708   2.214   0.416   7.767 -0.8016 -0.6405  1.8357
 2025SOL    HW217709   2.349   0.462   7.811 -0.1934 -0.5511  2.9565
 2026SOL     OW17710   0.217   0.372   6.586  0.0747  0.2897  0.0392
 2026SOL    HW117711   0.299   0.335   6.618 -0.0794 -1.4040 -1.5352
 2026SOL    HW217712   0.149   0.330   6.639  1.4783 -0.7163  1.0233
 2027SOL     OW17713   0.427   1.630   7.927 -0.6295  0.0370 -0.3552
 2027SOL    HW117714   0.413   1.720   7.955 -2.9111 -0.4627  0.1385
 2027SOL    HW217715   0.444   1.645   7.834  1.8571 -0.3603  0.0440
 2028SOL     OW17716   3.622   0.658  12.176  1.1362  0.3086  0.2724
 2028SOL    HW117717   3.654   0.709  12.101  2.6355 -0.2266  0.5518
 2028SOL    HW217718   3.527   0.665  12.171  1.0472  0.2058  2.0390
 2029SOL     OW17719   2.530   4.623   3.520  0.2744 -0.3472  0.0146
 2029SOL    HW117720   2.612   4.670   3.536 -0.6797  1.3387  0.0616
 2029SOL    HW217721   2.511   4.646   3.429 -0.4065 -0.6803  0.0712
 2030SOL     OW17722   2.768   2.867   1.231  0.5918  0.2757 -0.1548
 2030SOL    HW117723   2.678   2.899   1.233  0.4450  0.0030 -1.7399
 2030SOL    HW217724   2.823   2.924   1.284  1.7511 -0.4913 -0.5378
 2031SOL     OW17725   0.951   2.384   4.066 -0.2466  0.3748  0.0598
 2031SOL    HW117726   0.908   2.312   4.112  0.8871  0.1477  0.7689
 2031SOL    HW217727   0.958   2.455   4.129 -0.2817 -0.0711  0.5604
 2032SOL     OW17728   2.424   3.937   3.091  0.6336 -0.0842  0.7518
 2032SOL    HW117729   2.385   3.898   3.170 -1.0357  1.1487  0.5327
 2032SOL    HW217730   2.471   4.009   3.134 -1.3525  1.4212  0.3975
 2033SOL     OW17731   2.746   1.146   4.453 -0.0586 -0.0772 -0.3076
 2033SOL    HW117732   2.835   1.170   4.478 -0.4657 -0.7100  1.7401
 2033SOL    HW217733   2.735   1.057   4.486 -1.8390  0.1024 -0.4125
 2034SOL     OW17734   2.508   3.601   7.105  0.4465 -0.1435 -0.2969
 2034SOL    HW117735   2.519   3.576   7.197  1.3025 -1.8402 -0.8527
 2034SOL    HW217736   2.422   3.642   7.109  0.4346 -0.1375 -0.6214
 2035SOL     OW17737   1.831   0.235   5.829 -0.3165 -0.2152  0.5337
 2035SOL    HW117738   1.847   0.302   5.762  0.5561 -1.5494 -0.5955
 2035SOL    HW217739   1.852   0.286   5.907 -0.7816  1.7478 -0.6071
 2036SOL     OW17740   1.717   0.826   0.335 -0.2823 -0.0937 -0.1025
 2036SOL    HW117741   1.695   0.739   0.368 -0.2996  0.2161  0.7138
 2036SOL    HW217742   1.692   0.831   0.243  0.3943  0.0828 -0.2777
 2037SOL     OW17743   4.446   1.049   7.771 -0.1482 -0.1375 -0.0056
 2037SOL    HW117744   4.446   1.056   7.676 -1.9835  1.7663  0.1308
 2037SOL    HW217745   4.526   1.098   7.789 -1.2300  1.0934  1.4436
 2038SOL     OW17746   1.601   0.966   7.983  0.1200  0.4560 -0.0170
 2038SOL    HW117747   1.573   0.896   8.042  3.5908  0.8032  2.0996
 2038SOL    HW217748   1.658   0.913   7.927 -0.6242 -0.7562  0.3695
 2039SOL     OW17749   2.795   2.364   5.836  0.0599 -0.0469  0.2845
 2039SOL    HW117750   2.815   2.414   5.757 -0.4573 -0.9294 -0.4056
 2039SOL    HW217751   2.776   2.430   5.903 -1.0849  1.5747 -1.6292
 2040SOL     OW17752   3.224   2.510   6.020  0.4017  0.4014  0.1668
 2040SOL    HW117753   3.269   2.425   6.014 -1.8520 -0.6714 -1.3568
 2040SOL    HW217754   3.194   2.507   6.111 -2.4224  2.6020 -0.7231
 2041SOL     OW17755   3.400   3.580   0.879 -0.5671 -0.0701  0.2141
 2041SOL    HW117756   3.484   3.540   0.901 -1.1426 -1.3920  0.0540
 2041SOL    HW217757   3.395   3.560   0.785  1.2046  0.0124  0.0998
 2042SOL     OW17758   3.684   2.419   8.689  0.1364 -0.2039  0.4007
 2042SOL    HW117759   3.651   2.472   8.617  0.0094 -1.9054 -0.7843
 2042SOL    HW217760   3.776   2.444   8.675  0.5948 -1.3165  1.4484
 2043SOL     OW17761   3.163   3.092   5.305  0.3945  0.0324  0.1782
 2043SOL    HW117762   3.245   3.111   5.352  0.7096 -1.0336  0.0632
 2043SOL    HW217763   3.105   3.164   5.330 -0.7760 -0.5911 -0.7252
 2044SOL     OW17764   0.774   4.724   9.034  0.1772 -0.4098  0.7182
 2044SOL    HW117765   0.732   0.043   9.100  0.2048 -1.0082  1.2445
 2044SOL    HW217766   0.695   4.679   9.003 -0.0824  0.4194  0.1932
 2045SOL     OW17767   4.343   4.511  16.397  0.4067  0.2560 -0.2289
 2045SOL    HW117768   4.417   4.557  16.357  1.0878 -0.6341  0.0088
 2045SOL    HW217769   4.273   4.576  16.404  1.6930  1.4476  1.7348
 2046SOL     OW17770   1.406   2.936   0.117  0.4642 -0.4144  0.2343
 2046SOL    HW117771   1.447   2.860   0.158 -1.0758 -0.3003  2.0077
 2046SOL    HW217772   1.314   2.911   0.115 -0.1516  1.7332  2.2870
 2047SOL     OW17773   1.938   1.581   9.490  0.5201  0.8107  0.2606
 2047SOL    HW117774   1.888   1.622   9.420  2.1131  1.4171 -0.5291
 2047SOL    HW217775   1.955   1.492   9.459 -4.4570  0.0850 -0.2803
 2048SOL     OW17776   4.485   3.492  15.215  0.7114  0.0373 -0.2198
 2048SOL    HW117777   4.561   3.438  15.191  0.5228 -0.8057  1.0981
 2048SOL    HW217778   4.517   3.580  15.232  1.3614 -0.4131  0.8741
 2049SOL     OW17779   2.697   3.042   9.640 -0.2623  0.0868  0.5185
 2049SOL    HW117780   2.778   2.994   9.661 -0.3851 -0.7004 -0.8039
 2049SOL    HW217781   2.661   3.058   9.727  0.1790 -1.3380  0.9668
 2050SOL     OW17782   0.600   2.396   2.929  0.5490  0.1233 -0.5843
 2050SOL    HW117783   0.529   2.376   2.868 -0.6405  1.4979  0.3454
 2050SOL    HW217784   0.609   2.307   2.963  2.5135  1.2038  1.6972
 2051SOL     OW17785   1.049   3.410   1.833 -0.2008  0.8459  0.4563
 2051SOL    HW117786   1.109   3.367   1.773 -1.9726 -1.4221  0.2998
 2051SOL    HW217787   1.074   3.499   1.811 -1.0723  0.5916 -1.5428
 2052SOL     OW17788   0.089   4.136   5.757  0.0668 -0.7042 -0.0417
 2052SOL    HW117789   0.073   4.109   5.847 -1.0305  2.1107  0.6267
 2052SOL    HW217790   0.156   4.204   5.770 -0.3789  0.0244 -1.6274
 2053SOL     OW17791   0.000   3.044  17.731  0.3359 -0.1848 -0.0876
 2053SOL    HW117792   0.042   3.121   0.028  1.0322 -0.6065  0.0074
 2053SOL    HW217793   0.076   2.985  17.728  1.2845  1.1456 -2.3498
 2054SOL     OW17794   1.684   3.779   4.072  0.8112 -0.2522  0.3473
 2054SOL    HW117795   1.682   3.820   4.158  1.7292  0.1724  0.1627
 2054SOL    HW217796   1.777   3.757   4.066  0.0317 -3.2603 -0.5830
 2055SOL     OW17797   4.474   3.619   0.187 -0.6202 -0.0456 -0.6598
 2055SOL    HW117798   4.420   3.697   0.171  1.0494  1.0902 -0.7980
 2055SOL    HW217799   4.402   3.559   0.205 -0.2285 -0.5955 -0.9254
 2056SOL     OW17800   1.132   1.251   5.069  0.6916  0.0510  0.1318
 2056SOL    HW117801   1.064   1.185   5.081  0.9866  0.2920  3.0747
 2056SOL    HW217802   1.080   1.330   5.051 -1.5590 -0.9018  2.4225
 2057SOL     OW17803   0.120   4.111   8.892  0.1217  0.7702 -0.5194
 2057SOL    HW117804   0.067   4.078   8.820  1.9481 -0.8445 -1.1329
 2057SOL    HW217805   0.168   4.034   8.922 -0.9959  0.5546  0.6904
 2058SOL     OW17806   3.392   4.470   1.003  0.3281 -0.1234  0.4590
 2058SOL    HW117807   3.464   4.473   1.066 -0.2461  3.2849  0.9377
 2058SOL    HW217808   3.449   4.438   0.933 -1.5740 -2.1325 -0.1872
 2059SOL     OW17809   1.852   1.376   0.519 -0.0382  0.0305 -0.0277
 2059SOL    HW117810   1.840   1.461   0.563 -0.8900 -0.1076  0.0105
 2059SOL    HW217811   1.907   1.321   0.575 -1.1293  0.0841  1.0832
 2060SOL     OW17812   0.741   4.074  13.663 -0.7467  0.0260 -0.1089
 2060SOL    HW117813   0.821   4.024  13.648  2.1941  4.1688  1.5262
 2060SOL    HW217814   0.778   4.163  13.667 -1.4680  0.2668  1.2278
 2061SOL     OW17815   4.491   2.939   6.827  0.0754 -0.5597 -0.0603
 2061SOL    HW117816   4.443   2.857   6.839 -0.7493  0.0507  0.8421
 2061SOL    HW217817   4.441   2.978   6.755 -1.4395  2.2370  2.5109
 2062SOL     OW17818   4.655   2.455  11.950  0.0858 -0.2048 -0.6016
 2062SOL    HW117819   4.636   2.549  11.955 -1.8852 -0.6402  0.1573
 2062SOL    HW217820   4.595   2.416  12.013 -1.2947 -0.9532 -2.3835
 2063SOL     OW17821   1.406   2.251   7.302 -0.4952  0.3263 -0.0099
 2063SOL    HW117822   1.318   2.287   7.311 -0.3896  1.2115 -2.4701
 2063SOL    HW217823   1.463   2.297   7.363 -1.6165  2.7744 -0.7949
 2064SOL     OW17824   1.428   2.626   2.374 -0.6559  0.2485 -0.2595
 2064SOL    HW117825   1.517   2.593   2.362 -0.4750  0.2490  1.1465
 2064SOL    HW217826   1.437   2.707   2.324 -0.2422 -0.3727 -1.1901
 2065SOL     OW17827   2.449   4.482   3.058  0.2915 -0.5849 -0.5273
 2065SOL    HW117828   2.457   4.539   2.982  0.5138  0.7267  0.4956
 2065SOL    HW217829   2.497   4.409   3.019  1.2185 -0.3300  0.1484
 2066SOL     OW17830   3.207   1.260   3.613 -0.0267  0.3026 -0.4207
 2066SOL    HW117831   3.133   1.206   3.641  1.1930 -1.3064 -0.2315
 2066SOL    HW217832   3.173   1.334   3.662  0.1701  0.0962  0.0335
 2067SOL     OW17833   0.732   0.486   3.578  0.0585 -0.0452  0.3577
 2067SOL    HW117834   0.644   0.451   3.563  0.0381  0.4692 -0.7410
 2067SOL    HW217835   0.726   0.567   3.528 -1.0397 -1.1816 -1.3384
 2068SOL     OW17836   3.380   0.228  17.446  0.5181  0.1692 -0.5439
 2068SOL    HW117837   3.367   0.166  17.519  4.4015  0.4932  0.4107
 2068SOL    HW217838   3.339   0.185  17.371 -0.1527 -1.9777  1.0470
 2069SOL     OW17839   1.595   0.685   5.559  0.2458  0.4333 -0.7711
 2069SOL    HW117840   1.557   0.773   5.566  0.3542  0.2837  1.8017
 2069SOL    HW217841   1.569   0.648   5.644  0.9341 -0.0790 -0.7896
 2070SOL     OW17842   0.347   2.407   5.479 -0.2276  0.0247  0.1957
 2070SOL    HW117843   0.304   2.490   5.500 -1.4022 -0.2145 -1.3310
 2070SOL    HW217844   0.428   2.406   5.530  0.3810 -1.7789 -0.8174
 2071SOL     OW17845   1.890   1.632  17.312 -0.0930 -0.1214  0.1063
 2071SOL    HW117846   1.801   1.613  17.282  1.1006 -2.1245 -2.2154
 2071SOL    HW217847   1.891   1.727  17.299 -0.6575  0.1896  2.3756
 2072SOL     OW17848   1.401   0.780   9.241 -0.4328  0.2419 -0.4883
 2072SOL    HW117849   1.319   0.782   9.290  0.7644 -2.6752  1.6032
 2072SOL    HW217850   1.399   0.687   9.220 -0.6975  0.4442 -1.3324
 2073SOL     OW17851   3.346   0.130   1.772 -0.0603 -0.2542 -0.2177
 2073SOL    HW117852   3.298   0.111   1.853 -0.7557  1.9273 -0.1185
 2073SOL    HW217853   3.378   0.218   1.790 -0.0910 -0.5207  1.2005
 2074SOL     OW17854   4.042   4.661   4.916  0.2209  0.1504  0.4170
 2074SOL    HW117855   4.005   4.735   4.868 -0.6508 -0.7712 -0.3296
 2074SOL    HW217856   3.968   4.656   4.976  1.7970 -1.8294  2.1597
 2075SOL     OW17857   2.708   4.293   4.606 -0.1033 -0.1064 -0.3066
 2075SOL    HW117858   2.711   4.250   4.692 -2.1929 -0.4619 -0.4147
 2075SOL    HW217859   2.637   4.355   4.625  0.2112  0.3104 -0.4832
 2076SOL     OW17860   2.983   2.229   2.978 -0.2034  0.0379  0.0892
 2076SOL    HW117861   3.022   2.178   2.906  1.2707  0.2206  0.7521
 2076SOL    HW217862   2.903   2.177   2.988 -0.7483  0.9781  0.5818
 2077SOL     OW17863   3.335   3.652   1.333 -0.3449 -0.0987 -0.0537
 2077SOL    HW117864   3.337   3.725   1.395  0.3445 -0.7846  0.7381
 2077SOL    HW217865   3.337   3.699   1.250 -0.2213 -0.1014 -0.0520
 2078SOL     OW17866   4.281   0.485   1.928  0.1790  0.1142  0.0241
 2078SOL    HW117867   4.253   0.403   1.967  1.3256  0.0029  0.6178
 2078SOL    HW217868   4.267   0.471   1.834 -1.0524 -0.5533  0.3100
 2079SOL     OW17869   3.163   2.828   6.697 -0.4529  0.0786 -0.6434
 2079SOL    HW117870   3.256   2.824   6.673 -0.6197  0.7229 -1.4151
 2079SOL    HW217871   3.164   2.848   6.790 -0.5161  1.8187 -1.0164
 2080SOL     OW17872   0.531   1.010  13.664  0.0871  0.2701  0.0739
 2080SOL    HW117873   0.620   1.042  13.650  0.3629 -0.4163  0.2848
 2080SOL    HW217874   0.502   1.063  13.738 -0.5838  1.6287 -1.1509
 2081SOL     OW17875   2.139   0.800   4.084 -0.1776 -0.3799  0.7893
 2081SOL    HW117876   2.177   0.864   4.025  0.5574 -1.3272  0.2338
 2081SOL    HW217877   2.156   0.719   4.036  2.2192 -1.2732  3.1353
 2082SOL     OW17878   0.806   1.938   2.374  0.0625 -0.4581  0.4792
 2082SOL    HW117879   0.869   1.878   2.334  0.6518 -0.2410  1.0647
 2082SOL    HW217880   0.764   1.893   2.448 -0.4295  0.0914  0.5297
 2083SOL     OW17881   2.348   0.597   3.804  0.2695  0.5686  0.1528
 2083SOL    HW117882   2.421   0.629   3.750 -0.2864 -0.3868 -1.1597
 2083SOL    HW217883   2.389   0.596   3.890 -1.4752 -0.2037  0.9792
 2084SOL     OW17884   3.835   2.118  16.006 -0.2066 -0.3964  0.1911
 2084SOL    HW117885   3.877   2.121  16.091 -0.5689  1.7045  0.3046
 2084SOL    HW217886   3.765   2.183  15.999  0.0028 -0.0570  1.3019
 2085SOL     OW17887   2.367   3.747   2.026  0.3569  0.3727  0.1414
 2085SOL    HW117888   2.348   3.691   1.951 -3.6725 -0.0635  1.4968
 2085SOL    HW217889   2.305   3.719   2.093 -0.8014 -3.0640 -2.3744
 2086SOL     OW17890   0.227   1.932   5.284  0.1158  0.3702  0.0166
 2086SOL    HW117891   0.164   1.916   5.355  1.4171 -1.6021  0.7190
 2086SOL    HW217892   0.236   2.026   5.300  0.7731  0.2875  0.1143
 2087SOL     OW17893   0.903   2.404   4.914  0.1832 -0.3112 -0.6490
 2087SOL    HW117894   0.833   2.435   4.972 -0.6521  0.2304 -1.9345
 2087SOL    HW217895   0.903   2.463   4.839  0.8701  0.2130 -0.2310
 2088SOL     OW17896   0.376   1.738   7.667  0.0140 -0.1801  0.8810
 2088SOL    HW117897   0.285   1.718   7.645  0.2779  0.1455 -0.5140
 2088SOL    HW217898   0.393   1.804   7.599  1.0766  0.6069  1.9222
 2089SOL     OW17899   1.541   4.078   1.849  0.3007 -0.4285  0.0619
 2089SOL    HW117900   1.447   4.080   1.863  0.0053  2.4481 -2.5454
 2089SOL    HW217901   1.568   4.161   1.888  2.5149 -0.6261 -1.0455
 2090SOL     OW17902   3.381   3.264   0.335 -0.0141  0.2125 -0.3813
 2090SOL    HW117903   3.324   3.304   0.270  0.1312 -0.3795 -0.8746
 2090SOL    HW217904   3.388   3.176   0.298 -0.5505 -0.0842  0.2154
 2091SOL     OW17905   3.652   2.267   5.067  0.3362  0.4897  0.3561
 2091SOL    HW117906   3.655   2.318   4.985  2.0531 -0.6111 -0.2704
 2091SOL    HW217907   3.582   2.208   5.039  0.2915  1.9949 -2.7126
 2092SOL     OW17908   3.127   3.951  12.994  0.1733 -0.7998  0.4439
 2092SOL    HW117909   3.048   3.978  12.947  0.4091 -0.0343  0.4885
 2092SOL    HW217910   3.186   3.995  12.933 -1.1445  1.8193  1.0442
 2093SOL     OW17911   1.461   3.803   8.847  0.3542  0.7690 -0.0689
 2093SOL    HW117912   1.390   3.863   8.873 -0.5438 -0.5622  0.5900
 2093SOL    HW217913   1.452   3.796   8.752 -0.1610  0.9152 -0.0308
 2094SOL     OW17914   2.046   1.956   8.737 -0.0344  0.4989  0.6559
 2094SOL    HW117915   2.141   1.944   8.740  0.1883  1.7063 -1.8537
 2094SOL    HW217916   2.034   2.016   8.810 -1.4171 -1.1182  1.7608
 2095SOL     OW17917   0.828   3.250   6.379  0.2325  0.1489 -0.2386
 2095SOL    HW117918   0.890   3.280   6.312  0.8982  1.1677  0.8338
 2095SOL    HW217919   0.755   3.232   6.320  1.3431  2.6691 -2.3540
 2096SOL     OW17920   0.204   2.963  16.742 -0.0645 -0.3179  0.2731
 2096SOL    HW117921   0.207   3.007  16.827  0.2193  1.7257 -0.8054
 2096SOL    HW217922   0.125   2.997  16.700 -0.9208 -1.4170  0.9962
 2097SOL     OW17923   4.616   3.077   1.214 -0.5556  0.0010 -0.0641
 2097SOL    HW117924   4.683   3.034   1.267  0.6513  2.5922  0.4706
 2097SOL    HW217925   4.668   3.117   1.145  2.8075 -1.4583  1.6447
 2098SOL     OW17926   3.255   2.387   1.403  0.0408  0.2195  0.7323
 2098SOL    HW117927   3.296   2.361   1.485 -1.0708 -1.3493  0.7871
 2098SOL    HW217928   3.241   2.305   1.357  0.8908  1.2161 -1.3435
 2099SOL     OW17929   1.259   3.596   5.445 -0.3367  0.7714 -0.0224
 2099SOL    HW117930   1.325   3.527   5.435 -2.1935 -0.7040 -1.9205
 2099SOL    HW217931   1.181   3.554   5.410  1.6926 -1.8376 -1.4889
 2100SOL     OW17932   4.370   1.306  14.743  0.1123  0.4376 -0.1146
 2100SOL    HW117933   4.366   1.393  14.782 -1.1433 -0.5141  1.9026
 2100SOL    HW217934   4.331   1.319  14.657  1.9654 -1.6086 -1.2634
 2101SOL     OW17935   0.892   4.424   8.413  0.6924 -0.0471  0.3638
 2101SOL    HW117936   0.857   4.501   8.367  0.6539 -1.3966 -1.8948
 2101SOL    HW217937   0.814   4.374   8.434 -0.1157  0.0583 -2.3230
 2102SOL     OW17938   0.629   0.142   9.222 -0.1179  0.0309 -0.4764
 2102SOL    HW117939   0.534   0.141   9.220 -0.1116  1.8193 -1.8545
 2102SOL    HW217940   0.653   0.235   9.226 -1.3339  0.3622 -0.9546
 2103SOL     OW17941   4.003   3.735  10.709 -0.4890 -0.3941  0.3920
 2103SOL    HW117942   4.005   3.797  10.635 -0.0194  1.0870  1.6437
 2103SOL    HW217943   3.911   3.714  10.721 -0.6659 -0.4494 -0.9722
 2104SOL     OW17944   2.303   3.701   4.555 -0.4433 -0.5867 -0.1187
 2104SOL    HW117945   2.332   3.631   4.497 -1.7470 -0.2202 -1.2083
 2104SOL    HW217946   2.327   3.776   4.501 -0.2326  0.1234  0.9451
 2105SOL     OW17947   3.498   0.903   9.341 -0.2693  0.0469  0.0583
 2105SOL    HW117948   3.470   0.815   9.366 -0.0032 -0.3681 -1.0994
 2105SOL    HW217949   3.517   0.928   9.431 -0.4271 -0.3687  0.2044
 2106SOL     OW17950   4.283   0.658   4.621  0.1499  0.3494 -0.1538
 2106SOL    HW117951   4.273   0.696   4.708  1.9140  0.0163  0.1917
 2106SOL    HW217952   4.200   0.689   4.585  0.6747  1.1128 -0.6977
 2107SOL     OW17953   2.566   4.308   5.681 -0.0065 -0.4242 -0.7241
 2107SOL    HW117954   2.650   4.287   5.640  0.7439  2.2364 -0.5405
 2107SOL    HW217955   2.509   4.320   5.604 -2.5380  0.3552  1.2500
 2108SOL     OW17956   2.514   4.693   5.162  0.4109  0.9767  0.4310
 2108SOL    HW117957   2.553   4.678   5.076 -1.7073  1.0326 -0.5346
 2108SOL    HW217958   2.525   4.604   5.196  2.6271  1.1235  0.0637
 2109SOL     OW17959   1.626   2.415  12.602  0.1177  0.2241  0.0936
 2109SOL    HW117960   1.694   2.469  12.561  0.2725 -2.9171 -3.8236
 2109SOL    HW217961   1.674   2.392  12.682  1.6539  0.8472 -0.6363
 2110SOL     OW17962   1.086   1.417   7.761 -0.0768 -0.3827 -0.8836
 2110SOL    HW117963   1.127   1.490   7.808 -1.7990 -1.3517  2.1501
 2110SOL    HW217964   1.026   1.383   7.828  0.5800 -1.0094 -0.6182
 2111SOL     OW17965   2.723   3.614   2.032  0.1688  0.5495 -0.0181
 2111SOL    HW117966   2.714   3.709   2.017 -1.1487  0.6406  1.3145
 2111SOL    HW217967   2.792   3.593   1.969  1.6517  0.4276  1.6519
 2112SOL     OW17968   0.685   2.471   3.926 -0.0515  0.1814 -0.5202
 2112SOL    HW117969   0.780   2.473   3.935 -0.0224  1.6098 -1.1160
 2112SOL    HW217970   0.660   2.389   3.883  1.0407  0.3690 -1.5269
 2113SOL     OW17971   4.410   3.198  11.582 -0.4360 -0.0227  0.1267
 2113SOL    HW117972   4.384   3.287  11.560 -0.4822  1.0505  4.4785
 2113SOL    HW217973   4.367   3.182  11.667 -0.6489  1.3112  0.2611
 2114SOL     OW17974   4.293   0.533   0.479 -0.1742 -0.2688 -0.3203
 2114SOL    HW117975   4.385   0.526   0.456  0.0897  0.8976  0.4112
 2114SOL    HW217976   4.251   0.564   0.399 -0.1493 -2.5123 -1.2164
 2115SOL     OW17977   3.556   3.644   7.099  0.3622 -0.1890  0.3246
 2115SOL    HW117978   3.535   3.553   7.118 -0.1307 -0.0227  0.5789
 2115SOL    HW217979   3.474   3.673   7.058  0.6993 -1.8251 -1.5029
 2116SOL     OW17980   3.977   1.265   3.322 -0.2030 -0.3869  0.1323
 2116SOL    HW117981   3.991   1.359   3.326  4.5654 -1.2321  3.1613
 2116SOL    HW217982   3.926   1.265   3.241 -0.9864  0.8152  0.6281
 2117SOL     OW17983   1.295   1.084   9.060  0.0587 -0.2305  0.2272
 2117SOL    HW117984   1.324   1.096   9.150 -1.2322  0.9680  0.4857
 2117SOL    HW217985   1.281   1.174   9.030 -0.1509 -0.8434 -1.5171
 2118SOL     OW17986   4.626   0.858   7.008 -0.2958  0.5945 -0.2720
 2118SOL    HW117987   4.698   0.920   7.000  0.1869  0.3674  2.5396
 2118SOL    HW217988   4.659   0.786   7.061 -1.2148 -1.2268 -2.1978
 2119SOL     OW17989   2.302   0.311   0.243 -0.2867 -0.1276 -0.4707
 2119SOL    HW117990   2.293   0.346   0.332 -1.3740  1.9257 -1.3891
 2119SOL    HW217991   2.217   0.269   0.232 -0.4488  0.2834 -0.7774
 2120SOL     OW17992   2.887   0.522   7.708  0.0944 -0.6578  0.4776
 2120SOL    HW117993   2.803   0.492   7.674  0.1740 -0.4609  0.1154
 2120SOL    HW217994   2.872   0.529   7.802  1.1842 -0.7206  0.6577
 2121SOL     OW17995   1.281   0.630  10.620 -0.3708 -0.3204  0.3793
 2121SOL    HW117996   1.369   0.649  10.587 -0.9391  2.4304  0.4513
 2121SOL    HW217997   1.290   0.580  10.701  0.7009 -1.0619 -0.1978
 2122SOL     OW17998   4.714   3.443  12.445  0.3770 -0.0628  0.3460
 2122SOL    HW117999   4.620   3.426  12.442  0.3167  0.4662 -1.0462
 2122SOL    HW218000   4.721   3.531  12.482  1.0916  0.2305 -0.4896
 2123SOL     OW18001   4.628   3.268   7.299  0.0262  0.0938  0.1052
 2123SOL    HW118002   4.717   3.297   7.281  0.4208 -1.1709  0.0586
 2123SOL    HW218003   4.616   3.204   7.229 -2.8197 -0.3366  0.9582
 2124SOL     OW18004   0.739   2.128  11.581  0.6065 -0.1835 -0.2832
 2124SOL    HW118005   0.806   2.076  11.627  1.0330  1.0395  0.4740
 2124SOL    HW218006   0.706   2.167  11.662  2.2430  0.7467 -0.0764
 2125SOL     OW18007   1.778   0.051   4.604  0.2675 -0.3116 -0.4878
 2125SOL    HW118008   1.764   4.695   4.580 -1.6387 -0.1550 -0.0099
 2125SOL    HW218009   1.764   0.091   4.519 -2.9457  0.5361  0.4438
 2126SOL     OW18010   2.097   2.957   0.798  0.3018  0.2282  0.0577
 2126SOL    HW118011   2.181   2.941   0.755  0.3924 -1.1763  0.7579
 2126SOL    HW218012   2.057   3.017   0.736 -0.9413  0.6385  1.2613
 2127SOL     OW18013   0.353   4.478   9.255 -0.0266  0.1699 -0.3860
 2127SOL    HW118014   0.257   4.478   9.252 -0.0894 -0.0861  2.0293
 2127SOL    HW218015   0.370   4.393   9.216  1.8633  0.8735 -1.1030
 2128SOL     OW18016   1.942   3.494   5.584 -0.4295 -0.0895  0.1533
 2128SOL    HW118017   1.958   3.451   5.668  0.1731 -0.2466 -0.0424
 2128SOL    HW218018   1.866   3.447   5.551 -0.5958 -0.1875  0.6841
 2129SOL     OW18019   4.067   3.387   7.529 -0.6478 -0.0082  0.0613
 2129SOL    HW118020   4.118   3.355   7.455  1.2880  0.6034  1.1458
 2129SOL    HW218021   4.089   3.322   7.596  0.5606 -0.2496 -0.5842
 2130SOL     OW18022   2.256   1.019   6.618 -0.8234  0.2435 -0.5665
 2130SOL    HW118023   2.176   1.073   6.615 -2.0965 -1.6661 -1.0659
 2130SOL    HW218024   2.226   0.935   6.652 -1.1173  0.6269  0.1292
 2131SOL     OW18025   1.406   3.844   3.602 -0.1440  0.1792 -0.0430
 2131SOL    HW118026   1.415   3.776   3.668 -0.6436  1.0272  0.9037
 2131SOL    HW218027   1.324   3.811   3.564  0.5500 -1.9115  0.3016
 2132SOL     OW18028   0.019   1.636   3.885  0.3845  0.1755  0.3864
 2132SOL    HW118029   0.076   1.584   3.827 -0.5669  1.6986 -1.9226
 2132SOL    HW218030   4.703   1.677   3.816 -0.1783  0.6570  1.0994
 2133SOL     OW18031   1.695   4.249   5.107 -0.1519  0.5685  0.1466
 2133SOL    HW118032   1.719   4.248   5.014 -2.2345 -2.2627 -0.3559
 2133SOL    HW218033   1.641   4.324   5.131 -2.5328 -0.8393 -0.8567
 2134SOL     OW18034   0.199   0.159   7.854 -0.2482 -0.1277  0.6133
 2134SOL    HW118035   0.112   0.141   7.818  0.5093  0.3577 -1.4462
 2134SOL    HW218036   0.224   0.232   7.797 -1.5639  0.3244  0.6162
 2135SOL     OW18037   0.437   4.215   7.882 -0.4499  0.3914  0.0477
 2135SOL    HW118038   0.446   4.146   7.816 -0.2377 -1.6006  2.1691
 2135SOL    HW218039   0.362   4.261   7.844  0.8544  1.7897 -0.8419
 2136SOL     OW18040   3.222   1.893   6.658  0.5784  0.4725  0.1447
 2136SOL    HW118041   3.297   1.898   6.718  0.0005  1.7055  0.7788
 2136SOL    HW218042   3.265   1.896   6.573 -0.3072 -3.2324 -0.4112
 2137SOL     OW18043   4.454   2.498   8.662  0.3120  0.0799 -0.1103
 2137SOL    HW118044   4.468   2.574   8.719 -1.8213  0.7293 -0.4588
 2137SOL    HW218045   4.454   2.434   8.733  2.0508  1.3595  1.0517
 2138SOL     OW18046   3.220   4.284   8.346  0.1599 -0.9430  0.0486
 2138SOL    HW118047   3.194   4.222   8.415 -0.1705  0.4628  1.1932
 2138SOL    HW218048   3.156   4.355   8.357  0.9642  0.0290 -1.4883
 2139SOL     OW18049   4.202   0.697   7.920  0.6561  0.0196  0.0055
 2139SOL    HW118050   4.160   0.783   7.924  0.8047  0.0759  0.3668
 2139SOL    HW218051   4.253   0.696   8.001 -0.8877 -0.0021  0.9938
 2140SOL     OW18052   0.025   0.844  11.618 -0.3284  0.1186  0.0839
 2140SOL    HW118053   0.099   0.888  11.660  1.0744 -0.8580 -1.3884
 2140SOL    HW218054   0.001   0.907  11.550 -3.2908 -1.8920 -0.7498
 2141SOL     OW18055   0.749   0.865  14.733  0.8798 -0.3010  0.3183
 2141SOL    HW118056   0.746   0.942  14.790 -2.0762 -0.5376  0.5122
 2141SOL    HW218057   0.735   0.903  14.647 -1.1618 -0.9498  0.3515
 2142SOL     OW18058   4.581   1.132   7.403  0.0084 -0.1012  0.0707
 2142SOL    HW118059   4.557   1.167   7.490 -1.3003 -1.4919  0.2665
 2142SOL    HW218060   4.533   1.050   7.404  2.0836 -1.3441 -3.2185
 2143SOL     OW18061   4.025   4.131  17.641 -0.4063  0.2153 -0.0805
 2143SOL    HW118062   4.120   4.147  17.646 -0.4276  0.5266 -0.7154
 2143SOL    HW218063   4.004   4.150  17.732  0.5492  1.3357 -0.0888
 2144SOL     OW18064   4.031   3.376   3.306 -0.1031  0.0691  0.2535
 2144SOL    HW118065   4.000   3.401   3.393  1.0103  0.5321  0.5302
 2144SOL    HW218066   4.041   3.281   3.308  0.4065  0.0999 -0.4629
 2145SOL     OW18067   1.891   2.484   9.498 -0.6786  0.5337  0.4910
 2145SOL    HW118068   1.920   2.486   9.589 -0.5176  0.8475  0.4331
 2145SOL    HW218069   1.959   2.437   9.450  0.8860 -0.0706  3.3173
 2146SOL     OW18070   3.609   1.791   8.618 -0.6135 -0.2932 -0.2575
 2146SOL    HW118071   3.648   1.772   8.703  0.0890 -0.6251 -0.6559
 2146SOL    HW218072   3.553   1.865   8.644 -0.7192 -0.8548  1.0963
 2147SOL     OW18073   4.520   0.085   1.631  0.4681  0.2835 -0.4499
 2147SOL    HW118074   4.472   0.022   1.685 -0.9093  1.0122 -0.8178
 2147SOL    HW218075   4.530   0.159   1.690  0.1884 -1.6979  2.0738
 2148SOL     OW18076   2.751   1.095   2.772 -0.4135 -0.1593  0.0826
 2148SOL    HW118077   2.707   1.174   2.740  0.1694  0.2857  0.3895
 2148SOL    HW218078   2.743   1.043   2.692 -0.9757 -0.0142  0.0390
 2149SOL     OW18079   1.109   4.733   3.093  0.3980 -0.0197 -0.0209
 2149SOL    HW118080   1.084   4.708   3.182  0.0197  0.2252 -0.0617
 2149SOL    HW218081   1.028   0.038   3.064  1.7541  1.5791 -1.5586
 2150SOL     OW18082   4.245   3.128  11.783  0.1597  0.1099  0.0795
 2150SOL    HW118083   4.192   3.077  11.844 -2.1474 -0.1056 -2.0997
 2150SOL    HW218084   4.292   3.185  11.843  1.6549 -2.5895  1.4874
 2151SOL     OW18085   3.838   2.182   5.336 -0.5571 -0.3424 -0.3148
 2151SOL    HW118086   3.781   2.168   5.411  1.8556  0.9691  1.7590
 2151SOL    HW218087   3.822   2.273   5.311 -0.5618  0.0918  1.3177
 2152SOL     OW18088   0.824   0.890   8.567 -0.1082  0.3406  0.3711
 2152SOL    HW118089   0.888   0.819   8.570  0.4361  0.8462  0.7042
 2152SOL    HW218090   0.757   0.827   8.539  1.1339 -0.6982 -0.2850
 2153SOL     OW18091   0.071   2.094   1.334 -0.3002 -0.7685  0.1124
 2153SOL    HW118092   0.109   2.093   1.422  0.5282 -0.7620 -0.2427
 2153SOL    HW218093   0.089   2.001   1.318 -2.6234 -2.0921  5.2223
 2154SOL     OW18094   0.677   4.422   9.976  0.3206 -0.0267  0.2981
 2154SOL    HW118095   0.626   4.488  10.023 -2.3031 -1.9397  0.1324
 2154SOL    HW218096   0.668   4.440   9.882 -0.3439  0.0251  0.3751
 2155SOL     OW18097   1.876   0.489   2.024 -0.2973 -0.4014  0.3599
 2155SOL    HW118098   1.847   0.528   1.942  0.2895 -0.0190  0.3329
 2155SOL    HW218099   1.800   0.506   2.080  1.4144  3.3660  1.4955
 2156SOL     OW18100   3.482   3.663  10.344  0.0223  0.1719  0.0933
 2156SOL    HW118101   3.523   3.689  10.427  0.8401  1.6685 -0.7781
 2156SOL    HW218102   3.442   3.747  10.320 -2.8762 -1.1377  0.3404
 2157SOL     OW18103   3.492   1.976   9.920  0.5202 -0.1682  0.3632
 2157SOL    HW118104   3.462   1.963   9.830  0.6524 -0.1565  0.3175
 2157SOL    HW218105   3.407   2.003   9.956 -0.2707 -3.0573  0.7092
 2158SOL     OW18106   2.601   2.589  15.762  0.3222 -0.0780  0.0530
 2158SOL    HW118107   2.674   2.547  15.716 -0.3055 -1.4930  0.3321
 2158SOL    HW218108   2.545   2.606  15.687 -0.0566 -0.7930  0.1769
 2159SOL     OW18109   3.112   2.767   6.083 -0.3233 -0.4673  0.1142
 2159SOL    HW118110   3.080   2.748   5.995  0.4199  1.9847 -0.6937
 2159SOL    HW218111   3.176   2.696   6.080 -0.9231 -0.9897 -0.3555
 2160SOL     OW18112   4.604   3.162   6.290  0.0164 -0.0749  0.2431
 2160SOL    HW118113   4.579   3.254   6.286  2.4635  0.5599 -0.2395
 2160SOL    HW218114   4.668   3.154   6.361  0.6713  0.0563 -0.3309
 2161SOL     OW18115   4.063   1.545  11.741  0.5283 -0.0963  0.4072
 2161SOL    HW118116   4.150   1.579  11.758  1.1005 -1.9475  1.1281
 2161SOL    HW218117   4.068   1.541  11.645  4.0241  2.1455  0.5040
 2162SOL     OW18118   3.185   1.195  11.001 -0.4745 -0.0705 -0.2698
 2162SOL    HW118119   3.140   1.178  11.083  1.7520  0.5254  1.0978
 2162SOL    HW218120   3.141   1.133  10.943 -0.3395 -1.5006  1.1475
 2163SOL     OW18121   2.291   0.954   4.749 -0.1753 -0.4251 -0.2354
 2163SOL    HW118122   2.202   0.918   4.746 -0.6738  0.6270  3.2893
 2163SOL    HW218123   2.340   0.890   4.697  1.2899  1.0703 -0.6776
 2164SOL     OW18124   4.535   4.329   4.574  0.2825 -0.2970 -0.4867
 2164SOL    HW118125   4.536   4.263   4.644 -4.2041 -0.6997 -0.8183
 2164SOL    HW218126   4.613   4.306   4.523  1.3179  1.3330  0.3447
 2165SOL     OW18127   4.578   4.356   8.786  0.1631  0.0135  0.4218
 2165SOL    HW118128   4.578   4.394   8.698  1.5713  1.7787  1.1962
 2165SOL    HW218129   4.489   4.321   8.792 -0.1149  0.6573  0.0387
 2166SOL     OW18130   1.074   1.518   5.094  0.0581 -0.3114 -0.1009
 2166SOL    HW118131   0.987   1.520   5.136  0.3428  0.5298  0.4648
 2166SOL    HW218132   1.056   1.586   5.029 -2.4565 -0.4174  0.4718
 2167SOL     OW18133   0.160   1.063   9.064 -0.1265 -0.6668  0.6351
 2167SOL    HW118134   0.070   1.095   9.054  0.7352  1.5154 -0.1064
 2167SOL    HW218135   0.153   0.984   9.118 -0.7046 -1.1392 -0.1188
 2168SOL     OW18136   2.082   4.132   8.066 -0.3008  0.3805 -0.1751
 2168SOL    HW118137   2.116   4.201   8.009  0.4548  2.5806  2.9714
 2168SOL    HW218138   2.121   4.055   8.023 -0.4202  0.6167 -0.7070
 2169SOL     OW18139   4.623   0.707   7.594  0.1944  0.0188  0.3792
 2169SOL    HW118140   4.564   0.777   7.567 -0.1634 -0.9350 -1.3511
 2169SOL    HW218141   4.705   0.735   7.553 -0.8350 -1.9081 -3.0295
 2170SOL     OW18142   1.350   0.894   8.237 -0.1842 -0.1510 -0.0642
 2170SOL    HW118143   1.334   0.852   8.152 -1.1648  1.1751 -0.5433
 2170SOL    HW218144   1.263   0.908   8.274 -0.2695 -0.6820 -0.0627
 2171SOL     OW18145   3.223   0.605   2.843 -0.3276  0.3311 -0.5274
 2171SOL    HW118146   3.313   0.587   2.816 -0.5879  0.6530 -1.6224
 2171SOL    HW218147   3.221   0.560   2.927  0.0736  1.6924  0.2148
 2172SOL     OW18148   1.734   4.582  11.224 -0.0412  0.0166  0.4059
 2172SOL    HW118149   1.807   4.565  11.284  0.0994 -0.8331 -0.0038
 2172SOL    HW218150   1.676   4.622  11.289  1.6325  1.4002  1.0402
 2173SOL     OW18151   1.645   3.012   4.504  0.2724  0.1205 -0.7628
 2173SOL    HW118152   1.563   3.040   4.544  1.3126  0.3058  1.2435
 2173SOL    HW218153   1.617   2.964   4.425 -0.6790  1.7867 -1.4278
 2174SOL     OW18154   4.078   4.188   1.966  0.0386  0.6632 -0.2737
 2174SOL    HW118155   4.015   4.226   2.027 -0.7715  0.3922 -0.9460
 2174SOL    HW218156   4.160   4.190   2.017  0.5050  0.8480 -1.0312
 2175SOL     OW18157   2.673   1.009   7.273  0.0107 -0.7340  0.0784
 2175SOL    HW118158   2.634   0.957   7.203  2.4736 -2.9180  0.3193
 2175SOL    HW218159   2.732   1.066   7.224  0.1906 -1.3490 -0.4253
 2176SOL     OW18160   3.218   1.172   4.286 -0.2198 -0.6513 -0.4700
 2176SOL    HW118161   3.161   1.235   4.331 -2.3112 -0.4165 -3.4434
 2176SOL    HW218162   3.276   1.236   4.245  1.9174 -1.3575  1.4969
 2177SOL     OW18163   0.250   0.523   7.340  0.1188  0.3992  0.5480
 2177SOL    HW118164   0.240   0.580   7.263  1.9493  0.3098  0.2572
 2177SOL    HW218165   0.314   0.459   7.311 -0.8758 -0.1740 -0.3699
 2178SOL     OW18166   1.198   1.786   8.857  0.0453 -0.3212  0.4363
 2178SOL    HW118167   1.207   1.848   8.785  1.3124 -0.6086  0.3387
 2178SOL    HW218168   1.252   1.716   8.821 -1.2725 -1.7502  1.2147
 2179SOL     OW18169   4.139   3.647  13.585  0.4008  0.1844 -0.7010
 2179SOL    HW118170   4.196   3.724  13.580  1.5251 -0.6678 -1.1185
 2179SOL    HW218171   4.130   3.634  13.679  0.0131 -0.2266 -0.7904
 2180SOL     OW18172   2.963   0.555  10.632  0.2444 -0.0741 -0.3114
 2180SOL    HW118173   2.880   0.580  10.590  1.3949  0.0971 -2.5123
 2180SOL    HW218174   2.954   0.462  10.648  1.6531 -0.2630 -0.6036
 2181SOL     OW18175   3.515   0.193   6.481 -0.0555  0.1093 -0.0489
 2181SOL    HW118176   3.422   0.214   6.481 -0.1125 -0.1423 -0.9548
 2181SOL    HW218177   3.512   0.107   6.525  0.2782  0.5308  0.8120
 2182SOL     OW18178   2.756   2.492  10.655 -0.5903  0.2533  0.1380
 2182SOL    HW118179   2.724   2.580  10.635 -0.8234 -0.0081 -0.6276
 2182SOL    HW218180   2.847   2.516  10.640 -0.5111 -0.0524  0.1277
 2183SOL     OW18181   4.580   0.843   1.565 -0.0232 -0.1272  0.4948
 2183SOL    HW118182   4.674   0.853   1.554  0.3867 -2.5755  1.7883
 2183SOL    HW218183   4.551   0.912   1.626 -0.0997  0.2213  0.0635
 2184SOL     OW18184   3.351   1.621   7.704  0.2894  0.0895 -0.2409
 2184SOL    HW118185   3.434   1.609   7.749  1.7639 -0.1291 -3.0568
 2184SOL    HW218186   3.313   1.689   7.761 -0.6701  0.5131 -1.3909
 2185SOL     OW18187   1.917   1.053   6.110  0.6025  0.1466 -0.2436
 2185SOL    HW118188   1.949   1.009   6.031 -1.4538 -0.6263 -0.6575
 2185SOL    HW218189   1.909   1.144   6.080 -1.4717  0.5971  1.6625
 2186SOL     OW18190   0.858   0.731   2.605 -0.0214 -0.1419  0.8032
 2186SOL    HW118191   0.816   0.815   2.589  1.3573  0.2499 -0.7867
 2186SOL    HW218192   0.808   0.680   2.542  0.0483  0.3278  0.3705
 2187SOL     OW18193   3.234   2.214   6.281  0.0531 -0.6501  0.2628
 2187SOL    HW118194   3.241   2.227   6.375 -0.7640  2.2370 -0.0717
 2187SOL    HW218195   3.260   2.296   6.239  0.8916 -0.6705  0.7487
 2188SOL     OW18196   3.854   2.632   9.806 -0.0396  0.1922  0.1125
 2188SOL    HW118197   3.913   2.708   9.809  2.5679 -1.8046 -0.8020
 2188SOL    HW218198   3.920   2.571   9.837 -0.5853 -0.4359  0.0383
 2189SOL     OW18199   2.352   4.351   1.483 -0.2337  0.0380  0.2696
 2189SOL    HW118200   2.287   4.291   1.444  0.4818 -0.7908  0.3450
 2189SOL    HW218201   2.315   4.389   1.562 -1.5520 -1.2721  0.3020
 2190SOL     OW18202   1.385   2.035  13.619  0.4294 -0.3842 -0.1863
 2190SOL    HW118203   1.472   2.073  13.622  0.2753 -0.1852  2.0171
 2190SOL    HW218204   1.386   1.976  13.544 -0.1041  1.1690 -1.4075
 2191SOL     OW18205   3.568   4.705  10.575  0.8630  0.0763 -1.0003
 2191SOL    HW118206   3.517   4.663  10.644  1.6834  2.2250  0.9284
 2191SOL    HW218207   3.596   0.043  10.628  0.3397  1.9702 -3.3455
 2192SOL     OW18208   1.839   0.813  15.127 -0.6775  0.5582 -0.3282
 2192SOL    HW118209   1.922   0.802  15.174 -0.7122 -0.1493 -0.4263
 2192SOL    HW218210   1.863   0.892  15.079 -2.4779 -0.0967 -2.2986
 2193SOL     OW18211   2.380   3.919   2.666 -0.2488  0.0179  0.4556
 2193SOL    HW118212   2.300   3.893   2.620 -0.4769  0.8478  0.3684
 2193SOL    HW218213   2.445   3.895   2.599  0.6431  0.0897  1.2992
 2194SOL     OW18214   3.279   2.125   4.702 -0.3232 -0.4869 -0.6335
 2194SOL    HW118215   3.358   2.177   4.717 -0.6634 -0.4483  0.9835
 2194SOL    HW218216   3.324   2.041   4.703 -0.2294 -0.4070  1.9823
 2195SOL     OW18217   3.838   2.707  14.102  0.7476 -0.3371 -0.2108
 2195SOL    HW118218   3.849   2.732  14.010  1.7137 -1.2729 -0.3517
 2195SOL    HW218219   3.761   2.758  14.125  0.0767 -1.2321 -0.4902
 2196SOL     OW18220   0.503   0.472   6.314  0.7293  0.2670  0.0371
 2196SOL    HW118221   0.454   0.540   6.267  0.1942 -0.6662 -0.7559
 2196SOL    HW218222   0.497   0.510   6.401 -0.3314 -0.3897  0.2511
 2197SOL     OW18223   3.732   3.900   2.066  0.0525  0.0864 -0.1536
 2197SOL    HW118224   3.728   3.809   2.035  0.4952  0.3288 -0.9269
 2197SOL    HW218225   3.656   3.942   2.025  1.7730  0.9101 -2.5364
 2198SOL     OW18226   4.056   0.374   3.378  0.1147 -0.8107 -0.2036
 2198SOL    HW118227   4.009   0.420   3.309  0.3259 -1.8986 -1.0824
 2198SOL    HW218228   3.979   0.359   3.432  1.4480  0.5679  2.0977
 2199SOL     OW18229   4.699   1.220   1.556 -0.7033 -0.1960 -0.2293
 2199SOL    HW118230   0.027   1.270   1.606 -0.4446 -0.0393 -0.7164
 2199SOL    HW218231   0.013   1.140   1.571 -0.4364  0.2889  1.4581
 2200SOL     OW18232   1.513   0.109  11.680 -0.6990  0.1189  0.0024
 2200SOL    HW118233   1.533   0.067  11.764  0.8950 -0.1431 -0.5116
 2200SOL    HW218234   1.430   0.155  11.694  0.7611  1.9306  2.5383
 2201SOL     OW18235   3.304   0.808   7.624  0.3219  0.4605  0.0818
 2201SOL    HW118236   3.237   0.761   7.575  0.4057 -0.3825  0.7869
 2201SOL    HW218237   3.319   0.886   7.571  2.3911 -0.4550 -0.6618
 2202SOL     OW18238   3.193   0.124   6.646  0.0095 -0.0419  0.4586
 2202SOL    HW118239   3.166   0.033   6.650  1.0822 -0.3506  0.5561
 2202SOL    HW218240   3.264   0.124   6.711 -1.6194  0.0304  2.2563
 2203SOL     OW18241   0.399   3.493   7.495 -0.1550 -0.6813 -0.5970
 2203SOL    HW118242   0.333   3.425   7.509 -0.6091 -0.1344 -0.0725
 2203SOL    HW218243   0.454   3.480   7.573 -2.2061 -1.7276  0.6682
 2204SOL     OW18244   3.762   3.157   2.482  0.5051 -0.7068 -0.7296
 2204SOL    HW118245   3.824   3.151   2.409  0.0028  0.1092 -1.2354
 2204SOL    HW218246   3.689   3.111   2.440 -0.1384  0.3270 -0.7367
 2205SOL     OW18247   0.874   0.271  13.071 -0.8053  0.4121 -0.7141
 2205SOL    HW118248   0.831   0.319  13.142 -0.9815  0.6733 -0.9988
 2205SOL    HW218249   0.803   0.283  13.007 -1.9420 -1.4540  0.1923
 2206SOL     OW18250   4.067   3.667   7.035  1.1992 -0.2764  0.1263
 2206SOL    HW118251   4.047   3.630   6.949  0.1822 -0.6398  0.5151
 2206SOL    HW218252   3.979   3.671   7.072  1.7650 -0.0865  1.4795
 2207SOL     OW18253   3.593   2.210   8.854  0.0351  0.2432 -0.4071
 2207SOL    HW118254   3.634   2.281   8.805 -0.9697  0.0826 -1.4803
 2207SOL    HW218255   3.651   2.136   8.840  1.4540  1.1328  0.8179
 2208SOL     OW18256   1.098   1.474  14.511  0.6517 -0.1232 -0.1738
 2208SOL    HW118257   1.046   1.554  14.509 -1.0812 -1.2246  0.7979
 2208SOL    HW218258   1.092   1.436  14.598 -0.7509 -0.9363 -0.6211
 2209SOL     OW18259   0.377   2.920   0.511  0.4255  0.5736  0.0143
 2209SOL    HW118260   0.282   2.914   0.501  0.7881 -0.7693 -2.6146
 2209SOL    HW218261   0.393   2.827   0.531 -0.7672  0.6647  1.3848
 2210SOL     OW18262   3.665   2.631   8.883  0.1517  0.4524  0.3258
 2210SOL    HW118263   3.671   2.551   8.831  0.7120  1.3686 -1.0126
 2210SOL    HW218264   3.586   2.613   8.934 -1.2265  0.6281 -1.7554
 2211SOL     OW18265   4.423   1.410   2.647 -0.3441  0.0119 -0.2465
 2211SOL    HW118266   4.354   1.354   2.614 -0.0560  0.4270 -1.5438
 2211SOL    HW218267   4.406   1.390   2.739  0.4650  0.6453  0.0462
 2212SOL     OW18268   0.428   1.727  12.461 -0.0341 -0.3596  0.0001
 2212SOL    HW118269   0.435   1.793  12.393  1.8303  0.0944  0.6266
 2212SOL    HW218270   0.478   1.654  12.424  0.1414  1.4846 -3.3378
 2213SOL     OW18271   4.160   2.250   7.750 -0.3421  0.0612 -0.0718
 2213SOL    HW118272   4.217   2.319   7.718  2.6278 -2.5810 -0.4976
 2213SOL    HW218273   4.121   2.221   7.667 -3.2977  2.0915  0.5819
 2214SOL     OW18274   0.577   0.915   9.521 -0.0154 -0.1495  0.2361
 2214SOL    HW118275   0.492   0.892   9.484 -0.0104  1.4759 -0.7827
 2214SOL    HW218276   0.640   0.843   9.518  1.0535  0.7201  1.9614
 2215SOL     OW18277   2.672   2.607   1.466  0.5142  0.2156 -0.9910
 2215SOL    HW118278   2.684   2.534   1.404 -2.2153 -0.4501 -0.7583
 2215SOL    HW218279   2.589   2.648   1.442 -0.9305 -0.4795  2.8581
 2216SOL     OW18280   1.290   3.347  11.025 -0.3457 -0.0041  0.2114
 2216SOL    HW118281   1.362   3.411  11.026  0.6846 -1.1289 -2.3388
 2216SOL    HW218282   1.269   3.329  11.117  1.1900 -2.1791  0.1394
 2217SOL     OW18283   3.768   3.895   4.785  0.4505  0.9305  0.1084
 2217SOL    HW118284   3.798   3.964   4.843  2.0264  0.2745  0.0657
 2217SOL    HW218285   3.828   3.913   4.713  0.4378 -2.6700 -0.8042
 2218SOL     OW18286   1.718   0.355   9.019 -0.1214  0.5359  0.1387
 2218SOL    HW118287   1.710   0.276   9.072  0.0205  0.5276  0.1492
 2218SOL    HW218288   1.774   0.412   9.072  0.3425 -0.9185  1.2113
 2219SOL     OW18289   1.500   1.255   2.565 -0.6774  0.3700  0.3992
 2219SOL    HW118290   1.520   1.251   2.659 -1.3860  0.3046  0.5534
 2219SOL    HW218291   1.578   1.299   2.533 -0.4080 -1.4987 -1.4974
 2220SOL     OW18292   1.669   0.973  10.081 -0.9870  0.7960 -0.7831
 2220SOL    HW118293   1.710   1.043  10.031 -1.6675  1.3350 -0.5711
 2220SOL    HW218294   1.690   0.899  10.023  3.2191  0.9194  0.5404
 2221SOL     OW18295   2.529   3.716   2.240 -0.0275 -0.0731 -0.2563
 2221SOL    HW118296   2.479   3.719   2.158 -1.3829  0.7771  0.5993
 2221SOL    HW218297   2.575   3.797   2.218  0.3204 -0.5347 -1.2144
 2222SOL     OW18298   0.004   1.821   8.281  0.6240 -0.8046  0.1486
 2222SOL    HW118299   0.004   1.913   8.252  1.3362 -0.3277  1.6697
 2222SOL    HW218300   0.049   1.790   8.202  2.5034 -0.2259  1.0025
 2223SOL     OW18301   0.329   0.739   1.942 -0.1184 -0.0328  0.4310
 2223SOL    HW118302   0.333   0.661   1.998  2.5036  0.3634  0.7677
 2223SOL    HW218303   0.340   0.809   2.005  0.4319 -0.3799  0.7173
 2224SOL     OW18304   3.863   3.587   4.769  0.2882 -0.1483  0.3095
 2224SOL    HW118305   3.824   3.534   4.699 -1.1353  2.1711 -0.6594
 2224SOL    HW218306   3.833   3.677   4.759 -0.1324 -0.6945 -3.5499
 2225SOL     OW18307   1.818   1.484  16.532  0.0742  0.2910  0.5502
 2225SOL    HW118308   1.744   1.541  16.511 -0.4826 -0.4313  0.5446
 2225SOL    HW218309   1.838   1.523  16.617  1.3532 -1.7618  1.1975
 2226SOL     OW18310   3.276   4.252   8.848 -0.0684  0.1146  0.6168
 2226SOL    HW118311   3.347   4.314   8.834  0.4154 -0.6804 -0.5412
 2226SOL    HW218312   3.332   4.185   8.889 -0.5232  1.0682  2.7551
 2227SOL     OW18313   3.605   3.510   3.054 -0.4471 -0.5272 -0.9327
 2227SOL    HW118314   3.546   3.581   3.078 -1.4100 -1.6529  0.0270
 2227SOL    HW218315   3.583   3.503   2.961  1.9509  1.9497 -1.6889
 2228SOL     OW18316   2.724   1.072  12.238 -0.4975  0.8455  0.1073
 2228SOL    HW118317   2.810   1.109  12.220  0.3317 -0.0677  2.2229
 2228SOL    HW218318   2.727   1.061  12.333  0.4319 -2.2392 -0.2687
 2229SOL     OW18319   0.854   2.565   4.690  0.4408 -0.7963 -0.3396
 2229SOL    HW118320   0.772   2.530   4.657  0.5134 -2.1547  0.9318
 2229SOL    HW218321   0.832   2.658   4.698 -0.9971 -0.9552 -2.6008
 2230SOL     OW18322   1.758   3.103   1.293  0.1544  0.1422 -0.4916
 2230SOL    HW118323   1.778   3.169   1.227 -0.0095  0.6862 -0.0006
 2230SOL    HW218324   1.786   3.159   1.365 -0.5155 -0.8363  0.5353
 2231SOL     OW18325   4.258   0.353   0.990 -0.4348 -0.4197  0.0114
 2231SOL    HW118326   4.247   0.379   0.899 -0.9084 -2.3545 -0.4779
 2231SOL    HW218327   4.314   0.426   1.017 -0.2145  0.2158 -2.2107
 2232SOL     OW18328   1.577   3.818   1.856 -0.4092  0.4602  0.0354
 2232SOL    HW118329   1.667   3.843   1.876 -0.9700  1.6706  1.1150
 2232SOL    HW218330   1.542   3.905   1.835  0.3466  0.4181 -1.3242
 2233SOL     OW18331   3.035   3.159   0.237 -0.1514 -0.4576  0.4090
 2233SOL    HW118332   2.946   3.137   0.266 -0.5120 -1.0684 -1.1643
 2233SOL    HW218333   3.067   3.072   0.215  1.9619  0.4906 -0.2102
 2234SOL     OW18334   1.036   4.474   2.093  0.4516  0.3879  0.1723
 2234SOL    HW118335   0.999   4.530   2.161 -1.6198  0.5255 -1.0579
 2234SOL    HW218336   1.069   4.533   2.026 -0.2018  0.4312 -0.1147
 2235SOL     OW18337   3.362   1.633   6.684 -0.0700 -0.7658 -0.4529
 2235SOL    HW118338   3.278   1.616   6.724  0.9952 -1.4663  1.4737
 2235SOL    HW218339   3.334   1.710   6.635  1.9038 -0.2904 -0.8592
 2236SOL     OW18340   2.874   4.293   8.512 -0.3793 -0.3796 -0.2421
 2236SOL    HW118341   2.941   4.337   8.461 -1.0788  0.9214 -0.0269
 2236SOL    HW218342   2.891   4.343   8.592 -0.5119  0.5642 -0.8150
 2237SOL     OW18343   3.838   4.446   3.841  0.1400  0.2770  0.2897
 2237SOL    HW118344   3.855   4.375   3.780  0.2080 -0.6801  1.4172
 2237SOL    HW218345   3.859   4.412   3.928 -2.1478  1.7027  1.4047
 2238SOL     OW18346   3.707   0.088   3.565 -0.5217  0.9775  0.5282
 2238SOL    HW118347   3.679   0.081   3.657 -1.2008  0.4258  0.2820
 2238SOL    HW218348   3.786   0.038   3.586 -0.0104  0.8096 -1.8204
 2239SOL     OW18349   2.080   0.192   8.621 -0.7076  0.2625 -0.1908
 2239SOL    HW118350   2.048   0.236   8.701  0.1393  0.5332 -0.0020
 2239SOL    HW218351   2.013   0.225   8.562  0.0843  1.4733 -0.4042
 2240SOL     OW18352   2.805   4.368   6.511 -0.1392 -0.1851  0.4715
 2240SOL    HW118353   2.753   4.287   6.504 -2.2782  1.3204 -1.1631
 2240SOL    HW218354   2.747   4.436   6.476 -0.9493 -0.4583  1.2822
 2241SOL     OW18355   4.289   3.166  10.320  0.8237  0.0564  0.1181
 2241SOL    HW118356   4.206   3.164  10.368 -0.4297  1.2194 -1.9512
 2241SOL    HW218357   4.274   3.241  10.261 -1.3400  0.0056  0.5914
 2242SOL     OW18358   1.748   1.010   7.551 -0.6216  0.0178 -0.2426
 2242SOL    HW118359   1.678   0.952   7.580  0.3118 -1.0957 -0.2144
 2242SOL    HW218360   1.723   1.023   7.460 -1.6654  0.7689  0.1539
 2243SOL     OW18361   3.258   4.198   4.974  0.5099  0.6176  0.9681
 2243SOL    HW118362   3.322   4.171   4.909 -1.1730 -2.6920  0.7020
 2243SOL    HW218363   3.223   4.117   5.010 -1.5078  1.1844  0.2836
 2244SOL     OW18364   3.111   4.215   4.702 -0.3250 -0.5382 -0.3597
 2244SOL    HW118365   3.198   4.187   4.673 -0.2251  0.2878 -0.8567
 2244SOL    HW218366   3.071   4.141   4.749 -2.2137  0.5101 -0.3436
 2245SOL     OW18367   3.918   1.610   4.108 -0.0757 -0.1727  0.5156
 2245SOL    HW118368   3.948   1.606   4.199 -0.0229 -0.3688  0.4892
 2245SOL    HW218369   3.992   1.575   4.059 -0.5698 -0.0503 -0.3081
 2246SOL     OW18370   1.359   2.015   4.265 -0.4085 -0.0590  0.2103
 2246SOL    HW118371   1.375   2.098   4.221 -2.2255 -0.1876 -0.6932
 2246SOL    HW218372   1.409   2.017   4.346 -0.9927  2.4030  0.5068
 2247SOL     OW18373   3.727   0.461   8.102  0.3498  0.5499  0.2789
 2247SOL    HW118374   3.706   0.403   8.029  2.3351  0.3293 -0.1025
 2247SOL    HW218375   3.791   0.516   8.058 -1.2815  0.3923 -2.2863
 2248SOL     OW18376   0.032   0.558  13.579 -0.0333 -0.2297 -0.5585
 2248SOL    HW118377   0.031   0.619  13.505 -2.6766 -1.3835 -1.4950
 2248SOL    HW218378   4.724   0.607  13.648  1.6347 -1.0199  1.0488
 2249SOL     OW18379   3.803   3.625   3.333  0.1934 -0.4196  0.2370
 2249SOL    HW118380   3.787   3.559   3.401  1.3025 -0.8760  0.0593
 2249SOL    HW218381   3.717   3.666   3.325  1.0372  1.6788  1.5655
 2250SOL     OW18382   1.189   3.159   3.333  0.4300 -0.6616  0.6619
 2250SOL    HW118383   1.186   3.183   3.240  2.3080 -0.7637  0.5712
 2250SOL    HW218384   1.133   3.228   3.368 -2.3833 -2.0958 -1.0256
 2251SOL     OW18385   2.837   1.747   9.550 -0.3970 -0.5276  0.4955
 2251SOL    HW118386   2.755   1.700   9.571 -0.6744  0.0137  0.6105
 2251SOL    HW218387   2.851   1.724   9.458  0.3086 -0.6588  0.6426
 2252SOL     OW18388   2.576   2.761   2.991 -0.5673  0.0895  0.0574
 2252SOL    HW118389   2.555   2.667   2.998  0.1851 -0.0723  0.1551
 2252SOL    HW218390   2.575   2.772   2.896  0.7810 -1.1586 -0.1069
 2253SOL     OW18391   2.362   0.127   7.629  0.2279  0.1433  0.4731
 2253SOL    HW118392   2.276   0.167   7.643  0.4584  0.3262  1.3083
 2253SOL    HW218393   2.425   0.190   7.663  0.8393 -0.9603  1.3733
 2254SOL     OW18394   0.655   0.702   0.052  0.0736 -0.0134 -0.4788
 2254SOL    HW118395   0.608   0.688  17.712 -0.0477  1.5438 -0.6853
 2254SOL    HW218396   0.714   0.777   0.040  0.6550 -0.6556 -1.5808
 2255SOL     OW18397   0.314   3.751   7.497  0.0223  0.2204 -0.2668
 2255SOL    HW118398   0.247   3.744   7.429  0.3493  0.1176 -0.5766
 2255SOL    HW218399   0.357   3.668   7.477 -1.1983 -0.8438  1.5257
 2256SOL     OW18400   3.349   3.458   3.826 -0.8672 -0.3693 -0.1795
 2256SOL    HW118401   3.256   3.456   3.848 -0.9187  0.5917 -0.2940
 2256SOL    HW218402   3.352   3.449   3.731 -0.9570  1.1408 -0.3348
 2257SOL     OW18403   4.274   3.838   0.206 -0.1337  1.2016 -0.4078
 2257SOL    HW118404   4.192   3.867   0.167  0.3455  3.2285  0.0472
 2257SOL    HW218405   4.313   3.926   0.206 -2.5452  2.2551  0.6014
 2258SOL     OW18406   4.596   3.424   0.347  0.2381 -0.5288  0.2886
 2258SOL    HW118407   4.572   3.509   0.309  0.3678  0.4941  2.4748
 2258SOL    HW218408   4.623   3.377   0.268 -1.6630  2.2301 -2.0164
 2259SOL     OW18409   0.673   2.635   2.338  0.7136 -0.0777  0.1480
 2259SOL    HW118410   0.705   2.545   2.328  1.6697  0.1654  1.0227
 2259SOL    HW218411   0.690   2.666   2.249 -1.7596  1.7962  0.3084
 2260SOL     OW18412   0.374   1.612   2.288  0.3537 -0.0570 -0.1280
 2260SOL    HW118413   0.431   1.565   2.349 -0.0920 -0.5107 -0.0581
 2260SOL    HW218414   0.304   1.642   2.345  1.4331  0.9339  0.6812
 2261SOL     OW18415   2.153   2.681   7.089 -0.2965 -0.3791  0.1367
 2261SOL    HW118416   2.141   2.775   7.098 -1.6366 -0.5899  0.5035
 2261SOL    HW218417   2.072   2.653   7.046  0.7309 -0.4232 -1.8184
 2262SOL     OW18418   4.274   2.253  13.969 -0.2256 -0.7717 -0.4521
 2262SOL    HW118419   4.208   2.274  14.036 -0.7018 -2.8159 -0.2791
 2262SOL    HW218420   4.262   2.318  13.900 -0.8780  0.8672  1.1884
 2263SOL     OW18421   0.526   4.119  13.833  0.1159 -0.2106  0.1347
 2263SOL    HW118422   0.510   4.190  13.771  0.0602 -0.3446 -0.0040
 2263SOL    HW218423   0.592   4.072  13.781 -0.5002  0.6369 -1.4059
 2264SOL     OW18424   3.595   3.788   7.701  0.1731  0.4862 -0.3415
 2264SOL    HW118425   3.500   3.787   7.685 -0.0880 -1.7239  1.3229
 2264SOL    HW218426   3.611   3.739   7.782  0.0862  2.0240  0.6182
 2265SOL     OW18427   0.240   1.585   4.606 -0.2872  0.0851  0.1963
 2265SOL    HW118428   0.266   1.593   4.698 -0.7324 -0.7530  0.3956
 2265SOL    HW218429   0.302   1.649   4.570 -1.3002  1.9169  1.7201
 2266SOL     OW18430   3.101   1.239   9.243 -0.3757  0.0176  0.3642
 2266SOL    HW118431   3.097   1.219   9.150 -0.3667  0.7578  0.2073
 2266SOL    HW218432   3.146   1.324   9.249  0.5072 -0.2890 -1.9780
 2267SOL     OW18433   2.569   4.577   6.574 -0.0958 -0.3701 -0.0788
 2267SOL    HW118434   2.552   4.644   6.640  2.4675  0.6077 -0.4356
 2267SOL    HW218435   2.502   4.512   6.599  0.3542 -1.6789 -2.2464
 2268SOL     OW18436   0.268   1.140   9.964 -0.2802  0.4397 -0.1222
 2268SOL    HW118437   0.270   1.151  10.059 -0.9293  1.1423 -0.1928
 2268SOL    HW218438   0.183   1.172   9.935 -0.6970 -0.0132  0.6074
 2269SOL     OW18439   1.371   4.497   6.233  0.2472  0.4663  0.1202
 2269SOL    HW118440   1.321   4.429   6.279 -1.9015  1.1736 -1.1573
 2269SOL    HW218441   1.443   4.502   6.296  0.8544 -0.3452 -0.5132
 2270SOL     OW18442   3.612   2.340  16.198  0.1109  0.6258  0.1245
 2270SOL    HW118443   3.624   2.435  16.190  0.0652  0.4428 -2.2284
 2270SOL    HW218444   3.558   2.315  16.122  0.4010 -2.9160  1.0745
 2271SOL     OW18445   2.968   2.445  12.298  0.5091  0.2685  0.1151
 2271SOL    HW118446   2.945   2.487  12.381  2.0653 -1.2955  1.3433
 2271SOL    HW218447   3.032   2.380  12.327 -1.7529 -0.9020  2.4209
 2272SOL     OW18448   4.687   3.237   2.255  0.5297 -0.4505 -0.6174
 2272SOL    HW118449   0.016   3.261   2.189 -0.4674  0.5676 -1.2351
 2272SOL    HW218450   4.681   3.145   2.231  1.7291 -0.0959 -2.2632
 2273SOL     OW18451   2.740   2.593   5.994  0.0068  0.2302 -0.1299
 2273SOL    HW118452   2.779   2.565   6.077  1.4998  3.8553  0.4188
 2273SOL    HW218453   2.722   2.687   6.005 -2.2020 -0.1571 -0.3832
 2274SOL     OW18454   4.011   4.713   4.148 -0.3355 -0.3400  0.3602
 2274SOL    HW118455   4.024   4.636   4.203  0.4659  0.7184  1.6514
 2274SOL    HW218456   4.039   0.053   4.199 -2.5264  0.3038  0.5917
 2275SOL     OW18457   0.059   2.135   2.154  0.3254 -0.3268 -0.0942
 2275SOL    HW118458   0.010   2.216   2.140  1.7543  0.3706 -1.1279
 2275SOL    HW218459   0.030   2.084   2.078 -0.6986  1.0798 -0.6478
 2276SOL     OW18460   2.225   0.084  10.451  0.1986  0.0802  0.4699
 2276SOL    HW118461   2.291   0.066  10.384 -1.3609 -2.0989 -0.4781
 2276SOL    HW218462   2.169   0.007  10.451  0.5276 -0.1569 -0.0878
 2277SOL     OW18463   1.004   4.351   9.725  0.0119 -0.4295 -0.0471
 2277SOL    HW118464   1.046   4.434   9.703  0.4816 -0.0499  2.2487
 2277SOL    HW218465   1.037   4.333   9.813  1.0313  0.5230 -0.2224
 2278SOL     OW18466   3.496   2.289   7.617 -0.2967  0.4335  0.3384
 2278SOL    HW118467   3.543   2.208   7.638 -0.0628  0.8823  1.5322
 2278SOL    HW218468   3.429   2.306   7.683 -0.6502  0.1291  0.0564
 2279SOL     OW18469   1.498   1.942   9.523  0.5092  0.6020 -0.1872
 2279SOL    HW118470   1.448   1.866   9.553  1.0561  0.6774  0.8936
 2279SOL    HW218471   1.440   2.009   9.558  0.3659 -0.2476  1.1757
 2280SOL     OW18472   0.573   4.203  17.161 -0.0615  0.8539 -0.1226
 2280SOL    HW118473   0.662   4.220  17.191 -0.1544 -1.2094  1.3512
 2280SOL    HW218474   0.591   4.216  17.068  1.2544 -2.9208 -0.4020
 2281SOL     OW18475   4.224   0.889  13.829 -0.1187  0.1930  0.0628
 2281SOL    HW118476   4.185   0.936  13.755  1.8258 -1.7618 -2.2048
 2281SOL    HW218477   4.145   0.883  13.884 -1.0944 -2.9714 -1.6843
 2282SOL     OW18478   1.542   0.021  17.314 -0.2842  0.3285  0.3208
 2282SOL    HW118479   1.541   0.002  17.407  1.2938 -0.1084  0.2515
 2282SOL    HW218480   1.618   0.077  17.300  0.7304 -0.9309  0.8171
 2283SOL     OW18481   2.750   3.937  14.268 -0.2716 -0.1649 -0.3987
 2283SOL    HW118482   2.789   3.933  14.355 -1.6083  0.2157  0.1999
 2283SOL    HW218483   2.676   3.878  14.278 -1.2545  0.7932 -2.1083
 2284SOL     OW18484   0.700   1.297   3.316  0.2144 -0.2855 -0.4124
 2284SOL    HW118485   0.768   1.229   3.322 -0.6996 -1.1988 -0.4922
 2284SOL    HW218486   0.625   1.251   3.279  1.5601 -2.4537 -0.4722
 2285SOL     OW18487   1.823   2.527   4.119  0.0169  0.0858 -0.0356
 2285SOL    HW118488   1.837   2.573   4.202  2.1896  0.8303 -0.8171
 2285SOL    HW218489   1.899   2.558   4.071  0.3270 -0.2382  0.2420
 2286SOL     OW18490   1.821   0.395   9.427  0.1325  0.6924  0.5783
 2286SOL    HW118491   1.817   0.484   9.391  2.4547 -0.1266 -1.7160
 2286SOL    HW218492   1.915   0.376   9.426 -0.1356 -0.6005  0.2428
 2287SOL     OW18493   1.712   4.049   5.631 -0.1442  0.1008 -0.3563
 2287SOL    HW118494   1.798   4.007   5.617  0.1030 -0.5634  3.0759
 2287SOL    HW218495   1.731   4.133   5.590 -0.5431 -0.3567 -1.4927
 2288SOL     OW18496   2.082   0.763   6.870  0.2929  0.0783  0.2629
 2288SOL    HW118497   2.016   0.787   6.805 -0.6454  0.4656  1.3627
 2288SOL    HW218498   2.104   0.847   6.912 -0.6974  0.3991  0.1376
 2289SOL     OW18499   1.728   0.917   0.087 -0.0939  0.1671  0.4337
 2289SOL    HW118500   1.813   0.944   0.120  0.3259 -1.7659  0.9310
 2289SOL    HW218501   1.680   0.999   0.098  1.7100  0.9893  2.0792
 2290SOL     OW18502   4.460   3.554   1.903 -0.4941  0.4634  0.4056
 2290SOL    HW118503   4.412   3.487   1.853  0.9562 -0.7788  0.7048
 2290SOL    HW218504   4.384   3.606   1.929  1.0594  3.0948 -0.3306
 2291SOL     OW18505   2.634   1.918   6.459  0.3789  0.2712  0.0501
 2291SOL    HW118506   2.640   2.003   6.414 -0.7794  0.9454  1.1788
 2291SOL    HW218507   2.681   1.854   6.405  1.8334  0.0808  1.5594
 2292SOL     OW18508   1.012   1.696   3.088  0.7429  1.0564  0.3242
 2292SOL    HW118509   0.962   1.755   3.145 -0.1946  0.2183  0.3618
 2292SOL    HW218510   1.018   1.615   3.138 -1.5619  0.7406  0.1079
 2293SOL     OW18511   3.902   3.967  16.562 -0.7645  0.0029 -0.2670
 2293SOL    HW118512   3.983   4.006  16.593  0.0043 -1.1093 -0.8704
 2293SOL    HW218513   3.933   3.925  16.482 -1.8390 -1.6176  0.1599
 2294SOL     OW18514   0.966   1.287   3.693 -0.1270 -0.3123  0.0616
 2294SOL    HW118515   1.004   1.284   3.781  1.1100  1.6875 -0.4043
 2294SOL    HW218516   0.919   1.204   3.689 -0.9203  0.2323 -1.8677
 2295SOL     OW18517   3.323   0.587  16.250 -0.6149  0.0392 -0.2646
 2295SOL    HW118518   3.319   0.527  16.324  2.3051  0.8811  0.5826
 2295SOL    HW218519   3.383   0.528  16.205 -0.8068  1.2837 -2.1720
 2296SOL     OW18520   3.593   2.553   8.461  0.0803  0.2465  0.6193
 2296SOL    HW118521   3.675   2.565   8.413 -0.6095  1.2952 -0.3009
 2296SOL    HW218522   3.517   2.556   8.403  0.6988  2.4206 -0.0737
 2297SOL     OW18523   0.468   1.168   3.761  0.4379 -0.2917 -0.3964
 2297SOL    HW118524   0.550   1.195   3.801 -0.3977  0.6043  0.7157
 2297SOL    HW218525   0.486   1.208   3.676 -0.0330  1.1724  0.1923
 2298SOL     OW18526   1.766   2.600  11.282  0.4417 -0.1880 -0.6702
 2298SOL    HW118527   1.684   2.551  11.272  1.9173 -2.5660 -1.2175
 2298SOL    HW218528   1.756   2.670  11.217  3.3935  1.4138  0.6228
 2299SOL     OW18529   3.053   3.337   6.083  0.1430  0.3685  0.7103
 2299SOL    HW118530   2.987   3.375   6.141  0.1011 -0.0303  0.9232
 2299SOL    HW218531   3.141   3.347   6.119  0.8017 -1.1027 -0.5021
 2300SOL     OW18532   3.580   1.436  11.244 -0.3527  0.1440  0.2794
 2300SOL    HW118533   3.594   1.499  11.172 -0.5591 -1.0936 -0.8429
 2300SOL    HW218534   3.570   1.355  11.195  2.2996 -0.8466  1.3716
 2301SOL     OW18535   1.881   0.792   3.397 -0.3015 -0.7331  0.4310
 2301SOL    HW118536   1.790   0.770   3.375  0.0071  0.4948 -2.1209
 2301SOL    HW218537   1.932   0.753   3.326 -0.2411  0.5199 -0.2105
 2302SOL     OW18538   2.218   2.787  12.271  0.2615  0.2733  0.0613
 2302SOL    HW118539   2.255   2.762  12.186 -0.1767  0.8501 -0.3012
 2302SOL    HW218540   2.278   2.861  12.283 -0.5668  0.7642  1.1460
 2303SOL     OW18541   3.331   1.226   0.192  0.3129 -0.1415 -0.6569
 2303SOL    HW118542   3.273   1.290   0.150 -0.1324 -1.0344 -1.4007
 2303SOL    HW218543   3.394   1.276   0.244 -1.1372 -0.4859  1.4049
 2304SOL     OW18544   1.318   2.970   9.112 -0.5589 -0.3684  0.2043
 2304SOL    HW118545   1.361   3.028   9.174 -0.4975 -1.6597  1.3706
 2304SOL    HW218546   1.335   2.884   9.150  1.0753  0.6433  1.7461
 2305SOL     OW18547   0.578   0.612   4.131  0.1226 -0.9857 -0.6013
 2305SOL    HW118548   0.658   0.662   4.150  0.4492 -0.5553 -3.1676
 2305SOL    HW218549   0.582   0.594   4.038  0.0394  0.6337 -0.9216
 2306SOL     OW18550   3.255   0.165  12.574  0.0646 -0.2087  0.6783
 2306SOL    HW118551   3.183   0.222  12.547  1.7341  1.6584  0.1382
 2306SOL    HW218552   3.276   0.107  12.501 -0.0327  1.6720 -0.8323
 2307SOL     OW18553   4.629   0.095  14.328 -0.4606 -0.1035 -0.2053
 2307SOL    HW118554   4.574   0.055  14.260 -0.9685 -0.5475  0.4728
 2307SOL    HW218555   4.566   0.141  14.382  1.7467  1.8501  0.7060
 2308SOL     OW18556   2.444   2.993  10.915 -0.0455  0.1528 -0.2284
 2308SOL    HW118557   2.464   2.900  10.902  3.3656  0.8126  0.3170
 2308SOL    HW218558   2.530   3.035  10.906  0.8235 -1.3749  1.1065
 2309SOL     OW18559   3.102   3.039   6.504 -0.0567  0.1562  0.2976
 2309SOL    HW118560   3.047   2.990   6.443  0.1678  0.5706 -0.2340
 2309SOL    HW218561   3.097   2.993   6.588 -0.7415  0.8820  0.6517
 2310SOL     OW18562   2.550   2.859  15.589  0.8754 -0.2333  0.6334
 2310SOL    HW118563   2.620   2.850  15.525  1.6978 -0.3413  1.5470
 2310SOL    HW218564   2.501   2.776  15.590  0.1518  0.1990  1.1241
 2311SOL     OW18565   1.381   3.839   9.133 -0.1547  0.1304  0.8187
 2311SOL    HW118566   1.319   3.783   9.181 -1.9148  1.1011 -0.3184
 2311SOL    HW218567   1.326   3.865   9.060  0.1320  1.3883  1.0392
 2312SOL     OW18568   3.828   0.428   7.629  0.2632 -0.1367  0.4073
 2312SOL    HW118569   3.781   0.345   7.625  3.0628 -1.6595 -0.3136
 2312SOL    HW218570   3.759   0.494   7.639 -0.8176 -1.2759  0.5245
 2313SOL     OW18571   3.448   0.569   5.757  0.2060  0.3138  0.2842
 2313SOL    HW118572   3.360   0.531   5.760  0.8015 -1.1588 -1.1167
 2313SOL    HW218573   3.442   0.604   5.668 -2.5561  1.5017  0.9287
 2314SOL     OW18574   0.691   1.996   0.983 -0.1938  0.0786 -0.3242
 2314SOL    HW118575   0.683   1.901   0.994  2.4324  0.1476  2.2230
 2314SOL    HW218576   0.730   2.010   0.897 -1.6938 -3.0290 -1.5435
 2315SOL     OW18577   2.898   1.252  16.568  0.0061  0.3017 -0.3111
 2315SOL    HW118578   2.979   1.277  16.613 -0.2188  0.6685 -0.1106
 2315SOL    HW218579   2.912   1.284  16.478 -0.8615 -1.0359 -0.9307
 2316SOL     OW18580   1.843   0.204   0.562  0.2516  0.2281 -0.0645
 2316SOL    HW118581   1.853   0.115   0.528 -1.3057  0.0588 -0.0611
 2316SOL    HW218582   1.791   0.180   0.639  0.7614 -2.8082 -0.6371
 2317SOL     OW18583   0.882   4.674   6.912  0.2695  0.0723 -0.0753
 2317SOL    HW118584   0.834   4.591   6.914 -1.2083  0.9546  0.7859
 2317SOL    HW218585   0.822   0.002   6.874 -0.3127 -0.7034 -0.4645
 2318SOL     OW18586   2.530   0.111   2.096 -0.4314 -0.6483  0.4730
 2318SOL    HW118587   2.465   0.115   2.026 -0.9031 -2.1432  0.8272
 2318SOL    HW218588   2.556   0.019   2.095  1.2328 -0.1740  0.6357
 2319SOL     OW18589   4.641   3.740   4.973  0.4694 -0.0604 -0.5560
 2319SOL    HW118590   4.712   3.769   5.031  0.0253 -1.4625  0.6821
 2319SOL    HW218591   4.567   3.798   4.991 -0.2454 -0.5231 -2.0165
 2320SOL     OW18592   3.439   1.138  13.105 -0.1830  0.0880 -0.6143
 2320SOL    HW118593   3.431   1.061  13.049  1.4958 -1.9309  1.9313
 2320SOL    HW218594   3.373   1.118  13.170  1.2170  0.9579  1.0695
 2321SOL     OW18595   0.330   2.017  15.176  0.5423  0.7895  0.1227
 2321SOL    HW118596   0.294   1.930  15.155 -0.2181  0.8235  1.2595
 2321SOL    HW218597   0.277   2.077  15.124 -1.9956 -0.9521  0.6734
 2322SOL     OW18598   2.914   3.142   4.046 -0.0621  0.0835  0.5701
 2322SOL    HW118599   2.839   3.171   3.994 -0.7789 -0.4884  1.2876
 2322SOL    HW218600   2.974   3.110   3.979 -1.2883 -1.7871  0.3646
 2323SOL     OW18601   4.430   3.364   2.170 -0.4626 -0.1970 -0.1595
 2323SOL    HW118602   4.507   3.319   2.205 -1.3302 -1.0284  0.6578
 2323SOL    HW218603   4.422   3.325   2.083  1.6253 -1.7887  0.3598
 2324SOL     OW18604   3.587   4.453   0.828 -0.0008  0.3846  0.3589
 2324SOL    HW118605   3.578   4.537   0.783 -0.1167 -0.8875 -1.9995
 2324SOL    HW218606   3.673   4.418   0.804  0.4833 -0.0468  2.7508
 2325SOL     OW18607   3.295   0.185   8.837  0.1543 -0.3610  0.6378
 2325SOL    HW118608   3.362   0.241   8.798 -0.1042  1.5530  2.8946
 2325SOL    HW218609   3.316   0.188   8.931 -0.6216 -0.9947  0.8346
 2326SOL     OW18610   1.429   1.882  13.174 -0.2966  0.0486 -0.4056
 2326SOL    HW118611   1.446   1.842  13.260 -0.3819  1.3276  0.2050
 2326SOL    HW218612   1.333   1.879  13.176 -0.2566 -0.9417  0.0191
 2327SOL     OW18613   1.117   3.622  15.709  0.1661  0.3372  0.4455
 2327SOL    HW118614   1.143   3.540  15.669 -0.2162 -0.3484  1.6072
 2327SOL    HW218615   1.196   3.675  15.695 -1.0214  1.4191 -2.1809
 2328SOL     OW18616   3.833   1.292   2.025  0.3716 -0.4055 -0.2504
 2328SOL    HW118617   3.872   1.379   2.019  0.0936 -0.2369  0.3703
 2328SOL    HW218618   3.911   1.236   2.020  0.5075 -0.1843 -0.5665
 2329SOL     OW18619   1.777   2.672   4.967  0.1232  0.2077  0.2178
 2329SOL    HW118620   1.793   2.723   4.888  2.1200  0.2173  0.6476
 2329SOL    HW218621   1.683   2.671   4.986  0.2261  2.4407  0.8077
 2330SOL     OW18622   3.979   1.519  15.708  0.2880 -0.0739 -0.2942
 2330SOL    HW118623   3.968   1.485  15.797  0.4738  1.5611  0.3483
 2330SOL    HW218624   3.919   1.593  15.700 -0.4807 -0.6297  0.4112
 2331SOL     OW18625   2.741   1.420   1.961 -0.3076 -0.2100  0.1291
 2331SOL    HW118626   2.800   1.357   2.002  1.1061  1.0988  0.0561
 2331SOL    HW218627   2.778   1.422   1.873  1.9742 -0.8148  1.0688
 2332SOL     OW18628   1.041   0.042   7.484 -0.1740 -0.7080  0.2993
 2332SOL    HW118629   0.951   0.058   7.457 -0.6560 -2.2073  0.9606
 2332SOL    HW218630   1.019   4.714   7.552  0.3818 -3.8990 -2.5463
 2333SOL     OW18631   3.098   3.401   3.380  0.0568 -0.1404  0.9531
 2333SOL    HW118632   3.057   3.329   3.427 -1.1716  0.0457  0.1708
 2333SOL    HW218633   3.019   3.454   3.368 -0.2252 -0.5069  1.1958
 2334SOL     OW18634   4.027   3.655   5.344 -0.6430 -0.0274  0.1580
 2334SOL    HW118635   4.045   3.569   5.381  1.5185  0.7268  0.8391
 2334SOL    HW218636   4.023   3.708   5.424 -1.1291 -0.3713  0.3619
 2335SOL     OW18637   3.975   0.465  14.580  0.1189  0.5777 -0.3085
 2335SOL    HW118638   4.013   0.377  14.580 -0.6458  0.2479 -0.1581
 2335SOL    HW218639   4.059   0.504  14.555 -0.4133  1.3176 -0.9057
 2336SOL     OW18640   0.414   3.929   3.293 -0.8542 -0.3978 -0.2570
 2336SOL    HW118641   0.490   3.964   3.247 -1.7052 -0.1731 -1.4681
 2336SOL    HW218642   0.363   4.008   3.308 -0.0650 -0.3774  2.4514
 2337SOL     OW18643   0.639   1.274  15.952  0.1808  0.0910  0.3368
 2337SOL    HW118644   0.560   1.227  15.924 -0.1663  1.5806 -1.1839
 2337SOL    HW218645   0.705   1.242  15.892 -0.0342 -0.3315  0.3273
 2338SOL     OW18646   0.749   3.744  16.919  0.2690 -0.2421  1.2552
 2338SOL    HW118647   0.740   3.832  16.956  1.1924 -0.2321  1.4484
 2338SOL    HW218648   0.844   3.736  16.916  0.1361 -1.8897  1.4028
 2339SOL     OW18649   2.813   2.252  13.214  0.3059  0.6156  0.9226
 2339SOL    HW118650   2.763   2.190  13.162  1.6250  0.2000  0.1572
 2339SOL    HW218651   2.835   2.198  13.290  1.0606 -2.4075 -1.4554
 2340SOL     OW18652   1.125   1.390   6.297 -0.3181  0.6476 -0.1974
 2340SOL    HW118653   1.079   1.335   6.361  0.3653 -0.8880 -1.0463
 2340SOL    HW218654   1.162   1.456   6.356  0.5193  1.4314 -1.6185
 2341SOL     OW18655   1.389   0.094   3.866 -0.2302 -0.1410  0.4811
 2341SOL    HW118656   1.312   0.150   3.858 -0.9457 -1.3097 -0.8292
 2341SOL    HW218657   1.349   0.011   3.842  0.4297  0.1035 -1.5129
 2342SOL     OW18658   2.945   2.346   6.185 -0.0995  0.3467 -0.0639
 2342SOL    HW118659   2.961   2.353   6.279 -0.9549  1.2624  0.0138
 2342SOL    HW218660   2.851   2.363   6.187 -0.2258 -0.3562 -0.2027
 2343SOL     OW18661   1.929   3.868  10.584 -0.2216 -0.2226  0.3016
 2343SOL    HW118662   1.993   3.910  10.526 -2.7772  2.7364 -0.4225
 2343SOL    HW218663   1.971   3.881  10.669 -1.2958 -0.0072  0.8095
 2344SOL     OW18664   2.187   0.127   5.431 -0.5188 -0.0484 -0.1573
 2344SOL    HW118665   2.209   0.093   5.344  0.5539 -1.0496  0.5014
 2344SOL    HW218666   2.098   0.161   5.428 -0.3520  0.4775  1.0531
 2345SOL     OW18667   2.932   1.029   1.636  0.4767 -0.2252  0.2688
 2345SOL    HW118668   2.853   0.988   1.601  0.1247  0.5633  0.1238
 2345SOL    HW218669   2.990   0.956   1.654 -1.0891 -1.6703 -0.4908
 2346SOL     OW18670   4.628   1.935  17.655 -1.2867 -0.1634  0.1335
 2346SOL    HW118671   4.563   2.005  17.662 -1.6279 -0.2919 -1.7121
 2346SOL    HW218672   4.710   1.985  17.653 -0.1125 -2.0728  0.6401
 2347SOL     OW18673   1.793   1.052  14.012  0.0956  0.3047 -0.6273
 2347SOL    HW118674   1.818   1.063  14.104  0.0848  1.0665 -0.7128
 2347SOL    HW218675   1.789   1.143  13.983  3.3680  0.6977  0.1912
 2348SOL     OW18676   1.864   3.595   7.851  0.4121 -0.0501  0.3678
 2348SOL    HW118677   1.886   3.524   7.911  1.2655 -0.7594 -0.7835
 2348SOL    HW218678   1.899   3.673   7.896  1.5346 -0.7828  0.7704
 2349SOL     OW18679   3.596   4.416   3.187  0.0546  0.0722 -0.2590
 2349SOL    HW118680   3.548   4.343   3.225  3.3885 -1.9206  0.1711
 2349SOL    HW218681   3.523   4.477   3.195  0.4006  0.4864 -0.2547
 2350SOL     OW18682   0.458   4.478   2.740 -0.1943  0.4309 -0.1220
 2350SOL    HW118683   0.548   4.494   2.711 -0.0556  0.3239  0.2465
 2350SOL    HW218684   0.430   4.562   2.775 -2.2150 -1.2418  2.2903
 2351SOL     OW18685   3.644   4.205   2.937  0.0814  0.3612  0.2520
 2351SOL    HW118686   3.561   4.239   2.971 -0.1059  1.0528 -0.8952
 2351SOL    HW218687   3.690   4.287   2.916  0.0411  0.0801 -0.9260
 2352SOL     OW18688   3.387   0.987  16.465  0.1065 -0.1965  0.2826
 2352SOL    HW118689   3.318   1.032  16.417  1.3026  0.2727 -1.0157
 2352SOL    HW218690   3.342   0.948  16.540  0.7313 -2.6673 -0.5991
 2353SOL     OW18691   0.491   2.296   8.837 -0.3430 -0.1822 -0.2482
 2353SOL    HW118692   0.528   2.237   8.902 -0.3064  0.9507  0.7627
 2353SOL    HW218693   0.492   2.253   8.751  2.1830 -0.2479 -0.1663
 2354SOL     OW18694   3.034   4.053   1.751  0.2413 -0.5705  0.4114
 2354SOL    HW118695   2.996   4.069   1.837  0.9117 -2.2294  1.0122
 2354SOL    HW218696   3.086   3.973   1.762 -0.3421 -0.9000  0.7460
 2355SOL     OW18697   1.633   1.938   5.574  0.1773  0.3062  0.2493
 2355SOL    HW118698   1.592   2.012   5.617  2.6695  0.6893  1.9625
 2355SOL    HW218699   1.583   1.866   5.613  2.4156  0.1406  2.8492
 2356SOL     OW18700   2.989   1.130   7.279  0.0468 -0.2174 -0.4058
 2356SOL    HW118701   2.909   1.153   7.231 -0.0146 -3.6753 -1.9335
 2356SOL    HW218702   3.013   1.217   7.312 -0.3972 -0.1948 -0.1441
 2357SOL     OW18703   2.139   1.491  13.614 -0.4995 -0.2461 -0.0006
 2357SOL    HW118704   2.143   1.482  13.518 -3.0467 -0.2731 -0.0837
 2357SOL    HW218705   2.073   1.557  13.632  1.8433  3.0208 -3.2345
 2358SOL     OW18706   4.368   3.864   0.852 -0.2283  0.2455 -0.8233
 2358SOL    HW118707   4.338   3.790   0.799  3.6105 -2.9513  1.5435
 2358SOL    HW218708   4.292   3.885   0.907 -0.4189 -1.4807 -0.4455
 2359SOL     OW18709   4.732   3.350   7.717  0.2453 -0.5432  0.3483
 2359SOL    HW118710   0.064   3.360   7.650 -0.5917 -1.2563 -0.6039
 2359SOL    HW218711   0.031   3.271   7.757 -0.5003 -0.8383  0.3997
 2360SOL     OW18712   2.747   0.032   3.542  0.0401  0.2495 -0.5289
 2360SOL    HW118713   2.759   0.064   3.631 -2.0316  1.6110 -0.7401
 2360SOL    HW218714   2.738   0.114   3.494 -1.0842  0.4240 -0.0292
 2361SOL     OW18715   1.660   1.972   4.703 -0.2916  0.0253  0.5862
 2361SOL    HW118716   1.623   2.023   4.775 -1.9102 -1.4630  0.8016
 2361SOL    HW218717   1.728   1.916   4.741 -0.9157 -1.7920 -0.9501
 2362SOL     OW18718   1.068   1.848   6.261  0.0482  0.7283  0.1911
 2362SOL    HW118719   1.031   1.857   6.348  0.1743 -0.5078  0.3674
 2362SOL    HW218720   1.112   1.932   6.246  1.8255 -0.3212 -0.4891
 2363SOL     OW18721   1.792   2.517   3.240  0.3254 -0.4372  0.2852
 2363SOL    HW118722   1.748   2.553   3.163  0.9406 -1.8413 -0.7220
 2363SOL    HW218723   1.864   2.580   3.252  0.2245 -0.2845  0.0948
 2364SOL     OW18724   1.766   1.828  17.495  0.0454  0.1921 -0.7025
 2364SOL    HW118725   1.725   1.749  17.459  0.8460 -1.0618  1.1067
 2364SOL    HW218726   1.801   1.880  17.423  0.6409  0.4072 -0.2530
 2365SOL     OW18727   1.267   1.468  10.350  0.5395  0.1132  0.4976
 2365SOL    HW118728   1.178   1.498  10.366  0.2715 -1.0537  1.2139
 2365SOL    HW218729   1.243   1.404  10.283  0.2627  0.1126  0.5968
 2366SOL     OW18730   2.961   3.831  13.578 -0.8967 -0.0191  0.6040
 2366SOL    HW118731   2.980   3.775  13.653  1.9851  0.5636  0.2868
 2366SOL    HW218732   2.923   3.914  13.608  0.3432  0.7998 -0.1038
 2367SOL     OW18733   1.008   1.749  13.403 -0.1666  0.0872  0.0349
 2367SOL    HW118734   0.985   1.825  13.456 -0.3460  0.8031 -1.0723
 2367SOL    HW218735   1.024   1.797  13.322 -1.4084 -0.1106 -0.3298
 2368SOL     OW18736   2.484   3.700   4.778  0.0393 -0.3058 -0.1182
 2368SOL    HW118737   2.478   3.612   4.813  1.1602 -0.1237  0.5195
 2368SOL    HW218738   2.437   3.683   4.697  0.0629  1.0138 -0.4142
 2369SOL     OW18739   0.654   0.561   3.845  0.6302  0.0975 -0.2875
 2369SOL    HW118740   0.716   0.635   3.840  0.9064 -0.0106  1.5637
 2369SOL    HW218741   0.672   0.523   3.759  0.7757 -1.3692  0.3937
 2370SOL     OW18742   1.237   1.534   2.773  0.2372  0.3885 -0.0019
 2370SOL    HW118743   1.174   1.549   2.702  1.5336  0.4285 -1.1382
 2370SOL    HW218744   1.199   1.580   2.848 -0.7358  0.0453 -0.2741
 2371SOL     OW18745   1.969   4.424   5.434 -0.1799 -0.1819  0.4810
 2371SOL    HW118746   1.921   4.497   5.473 -0.2831  1.7716 -3.3106
 2371SOL    HW218747   2.010   4.391   5.514  0.3112  0.9243  0.6795
 2372SOL     OW18748   2.153   3.403  12.480  0.2508 -0.0595  0.2377
 2372SOL    HW118749   2.187   3.326  12.433  1.2395  0.4108  0.1961
 2372SOL    HW218750   2.180   3.469  12.416 -0.8119  3.5890  3.5818
 2373SOL     OW18751   4.048   3.043   4.833  0.9277  0.2215  0.3015
 2373SOL    HW118752   4.065   2.974   4.768 -0.5822  0.6753 -0.5879
 2373SOL    HW218753   3.999   3.111   4.787 -0.3047 -0.2565  0.8985
 2374SOL     OW18754   3.091   0.902  14.670  0.0336 -0.1444  0.4317
 2374SOL    HW118755   3.088   0.985  14.622 -0.0231 -0.0595  0.5817
 2374SOL    HW218756   2.999   0.877  14.668 -0.2245  0.5914  3.8734
 2375SOL     OW18757   4.297   0.392   4.803  1.1072 -0.3857  0.0236
 2375SOL    HW118758   4.228   0.332   4.775 -2.4660  1.4523  4.9425
 2375SOL    HW218759   4.276   0.464   4.745 -1.5124 -1.7428 -0.6941
 2376SOL     OW18760   2.747   3.252  13.298 -0.0960  0.2369 -0.2411
 2376SOL    HW118761   2.804   3.213  13.364  2.1636  0.5676 -1.9787
 2376SOL    HW218762   2.749   3.343  13.326 -1.4021  0.4790 -0.9120
 2377SOL     OW18763   2.044   4.673   8.707 -0.4375  0.4648 -0.4264
 2377SOL    HW118764   2.037   0.021   8.663 -0.3829  0.3034 -0.7481
 2377SOL    HW218765   2.075   4.697   8.794  0.4442  0.7828 -0.8377
 2378SOL     OW18766   2.905   1.174  15.034 -0.2220  0.3003  0.3463
 2378SOL    HW118767   2.946   1.112  15.093 -0.1936  0.1138  0.1328
 2378SOL    HW218768   2.959   1.171  14.955 -2.7361 -1.2632 -1.3332
 2379SOL     OW18769   4.043   1.855   8.242 -0.0586  0.1617  0.1102
 2379SOL    HW118770   4.028   1.820   8.154 -0.8871  2.2417 -0.5699
 2379SOL    HW218771   3.976   1.810   8.294  0.3705 -2.5542 -1.6622
 2380SOL     OW18772   0.727   2.744   1.888  0.3844  0.2734  0.2475
 2380SOL    HW118773   0.754   2.822   1.840 -2.0728  1.1969  0.3698
 2380SOL    HW218774   0.755   2.674   1.828  0.1126  1.3546 -1.1357
 2381SOL     OW18775   2.987   0.051   0.904 -0.5909 -0.0458  0.0480
 2381SOL    HW118776   3.040   0.102   0.842 -1.9523  1.3703  0.0262
 2381SOL    HW218777   3.040   0.033   0.981  0.6378 -0.2266 -0.8478
 2382SOL     OW18778   2.248   2.822  10.363 -0.3860  0.0653  0.2990
 2382SOL    HW118779   2.174   2.831  10.303  1.2074 -3.1300 -2.1401
 2382SOL    HW218780   2.217   2.884  10.429 -0.6690 -1.0761  1.2366
 2383SOL     OW18781   2.224   2.443   2.039  0.2278  1.0871 -0.7837
 2383SOL    HW118782   2.268   2.526   2.061 -0.5629  0.9032  1.4607
 2383SOL    HW218783   2.294   2.388   2.075  0.8058  2.5507  0.3314
 2384SOL     OW18784   3.308   4.389  10.204 -0.0527  0.1752  0.1479
 2384SOL    HW118785   3.251   4.462  10.226 -0.8237  0.0509 -1.4387
 2384SOL    HW218786   3.251   4.318  10.173  0.8056  0.2274 -1.5280
 2385SOL     OW18787   1.899   3.724   2.444  0.1544 -0.3809  0.0203
 2385SOL    HW118788   1.889   3.698   2.352  0.0810 -0.9573  0.1903
 2385SOL    HW218789   1.872   3.815   2.437  1.5270  0.0397  0.2689
 2386SOL     OW18790   2.726   4.255  13.085  0.6510  0.1742  0.0310
 2386SOL    HW118791   2.678   4.318  13.032 -1.0297  0.2800  1.6739
 2386SOL    HW218792   2.687   4.173  13.053 -0.4417 -0.0013  1.8086
 2387SOL     OW18793   2.448   1.772   2.677 -0.0310 -0.0210 -0.1163
 2387SOL    HW118794   2.393   1.696   2.656 -0.5454  0.0159  1.0643
 2387SOL    HW218795   2.500   1.771   2.597 -3.0873 -0.8766 -2.0800
 2388SOL     OW18796   2.099   0.820   8.081 -0.2017  0.4103 -0.2383
 2388SOL    HW118797   2.086   0.809   8.175  1.9663 -0.3986 -0.0197
 2388SOL    HW218798   2.129   0.733   8.055  0.8990  0.7013  0.0792
 2389SOL     OW18799   3.764   3.573  17.035 -0.2340 -1.2027  0.0474
 2389SOL    HW118800   3.686   3.552  16.984  0.6758  0.7077 -2.1670
 2389SOL    HW218801   3.793   3.651  16.986  4.7110 -2.7510  0.5087
 2390SOL     OW18802   1.069   2.666   9.163  0.3740 -0.6231  0.1285
 2390SOL    HW118803   1.030   2.618   9.236 -0.4534 -2.4001 -1.4623
 2390SOL    HW218804   1.084   2.597   9.098 -0.6707 -0.1132 -0.6559
 2391SOL     OW18805   3.367   2.288   5.540 -0.9733  0.2963 -1.1006
 2391SOL    HW118806   3.408   2.308   5.456  0.3966 -1.0141 -0.7484
 2391SOL    HW218807   3.300   2.227   5.510 -0.1444  0.3348 -3.0463
 2392SOL     OW18808   1.616   3.608   6.836  0.0431  0.0680  0.3775
 2392SOL    HW118809   1.653   3.534   6.788 -0.6968  0.6485 -1.0982
 2392SOL    HW218810   1.683   3.617   6.903  1.4599 -0.4976 -0.9782
 2393SOL     OW18811   0.855   2.885   0.550  0.3210  0.2335  0.0206
 2393SOL    HW118812   0.781   2.846   0.595  1.3903  0.1199  1.6864
 2393SOL    HW218813   0.860   2.979   0.569 -0.1409  0.2584  0.0132
 2394SOL     OW18814   1.160   1.146   8.499 -0.2227  0.7727 -0.3150
 2394SOL    HW118815   1.161   1.060   8.457  0.7630 -0.0897  1.5089
 2394SOL    HW218816   1.096   1.133   8.568 -0.4270  0.5254 -0.5514
 2395SOL     OW18817   3.569   4.000   5.557 -0.4263 -0.1216  0.4577
 2395SOL    HW118818   3.594   4.028   5.645  1.7464  3.0762 -1.1584
 2395SOL    HW218819   3.547   3.910   5.578 -2.6479  0.4515  0.6285
 2396SOL     OW18820   2.678   3.409   6.512 -0.1610  0.2497 -0.3873
 2396SOL    HW118821   2.747   3.474   6.499 -0.9209  0.9073 -1.2044
 2396SOL    HW218822   2.657   3.430   6.603 -0.6009  1.2662 -0.7197
 2397SOL     OW18823   1.600   2.119   3.290 -0.0479 -0.0470  0.3541
 2397SOL    HW118824   1.554   2.203   3.294 -0.3385 -0.2415  1.1601
 2397SOL    HW218825   1.526   2.061   3.277 -0.8374  1.4428 -1.8215
 2398SOL     OW18826   2.986   3.908   2.063  0.2618  0.0341 -0.3596
 2398SOL    HW118827   3.062   3.863   2.028  0.6564 -0.6313  1.3544
 2398SOL    HW218828   3.028   3.949   2.139 -1.9882  1.0575  0.3521
 2399SOL     OW18829   0.691   1.149   7.111  0.5068 -0.3519  0.2007
 2399SOL    HW118830   0.614   1.162   7.167 -0.2852 -0.6376 -0.8091
 2399SOL    HW218831   0.685   1.056   7.090  1.2114 -0.6912  1.4807
 2400SOL     OW18832   1.688   4.026   8.871  0.1166 -0.0154 -0.0885
 2400SOL    HW118833   1.639   4.101   8.906  0.6720  0.1709  0.2943
 2400SOL    HW218834   1.624   3.954   8.865  2.0347 -1.7281  0.0342
 2401SOL     OW18835   0.552   4.642  13.508 -0.0551  0.0988  0.0852
 2401SOL    HW118836   0.509   4.693  13.576  0.0494  1.0706 -0.5768
 2401SOL    HW218837   0.634   4.692  13.505 -0.2232  0.5116  2.7498
 2402SOL     OW18838   2.086   2.285   9.369 -0.4079  0.3205 -0.1979
 2402SOL    HW118839   2.064   2.233   9.446 -1.4549  1.0992  0.0374
 2402SOL    HW218840   2.040   2.245   9.295  1.4046 -1.7228 -0.2327
 2403SOL     OW18841   1.643   2.917   8.121 -0.1630 -0.1022 -0.3314
 2403SOL    HW118842   1.581   2.881   8.184 -0.7214  1.3066 -0.0665
 2403SOL    HW218843   1.725   2.880   8.154  0.7134  2.1709  0.0232
 2404SOL     OW18844   1.146   4.134   3.548 -0.2303  0.2119 -0.2014
 2404SOL    HW118845   1.162   4.042   3.568 -0.2683  0.0329 -0.9972
 2404SOL    HW218846   1.225   4.162   3.502 -0.0732 -3.7405 -2.3491
 2405SOL     OW18847   4.078   2.756   6.873  0.1515 -0.5253  0.0058
 2405SOL    HW118848   4.029   2.792   6.948 -0.4380  0.6362 -0.9335
 2405SOL    HW218849   4.043   2.806   6.799  2.1792  2.4097  1.0103
 2406SOL     OW18850   3.229   4.682   1.611  0.4053  0.5720 -0.0039
 2406SOL    HW118851   3.173   4.680   1.688  1.8291  0.7283  1.0334
 2406SOL    HW218852   3.291   0.010   1.645  1.2696 -0.5672  0.5554
 2407SOL     OW18853   3.291   3.817   5.159 -0.3721  0.4070  0.0115
 2407SOL    HW118854   3.283   3.723   5.139  1.2843  0.3660 -0.4848
 2407SOL    HW218855   3.371   3.837   5.111 -0.5260 -0.2131 -0.5066
 2408SOL     OW18856   0.493   0.349  11.217 -0.2744 -0.3582 -0.2176
 2408SOL    HW118857   0.485   0.277  11.280 -1.3909  0.7492  0.8945
 2408SOL    HW218858   0.588   0.336  11.215  0.0343  1.7946  0.4908
 2409SOL     OW18859   3.537   1.599  15.837 -0.1118 -0.1364  0.2022
 2409SOL    HW118860   3.598   1.609  15.909 -0.5812  2.9116  0.1632
 2409SOL    HW218861   3.541   1.504  15.833  2.7791 -0.0147  0.5922
 2410SOL     OW18862   2.471   2.426   9.917 -0.5829  0.1992  0.3112
 2410SOL    HW118863   2.486   2.338   9.953  0.3968  0.9463  1.7541
 2410SOL    HW218864   2.479   2.412   9.823 -0.1333 -2.8099  0.7964
 2411SOL     OW18865   4.581   2.150  15.188  0.1941 -0.3246  0.1502
 2411SOL    HW118866   4.512   2.170  15.126 -0.5406  0.4320  1.2014
 2411SOL    HW218867   4.535   2.096  15.252  1.9306  0.1490  1.8023
 2412SOL     OW18868   0.306   2.564  14.712 -0.1065 -0.0393  0.2481
 2412SOL    HW118869   0.257   2.514  14.778  0.3749  1.2376  1.5667
 2412SOL    HW218870   0.274   2.515  14.636 -1.1316  1.9131 -0.5866
 2413SOL     OW18871   0.588   2.683   8.631 -0.0290 -0.6935 -0.4461
 2413SOL    HW118872   0.562   2.677   8.723  2.6142 -1.5205  0.2241
 2413SOL    HW218873   0.683   2.675   8.637 -0.1593 -1.8217  0.1633
 2414SOL     OW18874   3.031   3.253   8.188 -0.1365  0.2501 -0.1509
 2414SOL    HW118875   3.089   3.323   8.157  2.1025 -1.0700  1.0120
 2414SOL    HW218876   2.947   3.293   8.168 -0.6412 -0.1418  1.1659
 2415SOL     OW18877   1.677   3.461   9.147  0.2482 -0.1288 -0.5086
 2415SOL    HW118878   1.582   3.447   9.156  0.6891 -2.4155  0.5315
 2415SOL    HW218879   1.684   3.537   9.088  0.7510 -0.4405 -0.8482
 2416SOL     OW18880   0.924   4.237   3.668  0.1831 -0.3931  0.3389
 2416SOL    HW118881   0.871   4.208   3.595  1.0862 -1.3792  0.0704
 2416SOL    HW218882   0.998   4.176   3.661 -0.3923 -1.0997  0.5140
 2417SOL     OW18883   1.074   4.215   5.019 -0.3557 -0.1402  0.0496
 2417SOL    HW118884   1.009   4.276   5.053  1.1590  1.5045  0.0290
 2417SOL    HW218885   1.044   4.206   4.929 -2.3985  3.1505  0.4108
 2418SOL     OW18886   3.112   1.614   6.799 -0.5367  0.0202 -0.0498
 2418SOL    HW118887   3.064   1.691   6.829  2.2091  2.4691 -1.9568
 2418SOL    HW218888   3.038   1.566   6.762  0.1007 -1.0395  0.0417
 2419SOL     OW18889   1.842   2.877   1.163  0.0466 -0.1989 -0.2676
 2419SOL    HW118890   1.934   2.864   1.186 -0.3831 -2.0725  0.3888
 2419SOL    HW218891   1.822   2.941   1.232  0.5746  0.7550 -1.0037
 2420SOL     OW18892   3.359   0.327   3.864  0.2693 -0.4718  0.3129
 2420SOL    HW118893   3.339   0.420   3.851  1.8844  0.0015  1.1646
 2420SOL    HW218894   3.281   0.307   3.916  0.2093 -0.3236  0.2808
 2421SOL     OW18895   2.175   2.058  17.654 -0.0196  0.4344  0.4577
 2421SOL    HW118896   2.266   2.028  17.652 -0.1298 -0.0454  2.0105
 2421SOL    HW218897   2.196   2.147  17.683  1.2126  0.9433 -2.0939
 2422SOL     OW18898   0.241   2.161  11.310  0.0628  0.0955 -0.7271
 2422SOL    HW118899   0.300   2.228  11.274  1.2537  1.1230  3.1434
 2422SOL    HW218900   0.229   2.201  11.396  0.9144 -1.0016 -0.1040
 2423SOL     OW18901   1.937   2.871   5.093  0.0237 -0.1284 -0.8583
 2423SOL    HW118902   1.851   2.839   5.064 -0.3790  0.2753 -0.1361
 2423SOL    HW218903   1.986   2.790   5.101 -1.5833 -1.2210 -2.2162
 2424SOL     OW18904   3.621   4.171   2.346 -0.0733  0.4810  0.4845
 2424SOL    HW118905   3.698   4.154   2.293 -2.2336  1.8824 -3.1556
 2424SOL    HW218906   3.647   4.263   2.358  0.6952  0.2174  0.8432
 2425SOL     OW18907   1.368   0.083   8.367 -0.0269  0.3275  0.9755
 2425SOL    HW118908   1.393   0.012   8.426  0.6158 -1.9693 -2.0253
 2425SOL    HW218909   1.308   0.129   8.425  0.5578  3.3078 -0.7690
 2426SOL     OW18910   4.265   1.017   4.289  0.2236 -0.3877  0.2846
 2426SOL    HW118911   4.243   0.926   4.308 -0.8352  0.1263  1.5145
 2426SOL    HW218912   4.226   1.057   4.366  2.8210  1.7972  0.4754
 2427SOL     OW18913   1.925   1.286  13.613 -0.0159  0.2005  0.2982
 2427SOL    HW118914   2.013   1.272  13.576 -0.6337 -1.8023 -0.4440
 2427SOL    HW218915   1.883   1.206  13.581  0.0848  0.4619 -0.4788
 2428SOL     OW18916   1.008   2.060   4.390  0.0046 -0.1908  0.3583
 2428SOL    HW118917   1.050   1.975   4.374  2.4786  1.1917 -0.5360
 2428SOL    HW218918   0.962   2.047   4.473 -0.0592  1.8514  0.6343
 2429SOL     OW18919   3.507   0.528   2.491 -0.1691  0.1222  0.2309
 2429SOL    HW118920   3.435   0.504   2.433  0.0270  0.3153 -0.0984
 2429SOL    HW218921   3.558   0.566   2.419  1.0808  0.1051  1.1165
 2430SOL     OW18922   1.877   2.640  11.536 -0.6058  0.7007  0.2224
 2430SOL    HW118923   1.850   2.629  11.444  0.3911 -1.1885  0.1660
 2430SOL    HW218924   1.877   2.554  11.578 -0.4393  0.0790 -1.0407
 2431SOL     OW18925   0.304   3.946   5.716 -0.3170  0.1378  0.1378
 2431SOL    HW118926   0.267   3.879   5.774 -1.2528 -0.9103 -1.7047
 2431SOL    HW218927   0.245   4.020   5.729  0.6794  0.5705  2.4090
 2432SOL     OW18928   2.813   3.738  17.242  0.0053  0.5776 -0.0326
 2432SOL    HW118929   2.758   3.754  17.319 -1.2413 -2.0114 -0.3865
 2432SOL    HW218930   2.746   3.687  17.196 -0.4987  0.4548  0.8375
 2433SOL     OW18931   2.152   2.592   8.816  0.5531 -0.1876 -0.0458
 2433SOL    HW118932   2.213   2.537   8.865  0.3463  0.9935  1.5307
 2433SOL    HW218933   2.175   2.569   8.726 -0.3125  1.3706 -0.6800
 2434SOL     OW18934   2.420   0.888  15.645 -0.1025  0.4726 -0.8560
 2434SOL    HW118935   2.508   0.863  15.671 -0.3783 -1.1753 -1.5217
 2434SOL    HW218936   2.371   0.871  15.726  0.9049 -0.1579 -0.3766
 2435SOL     OW18937   4.189   0.387   9.455 -0.5489  0.4597 -0.4161
 2435SOL    HW118938   4.183   0.438   9.374 -1.7733 -0.1959 -0.7347
 2435SOL    HW218939   4.243   0.313   9.426  0.5676  0.4431  1.7044
 2436SOL     OW18940   1.080   3.431   8.102  0.3900 -0.0273  0.2725
 2436SOL    HW118941   1.173   3.418   8.121  0.2323 -0.3274  0.8577
 2436SOL    HW218942   1.065   3.524   8.121  0.1349  0.2325 -1.2417
 2437SOL     OW18943   3.791   1.495   6.311 -0.3649 -0.0276  0.3783
 2437SOL    HW118944   3.873   1.540   6.291  0.7167 -1.0369  2.5263
 2437SOL    HW218945   3.755   1.572   6.355  0.6742 -0.9992  2.9676
 2438SOL     OW18946   1.651   2.663   3.054 -0.0925  0.1096 -0.1513
 2438SOL    HW118947   1.580   2.707   3.101 -1.1154  1.1350 -2.6838
 2438SOL    HW218948   1.665   2.712   2.973 -1.0304  0.3212 -0.1801
 2439SOL     OW18949   1.140   2.919  11.840  0.0992 -0.0372 -0.3459
 2439SOL    HW118950   1.215   2.908  11.782  1.0333  1.3787  0.5829
 2439SOL    HW218951   1.080   2.976  11.791  0.3491  0.3062 -0.2538
 2440SOL     OW18952   2.856   2.226  12.189  0.2204  0.3233  0.7798
 2440SOL    HW118953   2.888   2.313  12.213 -0.5772  1.1412 -1.1443
 2440SOL    HW218954   2.896   2.183  12.265 -0.3484 -2.3373 -0.4340
 2441SOL     OW18955   2.801   1.304   1.533  0.0878 -0.0610 -0.3348
 2441SOL    HW118956   2.733   1.370   1.515  0.1650  0.1691  0.2351
 2441SOL    HW218957   2.779   1.288   1.624  1.1538  1.4191  0.1869
 2442SOL     OW18958   3.549   2.191   6.378 -0.0617 -0.8051  0.2174
 2442SOL    HW118959   3.563   2.281   6.347  2.6328 -0.2358  2.9836
 2442SOL    HW218960   3.459   2.193   6.411  0.1433 -0.5442  0.7709
 2443SOL     OW18961   2.545   1.976   8.090  0.0604  0.2848 -0.7459
 2443SOL    HW118962   2.467   2.007   8.044 -0.8878 -0.2391  0.5002
 2443SOL    HW218963   2.575   1.926   8.015 -0.0579  0.6155 -1.0118
 2444SOL     OW18964   3.968   2.177   6.575 -0.4142 -0.2506 -0.2482
 2444SOL    HW118965   4.031   2.212   6.637  1.4967 -0.3539 -2.1284
 2444SOL    HW218966   4.019   2.105   6.539  0.8100  0.3691  0.2619
 2445SOL     OW18967   3.144   3.596   7.379  1.0230  0.9446 -0.2547
 2445SOL    HW118968   3.230   3.559   7.398  0.2289 -0.8211 -0.1031
 2445SOL    HW218969   3.154   3.690   7.391  2.3676  0.7020  0.4953
 2446SOL     OW18970   0.339   4.264   0.463 -0.1856  0.2219  0.0625
 2446SOL    HW118971   0.280   4.238   0.392 -3.0082  3.0622  1.3570
 2446SOL    HW218972   0.294   4.234   0.543  0.2149 -3.1086 -0.9465
 2447SOL     OW18973   1.767   0.386   3.497 -0.1088  0.1827 -1.0296
 2447SOL    HW118974   1.857   0.401   3.527  0.1556 -0.7464 -1.3677
 2447SOL    HW218975   1.737   0.330   3.569 -1.0634  0.8371 -0.9110
 2448SOL     OW18976   3.921   2.778   9.494 -0.4815  0.3271 -0.5789
 2448SOL    HW118977   3.862   2.802   9.565 -0.2090 -1.2113  0.1628
 2448SOL    HW218978   3.937   2.866   9.458 -1.5245  1.0663  0.7853
 2449SOL     OW18979   2.011   2.865  11.860 -0.1061 -0.1274 -0.2659
 2449SOL    HW118980   1.930   2.857  11.810 -1.0828  0.9061  1.1501
 2449SOL    HW218981   2.064   2.806  11.806 -2.1721 -1.2436 -1.0750
 2450SOL     OW18982   4.550   3.783  17.098  0.5136 -0.0423  0.0056
 2450SOL    HW118983   4.581   3.767  17.187 -1.6434 -0.4018  0.6891
 2450SOL    HW218984   4.560   3.878  17.086 -1.5313  0.0969 -0.6004
 2451SOL     OW18985   2.083   2.069   6.084  0.1189 -0.2361  0.1098
 2451SOL    HW118986   1.992   2.038   6.081 -0.0241  0.2487 -0.6430
 2451SOL    HW218987   2.122   1.992   6.042 -1.7178  1.0842 -4.0993
 2452SOL     OW18988   2.131   4.139  13.343 -0.3826  0.6079 -0.0167
 2452SOL    HW118989   2.211   4.111  13.300 -1.2231 -2.4260  0.4044
 2452SOL    HW218990   2.058   4.128  13.282  0.7472 -2.7443 -0.7277
 2453SOL     OW18991   4.722   3.700   6.813 -0.2394 -0.1809  0.0737
 2453SOL    HW118992   4.716   3.653   6.896  1.8213 -1.2343 -0.3745
 2453SOL    HW218993   4.649   3.761   6.824  0.0841  0.7160 -2.7555
 2454SOL     OW18994   0.821   0.072   4.822 -0.0416  0.2071  1.3904
 2454SOL    HW118995   0.899   0.128   4.812  0.5613 -1.0901 -1.1522
 2454SOL    HW218996   0.795   0.099   4.911  1.9773  1.3104  1.6548
 2455SOL     OW18997   1.727   1.198   6.400 -0.1969 -0.3810 -0.3963
 2455SOL    HW118998   1.694   1.108   6.405 -1.9398  0.3525  1.3669
 2455SOL    HW218999   1.649   1.239   6.362 -0.7685 -1.4108 -0.3454
 2456SOL     OW19000   0.705   0.177   8.570 -0.4854  0.5435  0.5140
 2456SOL    HW119001   0.761   0.147   8.642  0.1778  0.5175 -0.0162
 2456SOL    HW219002   0.763   0.234   8.520 -1.4425  1.0476 -0.0331
 2457SOL     OW19003   3.532   3.916   5.123 -0.5160  0.6362  0.1350
 2457SOL    HW119004   3.538   3.841   5.182 -2.6440  0.2390 -0.1598
 2457SOL    HW219005   3.591   3.976   5.169  2.2050 -1.2964 -0.8704
 2458SOL     OW19006   3.123   4.349   6.853 -0.4442 -0.1123  0.2608
 2458SOL    HW119007   3.120   4.253   6.853  3.4533 -0.2520 -1.3820
 2458SOL    HW219008   3.099   4.365   6.944 -1.5024 -2.1334  0.3267
 2459SOL     OW19009   1.364   3.570   9.004 -0.3427 -0.5367  0.0290
 2459SOL    HW119010   1.316   3.586   9.085 -0.1237  1.4537 -0.2390
 2459SOL    HW219011   1.400   3.655   8.979  0.7993 -0.6331  1.3617
 2460SOL     OW19012   2.101   1.198   8.022  0.0449  0.3748 -0.1048
 2460SOL    HW119013   2.174   1.219   7.964 -0.5985  2.0201 -0.3230
 2460SOL    HW219014   2.076   1.108   8.001 -1.3891  0.3119  1.8968
 2461SOL     OW19015   2.168   2.920  11.474  0.8020 -0.3049  0.0227
 2461SOL    HW119016   2.176   2.824  11.479  1.0688 -0.3504 -1.3279
 2461SOL    HW219017   2.148   2.930  11.567  0.1664  1.7030 -0.3305
 2462SOL     OW19018   0.454   3.382   3.620 -0.3848  0.0834 -0.3795
 2462SOL    HW119019   0.421   3.450   3.679  2.0355  1.2652 -0.4046
 2462SOL    HW219020   0.495   3.317   3.676 -2.1834 -2.0040 -1.4728
 2463SOL     OW19021   4.006   1.369  15.931  0.4492  0.1506  0.3962
 2463SOL    HW119022   3.927   1.356  15.984 -0.0063  1.9185  0.1550
 2463SOL    HW219023   4.001   1.296  15.869 -0.6004 -0.1717  0.8684
 2464SOL     OW19024   0.096   3.075  16.482  0.2878  0.5568  0.3192
 2464SOL    HW119025   0.145   3.004  16.441  1.0894  1.2459  0.0832
 2464SOL    HW219026   0.152   3.145  16.448 -0.6305  1.0624 -0.1553
 2465SOL     OW19027   4.399   1.190  13.887 -0.8356  0.1866 -0.1735
 2465SOL    HW119028   4.329   1.179  13.823 -0.6202 -0.0356 -0.3687
 2465SOL    HW219029   4.399   1.283  13.909  0.1686  0.6625 -2.1987
 2466SOL     OW19030   4.181   3.755  10.382  0.3044 -0.0708  0.0092
 2466SOL    HW119031   4.157   3.687  10.319  0.0200  0.0637 -0.0262
 2466SOL    HW219032   4.152   3.837  10.340 -0.0653 -1.7539 -3.0456
 2467SOL     OW19033   4.399   2.056   5.532 -0.3930  0.2989  0.8725
 2467SOL    HW119034   4.428   2.137   5.576  2.4524 -0.7521  0.9776
 2467SOL    HW219035   4.377   2.080   5.442  2.2461  0.8710  0.3765
 2468SOL     OW19036   1.858   2.068   5.479 -0.6566  0.4084 -0.3841
 2468SOL    HW119037   1.773   2.025   5.493 -1.2128  1.5592 -0.1754
 2468SOL    HW219038   1.902   2.051   5.562  1.1921  1.8273 -1.0727
 2469SOL     OW19039   2.295   0.980  12.945 -0.2352 -0.2706  0.5639
 2469SOL    HW119040   2.344   1.061  12.932  0.8256 -0.8045  1.2585
 2469SOL    HW219041   2.364   0.923  12.977  0.8294  0.0716 -1.1079
 2470SOL     OW19042   0.497   3.511   0.811  0.0710 -0.5855 -0.0641
 2470SOL    HW119043   0.552   3.574   0.858 -0.4378 -0.4858  0.4041
 2470SOL    HW219044   0.553   3.466   0.748  2.3607  2.3976 -0.1504
 2471SOL     OW19045   1.584   3.631   2.532 -0.0716  0.1352  0.0931
 2471SOL    HW119046   1.599   3.701   2.469  0.2490 -0.9663 -1.0382
 2471SOL    HW219047   1.623   3.549   2.502  2.6016  0.6765  2.0561
 2472SOL     OW19048   3.975   1.165  10.691  0.1533  0.4169 -0.2792
 2472SOL    HW119049   3.980   1.093  10.754  2.3869  0.8666  0.0504
 2472SOL    HW219050   3.924   1.227  10.744  1.3372  0.3127  0.9646
 2473SOL     OW19051   4.206   2.209   1.463 -0.1504  0.3515  0.0364
 2473SOL    HW119052   4.265   2.261   1.408  0.6118 -2.2222 -1.5769
 2473SOL    HW219053   4.254   2.126   1.468  0.6579  0.8220  0.0577
 2474SOL     OW19054   3.307   1.942   4.153 -0.3403  0.4126  0.0084
 2474SOL    HW119055   3.381   1.933   4.094  0.1007 -0.8993  0.7663
 2474SOL    HW219056   3.281   1.851   4.164  1.2555 -0.0723 -0.1958
 2475SOL     OW19057   0.481   1.671   9.961  0.0585 -0.1860  0.2532
 2475SOL    HW119058   0.393   1.636   9.948 -0.4294  0.6859  1.2516
 2475SOL    HW219059   0.530   1.596   9.996  0.2613 -0.9184 -1.5752
 2476SOL     OW19060   4.175   0.970   3.217  0.7474  0.0021 -0.2837
 2476SOL    HW119061   4.158   1.020   3.297 -0.7688 -1.3763  0.2503
 2476SOL    HW219062   4.207   0.885   3.246  0.2154  0.4176  1.5199
 2477SOL     OW19063   0.237   2.990   7.281  0.4564 -0.3333 -0.5236
 2477SOL    HW119064   0.159   2.941   7.306  1.5116 -0.9568  1.4888
 2477SOL    HW219065   0.281   3.002   7.365 -0.9968  0.6869  0.1022
 2478SOL     OW19066   1.670   0.341   9.689 -0.7383  0.8918 -0.0496
 2478SOL    HW119067   1.753   0.347   9.735 -0.7571  0.0666  0.0975
 2478SOL    HW219068   1.695   0.344   9.596  0.4341  0.4560  0.2454
 2479SOL     OW19069   3.541   4.303  13.222 -0.4094  0.2542  0.3224
 2479SOL    HW119070   3.620   4.255  13.248 -0.5778 -1.1282 -1.7311
 2479SOL    HW219071   3.549   4.385  13.271 -0.7353  0.7565 -0.4683
 2480SOL     OW19072   3.787   1.011   5.301  0.5154 -0.6256 -0.3347
 2480SOL    HW119073   3.741   1.005   5.385 -0.7602 -1.1904 -1.0692
 2480SOL    HW219074   3.862   0.953   5.310 -0.9982 -2.7778 -1.5760
 2481SOL     OW19075   2.493   4.003   7.519 -0.5406  0.2716  0.4509
 2481SOL    HW119076   2.522   3.933   7.578 -2.0687  0.4067  1.3758
 2481SOL    HW219077   2.579   4.042   7.504 -1.5499  1.9372 -1.0583
 2482SOL     OW19078   0.341   3.613   7.172  0.1489 -0.2312  0.0509
 2482SOL    HW119079   0.331   3.538   7.113  0.1553 -0.6941  0.6479
 2482SOL    HW219080   0.258   3.613   7.219  0.4248 -2.2669  0.5177
 2483SOL     OW19081   0.542   1.006   5.098 -0.3781 -0.0187 -0.0399
 2483SOL    HW119082   0.609   1.047   5.043 -0.7676  2.0118  1.0481
 2483SOL    HW219083   0.499   0.957   5.027 -0.0176  0.2190 -0.4286
 2484SOL     OW19084   1.980   4.243   6.888 -0.4001  0.3006  0.5103
 2484SOL    HW119085   1.886   4.226   6.892 -0.3979  0.2078  0.1240
 2484SOL    HW219086   1.982   4.271   6.797 -0.5142  2.0227  1.0459
 2485SOL     OW19087   2.653   4.114   6.542 -0.2985 -0.1705 -0.5806
 2485SOL    HW119088   2.695   4.039   6.584 -0.9816  0.4006  1.1187
 2485SOL    HW219089   2.588   4.061   6.496 -0.4267 -0.2543 -0.3054
 2486SOL     OW19090   1.939   1.708   6.007  0.8213 -0.1362 -0.6928
 2486SOL    HW119091   1.883   1.655   5.951 -2.2560 -0.5077  2.7374
 2486SOL    HW219092   1.894   1.792   6.014 -1.1442 -1.2605  0.2305
 2487SOL     OW19093   1.128   0.517  17.491  0.4003 -0.4311  0.6157
 2487SOL    HW119094   1.037   0.529  17.517  0.1135 -2.0091  0.3451
 2487SOL    HW219095   1.124   0.438  17.436  1.4777 -0.4066  0.5054
 2488SOL     OW19096   1.349   2.885  11.682 -0.4375  0.0244 -0.7941
 2488SOL    HW119097   1.403   2.828  11.628 -0.4185  1.2659 -2.0901
 2488SOL    HW219098   1.418   2.905  11.746  1.0279  0.2520 -2.4228
 2489SOL     OW19099   3.179   0.942   7.265  0.0873  0.2687 -0.1464
 2489SOL    HW119100   3.145   0.857   7.238 -2.8185  1.3689  0.0441
 2489SOL    HW219101   3.103   0.998   7.281  0.0667 -0.0393  0.8128
 2490SOL     OW19102   0.059   4.234  17.410 -0.2710  0.5037 -0.3725
 2490SOL    HW119103   0.151   4.259  17.414 -0.5077  1.2186  0.4603
 2490SOL    HW219104   0.075   4.169  17.341 -1.4036  1.2417 -1.3181
 2491SOL     OW19105   1.857   3.357  15.703 -0.4633 -0.5702 -0.0375
 2491SOL    HW119106   1.855   3.433  15.644  2.1203  2.4504  3.7871
 2491SOL    HW219107   1.938   3.312  15.679 -0.3933  0.2687 -1.4217
 2492SOL     OW19108   1.113   2.342  13.304 -0.4007 -0.1745  0.3174
 2492SOL    HW119109   1.117   2.436  13.320  1.6190 -0.5751  2.0514
 2492SOL    HW219110   1.022   2.327  13.330 -0.3545 -2.3233 -0.7015
 2493SOL     OW19111   1.222   3.127  17.476  0.6099  0.3776  0.1171
 2493SOL    HW119112   1.169   3.097  17.550 -0.4458  2.1600  0.0722
 2493SOL    HW219113   1.158   3.164  17.415 -1.4955 -1.4837  1.1928
 2494SOL     OW19114   3.724   3.052  11.636  0.1616  0.6460  0.1374
 2494SOL    HW119115   3.680   3.115  11.580  1.9303  1.3841 -0.3891
 2494SOL    HW219116   3.814   3.083  11.642  0.6568 -0.3561 -2.0598
 2495SOL     OW19117   1.072   2.825   8.791  0.8224  0.1128  0.1922
 2495SOL    HW119118   1.071   2.854   8.883 -0.7989 -1.0807  0.5520
 2495SOL    HW219119   1.132   2.751   8.804 -0.8326 -1.0747  1.0670
 2496SOL     OW19120   3.601   2.763   0.268  0.3764 -0.2476  0.0202
 2496SOL    HW119121   3.667   2.765   0.199  0.1339 -1.1273 -0.2343
 2496SOL    HW219122   3.613   2.676   0.305 -0.3237 -1.4580 -2.6585
 2497SOL     OW19123   2.744   0.969  11.268 -0.1707 -0.3863 -0.0314
 2497SOL    HW119124   2.725   1.057  11.300  0.1328 -0.1937 -0.3819
 2497SOL    HW219125   2.837   0.963  11.290 -0.0327  1.3477 -0.1194
 2498SOL     OW19126   2.704   3.693   3.959 -0.0571  0.3309  0.3034
 2498SOL    HW119127   2.622   3.739   3.941  0.6901  1.9511  1.0339
 2498SOL    HW219128   2.767   3.764   3.945  2.2470 -1.3155  2.3390
 2499SOL     OW19129   4.241   2.008   5.790 -0.1496  0.3865 -0.1552
 2499SOL    HW119130   4.297   2.017   5.713 -0.1607  1.1753 -0.0669
 2499SOL    HW219131   4.160   2.050   5.760 -1.0604 -0.5934  0.9288
 2500SOL     OW19132   4.594   3.717   5.475 -0.4895 -0.4220  0.3525
 2500SOL    HW119133   4.677   3.760   5.451  0.9163 -2.0680  2.2934
 2500SOL    HW219134   4.568   3.765   5.553 -2.4606  0.4969 -0.8742
 2501SOL     OW19135   4.049   3.190   5.986 -0.0204  0.2218  0.0253
 2501SOL    HW119136   4.106   3.248   6.037  0.7876  0.7677 -1.4929
 2501SOL    HW219137   3.960   3.223   5.994 -0.7179 -1.3194 -1.3334
 2502SOL     OW19138   4.090   3.175  17.602 -0.1507  0.0047  0.2225
 2502SOL    HW119139   4.097   3.110  17.672  0.4545  0.5505  0.6752
 2502SOL    HW219140   4.085   3.115  17.528 -3.0903 -0.9357  1.1796
 2503SOL     OW19141   0.214   3.072  11.169  0.3446  0.2405 -0.0684
 2503SOL    HW119142   0.257   3.154  11.146 -0.4952  0.3424 -1.2933
 2503SOL    HW219143   0.287   3.014  11.147 -1.6845 -1.6952 -1.5802
 2504SOL     OW19144   3.854   4.367   3.170 -0.2598 -0.2303  0.3231
 2504SOL    HW119145   3.766   4.405   3.165  0.2448  1.2841  2.7447
 2504SOL    HW219146   3.875   4.346   3.079  0.0428 -2.2039  0.8501
 2505SOL     OW19147   3.545   1.926  16.389  0.1406 -0.0960  0.3924
 2505SOL    HW119148   3.534   2.020  16.372  0.3213 -0.6740 -2.9171
 2505SOL    HW219149   3.482   1.906  16.459  0.1812 -1.9001 -0.0940
 2506SOL     OW19150   0.221   2.420   0.457  0.4811 -0.3137 -0.1554
 2506SOL    HW119151   0.137   2.409   0.502  0.7229  0.1390  0.4158
 2506SOL    HW219152   0.194   2.420   0.366 -2.3091 -1.3690  0.6660
 2507SOL     OW19153   3.483   2.990   0.236  0.0174  0.6838 -0.0822
 2507SOL    HW119154   3.524   2.908   0.207 -1.3739  0.8491 -2.5206
 2507SOL    HW219155   3.551   3.009   0.300  0.0203 -0.6543  0.3144
 2508SOL     OW19156   0.134   1.673   8.713  0.1285 -0.4580  0.0210
 2508SOL    HW119157   0.117   1.724   8.793 -2.8881 -2.0435  0.3746
 2508SOL    HW219158   0.162   1.595   8.760  0.3892 -1.5869 -2.0454
 2509SOL     OW19159   2.814   1.482   8.613  0.0580  0.5318  0.1626
 2509SOL    HW119160   2.842   1.562   8.567  1.1302  0.7482  1.1612
 2509SOL    HW219161   2.750   1.526   8.669  0.2988  0.5287  0.4443
 2510SOL     OW19162   2.361   1.579  14.397 -0.2207 -0.7367  0.0990
 2510SOL    HW119163   2.323   1.659  14.360  1.1755 -1.8569 -3.7235
 2510SOL    HW219164   2.350   1.525  14.320 -2.3519  0.2650 -0.3093
 2511SOL     OW19165   3.657   0.065   9.017  0.0214 -0.1152  0.3775
 2511SOL    HW119166   3.752   0.060   9.010 -0.1391 -1.2009 -0.8356
 2511SOL    HW219167   3.647   0.157   8.992  0.0425 -0.4196 -0.7236
 2512SOL     OW19168   3.536   3.510  16.527 -0.4127 -0.1019 -0.1863
 2512SOL    HW119169   3.624   3.535  16.498  0.6394 -4.7000 -0.8544
 2512SOL    HW219170   3.506   3.584  16.580  1.1600 -0.1065  0.6969
 2513SOL     OW19171   1.888   3.959  15.084 -0.4798 -0.5943  0.1607
 2513SOL    HW119172   1.946   4.020  15.128  0.7798 -0.9499 -1.0111
 2513SOL    HW219173   1.840   4.006  15.015  0.0312 -0.3733 -0.0411
 2514SOL     OW19174   0.891   4.715  13.841  0.2089 -0.1215  0.1284
 2514SOL    HW119175   0.951   4.644  13.818 -1.3228 -1.3435 -0.0870
 2514SOL    HW219176   0.885   0.032  13.762  2.0625 -1.8025 -1.1577
 2515SOL     OW19177   1.850   4.549   3.278 -0.0899  0.3605 -0.4359
 2515SOL    HW119178   1.797   4.479   3.317  0.0952  0.2500 -0.3829
 2515SOL    HW219179   1.814   4.631   3.311 -0.0668  0.4451 -0.6287
 2516SOL     OW19180   1.524   2.872  16.264  0.1073  0.4286  0.3327
 2516SOL    HW119181   1.597   2.809  16.263 -1.7683 -1.7504  1.4517
 2516SOL    HW219182   1.541   2.939  16.198 -0.3083 -0.5823 -0.7983
 2517SOL     OW19183   3.553   1.514  10.968  0.1578 -0.3598 -0.0037
 2517SOL    HW119184   3.477   1.464  10.939 -0.9149  0.0841  2.0744
 2517SOL    HW219185   3.587   1.534  10.881 -0.9753  0.1767 -0.3216
 2518SOL     OW19186   1.509   1.451   3.873 -0.2001  0.0037  0.1098
 2518SOL    HW119187   1.585   1.422   3.923 -0.4476  2.3402  1.8252
 2518SOL    HW219188   1.523   1.545   3.863 -1.1637  0.1707  0.3066
 2519SOL     OW19189   2.848   1.489   2.618  0.0485 -0.1073 -0.0501
 2519SOL    HW119190   2.790   1.565   2.628 -0.0326  0.0768 -1.9622
 2519SOL    HW219191   2.852   1.481   2.523  0.1719 -0.0924 -0.0469
 2520SOL     OW19192   1.653   4.073   8.579 -0.1461 -0.1678  0.7351
 2520SOL    HW119193   1.684   4.163   8.573 -0.3237 -0.1391  0.2631
 2520SOL    HW219194   1.695   4.051   8.662 -0.4379 -3.1491  0.0825
 2521SOL     OW19195   2.064   2.702   4.125  0.4851 -0.3310 -0.2206
 2521SOL    HW119196   2.137   2.710   4.063  1.3718 -0.6453  0.7881
 2521SOL    HW219197   2.029   2.790   4.133 -1.0500 -0.6991 -2.7123
 2522SOL     OW19198   2.400   0.621   4.070  0.4456 -0.5616  0.5167
 2522SOL    HW119199   2.455   0.695   4.096  1.5566 -1.6317  1.2382
 2522SOL    HW219200   2.460   0.546   4.075 -0.4937 -1.4671 -1.7651
 2523SOL     OW19201   1.202   2.535  17.424 -0.3405  0.3208 -0.4282
 2523SOL    HW119202   1.152   2.513  17.502 -0.3027  4.9059  0.8550
 2523SOL    HW219203   1.275   2.474  17.442 -0.4544  0.0832 -0.7728
 2524SOL     OW19204   2.345   2.627   9.588  0.1325 -0.2434  0.1362
 2524SOL    HW119205   2.324   2.653   9.677  0.0942  2.4841 -0.6643
 2524SOL    HW219206   2.301   2.698   9.540  0.6800 -0.0874 -0.1382
 2525SOL     OW19207   3.602   3.086  10.035  0.8974  0.5949 -0.1207
 2525SOL    HW119208   3.649   3.006  10.057  0.2860  0.4390  0.6137
 2525SOL    HW219209   3.523   3.051   9.996  0.8949 -0.5921  0.9621
 2526SOL     OW19210   3.512   4.700   4.008 -0.1639  0.0484 -0.1334
 2526SOL    HW119211   3.531   0.001   4.094 -0.0354 -1.7997  0.6361
 2526SOL    HW219212   3.445   4.637   4.034 -1.3341  0.9091 -1.0443
 2527SOL     OW19213   0.532   1.237   1.958 -0.2345 -0.5915 -0.1843
 2527SOL    HW119214   0.507   1.316   2.005 -0.4665 -0.1956 -0.9647
 2527SOL    HW219215   0.625   1.239   1.979 -0.1150  3.2279 -1.1284
 2528SOL     OW19216   3.993   1.169   5.946 -0.2811  0.4371  0.2632
 2528SOL    HW119217   4.061   1.234   5.960  2.4995 -2.1937 -0.8446
 2528SOL    HW219218   3.976   1.127   6.030 -0.1531  0.6078  0.3739
 2529SOL     OW19219   0.415   4.616   2.226 -0.1654 -0.3054  0.8285
 2529SOL    HW119220   0.478   4.686   2.208 -1.1565 -0.0503 -1.6981
 2529SOL    HW219221   0.461   4.535   2.246  1.7302  0.4168 -0.6592
 2530SOL     OW19222   1.266   0.652   4.526  0.5485 -0.0657  0.0029
 2530SOL    HW119223   1.327   0.592   4.569  0.6041  0.4746  0.6973
 2530SOL    HW219224   1.294   0.731   4.573 -0.9759  1.2116 -1.2533
 2531SOL     OW19225   3.655   1.225  12.875  0.4988 -0.3340  0.3384
 2531SOL    HW119226   3.604   1.304  12.890  0.3188 -0.7060  1.6374
 2531SOL    HW219227   3.712   1.235  12.951  0.0250  0.0202  0.6414
 2532SOL     OW19228   1.599   4.259   8.974 -0.2751  0.2853 -0.3309
 2532SOL    HW119229   1.512   4.282   9.005 -0.0103  2.4019 -1.1603
 2532SOL    HW219230   1.626   4.340   8.931  0.1031  0.5813  0.4479
 2533SOL     OW19231   0.243   4.728   1.579  0.5528  0.1867  0.2131
 2533SOL    HW119232   0.227   4.636   1.601 -1.8033  0.1891 -1.4859
 2533SOL    HW219233   0.317   4.716   1.520  0.2979 -3.4419  0.6456
 2534SOL     OW19234   1.737   4.547   7.951  0.3981  0.2850  0.4545
 2534SOL    HW119235   1.674   4.599   7.901 -0.5891 -1.5707 -0.2429
 2534SOL    HW219236   1.818   4.593   7.928 -0.3309 -0.0038 -2.6596
 2535SOL     OW19237   3.221   0.605   3.567  0.5721  0.1074 -0.1729
 2535SOL    HW119238   3.129   0.630   3.555 -0.5025 -3.6642 -0.0442
 2535SOL    HW219239   3.230   0.580   3.660  3.0452  0.6210 -0.2788
 2536SOL     OW19240   3.370   2.279   2.029 -0.1200  0.3240  0.2979
 2536SOL    HW119241   3.282   2.255   2.000  0.1362 -0.9428  0.5821
 2536SOL    HW219242   3.358   2.374   2.022  0.4157  0.6214  3.5086
 2537SOL     OW19243   1.153   1.836   4.342  0.2008  0.1796  0.1217
 2537SOL    HW119244   1.228   1.813   4.396 -0.5609 -0.9697  0.6975
 2537SOL    HW219245   1.203   1.886   4.278  0.0872  0.6758  0.4166
 2538SOL     OW19246   4.595   1.263   7.127 -0.4746  0.1180  1.4375
 2538SOL    HW119247   4.513   1.311   7.139 -0.3071  0.8583 -0.3927
 2538SOL    HW219248   4.605   1.192   7.190 -0.5768 -0.7667  0.4639
 2539SOL     OW19249   0.238   2.913  17.411 -0.3387 -0.1076 -0.5766
 2539SOL    HW119250   0.159   2.957  17.380  0.2968  0.4186 -1.4470
 2539SOL    HW219251   0.297   2.928  17.337 -0.2570 -1.0302 -0.6869
 2540SOL     OW19252   3.346   4.488  10.590  0.6924  0.4154  0.0430
 2540SOL    HW119253   3.271   4.430  10.600  1.5107 -0.6680 -0.1422
 2540SOL    HW219254   3.384   4.436  10.519  1.0537  1.4369 -0.5216
 2541SOL     OW19255   1.528   4.383  12.445 -0.4547 -0.8147  0.1056
 2541SOL    HW119256   1.470   4.400  12.520  0.8830 -1.4007  1.2674
 2541SOL    HW219257   1.493   4.299  12.414 -0.4453 -0.0324 -2.0358
 2542SOL     OW19258   3.174   3.595   4.466 -0.2638 -0.7397 -0.4667
 2542SOL    HW119259   3.081   3.582   4.445 -0.2577  0.0273 -1.0064
 2542SOL    HW219260   3.190   3.507   4.499  1.7316 -0.2843 -0.2037
 2543SOL     OW19261   3.103   0.758   6.426 -0.3063  0.8005 -0.1351
 2543SOL    HW119262   3.034   0.773   6.361  1.1433 -0.1179 -1.8669
 2543SOL    HW219263   3.065   0.787   6.509  1.9662  0.0117  1.1816
 2544SOL     OW19264   0.146   4.382   5.377  0.0372  0.5578 -0.1965
 2544SOL    HW119265   0.195   4.364   5.457  3.1591  1.5461 -1.8840
 2544SOL    HW219266   0.060   4.360   5.414  1.2742 -2.3795  0.9568
 2545SOL     OW19267   4.597   4.654   3.890  0.3894  0.2163 -0.3566
 2545SOL    HW119268   4.613   0.003   3.931 -1.4628  1.2188 -1.7204
 2545SOL    HW219269   4.551   4.660   3.806  0.2901  1.0159 -0.2405
 2546SOL     OW19270   0.289   0.208   4.137  0.6396  0.4810 -0.7989
 2546SOL    HW119271   0.355   0.272   4.163 -0.1203  0.4486  1.3038
 2546SOL    HW219272   0.341   0.147   4.085 -0.9876 -0.3984 -1.4202
 2547SOL     OW19273   2.802   4.618   7.252 -0.1540  0.2120  0.1733
 2547SOL    HW119274   2.736   4.659   7.307 -0.2321  1.7010 -1.0118
 2547SOL    HW219275   2.794   4.678   7.177  0.3363  2.4985  1.9578
 2548SOL     OW19276   2.969   3.827   2.929  0.5459  0.1718  0.0382
 2548SOL    HW119277   3.017   3.892   2.878 -1.0673  1.2344 -0.1142
 2548SOL    HW219278   2.973   3.747   2.877  0.3377 -0.5572  1.1435
 2549SOL     OW19279   3.591   1.381  11.848  0.7122  0.3597 -0.7676
 2549SOL    HW119280   3.660   1.437  11.882 -0.5763  2.0611 -0.9365
 2549SOL    HW219281   3.636   1.323  11.787 -0.6230 -0.8754 -0.5991
 2550SOL     OW19282   2.084   1.435   7.822 -0.5095 -0.1613 -0.5025
 2550SOL    HW119283   2.117   1.366   7.880 -0.1658 -0.1966 -0.7381
 2550SOL    HW219284   1.994   1.404   7.811 -0.3989  0.4515 -3.0855
 2551SOL     OW19285   3.687   1.885   2.317 -0.4212  0.2284  0.2277
 2551SOL    HW119286   3.614   1.936   2.284  0.1062  0.4957 -0.5298
 2551SOL    HW219287   3.716   1.934   2.394  0.1988 -1.2361  0.9519
 2552SOL     OW19288   1.897   3.346   3.323 -0.8141  0.8095 -0.4768
 2552SOL    HW119289   1.947   3.331   3.243  1.1667 -0.2789  0.9665
 2552SOL    HW219290   1.861   3.260   3.344 -1.0043  0.9456 -0.2459
 2553SOL     OW19291   0.051   4.287   7.462  0.1143 -0.0324 -0.3661
 2553SOL    HW119292   0.042   4.248   7.375  1.9589 -2.1462  0.3889
 2553SOL    HW219293   0.147   4.293   7.458  0.1960 -0.3658  1.3801
 2554SOL     OW19294   2.933   1.183   6.832 -0.2919  0.3127 -0.0994
 2554SOL    HW119295   2.888   1.100   6.847  1.1201 -0.2674  0.9576
 2554SOL    HW219296   2.859   1.241   6.850  0.0117  1.3746 -2.2652
 2555SOL     OW19297   3.626   0.503   9.460 -0.4130  0.1127 -0.2622
 2555SOL    HW119298   3.572   0.434   9.500 -0.6305 -0.1235 -0.9557
 2555SOL    HW219299   3.643   0.454   9.380 -0.9337 -2.2557  1.0757
 2556SOL     OW19300   3.744   4.013   9.720  0.4529 -0.6926  0.0402
 2556SOL    HW119301   3.672   4.076   9.720  1.1738  0.1284  0.6091
 2556SOL    HW219302   3.698   3.954   9.660 -0.2963  0.7749 -0.8493
 2557SOL     OW19303   0.897   4.266   7.337 -0.7800  0.1346  0.2528
 2557SOL    HW119304   0.891   4.361   7.337  0.5192  0.2135  0.4896
 2557SOL    HW219305   0.863   4.243   7.250 -0.2513 -0.3978  0.1856
 2558SOL     OW19306   2.591   0.673   2.701 -0.1252 -0.3648  0.9318
 2558SOL    HW119307   2.670   0.704   2.657  0.2866  0.7543  2.4547
 2558SOL    HW219308   2.623   0.590   2.735 -1.6595 -0.2599  2.6334
 2559SOL     OW19309   2.289   0.236  14.913  0.2864 -0.3357 -0.4155
 2559SOL    HW119310   2.310   0.145  14.892  2.2319  0.0030  0.0696
 2559SOL    HW219311   2.217   0.218  14.973 -0.0442 -1.9696 -1.3035
 2560SOL     OW19312   3.045   1.239  13.274  0.1989 -0.3987 -0.3743
 2560SOL    HW119313   3.118   1.301  13.271 -0.6596  0.6425  0.5908
 2560SOL    HW219314   2.979   1.279  13.330  0.4926  1.4143 -1.2965
 2561SOL     OW19315   1.462   1.049   2.005 -0.4265 -0.3049 -0.4644
 2561SOL    HW119316   1.519   1.114   2.046 -0.2476 -1.0909  0.5094
 2561SOL    HW219317   1.455   0.983   2.074 -1.5911 -0.1857 -0.4776
 2562SOL     OW19318   1.253   2.928   2.934 -0.0394  0.3442  0.2213
 2562SOL    HW119319   1.294   2.877   2.864 -0.2152 -1.6340  1.5702
 2562SOL    HW219320   1.291   3.011   2.905 -2.2842  1.9933  2.0017
 2563SOL     OW19321   0.795   4.730  12.703  0.4363 -0.5430 -0.3457
 2563SOL    HW119322   0.768   0.046  12.779 -0.9282  2.2533 -2.7546
 2563SOL    HW219323   0.817   4.653  12.756 -0.4208  0.3338  1.3096
 2564SOL     OW19324   4.668   2.010   5.690  0.4635 -0.3213  0.4350
 2564SOL    HW119325   4.651   2.100   5.663  5.7921  0.7586  0.6988
 2564SOL    HW219326   4.619   2.005   5.772 -2.0710  0.3132 -1.0502
 2565SOL     OW19327   3.338   3.434   3.542 -1.2304 -0.2704 -0.2998
 2565SOL    HW119328   3.419   3.477   3.515 -2.0042  1.6190  0.4470
 2565SOL    HW219329   3.281   3.458   3.470  0.9170 -0.0872 -1.9409
 2566SOL     OW19330   1.686   0.899   4.265 -0.1809  0.0529  0.6153
 2566SOL    HW119331   1.658   0.892   4.173  0.3036  0.6379  0.4230
 2566SOL    HW219332   1.778   0.922   4.256  0.2699 -1.5156  1.2595
 2567SOL     OW19333   4.473   2.248   1.314 -0.1337  0.2284  0.3497
 2567SOL    HW119334   4.469   2.271   1.221 -0.8820 -1.0816  0.0624
 2567SOL    HW219335   4.568   2.239   1.316 -0.2842 -1.1239  1.2067
 2568SOL     OW19336   3.070   2.702   3.988 -0.2922  0.1244 -0.0395
 2568SOL    HW119337   3.010   2.758   3.940  0.1142  0.6356  0.0432
 2568SOL    HW219338   3.054   2.718   4.081 -1.6718  1.9525 -0.5929
 2569SOL     OW19339   1.297   2.262   8.681 -0.5225 -0.3406  0.1674
 2569SOL    HW119340   1.219   2.267   8.736 -0.6030  1.3277 -0.0915
 2569SOL    HW219341   1.368   2.268   8.745 -0.4533 -1.9816  0.2291
 2570SOL     OW19342   1.326   0.617  14.128  0.1326 -0.1540 -0.0195
 2570SOL    HW119343   1.238   0.651  14.146 -0.5728 -0.6657 -2.5435
 2570SOL    HW219344   1.354   0.687  14.070  2.1122 -0.4375  0.6050
 2571SOL     OW19345   3.499   3.667   2.735 -0.4244 -0.0389  0.0434
 2571SOL    HW119346   3.523   3.575   2.743  0.5402 -0.1201 -3.4254
 2571SOL    HW219347   3.410   3.647   2.764 -0.8438 -2.1894 -2.6502
 2572SOL     OW19348   3.660   0.126   4.970  0.8451 -0.2849 -0.4499
 2572SOL    HW119349   3.628   0.119   5.059  1.8109 -1.2209 -0.1690
 2572SOL    HW219350   3.576   0.156   4.935  1.4470  3.6979  1.5752
 2573SOL     OW19351   3.536   0.534   3.701 -0.1024  0.4353  0.0152
 2573SOL    HW119352   3.521   0.449   3.661  0.0552  0.3494  0.1429
 2573SOL    HW219353   3.583   0.581   3.631  0.2295 -1.5030 -1.0509
 2574SOL     OW19354   1.117   0.063   6.198  0.7090  0.0629  0.0288
 2574SOL    HW119355   1.155   0.069   6.285 -1.6905  2.7581  0.8741
 2574SOL    HW219356   1.026   0.082   6.222  1.1520  0.3970  1.4455
 2575SOL     OW19357   0.673   1.869  13.605 -0.5562 -0.3696  0.0814
 2575SOL    HW119358   0.644   1.802  13.543 -0.6955  0.3479 -0.6354
 2575SOL    HW219359   0.599   1.875  13.665  0.3475  1.1862  1.0517
 2576SOL     OW19360   2.130   4.599   7.035 -0.2616  0.3907  0.4389
 2576SOL    HW119361   2.100   4.514   7.066  0.3123 -0.4113 -1.2190
 2576SOL    HW219362   2.177   4.634   7.111  0.3131  0.4174  0.0679
 2577SOL     OW19363   0.850   0.524  12.804  0.1019  0.4602  0.2514
 2577SOL    HW119364   0.873   0.569  12.885  0.4650 -0.1102  0.4654
 2577SOL    HW219365   0.926   0.466  12.804  1.4509  2.1948  0.5657
 2578SOL     OW19366   3.280   4.504   3.717 -0.4771 -0.3468  0.1665
 2578SOL    HW119367   3.247   4.499   3.807 -1.2249  0.1292 -0.0855
 2578SOL    HW219368   3.369   4.505   3.751  0.0321  0.3118 -1.2293
 2579SOL     OW19369   3.939   2.515  16.434  0.3741 -0.1297  0.4778
 2579SOL    HW119370   3.923   2.595  16.383  0.9468 -0.3911 -0.1177
 2579SOL    HW219371   4.005   2.544  16.497  0.3986  1.3143 -0.2112
 2580SOL     OW19372   3.983   3.484   3.574 -0.2517 -0.4508  0.0058
 2580SOL    HW119373   4.065   3.526   3.549 -0.0643  0.6515  2.4540
 2580SOL    HW219374   3.987   3.480   3.670  0.4716 -1.2315 -0.0614
 2581SOL     OW19375   1.776   4.151  17.603 -0.2948  0.5957 -0.0029
 2581SOL    HW119376   1.770   4.225  17.543 -0.2907 -0.3534 -1.1676
 2581SOL    HW219377   1.693   4.107  17.583  0.9738 -1.4870 -0.7955
 2582SOL     OW19378   4.317   0.148   4.296 -0.3203 -0.2616  0.9350
 2582SOL    HW119379   4.398   0.197   4.280 -1.7429  1.5926 -0.6778
 2582SOL    HW219380   4.337   0.060   4.265 -0.7283 -0.0541  0.0885
 2583SOL     OW19381   1.722   2.050   9.668  0.1090 -0.5548 -0.0165
 2583SOL    HW119382   1.634   2.020   9.644  1.0002 -3.3650  0.2255
 2583SOL    HW219383   1.703   2.143   9.677  2.5889 -0.2436  2.0412
 2584SOL     OW19384   3.720   4.061   5.279  0.0175 -0.5343 -0.4735
 2584SOL    HW119385   3.720   4.154   5.259  1.5772 -1.0654 -2.9566
 2584SOL    HW219386   3.673   4.060   5.362  0.6262  3.3741 -0.1118
 2585SOL     OW19387   1.264   1.814   7.005  0.1214 -0.1941  0.3861
 2585SOL    HW119388   1.335   1.856   7.054 -0.6037 -1.6407  2.7071
 2585SOL    HW219389   1.303   1.771   6.930 -2.3021  0.6423 -1.3546
 2586SOL     OW19390   4.132   1.141  14.793 -0.3950 -0.1090 -0.1772
 2586SOL    HW119391   4.225   1.161  14.790 -0.5485  0.2902 -2.0327
 2586SOL    HW219392   4.128   1.071  14.858 -2.6658  1.1734  1.1077
 2587SOL     OW19393   0.274   3.753  11.924 -0.0594 -0.1147 -0.1892
 2587SOL    HW119394   0.312   3.707  11.850  0.0431  0.7528 -0.6790
 2587SOL    HW219395   0.275   3.695  12.000 -2.3977 -0.4017 -0.3566
 2588SOL     OW19396   1.382   1.591   8.324  0.0132  0.0187  0.3862
 2588SOL    HW119397   1.366   1.660   8.389  0.9945 -0.3435  1.0064
 2588SOL    HW219398   1.373   1.517   8.384  1.8765 -1.0003 -0.6069
 2589SOL     OW19399   0.307   1.952   7.506  0.6747 -0.4177 -0.4600
 2589SOL    HW119400   0.357   2.031   7.527 -0.9382 -0.0248  1.8992
 2589SOL    HW219401   0.253   1.991   7.437 -0.2117  1.6361  1.3875
 2590SOL     OW19402   4.185   0.039   3.816 -0.2445  0.5635  0.1011
 2590SOL    HW119403   4.092   0.017   3.816 -0.2951  0.7761  0.0689
 2590SOL    HW219404   4.211   4.714   3.885  2.5573  0.6855 -0.8334
 2591SOL     OW19405   1.237   0.717  17.215  0.0409  0.3326  0.5832
 2591SOL    HW119406   1.316   0.747  17.170  0.5323  0.2441  1.3941
 2591SOL    HW219407   1.234   0.780  17.288  1.4767  0.9370  0.1036
 2592SOL     OW19408   1.872   3.168  11.955  0.1739  0.2442 -0.5154
 2592SOL    HW119409   1.781   3.178  11.982 -0.5815 -1.9888 -2.2395
 2592SOL    HW219410   1.918   3.127  12.029 -1.9998 -2.1407 -0.4816
 2593SOL     OW19411   4.621   2.498   8.947  0.3510  0.3979  0.2168
 2593SOL    HW119412   4.591   2.464   9.031 -2.1370  0.3816 -0.6770
 2593SOL    HW219413   4.715   2.512   8.962  1.0706 -1.9584 -2.0776
 2594SOL     OW19414   3.448   1.661   5.074  0.0196 -0.2478 -0.1836
 2594SOL    HW119415   3.463   1.568   5.060  0.4823 -0.3770  1.2119
 2594SOL    HW219416   3.493   1.680   5.156  0.0340  1.0811 -0.4956
 2595SOL     OW19417   0.265   2.625   8.113 -0.2664  0.1635  0.4082
 2595SOL    HW119418   0.312   2.654   8.192  2.0323 -2.0929 -0.1291
 2595SOL    HW219419   0.198   2.564   8.146  0.4493 -1.2005 -0.6573
 2596SOL     OW19420   2.908   2.791  10.396 -0.0373 -0.0380  0.0853
 2596SOL    HW119421   2.896   2.717  10.337 -1.5792  1.0880 -1.0025
 2596SOL    HW219422   2.937   2.746  10.475  0.4808  0.2245  0.0432
 2597SOL     OW19423   2.991   4.543   8.104  0.0584 -0.1307  0.4590
 2597SOL    HW119424   3.025   4.598   8.033 -1.6702  0.2605 -0.0630
 2597SOL    HW219425   3.020   4.582   8.187  1.2607  0.2859 -0.1597
 2598SOL     OW19426   4.594   2.567   1.245 -0.5290  0.6407  0.2657
 2598SOL    HW119427   4.658   2.508   1.284 -2.3759 -2.1579 -1.0034
 2598SOL    HW219428   4.560   2.510   1.177 -0.5711  0.0262  0.7962
 2599SOL     OW19429   3.383   1.753   6.049  0.1823  0.0389  0.2049
 2599SOL    HW119430   3.372   1.736   6.142 -2.7585 -1.3533 -0.3786
 2599SOL    HW219431   3.296   1.730   6.015  0.8227 -1.3197 -0.4963
 2600SOL     OW19432   4.725   2.193  17.100  0.0030  0.0541 -0.6274
 2600SOL    HW119433   0.043   2.264  17.066  0.2110  0.5508  0.7396
 2600SOL    HW219434   4.709   2.142  17.021  1.0792 -1.7312  0.3184
 2601SOL     OW19435   4.707   3.484   4.946  0.0829 -0.2328 -0.3407
 2601SOL    HW119436   4.686   3.572   4.977 -2.0290 -1.1372  0.7643
 2601SOL    HW219437   0.027   3.500   4.870  0.4219  0.7088  0.1061
 2602SOL     OW19438   2.296   4.034   6.204 -0.2554 -0.2699  0.1002
 2602SOL    HW119439   2.275   4.041   6.111  2.3448 -1.7889 -0.6180
 2602SOL    HW219440   2.315   4.126   6.224  1.1145 -0.5324  0.0455
 2603SOL     OW19441   3.424   2.208  16.351  0.2764  0.1337  0.0947
 2603SOL    HW119442   3.501   2.263  16.339  0.4619 -0.3726 -1.0620
 2603SOL    HW219443   3.380   2.211  16.266  2.3260  0.6156 -0.9452
 2604SOL     OW19444   3.731   1.164   6.859  0.2948  0.1719  0.0732
 2604SOL    HW119445   3.685   1.206   6.787  3.4192  1.6384 -1.0384
 2604SOL    HW219446   3.780   1.239   6.892 -0.2741  0.2779  0.6950
 2605SOL     OW19447   0.788   1.626  10.037 -0.1024 -0.2746  0.0731
 2605SOL    HW119448   0.714   1.566  10.023  0.7566 -1.2082 -0.4935
 2605SOL    HW219449   0.863   1.566  10.029  0.3309  0.1141  1.2713
 2606SOL     OW19450   0.888   4.537  15.740  0.7957 -0.1850 -0.2726
 2606SOL    HW119451   0.878   4.499  15.827 -0.2457 -0.1961 -0.3962
 2606SOL    HW219452   0.856   4.625  15.756  0.8959 -0.5157  1.7110
 2607SOL     OW19453   3.961   0.898   2.781 -0.1560 -0.2073  0.2597
 2607SOL    HW119454   4.041   0.912   2.731  1.6590  0.1889  3.3005
 2607SOL    HW219455   3.999   0.923   2.865  1.5519  0.2262 -0.6418
 2608SOL     OW19456   0.485   4.499   3.191 -0.3880 -0.3899  0.1736
 2608SOL    HW119457   0.508   4.411   3.163  0.6739  0.3082 -1.1387
 2608SOL    HW219458   0.570   4.542   3.196 -0.5514  0.2030 -2.5605
 2609SOL     OW19459   2.014   1.190   6.658 -0.5800 -0.9431  0.0365
 2609SOL    HW119460   1.965   1.262   6.699  3.1009  1.2334  0.6454
 2609SOL    HW219461   2.001   1.211   6.565  0.5586 -0.4823 -0.0176
 2610SOL     OW19462   2.792   4.251   2.779 -0.3612 -0.2376 -0.0020
 2610SOL    HW119463   2.815   4.277   2.868  0.2369 -0.1296 -0.1865
 2610SOL    HW219464   2.727   4.183   2.796  1.1211 -1.4555  0.8035
 2611SOL     OW19465   3.341   2.997   9.966  0.4837  0.0943 -0.0399
 2611SOL    HW119466   3.309   2.965   9.882 -0.0546 -0.9319  0.5612
 2611SOL    HW219467   3.282   3.071   9.982 -1.9017 -1.7253 -0.5009
 2612SOL     OW19468   1.784   0.083   8.869 -0.2297 -0.3253 -0.2299
 2612SOL    HW119469   1.812   0.172   8.893  0.3013 -0.3517 -0.7496
 2612SOL    HW219470   1.846   0.032   8.921 -0.2142 -1.2823 -1.1934
 2613SOL     OW19471   4.633   0.438   1.459  0.0401 -0.0079 -0.0114
 2613SOL    HW119472   4.686   0.412   1.383 -1.4248  1.8798 -1.6894
 2613SOL    HW219473   4.597   0.517   1.419  0.7860  0.1931 -0.3020
 2614SOL     OW19474   1.802   0.782   2.093  0.4509 -0.2709 -0.0843
 2614SOL    HW119475   1.787   0.694   2.129 -0.1701  0.0105  0.3413
 2614SOL    HW219476   1.743   0.840   2.141  0.4291 -1.7201  1.6370
 2615SOL     OW19477   1.046   2.656   6.710 -0.8120  0.3239 -0.0201
 2615SOL    HW119478   1.131   2.675   6.672 -0.6033  2.1975  1.3368
 2615SOL    HW219479   0.986   2.685   6.641  0.9234 -0.0545 -1.6576
 2616SOL     OW19480   4.597   4.589   6.879 -0.0589  0.2486 -0.2938
 2616SOL    HW119481   4.663   4.614   6.813  0.8087  0.2481  0.5729
 2616SOL    HW219482   4.561   4.676   6.893  0.5092  0.0686  2.1729
 2617SOL     OW19483   0.147   0.976   7.999 -0.2026  0.5094  0.2808
 2617SOL    HW119484   0.057   0.995   8.025 -0.2089  1.3986 -0.3907
 2617SOL    HW219485   0.132   0.919   7.925 -4.5446  2.6402 -0.4359
 2618SOL     OW19486   2.436   2.353   6.056  0.2807 -0.0139 -0.5109
 2618SOL    HW119487   2.391   2.386   6.134  0.7432  1.6062 -0.9149
 2618SOL    HW219488   2.416   2.261   6.073 -2.5802  0.6076 -0.4641
 2619SOL     OW19489   0.318   1.395   1.424  0.0207  0.7326  0.0403
 2619SOL    HW119490   0.402   1.350   1.413  0.5234  2.0224 -1.3873
 2619SOL    HW219491   0.255   1.354   1.365  0.7202  0.8399 -0.7832
 2620SOL     OW19492   4.369   2.394   5.522 -0.0802 -0.1540  0.0503
 2620SOL    HW119493   4.291   2.380   5.575 -1.3945  1.2893 -1.5309
 2620SOL    HW219494   4.423   2.449   5.579 -0.6121  1.4422 -1.0113
 2621SOL     OW19495   0.592   3.393   1.818 -0.7672  0.7229 -0.1668
 2621SOL    HW119496   0.601   3.357   1.730  1.6926 -1.0979  0.8211
 2621SOL    HW219497   0.684   3.412   1.839 -0.1417 -1.9127 -0.5525
 2622SOL     OW19498   0.082   2.443   6.508  0.4905  0.2451  0.4271
 2622SOL    HW119499   4.735   2.400   6.529 -0.3727  1.0018 -1.4009
 2622SOL    HW219500   0.103   2.477   6.595  0.5332  2.8681 -0.6246
 2623SOL     OW19501   2.112   0.719   2.268 -0.2340 -0.1873 -0.1776
 2623SOL    HW119502   2.073   0.804   2.246  0.3471 -0.4714 -2.2240
 2623SOL    HW219503   2.053   0.694   2.340 -1.5241  0.9871 -0.8219
 2624SOL     OW19504   1.752   0.239   1.961 -0.1568 -0.2903  0.0884
 2624SOL    HW119505   1.666   0.271   1.935 -0.1184  0.8700  1.4119
 2624SOL    HW219506   1.780   0.297   2.031 -0.0500  1.4859 -1.4324
 2625SOL     OW19507   0.655   1.894   1.726  0.5683  0.0081 -0.6276
 2625SOL    HW119508   0.586   1.828   1.737  1.8979 -1.1291  0.9710
 2625SOL    HW219509   0.682   1.905   1.817 -1.4710 -1.1766  0.1341
 2626SOL     OW19510   0.972   0.520   3.760  0.1202 -0.1207 -0.4162
 2626SOL    HW119511   0.945   0.464   3.833  1.3584 -0.4837 -0.2354
 2626SOL    HW219512   0.893   0.536   3.709 -0.4803  0.6309  0.7344
 2627SOL     OW19513   0.032   2.054   8.468  0.4715  0.3727 -0.6785
 2627SOL    HW119514   0.004   2.001   8.393  1.3649  0.9398 -1.4180
 2627SOL    HW219515   0.001   1.995   8.536  2.3811  0.2438  0.1001
 2628SOL     OW19516   2.828   3.815   8.450  0.0694 -0.4432  0.3147
 2628SOL    HW119517   2.868   3.790   8.367 -1.2231 -0.5762 -0.2622
 2628SOL    HW219518   2.860   3.905   8.459  1.4082 -1.1439  2.4685
 2629SOL     OW19519   4.364   1.878   2.434 -0.0764 -0.2606  0.0527
 2629SOL    HW119520   4.319   1.963   2.438  0.6603  0.1472 -0.1898
 2629SOL    HW219521   4.289   1.827   2.404  0.1679 -1.4811  1.5378
 2630SOL     OW19522   0.724   1.873   8.594  0.2628  0.1395 -0.0553
 2630SOL    HW119523   0.631   1.897   8.589 -0.6027 -2.7023  1.9318
 2630SOL    HW219524   0.732   1.825   8.512 -1.8425  1.0825 -0.8053
 2631SOL     OW19525   1.395   1.002  10.087  0.5710 -0.0141 -0.4863
 2631SOL    HW119526   1.390   0.933  10.022 -0.5306  0.9160 -1.3839
 2631SOL    HW219527   1.490   1.010  10.098  0.5859  1.6621 -1.7201
 2632SOL     OW19528   0.500   2.637   0.163  0.4233  0.2572 -0.1488
 2632SOL    HW119529   0.426   2.671   0.214  2.2441  2.3045  1.1308
 2632SOL    HW219530   0.505   2.549   0.199 -1.0142  0.3798  0.3701
 2633SOL     OW19531   2.788   1.861  12.830 -0.0052 -0.6735 -0.0417
 2633SOL    HW119532   2.704   1.838  12.870 -0.7232 -0.3207 -1.3709
 2633SOL    HW219533   2.766   1.859  12.737 -1.3899  0.2435  0.2639
 2634SOL     OW19534   2.819   4.049  12.327 -1.1515  0.0715 -0.2456
 2634SOL    HW119535   2.761   3.999  12.383 -0.4475  0.4513  0.8180
 2634SOL    HW219536   2.791   4.017  12.241 -0.0007  1.3320 -1.1098
 2635SOL     OW19537   3.140   0.327   4.946  0.2933  0.0958  0.2314
 2635SOL    HW119538   3.132   0.366   5.033 -0.8008 -0.8036  0.5337
 2635SOL    HW219539   3.059   0.353   4.904  1.5009  0.3740 -1.9290
 2636SOL     OW19540   3.440   1.382   4.197 -0.7299  0.0500 -0.1021
 2636SOL    HW119541   3.478   1.445   4.257 -2.9306 -0.1378  1.5319
 2636SOL    HW219542   3.516   1.336   4.163 -0.0190  1.7287 -0.7091
 2637SOL     OW19543   0.455   1.053   2.514  0.5859  0.5777  0.0130
 2637SOL    HW119544   0.476   1.080   2.424  0.5198 -1.7227 -0.6933
 2637SOL    HW219545   0.376   1.004   2.491 -0.4355  2.1596  0.1367
 2638SOL     OW19546   1.028   1.788   5.359 -0.0594  0.7925 -0.3961
 2638SOL    HW119547   1.080   1.847   5.303  3.6882 -0.8162  1.3941
 2638SOL    HW219548   0.977   1.851   5.409  0.6364  0.3055  0.9314
 2639SOL     OW19549   2.412   1.882   7.237 -0.2892  0.0640  0.2952
 2639SOL    HW119550   2.342   1.909   7.177  0.0572 -1.2965 -0.7260
 2639SOL    HW219551   2.486   1.939   7.219 -2.0364  2.0018 -0.8380
 2640SOL     OW19552   2.773   2.823  10.054 -1.2193 -0.1026  0.6754
 2640SOL    HW119553   2.807   2.756  10.114  0.4985 -1.3076 -1.6363
 2640SOL    HW219554   2.702   2.775  10.012 -3.0218  0.9708  2.4748
 2641SOL     OW19555   4.651   0.150   3.989 -0.1482 -0.6225  0.4739
 2641SOL    HW119556   4.587   0.218   3.970  1.4930  1.1888  1.5013
 2641SOL    HW219557   4.735   0.195   3.986 -0.9281  0.8032 -0.1086
 2642SOL     OW19558   0.187   1.730   8.098 -0.0879  0.1428 -0.3220
 2642SOL    HW119559   0.249   1.792   8.060  0.1184  0.7774  1.0473
 2642SOL    HW219560   0.127   1.718   8.024 -3.2842 -0.5970  2.3712
 2643SOL     OW19561   0.939   3.736   5.477 -0.1191 -0.3396  0.2653
 2643SOL    HW119562   1.009   3.801   5.465 -0.5817 -0.3517 -2.4876
 2643SOL    HW219563   0.969   3.691   5.556 -1.1562  0.1437  0.9368
 2644SOL     OW19564   2.071   2.497   9.148 -0.4477 -0.2608  0.1337
 2644SOL    HW119565   2.143   2.488   9.085 -1.3014 -0.6943 -0.7769
 2644SOL    HW219566   2.097   2.456   9.231  1.8835  3.2893  1.1671
 2645SOL     OW19567   0.343   1.503   8.491  0.6382 -0.3247 -0.1065
 2645SOL    HW119568   0.346   1.494   8.396 -2.0263  0.0641 -0.2227
 2645SOL    HW219569   0.435   1.523   8.510 -0.6277  1.8244  3.7968
 2646SOL     OW19570   4.393   0.026   9.981 -0.3101 -0.2002 -0.4489
 2646SOL    HW119571   4.304   0.029  10.017  0.2527  0.3341  0.9036
 2646SOL    HW219572   4.386   0.095   9.915 -1.0861 -1.2081 -1.4377
 2647SOL     OW19573   0.826   4.644   9.822  0.1544  0.6278 -0.5177
 2647SOL    HW119574   0.829   4.569   9.761 -0.6893  0.8351 -0.8119
 2647SOL    HW219575   0.806   4.711   9.757  0.0909  0.0214 -1.1340
 2648SOL     OW19576   3.290   0.233  14.003  0.5212 -0.2451  0.1197
 2648SOL    HW119577   3.369   0.179  14.000 -0.4195 -1.6290 -0.1609
 2648SOL    HW219578   3.289   0.241  14.098  1.7891  0.4012  0.0754
 2649SOL     OW19579   3.400   2.940  15.177  0.1966 -0.2694 -0.4205
 2649SOL    HW119580   3.306   2.938  15.195  0.0344  0.7468 -1.1266
 2649SOL    HW219581   3.432   3.004  15.240 -0.5763 -0.8395  0.5404
 2650SOL     OW19582   4.702   0.000   1.465  0.4623  0.1026 -0.1588
 2650SOL    HW119583   0.036   0.054   1.501 -0.0367  0.3553  0.4420
 2650SOL    HW219584   4.629   0.017   1.525  0.6218  0.0679  0.0453
 2651SOL     OW19585   1.991   3.721   7.652 -0.6531  0.2290  0.1451
 2651SOL    HW119586   2.045   3.651   7.617 -0.5220  0.2158  0.3774
 2651SOL    HW219587   1.943   3.666   7.714 -0.1011 -1.7734 -1.2245
 2652SOL     OW19588   1.093   3.718   6.731  0.5516  0.2017  0.2159
 2652SOL    HW119589   1.060   3.736   6.819  0.4332 -3.2898  0.8957
 2652SOL    HW219590   1.017   3.749   6.682 -0.6052 -1.3157  1.0538
 2653SOL     OW19591   2.257   4.306   3.180 -0.5546  0.1582 -0.0160
 2653SOL    HW119592   2.228   4.363   3.252 -0.2971  0.3133 -0.0321
 2653SOL    HW219593   2.322   4.368   3.147  0.4189 -0.1739  1.2595
 2654SOL     OW19594   0.691   0.250   6.452 -0.4756 -0.2347 -0.0237
 2654SOL    HW119595   0.728   0.317   6.510  0.7926 -1.0163  0.0769
 2654SOL    HW219596   0.687   0.301   6.371  0.8761 -0.6107 -0.3348
 2655SOL     OW19597   0.520   0.151   6.004  0.4713 -0.5928 -0.2490
 2655SOL    HW119598   0.516   0.201   5.922 -0.2796 -0.8850 -0.3867
 2655SOL    HW219599   0.562   0.220   6.055 -0.6678  0.0683 -0.2068
 2656SOL     OW19600   0.746   3.904   6.857  0.2212 -0.5553  0.6662
 2656SOL    HW119601   0.749   3.967   6.785 -2.8502 -2.3084 -0.9919
 2656SOL    HW219602   0.653   3.911   6.878 -0.0857 -1.5516 -0.4031
 2657SOL     OW19603   1.238   4.530   2.989  0.6988 -0.5960 -0.2481
 2657SOL    HW119604   1.183   4.600   3.022 -2.1256 -2.5461 -0.7971
 2657SOL    HW219605   1.326   4.568   2.986  0.5403 -0.3577 -1.7740
 2658SOL     OW19606   4.507   1.296   6.579 -0.3138 -0.2835 -0.6156
 2658SOL    HW119607   4.568   1.281   6.652 -0.8147 -2.9960 -0.7570
 2658SOL    HW219608   4.582   1.311   6.522  1.3131  0.0883  1.5930
 2659SOL     OW19609   1.613   0.091   4.012 -0.4867 -0.0190 -0.1641
 2659SOL    HW119610   1.650   0.179   4.008 -0.8143  0.1071 -0.5146
 2659SOL    HW219611   1.542   0.109   3.950  1.0842 -0.9966 -2.2329
 2660SOL     OW19612   2.999   1.962   8.166 -0.7614  0.3295 -0.3908
 2660SOL    HW119613   2.916   1.981   8.123  0.1314  1.6890 -1.5318
 2660SOL    HW219614   3.003   1.866   8.165  1.7223  0.4357 -1.5308
 2661SOL     OW19615   2.409   0.243  11.967 -0.3955 -0.2780 -0.7410
 2661SOL    HW119616   2.336   0.205  11.918 -1.6712  0.8194  0.2843
 2661SOL    HW219617   2.460   0.266  11.890 -2.7236  3.8103 -1.0546
 2662SOL     OW19618   4.562   3.454   3.159  0.3462  0.2893  0.1298
 2662SOL    HW119619   4.480   3.405   3.153 -0.6276  1.9877 -0.4118
 2662SOL    HW219620   4.585   3.444   3.252  2.0198  3.5547  0.0454
 2663SOL     OW19621   2.854   3.429   9.792  0.4509  0.5317  0.3107
 2663SOL    HW119622   2.943   3.452   9.821  0.8385  0.4760 -0.8536
 2663SOL    HW219623   2.839   3.368   9.864  2.6010 -0.7333 -0.2991
 2664SOL     OW19624   2.541   2.095   4.749  0.1428 -0.1528  0.1823
 2664SOL    HW119625   2.453   2.057   4.753  0.9189 -1.8306  1.2581
 2664SOL    HW219626   2.515   2.172   4.799 -0.5956 -0.3806  0.1652
 2665SOL     OW19627   3.138   1.754   8.893 -0.0622  0.2399  0.0036
 2665SOL    HW119628   3.218   1.796   8.926  1.3720 -1.5968 -1.2041
 2665SOL    HW219629   3.066   1.790   8.945 -1.1748  0.9776 -2.0483
 2666SOL     OW19630   2.119   3.188   4.682 -0.0726 -0.1597  0.1207
 2666SOL    HW119631   2.097   3.249   4.753 -0.6524 -0.2490  0.0166
 2666SOL    HW219632   2.214   3.197   4.671  0.1376  0.5682  2.5287
 2667SOL     OW19633   3.073   2.536   2.237  0.3651 -0.1460  0.4974
 2667SOL    HW119634   2.983   2.566   2.225  0.2880 -1.3109 -1.8739
 2667SOL    HW219635   3.099   2.503   2.151  2.8397  0.6599  0.9393
 2668SOL     OW19636   2.058   0.499   5.089 -0.6043  0.3443 -0.1567
 2668SOL    HW119637   2.063   0.516   4.995  2.7295  0.2030  0.0264
 2668SOL    HW219638   2.149   0.476   5.103 -0.2701  2.7170  1.6016
 2669SOL     OW19639   2.243   4.155  13.639  0.4952 -0.3123  0.0516
 2669SOL    HW119640   2.229   4.249  13.654  0.2040 -0.5464  1.3137
 2669SOL    HW219641   2.157   4.134  13.602  0.6970  1.0160 -1.1751
 2670SOL     OW19642   1.895   1.572  13.907  0.0567  0.6288  0.0137
 2670SOL    HW119643   1.874   1.660  13.875 -1.1273 -0.3241 -1.8191
 2670SOL    HW219644   1.912   1.593  13.999  2.6526  0.9565 -0.5572
 2671SOL     OW19645   2.996   4.503  15.117  0.7393  0.7028 -0.3450
 2671SOL    HW119646   2.947   4.584  15.131 -0.4805 -0.0425 -0.3640
 2671SOL    HW219647   2.932   4.449  15.071 -0.4664  0.3151  1.7699
 2672SOL     OW19648   1.480   3.646  10.291  0.2531 -0.7612 -0.7565
 2672SOL    HW119649   1.460   3.653  10.385  0.3565 -1.1767 -0.7059
 2672SOL    HW219650   1.390   3.654  10.259  0.2333 -1.9779 -0.9962
 2673SOL     OW19651   1.526   4.159  13.687  0.0926  0.4333  0.3350
 2673SOL    HW119652   1.434   4.166  13.661 -0.3869 -2.7429  1.2253
 2673SOL    HW219653   1.555   4.134  13.599  0.1329 -0.9156  0.7289
 2674SOL     OW19654   3.829   0.339   9.679  0.7875  0.2321  0.2428
 2674SOL    HW119655   3.857   0.255   9.714  0.9130 -0.3167 -1.1438
 2674SOL    HW219656   3.841   0.328   9.584 -1.3113 -0.7685  0.0731
 2675SOL     OW19657   1.512   0.495  14.967  0.4700  0.1947  0.3352
 2675SOL    HW119658   1.566   0.522  15.041 -0.3421  2.6790  0.0068
 2675SOL    HW219659   1.427   0.525  14.998 -0.2248 -0.3089 -1.0833
 2676SOL     OW19660   3.550   0.349   2.128  0.3823 -0.5574 -0.0275
 2676SOL    HW119661   3.606   0.272   2.138 -1.3640 -1.7350  0.8071
 2676SOL    HW219662   3.549   0.359   2.033 -1.1443  1.2683  0.1733
 2677SOL     OW19663   0.654   0.742   2.189 -0.4139 -1.0099 -0.0870
 2677SOL    HW119664   0.710   0.791   2.129 -0.2386 -0.9015  0.1651
 2677SOL    HW219665   0.618   0.676   2.129 -0.3436 -1.4109  0.3081
 2678SOL     OW19666   3.594   3.129  13.443  0.2090  0.2335  0.3905
 2678SOL    HW119667   3.508   3.099  13.471  0.8923 -4.0096 -1.9717
 2678SOL    HW219668   3.607   3.201  13.504  2.1986  0.9140 -0.8239
 2679SOL     OW19669   1.816   4.182   6.256  0.4556  0.0397  0.3498
 2679SOL    HW119670   1.732   4.186   6.301  0.0628 -1.2211 -0.2887
 2679SOL    HW219671   1.800   4.199   6.164  1.5035 -3.3301 -0.4635
 2680SOL     OW19672   2.140   3.454   0.458 -0.3064 -0.1585  0.4948
 2680SOL    HW119673   2.231   3.429   0.473 -0.1464 -0.3353 -0.7874
 2680SOL    HW219674   2.103   3.451   0.547 -2.1736 -3.3230 -0.3986
 2681SOL     OW19675   2.710   0.750  16.373  0.9869  0.1215  0.2896
 2681SOL    HW119676   2.648   0.710  16.434  0.7874  0.0125  0.0192
 2681SOL    HW219677   2.742   0.827  16.420  0.6343  0.6490 -0.3138
 2682SOL     OW19678   2.900   1.992   2.015 -0.2007  0.1400  0.1917
 2682SOL    HW119679   2.975   1.969   2.070 -0.2396 -1.2334 -0.3262
 2682SOL    HW219680   2.887   2.087   2.015 -1.0412  0.0293 -1.6288
 2683SOL     OW19681   2.460   1.201  12.927 -0.8552 -0.0963  0.1608
 2683SOL    HW119682   2.522   1.223  12.858 -1.5865  1.3714 -0.0397
 2683SOL    HW219683   2.471   1.277  12.984  0.7584 -0.6672  0.6038
 2684SOL     OW19684   0.995   2.195   1.775 -0.5828  0.1941  0.5120
 2684SOL    HW119685   1.075   2.158   1.738 -0.1099  2.5574 -0.8653
 2684SOL    HW219686   1.024   2.286   1.790  1.1260 -0.1465 -0.7476
 2685SOL     OW19687   1.401   1.806   5.879  0.5205  0.3563  0.3447
 2685SOL    HW119688   1.455   1.777   5.805  0.4003  1.7921 -0.3085
 2685SOL    HW219689   1.458   1.847   5.944  1.1107 -1.1821  0.7851
 2686SOL     OW19690   4.675   1.697   5.809  0.3382  0.2546  0.0387
 2686SOL    HW119691   4.736   1.770   5.820  1.6899 -0.3702 -3.2711
 2686SOL    HW219692   4.706   1.634   5.874  0.8998 -0.4619 -0.9227
 2687SOL     OW19693   1.151   1.407   4.627  0.1124  0.2980 -0.1653
 2687SOL    HW119694   1.104   1.487   4.651 -1.0016  0.0250 -1.4507
 2687SOL    HW219695   1.215   1.400   4.698 -0.2744  2.1458  0.3647
 2688SOL     OW19696   4.504   1.012   5.148  0.0574 -0.1451 -0.2929
 2688SOL    HW119697   4.497   1.107   5.141  1.9794  0.1794  2.2059
 2688SOL    HW219698   4.416   0.989   5.120 -0.3343  0.9745  0.0214
 2689SOL     OW19699   3.942   2.554   8.636 -0.0033  0.2663 -0.1285
 2689SOL    HW119700   4.034   2.532   8.649  0.0174 -0.9951 -2.3156
 2689SOL    HW219701   3.920   2.616   8.705 -1.3953  1.2195 -1.4221
 2690SOL     OW19702   0.610   1.832   2.547  0.4064  0.4644 -0.2592
 2690SOL    HW119703   0.612   1.904   2.610 -0.5653 -0.1295  0.4377
 2690SOL    HW219704   0.538   1.779   2.580  0.9615 -0.6189 -0.7897
 2691SOL     OW19705   0.463   2.675   3.210  0.3230 -0.0498  0.5041
 2691SOL    HW119706   0.421   2.604   3.161  0.7872 -0.8630  1.2957
 2691SOL    HW219707   0.550   2.665   3.170  0.9860  0.3517  1.8609
 2692SOL     OW19708   1.405   3.193   6.588  0.0574  0.0787  0.1488
 2692SOL    HW119709   1.401   3.256   6.517 -0.6295  1.0994  1.0880
 2692SOL    HW219710   1.331   3.213   6.646 -1.5401 -2.5991 -0.9578
 2693SOL     OW19711   0.479   1.416   6.103 -0.0238  0.8003  0.0380
 2693SOL    HW119712   0.570   1.442   6.087  0.4647 -1.1364 -0.2569
 2693SOL    HW219713   0.460   1.370   6.022  1.1942 -2.3997  1.5631
 2694SOL     OW19714   4.604   4.721   5.041 -0.6765  0.6080  0.7439
 2694SOL    HW119715   4.555   0.058   5.002  0.5622  2.2707  2.3229
 2694SOL    HW219716   4.543   4.647   5.036 -0.6046  0.5208  1.1675
 2695SOL     OW19717   3.940   0.757   3.559 -0.6045 -0.2790 -0.7508
 2695SOL    HW119718   3.926   0.703   3.636 -0.2469  0.8818  0.1348
 2695SOL    HW219719   4.032   0.782   3.568 -0.9986  0.3289  1.4101
 2696SOL     OW19720   2.726   0.182   7.475 -0.3011  0.3243  0.1765
 2696SOL    HW119721   2.760   0.218   7.393  0.7525 -2.4596 -0.6286
 2696SOL    HW219722   2.651   0.133   7.441  0.4863 -3.1921  3.4911
 2697SOL     OW19723   0.786   4.013  12.542  0.2783  0.4194  0.2334
 2697SOL    HW119724   0.756   3.928  12.510 -0.6283  0.2400  1.5835
 2697SOL    HW219725   0.825   4.046  12.461  2.0916  0.0993  0.9835
 2698SOL     OW19726   1.660   0.744   7.231  0.1488  0.1240  0.7058
 2698SOL    HW119727   1.743   0.715   7.193 -0.6722 -0.2623 -0.7957
 2698SOL    HW219728   1.651   0.684   7.305  1.5308  0.1063  0.8718
 2699SOL     OW19729   1.982   0.576   2.753 -0.7157  0.7580 -0.0693
 2699SOL    HW119730   1.971   0.517   2.828 -0.2321  1.5059  0.5857
 2699SOL    HW219731   1.892   0.605   2.740 -1.6056 -2.6453 -1.5083
 2700SOL     OW19732   0.095   3.224  14.174  0.1766 -0.4566  0.5266
 2700SOL    HW119733   0.160   3.294  14.162 -0.2691 -0.0595  0.4499
 2700SOL    HW219734   0.043   3.236  14.095  0.8898 -0.4407  0.0530
 2701SOL     OW19735   3.570   2.888   2.653 -0.2529 -0.2257 -0.0808
 2701SOL    HW119736   3.629   2.878   2.578 -0.3491  0.7896 -0.2959
 2701SOL    HW219737   3.615   2.842   2.724 -0.4522  0.8136  0.7208
 2702SOL     OW19738   3.765   2.862   6.015  0.1267 -0.3543 -0.1413
 2702SOL    HW119739   3.723   2.776   6.019 -0.6451 -0.0291 -1.0913
 2702SOL    HW219740   3.689   2.921   6.011 -1.4210 -2.2774  0.6979
 2703SOL     OW19741   3.527   0.238   8.485  0.2125  0.4251 -0.4836
 2703SOL    HW119742   3.574   0.206   8.562 -0.2680  1.9472  0.4511
 2703SOL    HW219743   3.591   0.268   8.422  0.4418  1.4537  0.2469
 2704SOL     OW19744   3.887   0.442   1.347  0.1135 -0.4046  0.2444
 2704SOL    HW119745   3.851   0.486   1.270  0.4489  0.4892  0.6105
 2704SOL    HW219746   3.982   0.447   1.338 -0.0954  1.0353 -1.2032
 2705SOL     OW19747   0.854   4.532  12.867 -0.0399 -0.1741 -0.3933
 2705SOL    HW119748   0.803   4.479  12.929 -1.2815  0.2735 -1.0281
 2705SOL    HW219749   0.945   4.518  12.892  0.7829  0.6438 -2.9598
 2706SOL     OW19750   3.494   3.521   4.819  0.0221 -0.3606  0.1684
 2706SOL    HW119751   3.505   3.594   4.880 -0.7884  1.4021 -1.7765
 2706SOL    HW219752   3.532   3.448   4.868  2.5851 -0.3670 -1.8185
 2707SOL     OW19753   1.044   0.701   6.103 -0.4629 -0.0796  0.5053
 2707SOL    HW119754   0.986   0.638   6.061  1.7770 -2.7574  1.4354
 2707SOL    HW219755   0.986   0.769   6.137  0.1898 -0.6235  2.6964
 2708SOL     OW19756   2.515   4.403   4.772  0.2632  0.0368  0.1964
 2708SOL    HW119757   2.432   4.375   4.733  0.3607 -0.5805  0.4433
 2708SOL    HW219758   2.483   4.492   4.789  0.1076 -0.2298  1.3032
 2709SOL     OW19759   4.280   1.432   5.045 -0.1873  0.0696 -0.4436
 2709SOL    HW119760   4.255   1.437   5.137  1.0914 -1.6960  0.0063
 2709SOL    HW219761   4.203   1.470   5.004  1.4037  0.6070 -2.9966
 2710SOL     OW19762   1.661   1.602  17.171 -0.0969  0.0740  0.2049
 2710SOL    HW119763   1.611   1.538  17.119 -0.4694 -1.2953  2.2462
 2710SOL    HW219764   1.582   1.653  17.188  1.8357  2.8948  0.5524
 2711SOL     OW19765   2.164   3.500   7.234  0.2297  0.3609  0.4521
 2711SOL    HW119766   2.152   3.511   7.328 -0.9356  4.8737 -0.2084
 2711SOL    HW219767   2.091   3.439   7.221 -2.5556  3.8325 -0.2604
 2712SOL     OW19768   2.611   3.679   1.488  0.2953 -0.1926 -0.7723
 2712SOL    HW119769   2.537   3.629   1.453 -0.8321  0.2070  1.0435
 2712SOL    HW219770   2.661   3.608   1.528  0.2363 -0.7646 -1.7106
 2713SOL     OW19771   2.085   3.415   9.640  0.1760  0.4230  0.0160
 2713SOL    HW119772   1.995   3.445   9.629 -0.6612 -1.1143  2.5963
 2713SOL    HW219773   2.132   3.497   9.625 -2.6136  1.7654 -1.4935
 2714SOL     OW19774   4.581   3.951   8.251 -0.0095 -0.4235 -0.0052
 2714SOL    HW119775   4.626   3.877   8.211  0.2552  1.6687 -3.5200
 2714SOL    HW219776   4.503   3.955   8.196 -0.5760 -0.8506  0.7734
 2715SOL     OW19777   4.418   2.204   7.626 -0.8498 -0.0580 -0.3774
 2715SOL    HW119778   4.509   2.233   7.632 -0.2390 -2.1083  0.1051
 2715SOL    HW219779   4.395   2.169   7.712  2.8944 -0.1848  0.5724
 2716SOL     OW19780   3.468   0.190  15.065  0.3836  0.0349 -0.1427
 2716SOL    HW119781   3.381   0.160  15.039  0.4742  0.7340 -1.2503
 2716SOL    HW219782   3.523   0.111  15.057 -0.0022  0.0780 -3.2487
 2717SOL     OW19783   0.456   1.989   4.241 -0.3198 -0.3879 -0.2611
 2717SOL    HW119784   0.367   1.958   4.257 -0.2720  0.1427  0.9874
 2717SOL    HW219785   0.508   1.924   4.288 -0.2986 -0.5015 -0.4388
 2718SOL     OW19786   1.805   3.596   7.017 -0.3217  0.1202 -0.9030
 2718SOL    HW119787   1.879   3.622   6.963  2.1918 -1.8125  1.6125
 2718SOL    HW219788   1.829   3.607   7.109  0.9856 -0.0534 -1.2330
 2719SOL     OW19789   1.465   4.391   7.567  0.6228 -0.0862 -0.0459
 2719SOL    HW119790   1.479   4.409   7.660  1.8075  0.4272 -0.3243
 2719SOL    HW219791   1.371   4.408   7.558  1.1414  3.6596  1.5007
 2720SOL     OW19792   1.071   1.847  13.143  0.2529  0.3458 -0.4056
 2720SOL    HW119793   1.056   1.935  13.110 -0.9577  0.2597 -0.0731
 2720SOL    HW219794   1.137   1.811  13.083  0.4803 -1.2885  0.8240
 2721SOL     OW19795   4.306   2.013   3.639  0.3996  0.3584 -0.2010
 2721SOL    HW119796   4.313   1.919   3.652 -2.3732  0.1645 -0.0608
 2721SOL    HW219797   4.380   2.044   3.691  0.4896 -3.2077  1.7810
 2722SOL     OW19798   3.525   2.505   3.038  0.4002  0.3297  0.1945
 2722SOL    HW119799   3.471   2.552   2.974 -0.6972 -0.8542  0.2679
 2722SOL    HW219800   3.575   2.583   3.062 -1.7086  1.5540  0.5884
 2723SOL     OW19801   2.615   0.331   8.655  0.0165  0.1752  0.2930
 2723SOL    HW119802   2.617   0.269   8.582  0.6004  0.1818  0.3053
 2723SOL    HW219803   2.705   0.321   8.687  0.6438  0.4075 -1.3922
 2724SOL     OW19804   0.548   1.571   4.066 -0.2436  0.1420  0.0097
 2724SOL    HW119805   0.548   1.594   4.159 -1.8706 -2.5512  0.6458
 2724SOL    HW219806   0.591   1.653   4.040 -1.6030  1.4877  2.0047
 2725SOL     OW19807   0.699   2.660   8.183 -0.3592  0.3512 -0.6838
 2725SOL    HW119808   0.749   2.694   8.256  1.0573  1.9069 -2.3755
 2725SOL    HW219809   0.696   2.567   8.206  1.3377  0.9753  2.0121
 2726SOL     OW19810   2.655   4.594   6.021 -0.0808  0.1259 -0.0178
 2726SOL    HW119811   2.591   4.664   6.038  0.3440  0.3811  0.5159
 2726SOL    HW219812   2.698   4.639   5.948 -0.6287 -0.6518 -0.8358
 2727SOL     OW19813   3.919   3.671   0.268 -0.5813  0.4359  0.4632
 2727SOL    HW119814   3.976   3.649   0.194 -1.1530  0.5326 -0.0045
 2727SOL    HW219815   3.976   3.731   0.317 -2.1413  2.5501 -0.3068
 2728SOL     OW19816   4.488   3.287   5.332  0.5144  0.3247 -0.1910
 2728SOL    HW119817   4.474   3.334   5.250 -2.7896  0.0654  0.1958
 2728SOL    HW219818   4.555   3.347   5.364 -1.2592  1.7341  0.9384
 2729SOL     OW19819   2.225   3.507   1.978  0.7496 -0.1747 -0.3812
 2729SOL    HW119820   2.139   3.469   1.992  0.2904  1.1103  0.3504
 2729SOL    HW219821   2.244   3.474   1.890 -1.0270  0.6303 -1.0586
 2730SOL     OW19822   0.721   2.545   4.428 -0.1754  0.5222 -0.3610
 2730SOL    HW119823   0.694   2.519   4.339 -0.6719 -1.8557  0.4679
 2730SOL    HW219824   0.694   2.636   4.429 -0.8556  0.3234 -0.4939
 2731SOL     OW19825   1.945   4.477  10.831  0.1518  0.0430  0.0234
 2731SOL    HW119826   1.967   4.570  10.830  3.1115 -0.6505 -0.4868
 2731SOL    HW219827   1.855   4.479  10.864  0.6799  0.0695  1.4403
 2732SOL     OW19828   1.939   0.671   2.467  0.4943  0.5741  0.0273
 2732SOL    HW119829   1.887   0.673   2.548 -1.6283 -2.0840 -1.2899
 2732SOL    HW219830   1.958   0.577   2.461  0.5875  0.5963 -0.0344
 2733SOL     OW19831   4.273   4.489   7.739  0.6061  0.1588  0.2997
 2733SOL    HW119832   4.185   4.479   7.776  0.2105  2.1861 -0.0529
 2733SOL    HW219833   4.277   4.425   7.668  0.1172  1.1149 -0.6027
 2734SOL     OW19834   0.862   2.213   7.400  0.5296 -0.4465  0.0783
 2734SOL    HW119835   0.848   2.223   7.306 -0.0053 -0.3706  0.1638
 2734SOL    HW219836   0.957   2.223   7.400  0.4926 -0.1379 -0.3724
 2735SOL     OW19837   1.023   3.592  16.930 -0.0224 -0.1661 -0.0834
 2735SOL    HW119838   1.021   3.551  17.016 -2.7036  0.7692  0.2887
 2735SOL    HW219839   1.071   3.674  16.943 -0.2962 -0.0276  0.0435
 2736SOL     OW19840   1.322   2.914   3.979 -0.6022  0.2106 -0.0006
 2736SOL    HW119841   1.267   2.839   4.003 -0.0615 -0.2633 -0.2415
 2736SOL    HW219842   1.380   2.860   3.925 -0.6603 -1.4453  1.5764
 2737SOL     OW19843   2.640   3.600   5.518 -0.1583 -0.3363 -0.1019
 2737SOL    HW119844   2.668   3.628   5.431  0.4621 -1.3169 -0.2074
 2737SOL    HW219845   2.717   3.562   5.561  0.3539  0.0264 -0.7038
 2738SOL     OW19846   0.164   1.812  12.807  0.0392  0.0643  0.0086
 2738SOL    HW119847   0.172   1.747  12.877  1.1136 -1.0768 -1.1627
 2738SOL    HW219848   0.252   1.802  12.770 -0.4467 -0.0351 -1.1187
 2739SOL     OW19849   3.216   0.608   8.728 -0.3056  0.1351 -0.0702
 2739SOL    HW119850   3.233   0.562   8.646  0.9953 -0.4680  0.5265
 2739SOL    HW219851   3.125   0.634   8.716 -0.3687 -1.0234 -2.0778
 2740SOL     OW19852   2.366   2.206   8.816  0.5449 -0.3883  0.5519
 2740SOL    HW119853   2.434   2.165   8.869  1.7854  1.1106  0.1095
 2740SOL    HW219854   2.338   2.127   8.770 -1.6669  0.7096 -0.0014
 2741SOL     OW19855   0.730   1.050   6.519 -0.4516  0.1699 -0.0308
 2741SOL    HW119856   0.641   1.014   6.518 -0.4098  0.0818 -0.5956
 2741SOL    HW219857   0.720   1.136   6.560 -2.0227  0.1584 -0.3842
 2742SOL     OW19858   1.221   1.023   4.484 -0.1505 -0.0692  0.0404
 2742SOL    HW119859   1.185   1.096   4.434 -0.0278 -0.9983 -1.4132
 2742SOL    HW219860   1.298   0.994   4.434 -0.1455  0.5668 -0.3133
 2743SOL     OW19861   3.952   0.398   4.509 -0.6232  0.0370  0.0775
 2743SOL    HW119862   3.971   0.358   4.593  0.9127  3.2247  1.2631
 2743SOL    HW219863   3.984   0.488   4.521  0.0382 -0.2850  0.6597
 2744SOL     OW19864   3.102   2.596   6.545 -0.4950  0.2608  0.4548
 2744SOL    HW119865   3.109   2.690   6.560 -2.1637  0.5350 -0.4430
 2744SOL    HW219866   3.007   2.590   6.539 -0.3256  0.5200 -2.1066
 2745SOL     OW19867   0.977   1.981  13.522 -0.1451  0.7815 -0.3364
 2745SOL    HW119868   0.935   2.066  13.535 -1.6878  0.0888 -0.7882
 2745SOL    HW219869   0.968   1.947  13.612  1.3048 -0.3407 -0.6164
 2746SOL     OW19870   3.761   4.365   9.979  0.1083 -0.3247 -0.6117
 2746SOL    HW119871   3.828   4.410   9.926 -0.9619  1.5445 -0.3739
 2746SOL    HW219872   3.691   4.429   9.969 -0.5466 -1.1692 -1.4532
 2747SOL     OW19873   2.679   4.505   7.570 -0.7244  0.1211  0.5129
 2747SOL    HW119874   2.759   4.550   7.597 -0.8130  0.1115  0.7879
 2747SOL    HW219875   2.622   4.578   7.548 -0.7341 -0.1362 -0.3053
 2748SOL     OW19876   4.137   2.009  13.989 -0.4027  0.0150 -0.0325
 2748SOL    HW119877   4.202   2.049  14.046  0.6013  1.5722 -2.2744
 2748SOL    HW219878   4.161   2.048  13.905 -0.5835  1.5018  0.6138
 2749SOL     OW19879   4.507   1.520   8.218  0.5322 -0.0711  0.3288
 2749SOL    HW119880   4.599   1.505   8.199  0.7946  2.0188 -0.0261
 2749SOL    HW219881   4.487   1.599   8.168  0.1497 -0.2093  0.2566
 2750SOL     OW19882   2.908   1.621  15.520 -0.2094 -0.3586 -0.6293
 2750SOL    HW119883   2.930   1.592  15.431 -2.5105  0.5798 -1.5132
 2750SOL    HW219884   2.907   1.540  15.571 -2.3969 -0.2288 -0.4553
 2751SOL     OW19885   4.002   3.657  14.684  0.3543 -0.1148 -0.5645
 2751SOL    HW119886   4.054   3.609  14.620  1.6338  1.1341 -0.4660
 2751SOL    HW219887   3.929   3.687  14.630  1.7567  1.3183 -1.6518
 2752SOL     OW19888   0.622   2.738  17.673  0.1330 -0.0879 -0.0225
 2752SOL    HW119889   0.569   2.732   0.010  1.2499 -2.4185  0.5131
 2752SOL    HW219890   0.678   2.811  17.701  1.6515 -1.7131  1.1070
 2753SOL     OW19891   4.289   3.771   2.726 -0.0360 -0.9363  0.1634
 2753SOL    HW119892   4.305   3.687   2.684 -4.7813 -2.4498  1.3409
 2753SOL    HW219893   4.266   3.744   2.815 -1.3444 -0.3095  0.0293
 2754SOL     OW19894   4.157   4.463  12.417  0.0782  0.7787  0.2676
 2754SOL    HW119895   4.146   4.371  12.393 -0.4468  1.1720 -0.9967
 2754SOL    HW219896   4.223   4.494  12.355  0.8502  1.0324  1.2161
 2755SOL     OW19897   1.696   3.290   5.816  0.1972 -0.0088 -0.0204
 2755SOL    HW119898   1.670   3.339   5.737 -2.3794 -1.4498 -0.0854
 2755SOL    HW219899   1.609   3.266   5.849  0.7565 -1.2617  0.5182
 2756SOL     OW19900   0.122   2.585   4.831 -0.0920  0.3049 -0.0957
 2756SOL    HW119901   0.116   2.676   4.862  1.1545  0.8951 -1.5397
 2756SOL    HW219902   0.216   2.572   4.814 -0.3212 -0.2633 -0.9085
 2757SOL     OW19903   2.699   3.878   6.681  0.3717  0.3824 -0.3838
 2757SOL    HW119904   2.659   3.864   6.767  1.1151 -0.4396 -0.1666
 2757SOL    HW219905   2.629   3.847   6.623  1.6590  0.7503 -2.1519
 2758SOL     OW19906   3.028   3.989   4.791 -0.2100  0.6255  0.0125
 2758SOL    HW119907   3.044   3.898   4.765  1.1832  0.9671 -0.3156
 2758SOL    HW219908   3.047   3.979   4.884  1.0585  0.2200 -0.2820
 2759SOL     OW19909   2.106   0.752   2.942 -0.1873 -0.0671 -0.3649
 2759SOL    HW119910   2.104   0.712   2.855  2.1647 -0.4598 -0.2204
 2759SOL    HW219911   2.190   0.798   2.939 -0.1672 -0.0064  1.3766
 2760SOL     OW19912   3.553   4.719   0.743  0.1038 -0.2622 -0.4946
 2760SOL    HW119913   3.637   0.027   0.754  0.7538 -0.3986 -4.6448
 2760SOL    HW219914   3.503   0.047   0.692  0.3019  1.0454  0.9886
 2761SOL     OW19915   3.252   1.442   1.296  0.1556  0.0725 -0.6051
 2761SOL    HW119916   3.214   1.356   1.276 -0.7181  0.3789 -0.2584
 2761SOL    HW219917   3.175   1.478   1.340  0.5489 -1.7467  1.5728
 2762SOL     OW19918   0.714   2.134   5.086  0.6070  0.1699 -0.3115
 2762SOL    HW119919   0.696   2.084   5.164 -2.3679  0.5819 -0.7513
 2762SOL    HW219920   0.764   2.206   5.127 -3.0375  0.8029  2.9703
 2763SOL     OW19921   2.382   0.741   1.543 -0.2955  0.0602  0.1283
 2763SOL    HW119922   2.390   0.831   1.509 -0.2504 -1.0051 -2.6637
 2763SOL    HW219923   2.289   0.737   1.567 -0.9022  0.0575 -2.2521
 2764SOL     OW19924   0.275   4.367   7.740  0.2395  0.0942 -0.1759
 2764SOL    HW119925   0.330   4.414   7.677  0.7309  1.1223  1.0288
 2764SOL    HW219926   0.188   4.402   7.719  0.5132  0.4760 -0.6781
 2765SOL     OW19927   0.467   0.987   4.077  0.2912  0.2543 -0.3538
 2765SOL    HW119928   0.426   0.916   4.128 -2.3511  1.8248 -0.3166
 2765SOL    HW219929   0.402   1.034   4.026  1.3377  1.4676 -0.5691
 2766SOL     OW19930   2.419   3.053   2.514 -0.4523  0.1539 -0.2638
 2766SOL    HW119931   2.351   3.062   2.580 -1.1372 -1.9967 -0.6992
 2766SOL    HW219932   2.450   3.143   2.505 -0.9662  0.5739  2.1136
 2767SOL     OW19933   2.995   2.488   1.451  0.5837  0.6412  0.4116
 2767SOL    HW119934   2.968   2.406   1.410  0.7546  0.2969  0.9993
 2767SOL    HW219935   3.088   2.485   1.432  0.6463 -1.6475  1.0960
 2768SOL     OW19936   4.694   4.720   4.191  0.2910 -0.1703 -0.2978
 2768SOL    HW119937   0.049   0.012   4.191 -0.2384  1.5704  0.3031
 2768SOL    HW219938   4.659   0.035   4.118  0.5246  1.2413  0.5696
 2769SOL     OW19939   3.887   3.240  15.981 -0.7645  0.6605 -0.1296
 2769SOL    HW119940   3.943   3.172  15.945 -1.1295  1.2032 -1.7337
 2769SOL    HW219941   3.910   3.314  15.925  1.4620  0.1321  0.0718
 2770SOL     OW19942   3.110   0.181   7.160 -0.0427 -0.3579 -0.4906
 2770SOL    HW119943   3.201   0.208   7.146  0.0161 -1.1635 -1.7516
 2770SOL    HW219944   3.128   0.092   7.127  0.6576 -0.1039 -0.7937
 2771SOL     OW19945   1.437   3.121  16.954 -0.3527 -0.0373  0.4651
 2771SOL    HW119946   1.421   3.119  16.860  0.2490 -2.6496  0.4258
 2771SOL    HW219947   1.486   3.041  16.972  1.3419  1.0444  0.6172
 2772SOL     OW19948   3.526   3.157   4.719 -0.4341  0.2435 -0.0086
 2772SOL    HW119949   3.496   3.123   4.804  0.0011  0.5524  0.2628
 2772SOL    HW219950   3.619   3.162   4.741 -0.0084  1.8347 -2.2016
 2773SOL     OW19951   1.360   4.630   9.540  0.2073  0.0747 -0.0402
 2773SOL    HW119952   1.418   4.555   9.559 -0.2410 -0.5378 -1.1211
 2773SOL    HW219953   1.407   4.702   9.583  0.1688  0.2822 -0.3521
 2774SOL     OW19954   4.346   0.782   7.721  0.0028 -0.0015  0.0524
 2774SOL    HW119955   4.294   0.722   7.773  2.8596 -1.9332  0.6787
 2774SOL    HW219956   4.410   0.805   7.789  1.9451 -2.2717 -1.0252
 2775SOL     OW19957   1.792   2.858   5.843 -0.4933 -0.1035 -0.2942
 2775SOL    HW119958   1.725   2.919   5.874 -0.4710 -0.6654  0.8326
 2775SOL    HW219959   1.872   2.909   5.833  0.7963 -2.2526 -1.0567
 2776SOL     OW19960   2.475   4.001   7.109 -0.2392 -0.1434 -0.3607
 2776SOL    HW119961   2.457   4.073   7.170 -0.8726 -1.4556  0.9747
 2776SOL    HW219962   2.389   3.960   7.109  0.4714 -1.6217 -1.6131
 2777SOL     OW19963   1.980   2.322   1.946 -0.2810 -0.1530  0.0086
 2777SOL    HW119964   1.936   2.329   2.031  0.4877 -0.5360  0.4334
 2777SOL    HW219965   2.067   2.351   1.972 -0.3112 -0.5617  0.5728
 2778SOL     OW19966   1.909   2.806   9.438 -0.0914 -0.0059  0.2935
 2778SOL    HW119967   1.917   2.860   9.360  2.2175 -0.4383  0.2219
 2778SOL    HW219968   1.874   2.724   9.402  2.6307 -0.6173 -1.0005
 2779SOL     OW19969   1.542   0.658   2.371 -0.4881 -0.1619  0.1273
 2779SOL    HW119970   1.512   0.748   2.372 -0.6599 -0.2196  0.1942
 2779SOL    HW219971   1.519   0.623   2.457 -0.1531  3.0594  1.5189
 2780SOL     OW19972   1.420   0.531  17.447 -0.2150 -0.1782  0.4044
 2780SOL    HW119973   1.324   0.521  17.451 -0.1068 -1.1610  0.6799
 2780SOL    HW219974   1.430   0.502  17.538  1.5849  1.3490  0.6802
 2781SOL     OW19975   0.624   0.637   8.032  0.5527 -0.0315  0.5918
 2781SOL    HW119976   0.616   0.647   8.127  1.3133  1.1755  0.5375
 2781SOL    HW219977   0.541   0.675   8.005  0.2038  0.1848  1.9339
 2782SOL     OW19978   3.564   3.995   1.409 -0.3609 -0.6705 -0.1306
 2782SOL    HW119979   3.475   3.961   1.420 -0.2513 -0.9221 -0.0210
 2782SOL    HW219980   3.559   4.054   1.333  0.1657  0.3413  0.6219
 2783SOL     OW19981   4.342   0.996   6.677  0.2855 -0.0267  0.1838
 2783SOL    HW119982   4.379   0.920   6.721  1.3602 -0.1949 -1.0126
 2783SOL    HW219983   4.352   1.069   6.738 -2.6421 -0.8025  1.5599
 2784SOL     OW19984   3.937   3.263   4.501  0.0769  0.5507 -0.3045
 2784SOL    HW119985   3.861   3.321   4.502  0.4239  1.0427 -1.8817
 2784SOL    HW219986   3.958   3.259   4.407 -0.8812 -0.8591 -0.4478
 2785SOL     OW19987   1.659   1.265   2.773  0.6637 -0.7426  0.0009
 2785SOL    HW119988   1.604   1.278   2.850  0.0509 -1.2269 -0.3587
 2785SOL    HW219989   1.744   1.261   2.818  0.6131  3.5415  0.4198
 2786SOL     OW19990   1.046   2.964  12.886  0.1435  0.6618  0.4276
 2786SOL    HW119991   1.125   2.926  12.847  0.1907  1.1003  0.1044
 2786SOL    HW219992   1.004   3.007  12.812 -0.1939 -0.5322 -0.0766
 2787SOL     OW19993   4.074   0.964  10.849  0.0026 -0.2336 -0.0223
 2787SOL    HW119994   4.131   0.919  10.787  2.1044 -0.2228  1.8796
 2787SOL    HW219995   4.141   1.019  10.890  0.2408 -0.9917  0.6118
 2788SOL     OW19996   0.709   3.547   8.157  0.5639 -0.0305 -0.4719
 2788SOL    HW119997   0.790   3.534   8.205 -0.5979  3.9508  2.5610
 2788SOL    HW219998   0.693   3.639   8.178  0.7663 -0.3543  1.1238
 2789SOL     OW19999   2.427   2.937   7.340  0.0403 -0.3962 -0.6345
 2789SOL    HW120000   2.364   2.977   7.280  0.9170 -1.6421 -2.3710
 2789SOL    HW220001   2.395   2.847   7.348 -2.6717  0.8857  2.9261
 2790SOL     OW20002   2.056   0.850  12.933 -0.5680 -0.1975  0.6212
 2790SOL    HW120003   2.141   0.891  12.944  0.5383 -2.1243 -0.7067
 2790SOL    HW220004   2.068   0.796  12.855  2.5334  3.3085 -1.3046
 2791SOL     OW20005   0.100   4.394   2.035  0.0486  0.4624  0.3236
 2791SOL    HW120006   0.091   4.384   2.129 -1.8554 -0.9680 -0.0116
 2791SOL    HW220007   0.151   4.318   2.008  0.3702  1.2329 -1.2631
 2792SOL     OW20008   3.175   2.080   2.394  0.3498  0.3041 -1.2021
 2792SOL    HW120009   3.095   2.128   2.415  0.0825 -0.2288 -1.0041
 2792SOL    HW220010   3.231   2.110   2.465  0.8631  0.4807 -1.6780
 2793SOL     OW20011   1.832   1.481  12.374 -0.1193  0.7241 -0.5234
 2793SOL    HW120012   1.744   1.463  12.407  0.6184 -2.9072 -0.6213
 2793SOL    HW220013   1.816   1.477  12.280  1.1623  0.7002 -0.7433
 2794SOL     OW20014   4.314   0.525  11.404  0.0772  0.0149  0.2819
 2794SOL    HW120015   4.268   0.570  11.333 -1.0093  2.9641  2.8353
 2794SOL    HW220016   4.249   0.455  11.414 -0.2673  0.0026 -2.0606
 2795SOL     OW20017   1.874   4.148   6.578 -0.1174 -0.4666 -0.4221
 2795SOL    HW120018   1.920   4.112   6.502 -0.9571  0.7566 -1.5137
 2795SOL    HW220019   1.786   4.147   6.540  0.5223  0.9444 -1.9533
 2796SOL     OW20020   0.658   2.482   1.151  0.1139 -0.6118  0.5532
 2796SOL    HW120021   0.734   2.508   1.203 -2.8499  3.2846  2.8942
 2796SOL    HW220022   0.665   2.546   1.080 -0.2593 -0.7456  0.3942
 2797SOL     OW20023   2.138   4.629   5.003 -0.0964  0.6566 -0.1720
 2797SOL    HW120024   2.097   4.702   5.050  1.7102 -0.0906  2.5725
 2797SOL    HW220025   2.067   4.581   4.959 -0.0740 -0.1308  0.6459
 2798SOL     OW20026   4.566   4.585   5.306 -0.1628  0.3059 -0.4566
 2798SOL    HW120027   4.542   4.663   5.257 -2.4852  1.6992  2.8829
 2798SOL    HW220028   4.502   4.520   5.277  0.8538  0.3799 -2.8482
 2799SOL     OW20029   0.831   4.731  16.637  0.2533 -0.6598  0.4821
 2799SOL    HW120030   0.797   0.009  16.726  0.6522 -1.3087  0.7393
 2799SOL    HW220031   0.755   0.035  16.595 -0.3312 -1.8263  0.4323
 2800SOL     OW20032   1.525   2.804   6.836  0.3166  0.0220 -0.2601
 2800SOL    HW120033   1.621   2.798   6.843  0.1548 -1.9821  0.2539
 2800SOL    HW220034   1.508   2.867   6.906 -1.2005 -1.9410  1.1421
 2801SOL     OW20035   1.019   3.695  13.218  0.7715  0.0465 -0.2835
 2801SOL    HW120036   1.081   3.628  13.246 -0.0888 -0.6649 -0.0787
 2801SOL    HW220037   1.049   3.702  13.128 -0.0611  1.3265 -0.4671
 2802SOL     OW20038   1.532   0.037  12.771 -0.1927 -0.1089  0.6142
 2802SOL    HW120039   1.497   0.112  12.725 -1.8666  0.2498  2.4702
 2802SOL    HW220040   1.471   0.048  12.844 -1.0370 -0.1325 -0.1037
 2803SOL     OW20041   1.490   2.855   6.563 -0.1667  0.3029 -0.6361
 2803SOL    HW120042   1.495   2.951   6.563 -2.3456  0.4196 -2.0327
 2803SOL    HW220043   1.496   2.829   6.655 -0.1719 -0.3070 -0.8073
 2804SOL     OW20044   4.597   3.934   1.002 -0.4180 -0.2548 -0.3650
 2804SOL    HW120045   4.582   4.003   1.067 -1.0824 -0.2245 -0.5554
 2804SOL    HW220046   4.512   3.931   0.959 -0.2499  0.5500 -0.7622
 2805SOL     OW20047   2.013   4.155   9.032  0.4305 -0.2704 -0.2442
 2805SOL    HW120048   2.002   4.206   8.952  1.8709 -0.6049 -0.6458
 2805SOL    HW220049   1.951   4.082   9.018  0.7027 -1.0068  2.3456
 2806SOL     OW20050   1.495   1.716   6.826 -0.5037  0.3748 -0.4668
 2806SOL    HW120051   1.436   1.643   6.844  0.6883  0.0875  2.2949
 2806SOL    HW220052   1.577   1.684   6.862 -1.4790 -0.3462  1.1431
 2807SOL     OW20053   2.609   1.324   5.898 -0.6632 -0.2845 -0.7924
 2807SOL    HW120054   2.556   1.353   5.824 -0.1203 -0.6941 -1.3463
 2807SOL    HW220055   2.541   1.309   5.964 -1.4337  1.9133 -1.0975
 2808SOL     OW20056   3.594   0.304   6.216 -0.2920  0.1766  0.1120
 2808SOL    HW120057   3.611   0.277   6.306 -0.2499 -1.7476 -0.4607
 2808SOL    HW220058   3.513   0.255   6.200 -0.2170  0.3839 -0.9371
 2809SOL     OW20059   3.290   2.359   9.102  0.4088 -0.1549 -0.5076
 2809SOL    HW120060   3.312   2.288   9.042 -2.4657  0.6925 -2.5251
 2809SOL    HW220061   3.195   2.362   9.114  0.2364  1.3632 -2.3083
 2810SOL     OW20062   3.591   3.459  12.661 -0.0369  0.3118  0.2091
 2810SOL    HW120063   3.544   3.512  12.596  0.9514  0.3391 -0.4937
 2810SOL    HW220064   3.525   3.468  12.729  0.5170 -0.0664  0.7957
 2811SOL     OW20065   0.190   3.278  13.340  0.0732 -0.2144 -0.2001
 2811SOL    HW120066   0.132   3.205  13.363  2.3743 -1.2792  2.1585
 2811SOL    HW220067   0.258   3.233  13.289 -0.4486 -0.1069 -0.9918
 2812SOL     OW20068   1.293   2.873  12.814  0.2415 -0.2385 -0.3825
 2812SOL    HW120069   1.350   2.844  12.744  2.2188 -1.5549  1.7741
 2812SOL    HW220070   1.336   2.949  12.855  0.6204  0.8481 -2.8148
 2813SOL     OW20071   3.261   1.969  17.069 -1.0127  0.8635  0.4266
 2813SOL    HW120072   3.232   2.001  16.984 -1.6868  3.3556  1.6101
 2813SOL    HW220073   3.283   1.881  17.038  1.1386  0.9169  1.8127
 2814SOL     OW20074   0.599   1.529   2.560  0.4569 -0.1766 -0.5844
 2814SOL    HW120075   0.657   1.455   2.573  1.2695  0.7542  0.9657
 2814SOL    HW220076   0.647   1.570   2.487  0.5900 -2.1167 -1.5732
 2815SOL     OW20077   2.912   4.154   3.523 -0.1499 -0.1663  0.4357
 2815SOL    HW120078   2.893   4.097   3.449  1.6858  0.4460 -0.5014
 2815SOL    HW220079   3.006   4.165   3.505 -0.1264 -1.9744 -0.5507
 2816SOL     OW20080   2.518   3.563  16.874  0.1015  0.2114  0.1300
 2816SOL    HW120081   2.524   3.470  16.851 -0.8698  0.6537 -1.8498
 2816SOL    HW220082   2.445   3.585  16.817  0.4446  2.8136  0.6873
 2817SOL     OW20083   4.673   2.937   2.489  0.5474  0.1570  0.7356
 2817SOL    HW120084   0.000   2.975   2.549  0.4736  0.8437  0.3851
 2817SOL    HW220085   4.661   2.847   2.518  4.6836 -0.6192  0.0244
 2818SOL     OW20086   2.772   1.607   6.710 -0.1687 -0.2619  0.0403
 2818SOL    HW120087   2.697   1.651   6.750 -0.4617  0.5686 -1.4261
 2818SOL    HW220088   2.810   1.678   6.657 -1.1646 -0.3181 -0.7532
 2819SOL     OW20089   1.990   2.094  15.556 -0.2944  0.1422  0.1139
 2819SOL    HW120090   1.991   2.004  15.523  2.1617 -0.1858  1.0831
 2819SOL    HW220091   1.914   2.135  15.514  0.4783  1.7194  0.2461
 2820SOL     OW20092   0.331   2.642   4.477  0.5107 -0.3410  0.1333
 2820SOL    HW120093   0.237   2.634   4.494  0.4675 -0.1199 -0.0076
 2820SOL    HW220094   0.332   2.598   4.392  1.9130 -2.1307  1.0721
 2821SOL     OW20095   4.002   0.380   2.787 -0.0912  0.5528 -0.1538
 2821SOL    HW120096   3.909   0.362   2.800  0.6786 -1.8987  1.9195
 2821SOL    HW220097   4.030   0.303   2.737  2.1882  1.0112  0.4057
 2822SOL     OW20098   0.312   4.361  14.724 -0.4112  0.0512  0.1681
 2822SOL    HW120099   0.351   4.409  14.650 -1.3881 -0.7821 -0.8918
 2822SOL    HW220100   0.221   4.360  14.693 -1.7056  0.6532  3.9478
 2823SOL     OW20101   0.324   3.065   7.559 -0.0509 -0.2592 -0.0401
 2823SOL    HW120102   0.332   3.021   7.644 -0.5107  1.2621  0.7967
 2823SOL    HW220103   0.404   3.038   7.513  1.4049 -1.4949  3.2257
 2824SOL     OW20104   0.520   1.330  15.549  0.1122  0.4356  0.5437
 2824SOL    HW120105   0.468   1.369  15.479  2.4907 -0.2447 -1.5642
 2824SOL    HW220106   0.468   1.349  15.628  0.4297  1.5822  0.4794
 2825SOL     OW20107   0.650   1.246   4.674 -0.4024 -0.4571 -0.4100
 2825SOL    HW120108   0.746   1.239   4.678 -0.3615  0.1366 -0.3939
 2825SOL    HW220109   0.637   1.160   4.632  0.3011 -1.8105  2.1464
 2826SOL     OW20110   2.553   1.663   1.743 -0.3710  0.3885  0.2242
 2826SOL    HW120111   2.477   1.632   1.694 -1.9762  1.8838  1.7634
 2826SOL    HW220112   2.531   1.646   1.835  2.2776  2.7650  1.2945
 2827SOL     OW20113   4.695   3.929   2.368  0.7155  0.2845 -0.5838
 2827SOL    HW120114   0.008   4.000   2.327 -0.6352  1.9764  0.7756
 2827SOL    HW220115   0.027   3.899   2.428  0.0845 -1.1916 -0.5982
 2828SOL     OW20116   2.392   1.882   5.707 -0.0832 -0.1092 -0.1691
 2828SOL    HW120117   2.469   1.831   5.733  1.1658  1.6065 -0.4713
 2828SOL    HW220118   2.319   1.822   5.695  0.2497 -0.7306  0.8774
 2829SOL     OW20119   4.288   2.670   0.603  0.2312  0.2809  0.1451
 2829SOL    HW120120   4.337   2.676   0.520  0.8284  0.9880  0.5460
 2829SOL    HW220121   4.359   2.707   0.656  0.6954 -0.6428  0.1649
 2830SOL     OW20122   0.271   2.977   0.218  0.2236  0.2218  0.2620
 2830SOL    HW120123   0.204   3.044   0.204  0.9256  0.2707 -2.7175
 2830SOL    HW220124   0.350   3.022   0.188  0.4981 -0.5398 -0.1777
 2831SOL     OW20125   1.573   3.685  17.341  0.8300 -0.7687  0.2135
 2831SOL    HW120126   1.574   3.594  17.369  1.3659 -0.0862  2.4032
 2831SOL    HW220127   1.563   3.719  17.430  2.6608  0.9053 -0.2255
 2832SOL     OW20128   2.345   0.137   2.755 -0.2489 -0.0539 -0.4074
 2832SOL    HW120129   2.251   0.139   2.775 -0.3672  0.5491 -1.0185
 2832SOL    HW220130   2.355   0.213   2.697  0.6257  1.1569  1.3083
 2833SOL     OW20131   4.338   3.794   7.260  0.0127  0.1153 -0.2172
 2833SOL    HW120132   4.320   3.840   7.179 -1.3514  0.5899  0.3625
 2833SOL    HW220133   4.426   3.827   7.277 -0.4495  0.2648  1.8781
 2834SOL     OW20134   0.799   2.571  14.956  0.4108 -0.7011  0.3990
 2834SOL    HW120135   0.798   2.491  15.008  1.0519 -1.2046 -0.3424
 2834SOL    HW220136   0.782   2.642  15.018 -1.6379 -0.2326 -0.7165
 2835SOL     OW20137   2.598   0.094  16.098  0.3161  0.0018  0.2201
 2835SOL    HW120138   2.650   0.058  16.170 -0.4610  0.3350  0.9351
 2835SOL    HW220139   2.600   0.187  16.119 -0.9860  0.1963 -0.5635
 2836SOL     OW20140   2.369   0.452  10.189 -0.0261  0.3098  0.7217
 2836SOL    HW120141   2.435   0.410  10.244  0.6076  0.1724 -0.1414
 2836SOL    HW220142   2.298   0.397  10.223  0.5114 -0.9398 -0.1648
 2837SOL     OW20143   1.383   3.532   7.983  0.2749  0.0810 -0.4922
 2837SOL    HW120144   1.471   3.545   7.948 -0.1050  1.0870 -1.0887
 2837SOL    HW220145   1.393   3.556   8.075 -1.7849  3.2322 -1.0798
 2838SOL     OW20146   0.534   3.640   5.050  0.2875 -0.3202 -0.1373
 2838SOL    HW120147   0.558   3.648   5.143 -0.3434  0.1897 -0.0207
 2838SOL    HW220148   0.623   3.658   5.020 -0.1176  0.9259 -0.5725
 2839SOL     OW20149   2.687   1.615   3.857  0.2362 -0.4087  0.1830
 2839SOL    HW120150   2.618   1.620   3.790  1.4507 -0.4932 -1.0658
 2839SOL    HW220151   2.628   1.575   3.920  1.0418 -1.0510  0.5233
 2840SOL     OW20152   2.607   1.593   9.616 -0.3942  0.2948 -0.3919
 2840SOL    HW120153   2.566   1.633   9.693 -0.9175  1.9496 -1.5235
 2840SOL    HW220154   2.530   1.547   9.582 -1.3352  1.2676  0.4166
 2841SOL     OW20155   2.233   0.547   2.647 -0.3799  0.2837  0.1622
 2841SOL    HW120156   2.207   0.463   2.684  0.1812  0.1094  0.1677
 2841SOL    HW220157   2.150   0.593   2.650 -0.3454  0.2915  1.2738
 2842SOL     OW20158   2.509   4.535   0.951  0.3002 -0.1345  0.1140
 2842SOL    HW120159   2.528   4.472   0.882  1.7261 -0.7780  1.0869
 2842SOL    HW220160   2.566   4.487   1.011  2.1572 -0.5017 -1.9421
 2843SOL     OW20161   1.047   2.912   5.055 -0.5563  0.5484 -0.6535
 2843SOL    HW120162   0.958   2.877   5.060 -0.4649  0.6812  1.9147
 2843SOL    HW220163   1.082   2.875   5.136 -1.1432  1.9091  0.2150
 2844SOL     OW20164   4.124   4.299   5.400 -0.3366  0.3957  0.1691
 2844SOL    HW120165   4.123   4.394   5.400  0.5041  0.3955 -1.8879
 2844SOL    HW220166   4.097   4.286   5.309  2.1042 -1.8457 -0.2436
 2845SOL     OW20167   0.211   3.857   4.701 -0.4471 -0.1994  0.9571
 2845SOL    HW120168   0.243   3.888   4.786  0.6459  0.0287  0.4635
 2845SOL    HW220169   0.221   3.939   4.653  0.3425 -1.1488 -0.5151
 2846SOL     OW20170   1.187   3.270   7.243 -0.1196  0.4177  0.1746
 2846SOL    HW120171   1.123   3.286   7.312  1.5841 -0.4563  1.9450
 2846SOL    HW220172   1.152   3.198   7.190  2.6094 -0.8025  0.0286
 2847SOL     OW20173   3.968   4.551   3.331 -0.2184  0.1013 -0.4701
 2847SOL    HW120174   4.061   4.541   3.314  0.2438 -0.6352  2.4487
 2847SOL    HW220175   3.926   4.496   3.265  0.9992 -0.2329 -0.9568
 2848SOL     OW20176   1.845   2.417   5.967 -0.0109  0.0565 -0.2290
 2848SOL    HW120177   1.871   2.501   5.929 -0.4755  0.2150 -0.1953
 2848SOL    HW220178   1.905   2.405   6.040  0.3436  1.8746 -0.2089
 2849SOL     OW20179   0.925   4.326   6.722  0.2158  0.2180  0.0421
 2849SOL    HW120180   0.969   4.373   6.793 -2.9960 -1.4287  3.1279
 2849SOL    HW220181   0.940   4.389   6.651  0.2926  0.6148  0.4072
 2850SOL     OW20182   1.387   3.600   4.655 -0.5412  0.4981 -0.3162
 2850SOL    HW120183   1.382   3.685   4.698  0.8842  0.7553 -0.6506
 2850SOL    HW220184   1.311   3.607   4.597 -0.6641  0.4091 -0.1645
 2851SOL     OW20185   1.925   0.237   5.427  0.6368 -0.1559  0.2163
 2851SOL    HW120186   1.894   0.147   5.437 -0.3879  0.0823 -0.8640
 2851SOL    HW220187   1.875   0.270   5.353 -1.3062  0.8098  1.9656
 2852SOL     OW20188   2.929   0.482   5.736  0.4432 -0.0639 -0.4927
 2852SOL    HW120189   2.909   0.531   5.656 -2.4211  0.3784  0.5092
 2852SOL    HW220190   2.841   0.490   5.771  0.3957 -0.0912 -0.6072
 2853SOL     OW20191   4.166   3.383  13.572  0.1096  0.1515 -0.6369
 2853SOL    HW120192   4.101   3.389  13.642  0.4758  1.2049 -0.3842
 2853SOL    HW220193   4.192   3.474  13.556  1.8054 -0.1984  0.1094
 2854SOL     OW20194   2.563   4.029  12.992 -0.3786  0.7751  0.4876
 2854SOL    HW120195   2.524   4.042  12.905  0.5659 -1.1738 -0.2246
 2854SOL    HW220196   2.520   3.945  13.011  0.0393  0.7026  1.1071
 2855SOL     OW20197   1.611   4.707  17.617 -0.4704 -0.3098 -0.0454
 2855SOL    HW120198   1.564   4.666  17.689 -0.5325  2.7077  1.6307
 2855SOL    HW220199   1.585   0.063  17.622  0.5660  0.0845 -1.9468
 2856SOL     OW20200   3.868   4.073   2.214 -0.2915 -0.6693  0.3031
 2856SOL    HW120201   3.894   3.992   2.257 -2.8060 -0.8735  1.4719
 2856SOL    HW220202   3.817   4.035   2.142  1.1755 -1.8732 -0.0912
 2857SOL     OW20203   0.537   1.528   0.934  0.0984  0.8740 -0.1932
 2857SOL    HW120204   0.446   1.551   0.950  0.0470  0.5780 -0.0684
 2857SOL    HW220205   0.537   1.461   0.865 -0.5483  0.2419  0.4218
 2858SOL     OW20206   1.207   2.533   5.895 -0.7515 -0.3182  0.4096
 2858SOL    HW120207   1.134   2.588   5.922 -0.4853  0.3719 -0.2777
 2858SOL    HW220208   1.159   2.490   5.825 -2.0612  0.8947  0.5746
 2859SOL     OW20209   2.201   1.653  10.768  0.7848  0.1653 -0.1860
 2859SOL    HW120210   2.233   1.570  10.803 -4.0580 -1.2118  0.8914
 2859SOL    HW220211   2.278   1.682  10.719  0.0484 -0.4027 -1.6752
 2860SOL     OW20212   2.197   4.612   8.385  0.0328 -0.3469  0.0160
 2860SOL    HW120213   2.214   4.692   8.436  0.9933  0.2625 -1.2790
 2860SOL    HW220214   2.285   4.577   8.397 -1.0666 -3.5534 -1.3284
 2861SOL     OW20215   1.747   2.798  11.749  0.4087 -0.5887  0.3083
 2861SOL    HW120216   1.661   2.755  11.741 -0.3975  0.9561  0.6240
 2861SOL    HW220217   1.791   2.764  11.672  1.0191 -0.0363  0.4211
 2862SOL     OW20218   4.278   1.124   4.789  0.1748 -0.7481  0.5739
 2862SOL    HW120219   4.357   1.172   4.766  0.5415 -0.0816  3.3254
 2862SOL    HW220220   4.209   1.190   4.798 -0.1552 -0.6420 -2.5784
 2863SOL     OW20221   2.580   3.290   7.649  0.1050 -0.6476  0.0497
 2863SOL    HW120222   2.574   3.275   7.555 -1.8244 -0.7504  0.2045
 2863SOL    HW220223   2.493   3.323   7.669  0.1046 -1.6496  1.7364
 2864SOL     OW20224   1.026   3.919   1.433  0.6327 -0.0880 -0.0084
 2864SOL    HW120225   1.105   3.967   1.456 -1.0141  0.7444  3.8736
 2864SOL    HW220226   1.065   3.832   1.440  2.9048  1.1497  2.5453
 2865SOL     OW20227   0.982   2.215   5.916  0.3049  0.4144  0.0601
 2865SOL    HW120228   0.989   2.287   5.853  2.2871  0.3270  0.1936
 2865SOL    HW220229   0.920   2.256   5.976  1.2525  2.6232 -0.4984
 2866SOL     OW20230   0.798   3.254  11.359 -0.6340 -0.1141 -0.2482
 2866SOL    HW120231   0.861   3.187  11.332 -0.4724  0.9194 -2.3940
 2866SOL    HW220232   0.722   3.195  11.356  0.3632 -1.3802 -0.4131
 2867SOL     OW20233   2.182   4.120   6.538 -0.5036  0.8431 -0.6881
 2867SOL    HW120234   2.169   4.073   6.620 -3.0549  2.1062 -0.3862
 2867SOL    HW220235   2.144   4.069   6.466 -1.5513 -0.2451  0.6564
 2868SOL     OW20236   1.464   2.288   4.760 -0.1688 -0.3711 -0.3232
 2868SOL    HW120237   1.543   2.301   4.812 -0.1452  0.9699 -0.7087
 2868SOL    HW220238   1.432   2.377   4.747  1.2448  0.5755  2.5470
 2869SOL     OW20239   1.723   3.731  17.743  0.3640 -0.4998 -0.0792
 2869SOL    HW120240   1.673   3.670  17.688  1.6799  0.1076 -1.9533
 2869SOL    HW220241   1.762   3.671   0.064 -1.5508 -0.1625  1.3998
 2870SOL     OW20242   4.232   3.472   1.809 -0.0200  0.3846 -0.1754
 2870SOL    HW120243   4.156   3.414   1.800 -0.9327  1.2609  1.9795
 2870SOL    HW220244   4.213   3.528   1.884  0.8198  0.4440 -0.0179
 2871SOL     OW20245   1.729   2.240   7.974 -0.4104  0.3386  0.1393
 2871SOL    HW120246   1.811   2.288   7.984 -0.2962 -0.0710  1.1992
 2871SOL    HW220247   1.655   2.300   7.985 -1.6890 -1.3722  0.7149
 2872SOL     OW20248   4.189   0.615   4.133 -0.0168 -0.5056 -0.3628
 2872SOL    HW120249   4.186   0.671   4.055  2.2099 -1.2450 -0.9804
 2872SOL    HW220250   4.120   0.551   4.115 -1.0266  0.5903 -0.3614
 2873SOL     OW20251   1.809   3.007   2.953  0.0427 -0.1319  0.4022
 2873SOL    HW120252   1.850   2.962   3.027 -2.5791 -2.8209  0.2082
 2873SOL    HW220253   1.756   3.075   2.995  1.1729  1.1296 -0.1722
 2874SOL     OW20254   4.679   3.061  12.515 -0.4354 -0.3209 -0.1487
 2874SOL    HW120255   4.680   3.011  12.434 -0.3715 -1.6183  0.6528
 2874SOL    HW220256   4.590   3.035  12.538 -0.0301  0.3203  2.1222
 2875SOL     OW20257   2.255   4.383   4.680  0.1375 -0.1861  0.0408
 2875SOL    HW120258   2.221   4.299   4.710  1.1095 -0.3456  0.6757
 2875SOL    HW220259   2.242   4.367   4.586  0.2223  0.1852 -0.0339
 2876SOL     OW20260   2.771   4.684   3.132  1.0417 -0.0241 -0.1743
 2876SOL    HW120261   2.733   0.023   3.177  1.8392 -1.2812  2.6240
 2876SOL    HW220262   2.687   4.653   3.097  1.5153 -1.2169 -0.2742
 2877SOL     OW20263   4.476   2.839   8.573 -0.5453 -0.3021 -0.3956
 2877SOL    HW120264   4.461   2.797   8.658  2.1477 -0.1568  0.1314
 2877SOL    HW220265   4.514   2.768   8.521 -3.0015 -1.1551 -1.0533
 2878SOL     OW20266   3.087   3.491  13.628  0.1149  0.4378  0.2799
 2878SOL    HW120267   2.999   3.503  13.591 -0.3230  1.1444  1.5110
 2878SOL    HW220268   3.079   3.533  13.714  1.9163 -0.9511  1.1158
 2879SOL     OW20269   1.952   3.525   2.619 -0.3110  0.3415 -0.1895
 2879SOL    HW120270   1.947   3.600   2.559  0.4479  1.2624  0.8922
 2879SOL    HW220271   1.952   3.451   2.559  0.7803  0.8541 -0.8278
 2880SOL     OW20272   4.162   0.559   2.729  0.1881 -0.0695 -0.6446
 2880SOL    HW120273   4.119   0.482   2.766  0.3238  0.7453  1.2328
 2880SOL    HW220274   4.099   0.595   2.667 -0.0282 -1.1279 -1.0414
 2881SOL     OW20275   0.966   3.832   5.190  0.1899  0.2159 -0.7460
 2881SOL    HW120276   1.046   3.882   5.172  1.1226 -0.1565  2.2262
 2881SOL    HW220277   0.920   3.898   5.241 -0.6457 -0.9133 -0.0409
 2882SOL     OW20278   3.245   1.814   5.209  0.3198  0.0605 -0.5154
 2882SOL    HW120279   3.327   1.860   5.226 -1.4577  2.6519  1.1217
 2882SOL    HW220280   3.284   1.758   5.142 -1.6340 -0.9275 -0.8077
 2883SOL     OW20281   1.497   1.040   1.066 -0.4274 -0.0463  0.8172
 2883SOL    HW120282   1.529   1.028   0.977 -0.6394 -2.0618  1.0212
 2883SOL    HW220283   1.430   1.105   1.048 -0.4288 -0.8528 -2.0579
 2884SOL     OW20284   1.075   0.225   7.927  0.5870 -0.0411 -0.3931
 2884SOL    HW120285   1.024   0.144   7.917 -0.0610  0.4110 -0.6941
 2884SOL    HW220286   1.157   0.190   7.964  1.8685  3.0735 -0.3294
 2885SOL     OW20287   0.795   3.691   4.951  0.1932 -0.4020  0.7452
 2885SOL    HW120288   0.863   3.651   4.897 -0.6066  2.1015 -2.1387
 2885SOL    HW220289   0.860   3.736   5.006  0.3034  3.3297 -2.3586
 2886SOL     OW20290   0.708   0.662   5.570 -0.1791 -0.0888 -0.0087
 2886SOL    HW120291   0.724   0.732   5.633  1.0908  0.0179 -0.4647
 2886SOL    HW220292   0.634   0.695   5.518  0.0575  1.1165  0.4275
 2887SOL     OW20293   3.028   3.264   2.076  0.1591 -0.3616 -0.0776
 2887SOL    HW120294   2.978   3.305   2.147 -2.9352 -1.0724 -1.8190
 2887SOL    HW220295   3.117   3.295   2.092  1.1088 -1.9321 -2.3208
 2888SOL     OW20296   4.330   0.531   6.737 -0.2057  0.4917  0.2283
 2888SOL    HW120297   4.365   0.619   6.752  1.7421 -0.2784  0.1771
 2888SOL    HW220298   4.267   0.539   6.808  1.5325  1.9719  1.6309
 2889SOL     OW20299   4.182   2.478   8.616 -0.4166 -0.6075 -0.1630
 2889SOL    HW120300   4.266   2.497   8.657  0.7933 -0.9351 -2.4441
 2889SOL    HW220301   4.201   2.391   8.581  0.9460 -1.2814  2.3048
 2890SOL     OW20302   3.707   0.354   6.566 -0.2885 -0.2133  0.7796
 2890SOL    HW120303   3.635   0.313   6.518  1.8330 -1.4796 -1.3137
 2890SOL    HW220304   3.711   0.310   6.651  1.2168 -0.8073  0.3951
 2891SOL     OW20305   0.057   3.463  13.205 -0.1646  0.1397  0.4153
 2891SOL    HW120306   4.719   3.438  13.259 -0.7643  1.6770  0.2972
 2891SOL    HW220307   0.117   3.400  13.244 -0.0794 -0.1984 -0.2548
 2892SOL     OW20308   2.002   0.352   8.827  0.4397 -0.0470 -0.1995
 2892SOL    HW120309   1.991   0.446   8.813  2.3501  0.0903 -0.7552
 2892SOL    HW220310   1.983   0.344   8.921 -0.9432 -1.5889 -0.6161
 2893SOL     OW20311   0.401   2.626   0.769 -0.3309 -0.1059  0.3239
 2893SOL    HW120312   0.322   2.574   0.755 -0.3773  0.2181 -0.6394
 2893SOL    HW220313   0.370   2.716   0.782 -2.1057 -0.3601 -1.9774
 2894SOL     OW20314   3.928   1.947   6.170  0.7759  0.9564 -0.6059
 2894SOL    HW120315   3.962   1.871   6.123 -0.4712  0.5979 -0.9256
 2894SOL    HW220316   3.906   1.895   6.248  3.2983  0.4664 -0.2281
 2895SOL     OW20317   2.570   3.641  17.128  0.4452 -0.4867 -0.2509
 2895SOL    HW120318   2.477   3.659  17.114  0.5078 -0.3106 -0.4375
 2895SOL    HW220319   2.589   3.602  17.042  0.1458 -0.2157 -0.4391
 2896SOL     OW20320   4.627   2.652   0.414 -0.1817 -0.1673 -0.4791
 2896SOL    HW120321   4.558   2.717   0.396  0.2633  0.5475  0.3660
 2896SOL    HW220322   4.606   2.572   0.366 -0.4987 -0.0074 -0.6117
 2897SOL     OW20323   0.094   2.342   4.989  0.6677  0.5404 -0.3296
 2897SOL    HW120324   0.183   2.317   5.013  1.3667  0.2066 -3.2603
 2897SOL    HW220325   0.104   2.425   4.943  2.1241  1.2089  1.1856
 2898SOL     OW20326   4.473   0.249  16.555  0.2773  0.1979  0.0905
 2898SOL    HW120327   4.478   0.199  16.473 -0.7148  0.9482 -0.4210
 2898SOL    HW220328   4.437   0.335  16.535 -0.6054 -0.4808 -1.2615
 2899SOL     OW20329   1.896   3.486   9.314 -0.7287 -0.4820  0.0617
 2899SOL    HW120330   1.908   3.580   9.330  0.0974 -0.7971  1.2282
 2899SOL    HW220331   1.809   3.482   9.274  0.1204 -2.6324 -1.5470
 2900SOL     OW20332   3.690   0.899   2.645  0.3231  0.0808 -0.1285
 2900SOL    HW120333   3.785   0.904   2.648  0.0361  3.9051  1.5877
 2900SOL    HW220334   3.666   0.982   2.685 -1.2047 -0.1584 -0.5295
 2901SOL     OW20335   1.965   4.185   8.540 -0.2188  0.1608  0.3357
 2901SOL    HW120336   1.903   4.189   8.613 -1.1080  1.8482 -0.4965
 2901SOL    HW220337   1.957   4.274   8.505  0.4640 -0.5132 -1.5233
 2902SOL     OW20338   3.491   2.681   5.691 -0.1983 -0.2463 -0.0489
 2902SOL    HW120339   3.485   2.758   5.749  0.9808 -0.5060  0.4282
 2902SOL    HW220340   3.397   2.662   5.689  0.0390 -1.5712  1.3438
 2903SOL     OW20341   1.495   2.508  12.374  0.1992  0.1051 -0.2234
 2903SOL    HW120342   1.506   2.512  12.469  1.3372  0.2140 -0.3542
 2903SOL    HW220343   1.404   2.535  12.363  0.3524  0.7530  0.0885
 2904SOL     OW20344   4.709   2.990   7.665  0.1731 -0.5286  0.0842
 2904SOL    HW120345   0.009   3.036   7.741  0.2813 -0.1918 -0.1688
 2904SOL    HW220346   4.672   3.064   7.616  2.6868  0.5901 -0.1347
 2905SOL     OW20347   3.708   4.219   6.270  0.6683 -0.7157 -0.0747
 2905SOL    HW120348   3.720   4.129   6.241  0.2149 -0.7990 -0.0078
 2905SOL    HW220349   3.752   4.258   6.195 -2.0710  0.6809 -0.9420
 2906SOL     OW20350   0.849   0.908   0.074  0.3222 -0.3746 -0.3592
 2906SOL    HW120351   0.942   0.882   0.071 -0.0254 -1.8089  1.2246
 2906SOL    HW220352   0.845   0.974   0.143 -0.1794 -0.5207 -0.2536
 2907SOL     OW20353   1.777   0.288   6.907 -0.4735 -0.0608 -0.0241
 2907SOL    HW120354   1.788   0.334   6.824 -2.8194 -0.0865 -0.3474
 2907SOL    HW220355   1.869   0.270   6.924 -0.5447  0.7402  1.1901
 2908SOL     OW20356   2.495   2.773   3.791 -0.4242 -0.2985 -0.5654
 2908SOL    HW120357   2.546   2.799   3.714 -0.9118 -0.9933 -1.1210
 2908SOL    HW220358   2.518   2.680   3.794 -0.7920 -0.4058 -1.0746
 2909SOL     OW20359   0.421   1.844  12.724  0.4770  0.4160 -0.1169
 2909SOL    HW120360   0.516   1.851  12.724  0.3768  1.8506 -0.3187
 2909SOL    HW220361   0.412   1.799  12.641  2.2244  1.5623 -0.9212
 2910SOL     OW20362   1.238   2.006   9.203  0.5069  0.3176  0.1389
 2910SOL    HW120363   1.320   1.986   9.246 -0.9444  0.5080  2.9830
 2910SOL    HW220364   1.269   1.987   9.114 -0.3151 -0.5709  0.0415
 2911SOL     OW20365   3.954   3.649   2.036 -0.2421 -0.2864 -0.2937
 2911SOL    HW120366   3.961   3.740   2.008 -1.3347  0.9155  3.3239
 2911SOL    HW220367   4.002   3.653   2.119  0.4871 -0.1005 -0.7256
 2912SOL     OW20368   2.283   2.759   6.179 -0.8193 -0.2067  0.4224
 2912SOL    HW120369   2.197   2.768   6.140 -0.0123 -0.7210 -1.4741
 2912SOL    HW220370   2.269   2.808   6.260  2.7077  1.3166  0.1329
 2913SOL     OW20371   0.298   3.293   5.676 -0.4717  0.1936 -0.6366
 2913SOL    HW120372   0.357   3.364   5.651  2.2649 -2.4683 -1.7174
 2913SOL    HW220373   0.334   3.235   5.610  1.3320  0.2503  0.3075
 2914SOL     OW20374   0.463   0.548   9.177 -0.3208  0.2424 -0.1769
 2914SOL    HW120375   0.463   0.609   9.103 -0.9223 -0.7678 -1.0125
 2914SOL    HW220376   0.401   0.484   9.142  3.8205 -3.1371 -1.3908
 2915SOL     OW20377   4.479   3.021  17.714  0.4593  0.2463  0.3843
 2915SOL    HW120378   4.574   3.025  17.725  0.4868  1.8769 -0.4527
 2915SOL    HW220379   4.472   3.072  17.634 -2.0583 -0.2276  0.3150
 2916SOL     OW20380   1.415   2.861   3.704 -0.1114 -0.3225  0.1610
 2916SOL    HW120381   1.412   2.775   3.661 -0.1285 -1.0258  1.5555
 2916SOL    HW220382   1.405   2.918   3.629 -0.2363 -0.2143  0.2602
 2917SOL     OW20383   3.907   4.140   5.848  0.5143  0.1888 -0.0817
 2917SOL    HW120384   3.940   4.176   5.766 -1.2858 -0.1647 -0.9475
 2917SOL    HW220385   3.896   4.050   5.818  0.4091  0.8714 -2.1027
 2918SOL     OW20386   2.241   3.670   9.210  0.6671  0.8601 -0.5462
 2918SOL    HW120387   2.176   3.636   9.149 -1.2902  0.9248  1.5184
 2918SOL    HW220388   2.255   3.761   9.183  2.7505  0.1795 -1.7325
 2919SOL     OW20389   4.255   3.897   6.560  0.0963 -0.3233  0.3594
 2919SOL    HW120390   4.172   3.943   6.554  2.4556  3.8435 -0.3250
 2919SOL    HW220391   4.294   3.947   6.632 -3.1940  0.6821  1.4540
 2920SOL     OW20392   4.411   2.875  11.829 -0.0206 -0.0327 -0.1483
 2920SOL    HW120393   4.358   2.954  11.844 -0.9470 -0.3749 -1.6492
 2920SOL    HW220394   4.369   2.840  11.751  0.8429 -0.1991 -0.5255
 2921SOL     OW20395   2.491   4.416  11.219  0.2425 -0.0331 -0.1452
 2921SOL    HW120396   2.520   4.352  11.283  0.5505  0.4487  0.1920
 2921SOL    HW220397   2.569   4.470  11.226 -0.0996  0.5602 -0.8230
 2922SOL     OW20398   1.203   1.024   9.823  0.4844 -0.2238  0.1950
 2922SOL    HW120399   1.140   0.969   9.777  0.8472 -0.7002  0.2664
 2922SOL    HW220400   1.156   1.048   9.903  1.1335 -1.3554  0.9107
 2923SOL     OW20401   0.989   2.766   8.239  0.0001  0.5146  0.3779
 2923SOL    HW120402   1.078   2.739   8.261  0.0831  1.9956  1.8777
 2923SOL    HW220403   0.975   2.830   8.309  2.5732  1.6939 -0.1883
 2924SOL     OW20404   1.274   3.571  13.398  0.3662 -0.1238 -0.2249
 2924SOL    HW120405   1.238   3.657  13.419 -1.8591 -0.8621 -0.9898
 2924SOL    HW220406   1.221   3.543  13.323 -0.4527 -0.5450  0.5137
 2925SOL     OW20407   1.378   4.233   3.400 -0.2390 -0.5805 -0.0857
 2925SOL    HW120408   1.432   4.258   3.324 -0.2833  0.2514  0.1579
 2925SOL    HW220409   1.332   4.316   3.407 -0.1003 -0.5325  0.2604
 2926SOL     OW20410   4.166   1.208   3.067  0.6198  0.7168 -0.2159
 2926SOL    HW120411   4.190   1.119   3.093 -0.3728  0.2416 -0.9208
 2926SOL    HW220412   4.144   1.230   3.157 -2.7174  0.3921 -0.9391
 2927SOL     OW20413   3.424   2.872   5.166 -0.4704  0.7841  0.2854
 2927SOL    HW120414   3.394   2.892   5.254  1.3228 -3.3186  1.8383
 2927SOL    HW220415   3.376   2.789   5.162  0.2582  0.4386 -1.4194
 2928SOL     OW20416   3.106   4.273  16.860  0.4543 -0.0135  0.0869
 2928SOL    HW120417   3.024   4.321  16.873 -0.0002 -1.1421  1.4324
 2928SOL    HW220418   3.075   4.183  16.849  1.8988 -0.6112  0.8821
 2929SOL     OW20419   2.511   2.383   1.189 -0.5503  0.0900 -0.0914
 2929SOL    HW120420   2.574   2.432   1.136  0.3354 -0.8108  0.1147
 2929SOL    HW220421   2.485   2.458   1.242  0.3918  1.7987 -2.0228
 2930SOL     OW20422   2.020   0.627  15.559 -0.5648  0.2229 -1.2391
 2930SOL    HW120423   2.055   0.627  15.649  0.3697 -1.0657 -1.6098
 2930SOL    HW220424   2.099   0.627  15.505  2.0843  1.1398  2.6333
 2931SOL     OW20425   3.277   4.555   8.564  0.3463 -0.2970 -0.0667
 2931SOL    HW120426   3.281   4.581   8.656 -1.3896 -1.6076  0.3839
 2931SOL    HW220427   3.345   4.490   8.552 -0.0244 -0.8304  0.7239
 2932SOL     OW20428   0.657   2.528   5.376  0.0312 -0.3819  0.3130
 2932SOL    HW120429   0.626   2.602   5.428  2.4476  0.7259  0.1662
 2932SOL    HW220430   0.642   2.458   5.440  0.6146  0.2534  1.1377
 2933SOL     OW20431   1.798   4.674   7.492  0.1076  0.3761  0.3223
 2933SOL    HW120432   1.866   4.615   7.524 -2.7236 -1.7917  2.3669
 2933SOL    HW220433   1.742   4.611   7.448  3.0742 -0.4358 -2.2439
 2934SOL     OW20434   0.877   4.451   5.001  0.0366  0.4542  0.3736
 2934SOL    HW120435   0.850   4.428   5.090  1.3400 -2.3950  0.0369
 2934SOL    HW220436   0.796   4.497   4.980  0.7170  2.0616  1.2956
 2935SOL     OW20437   4.337   3.226  10.983 -0.2522 -0.0308  0.0042
 2935SOL    HW120438   4.328   3.283  11.059  0.0809  1.0162 -0.7450
 2935SOL    HW220439   4.334   3.286  10.908 -2.0913  0.8169  0.7532
 2936SOL     OW20440   0.670   2.259   1.754  0.2954  0.0340  0.0152
 2936SOL    HW120441   0.684   2.298   1.841  2.2528  0.6048 -0.5543
 2936SOL    HW220442   0.753   2.211   1.751  0.2935  0.0963 -0.9084
 2937SOL     OW20443   0.578   2.826   5.813  0.3576 -0.3829  0.1411
 2937SOL    HW120444   0.493   2.805   5.853  0.3846 -1.4536 -0.3639
 2937SOL    HW220445   0.554   2.873   5.733  0.6048 -0.1019  0.2332
 2938SOL     OW20446   1.491   1.321   6.328 -0.7751 -0.3681  0.2520
 2938SOL    HW120447   1.427   1.266   6.283 -0.5098  0.3381 -0.9890
 2938SOL    HW220448   1.443   1.363   6.399  2.7200  2.1846  1.0690
 2939SOL     OW20449   1.600   3.651   4.507 -0.3937  0.2253  0.2220
 2939SOL    HW120450   1.602   3.717   4.577  1.9119  1.2748 -0.8619
 2939SOL    HW220451   1.526   3.600   4.542 -1.2597 -0.3243 -2.4611
 2940SOL     OW20452   0.414   3.951  10.508 -0.1793  0.0832 -0.3141
 2940SOL    HW120453   0.495   3.955  10.458 -0.1621  0.6633 -0.2401
 2940SOL    HW220454   0.451   3.904  10.583 -2.1147  0.1363  0.6672
 2941SOL     OW20455   2.407   1.826   6.396 -0.3158 -0.2901  0.4663
 2941SOL    HW120456   2.492   1.866   6.417  0.2796 -0.6338 -1.2882
 2941SOL    HW220457   2.362   1.843   6.479  0.2919  2.1731  0.3134
 2942SOL     OW20458   2.685   1.541  13.893 -0.1760  0.7002  0.0137
 2942SOL    HW120459   2.633   1.478  13.943  0.0139 -1.1485 -2.1437
 2942SOL    HW220460   2.618   1.601  13.860  2.1779  1.5330 -3.2502
 2943SOL     OW20461   1.514   0.347  10.619  0.1421 -0.0433  0.1502
 2943SOL    HW120462   1.583   0.296  10.661 -0.1341 -0.8165 -0.3252
 2943SOL    HW220463   1.478   0.304  10.542 -1.4088 -2.2058  2.0805
 2944SOL     OW20464   1.114   3.165  16.748 -0.7138  0.5873  0.0737
 2944SOL    HW120465   1.084   3.155  16.658  2.8613 -1.9583 -0.8479
 2944SOL    HW220466   1.209   3.156  16.740 -0.8355 -1.2459  0.8738
 2945SOL     OW20467   2.274   0.136   8.250 -0.0352  0.0618  0.4586
 2945SOL    HW120468   2.228   0.214   8.281 -1.1018  0.4005 -1.9746
 2945SOL    HW220469   2.284   0.087   8.332 -2.0731  2.6644  2.2580
 2946SOL     OW20470   1.095   1.577  10.146 -0.2144  0.5517  0.3226
 2946SOL    HW120471   1.146   1.517  10.092 -0.1653  0.0619  0.9174
 2946SOL    HW220472   1.111   1.654  10.091 -1.5098  1.0420  0.6340
 2947SOL     OW20473   0.645   3.985   6.588 -0.4592  0.1006  0.2337
 2947SOL    HW120474   0.670   4.034   6.510 -0.1503 -0.7440 -0.2009
 2947SOL    HW220475   0.551   3.974   6.573 -0.7045  2.2844  0.1693
 2948SOL     OW20476   0.307   0.009   5.059  0.0509 -0.3914  0.1884
 2948SOL    HW120477   0.312   0.002   4.964  0.0698  0.6020  0.1236
 2948SOL    HW220478   0.251   4.673   5.090 -0.9685  0.4308  0.2646
 2949SOL     OW20479   0.778   2.963  15.506  0.4357  0.1723 -0.2097
 2949SOL    HW120480   0.802   3.054  15.524  1.9932 -0.3806  0.5301
 2949SOL    HW220481   0.800   2.917  15.587  0.6311 -1.6711 -1.3199
 2950SOL     OW20482   4.564   0.560   5.408  0.1199  0.4372 -0.0312
 2950SOL    HW120483   4.569   0.547   5.313  0.5618  1.4488 -0.1392
 2950SOL    HW220484   4.612   0.642   5.418  1.3384 -0.6997  3.5588
 2951SOL     OW20485   0.701   1.193   5.888  0.2663  0.4109  0.4249
 2951SOL    HW120486   0.701   1.283   5.920  1.4488  1.0966 -1.5076
 2951SOL    HW220487   0.783   1.167   5.930  0.9624 -2.7658 -2.8861
 2952SOL     OW20488   0.239   0.242   5.180  0.5883 -0.1544  0.5420
 2952SOL    HW120489   0.269   0.152   5.168  0.2715 -0.0067 -1.4306
 2952SOL    HW220490   0.175   0.243   5.108 -0.4201 -1.5682  1.4099
 2953SOL     OW20491   1.649   1.862   5.050  0.4606  0.5149 -0.1584
 2953SOL    HW120492   1.738   1.876   5.017  1.4083  1.3903  2.7708
 2953SOL    HW220493   1.659   1.867   5.145  0.5478  0.1231 -0.1450
 2954SOL     OW20494   0.126   1.571   3.626 -0.3191 -0.0992 -0.5405
 2954SOL    HW120495   0.149   1.662   3.643  0.2285 -0.5583  1.0922
 2954SOL    HW220496   0.158   1.567   3.535 -0.9458 -2.9673 -0.6210
 2955SOL     OW20497   0.870   3.237   1.886  0.3107 -0.1038 -0.7778
 2955SOL    HW120498   0.933   3.305   1.864  0.9306  0.9570  4.3392
 2955SOL    HW220499   0.856   3.250   1.980  0.2176 -0.2625 -0.7698
 2956SOL     OW20500   4.338   4.447   6.269  0.0109  0.4317  0.0648
 2956SOL    HW120501   4.320   4.464   6.177  0.2584  1.1892  0.1598
 2956SOL    HW220502   4.434   4.453   6.277 -0.0099  1.4077 -0.4975
 2957SOL     OW20503   4.209   3.654   4.149  0.2959 -0.3357  0.0444
 2957SOL    HW120504   4.167   3.652   4.235 -0.1003  1.8378 -0.1070
 2957SOL    HW220505   4.240   3.744   4.147 -0.8893  0.0263 -2.0127
 2958SOL     OW20506   2.125   0.290   2.707  0.1120  0.2352 -0.0763
 2958SOL    HW120507   2.084   0.304   2.792 -3.3106 -0.7238 -1.6147
 2958SOL    HW220508   2.050   0.311   2.653 -1.8725 -2.6761  1.5898
 2959SOL     OW20509   3.666   2.307   3.848 -0.8785 -0.0854 -0.1548
 2959SOL    HW120510   3.760   2.295   3.838 -0.9063  0.1424 -0.7039
 2959SOL    HW220511   3.637   2.277   3.762  0.4729 -2.0063  0.0631
 2960SOL     OW20512   3.763   1.244   6.427  0.2391 -0.1982 -0.4054
 2960SOL    HW120513   3.679   1.268   6.466 -0.8840 -2.9521 -1.0729
 2960SOL    HW220514   3.777   1.327   6.381 -4.0672  0.4992 -0.4645
 2961SOL     OW20515   3.229   2.450   3.446 -0.5008  0.6528 -0.5374
 2961SOL    HW120516   3.314   2.453   3.404 -0.4259  0.1378 -0.4254
 2961SOL    HW220517   3.188   2.382   3.392 -0.4087 -1.2664  1.7897
 2962SOL     OW20518   2.209   4.000   7.550  0.0922 -0.3480 -0.2246
 2962SOL    HW120519   2.200   3.923   7.606 -2.7627  1.4555  1.8441
 2962SOL    HW220520   2.250   4.061   7.611 -2.5215  1.8005 -0.6216
 2963SOL     OW20521   0.452   3.682   2.843 -0.1465  0.9380 -0.1793
 2963SOL    HW120522   0.513   3.617   2.809  0.7927  0.5610  2.2649
 2963SOL    HW220523   0.375   3.625   2.840  0.2804  0.3138  1.0333
 2964SOL     OW20524   1.522   1.555  16.667  1.0052 -0.3465 -0.0938
 2964SOL    HW120525   1.509   1.598  16.582 -0.3323 -0.7115 -0.0775
 2964SOL    HW220526   1.527   1.633  16.722 -0.0760 -1.6330  1.8416
 2965SOL     OW20527   2.634   3.444  15.141  0.9268  0.8992 -0.5403
 2965SOL    HW120528   2.613   3.536  15.158  0.5835  0.2160  2.7123
 2965SOL    HW220529   2.722   3.443  15.104  1.2653  1.4361  0.2442
 2966SOL     OW20530   0.413   2.663   2.357 -0.1039 -0.0742 -0.4029
 2966SOL    HW120531   0.506   2.645   2.371 -0.1953  2.1893  3.0137
 2966SOL    HW220532   0.419   2.695   2.267  0.8839 -1.2534 -0.7555
 2967SOL     OW20533   3.430   0.471   2.748  0.1603 -0.0285  0.8862
 2967SOL    HW120534   3.394   0.384   2.729 -0.0799  0.2317  0.1516
 2967SOL    HW220535   3.463   0.492   2.660 -0.0577  0.6950  0.9820
 2968SOL     OW20536   0.428   2.801   2.148  0.6114 -0.2547 -0.1440
 2968SOL    HW120537   0.485   2.839   2.081  1.2247 -0.0853  0.4670
 2968SOL    HW220538   0.380   2.880   2.175 -0.9650 -1.0203 -0.7072
 2969SOL     OW20539   1.163   2.373   7.312 -0.6999 -0.1481  0.2358
 2969SOL    HW120540   1.143   2.461   7.280 -0.6036 -0.4120 -0.5452
 2969SOL    HW220541   1.134   2.325   7.235  0.1138  0.3709 -0.3801
 2970SOL     OW20542   0.906   0.938   7.957  0.4699  0.7345  1.0127
 2970SOL    HW120543   0.889   0.974   8.043  0.3412  1.5982  0.6233
 2970SOL    HW220544   0.917   0.846   7.983  0.8661 -0.0069 -1.6795
 2971SOL     OW20545   1.212   3.866   8.367  0.8371 -0.3725 -0.3023
 2971SOL    HW120546   1.152   3.905   8.430  0.8885  0.0905 -0.5361
 2971SOL    HW220547   1.294   3.883   8.414  0.2745  0.7068  0.2798
 2972SOL     OW20548   1.320   1.914   9.863 -0.3446  0.1348  0.7338
 2972SOL    HW120549   1.294   1.918   9.771  0.9382 -1.2146  0.3187
 2972SOL    HW220550   1.373   1.993   9.852 -1.5903  0.7962 -0.6212
 2973SOL     OW20551   3.457   2.566   6.964  0.0591 -0.1447 -0.2434
 2973SOL    HW120552   3.539   2.544   7.009 -0.7570  0.8250  1.7105
 2973SOL    HW220553   3.498   2.592   6.881 -2.9749  1.6634 -1.1708
 2974SOL     OW20554   3.760   2.920   4.462 -0.3513 -0.5317 -0.1862
 2974SOL    HW120555   3.676   2.884   4.431 -0.9825  0.6218  0.1987
 2974SOL    HW220556   3.787   2.842   4.511 -1.5325  0.1360  1.5245
 2975SOL     OW20557   2.212   3.519  11.031 -0.8566  0.7331 -0.5492
 2975SOL    HW120558   2.140   3.527  10.968 -2.4627  0.0742  1.1991
 2975SOL    HW220559   2.184   3.583  11.097  0.5738 -1.1550  1.9021
 2976SOL     OW20560   1.627   2.417  16.528 -0.1670  0.1446 -0.5336
 2976SOL    HW120561   1.633   2.429  16.623  1.5227  1.6025 -0.8431
 2976SOL    HW220562   1.712   2.378  16.509  1.1100  2.3717  0.6333
 2977SOL     OW20563   1.467   0.444   9.488  0.4132  0.1309  0.4696
 2977SOL    HW120564   1.446   0.413   9.576  1.2571  1.8674  1.2855
 2977SOL    HW220565   1.472   0.370   9.428  0.1420 -0.6095  1.3571
 2978SOL     OW20566   0.003   0.964  13.236  0.2857 -0.0581 -0.3060
 2978SOL    HW120567   0.074   0.925  13.288  0.2737 -0.5033 -0.6211
 2978SOL    HW220568   4.710   1.030  13.298 -1.8279  1.6172 -3.1099
 2979SOL     OW20569   0.356   4.713   8.309 -0.2925  0.2238 -0.1780
 2979SOL    HW120570   0.318   4.730   8.222 -0.6257 -2.1663 -0.4913
 2979SOL    HW220571   0.296   4.643   8.336  1.1749 -1.8950 -2.3616
 2980SOL     OW20572   3.434   3.844  12.008 -0.6490  0.1102  1.2409
 2980SOL    HW120573   3.423   3.930  12.047  2.5964  0.5971  1.0174
 2980SOL    HW220574   3.370   3.865  11.940  2.8284  2.1712 -1.3701
 2981SOL     OW20575   4.046   0.256   4.716  0.2965 -0.0660  0.3638
 2981SOL    HW120576   4.095   0.186   4.672  0.8239 -0.5595  1.7304
 2981SOL    HW220577   3.974   0.202   4.749  0.7129  0.0317  1.4346
 2982SOL     OW20578   2.184   3.939   7.924 -0.3530  0.0328  0.3096
 2982SOL    HW120579   2.217   3.864   7.875 -0.2603 -1.1945  2.2687
 2982SOL    HW220580   2.267   3.974   7.956 -0.7829  0.6117  0.8043
 2983SOL     OW20581   1.957   2.633   7.394 -0.0583 -0.3415 -0.3212
 2983SOL    HW120582   2.015   2.649   7.468  0.5374  0.3352 -0.9286
 2983SOL    HW220583   1.894   2.705   7.403  0.2941 -0.4118  2.6345
 2984SOL     OW20584   1.868   4.457   6.407 -0.3794 -0.7084 -0.3402
 2984SOL    HW120585   1.864   4.388   6.341 -2.7663 -1.4467  0.5500
 2984SOL    HW220586   1.909   4.526   6.355  1.1398 -1.0019  0.4695
 2985SOL     OW20587   4.462   2.888   1.861  0.3071  0.3242  0.6546
 2985SOL    HW120588   4.389   2.949   1.847  0.4776  0.5089  0.5828
 2985SOL    HW220589   4.422   2.805   1.834  0.2301  0.5891 -0.0559
 2986SOL     OW20590   0.728   4.400   2.715 -0.2350 -0.3886  0.7580
 2986SOL    HW120591   0.796   4.373   2.776 -0.1280 -0.7490  0.4786
 2986SOL    HW220592   0.698   4.316   2.682  2.0165 -1.5283  1.6431
 2987SOL     OW20593   0.191   3.352  11.293  0.0363  0.4294 -0.1063
 2987SOL    HW120594   0.128   3.420  11.274  0.2505  0.1123 -1.9431
 2987SOL    HW220595   0.142   3.311  11.365  1.6922  0.8772  1.2949
 2988SOL     OW20596   1.664   0.938   8.743  0.0139  0.4006 -0.1590
 2988SOL    HW120597   1.604   1.009   8.765 -0.9080 -0.0003 -1.3529
 2988SOL    HW220598   1.733   0.985   8.696  0.8592 -1.9391 -1.2817
 2989SOL     OW20599   1.568   4.007   4.544  0.0885 -0.0852  0.1946
 2989SOL    HW120600   1.498   4.054   4.588  1.3607  0.4888  1.5868
 2989SOL    HW220601   1.588   3.948   4.617 -0.8651  0.5881  0.9919
 2990SOL     OW20602   3.955   3.100  15.624  0.3373  0.2388 -0.7756
 2990SOL    HW120603   4.045   3.090  15.656  0.2491 -1.6221 -1.1408
 2990SOL    HW220604   3.974   3.148  15.543  0.5450  1.4024 -0.0370
 2991SOL     OW20605   0.002   2.398   1.390 -0.5584  0.1615  0.2737
 2991SOL    HW120606   0.068   2.431   1.451 -2.4507 -1.5429  3.2116
 2991SOL    HW220607   0.032   2.308   1.381 -2.7613 -0.5650  0.1705
 2992SOL     OW20608   2.087   2.988  16.645  0.2835  0.1106 -0.5421
 2992SOL    HW120609   1.999   2.951  16.634 -0.1117  0.1529  2.3217
 2992SOL    HW220610   2.067   3.078  16.671  0.0723  0.6703 -2.6707
 2993SOL     OW20611   2.205   1.799  11.836 -0.0639  0.5734  0.1762
 2993SOL    HW120612   2.226   1.892  11.845 -0.0686  0.6265 -0.3841
 2993SOL    HW220613   2.294   1.764  11.839 -0.6856 -1.2438 -2.9523
 2994SOL     OW20614   4.349   2.446  13.808 -0.3632  0.3731  0.1366
 2994SOL    HW120615   4.339   2.508  13.880 -0.9914  1.8590 -1.2337
 2994SOL    HW220616   4.374   2.517  13.749  1.8444 -0.3268  0.2619
 2995SOL     OW20617   3.952   1.951   1.702 -0.0494  0.4156 -0.2228
 2995SOL    HW120618   3.945   1.886   1.633  0.6890 -0.6640  0.7211
 2995SOL    HW220619   3.881   1.925   1.761 -1.2664  2.2986 -0.8332
 2996SOL     OW20620   1.742   1.439   2.231  0.7953  0.1091  0.1164
 2996SOL    HW120621   1.766   1.373   2.166 -2.6390  0.2160 -1.2433
 2996SOL    HW220622   1.760   1.396   2.315 -0.7127  0.4582  0.6310
 2997SOL     OW20623   2.219   3.688  10.079  0.7304 -0.0738 -0.1300
 2997SOL    HW120624   2.242   3.710  10.169  0.8756  1.2264 -0.4863
 2997SOL    HW220625   2.136   3.735  10.069 -0.4426 -1.6829  2.1317
 2998SOL     OW20626   0.557   1.540  15.900 -0.1828 -0.3571  0.2788
 2998SOL    HW120627   0.608   1.564  15.822  2.9951 -0.9241  2.1774
 2998SOL    HW220628   0.589   1.451  15.919  0.3097 -0.2392 -0.0030
 2999SOL     OW20629   3.771   3.062   5.392  0.3179 -0.0080 -0.2708
 2999SOL    HW120630   3.819   3.017   5.322 -0.1005  2.3634 -2.0708
 2999SOL    HW220631   3.724   2.987   5.431 -0.3819  1.3013  1.4194
 3000SOL     OW20632   2.255   0.323   8.911  0.6355  0.4934 -0.0395
 3000SOL    HW120633   2.162   0.303   8.895  0.3221  0.9484  1.1972
 3000SOL    HW220634   2.269   0.351   8.821  1.5514 -0.4579 -0.1865
 3001SOL     OW20635   4.186   2.615  11.414  0.0682  0.0033  0.3164
 3001SOL    HW120636   4.170   2.521  11.413 -0.2559  0.0549  0.9577
 3001SOL    HW220637   4.100   2.645  11.441  0.2309  1.5345 -0.8619
 3002SOL     OW20638   1.360   1.192  12.282 -0.4560 -0.0598  0.2352
 3002SOL    HW120639   1.288   1.130  12.273 -1.3315  0.9836  0.1152
 3002SOL    HW220640   1.362   1.210  12.376  2.2976 -3.0541  0.7528
 3003SOL     OW20641   3.931   4.160   8.942  0.0787 -0.4674  0.5336
 3003SOL    HW120642   4.013   4.187   8.982 -0.4675  0.4491  1.0430
 3003SOL    HW220643   3.962   4.118   8.862  1.2699  0.7569  0.3526
 3004SOL     OW20644   0.031   0.016   2.998 -0.2698  0.3458  0.0849
 3004SOL    HW120645   0.086   0.088   2.967 -1.7607  1.4126 -0.0723
 3004SOL    HW220646   0.082   4.673   2.982 -0.6370  0.3725 -1.1921
 3005SOL     OW20647   2.832   2.480   9.170 -0.1370 -0.8176 -0.1707
 3005SOL    HW120648   2.802   2.469   9.260  0.6873  1.4700  0.3628
 3005SOL    HW220649   2.847   2.574   9.162  2.3806 -1.2422 -0.2247
 3006SOL     OW20650   2.300   4.728   3.693  0.4108 -0.2206  0.3298
 3006SOL    HW120651   2.373   4.723   3.632  1.0715 -1.4857  1.2222
 3006SOL    HW220652   2.343   0.019   3.774  0.9459  2.8160 -0.9958
 3007SOL     OW20653   3.095   0.171   3.747  0.1608  0.1551 -0.0351
 3007SOL    HW120654   3.087   0.251   3.695 -0.3693  0.4990  0.5689
 3007SOL    HW220655   3.185   0.151   3.722 -0.6053 -2.1934 -0.9101
 3008SOL     OW20656   3.117   1.764   4.851  0.3258 -0.4138 -0.6674
 3008SOL    HW120657   3.169   1.685   4.858 -1.2142 -1.2620  1.1406
 3008SOL    HW220658   3.098   1.753   4.758 -2.9701 -0.8391  0.0663
 3009SOL     OW20659   1.749   4.581   8.427 -0.1210  0.6178 -0.5708
 3009SOL    HW120660   1.740   4.497   8.381  0.4205  0.5106 -0.4734
 3009SOL    HW220661   1.798   4.639   8.369 -1.2072  0.8354 -1.2760
 3010SOL     OW20662   3.973   2.948   2.789  0.0491  0.4373  0.4196
 3010SOL    HW120663   4.022   3.029   2.777 -0.2099  0.3417 -1.3579
 3010SOL    HW220664   4.020   2.890   2.729 -0.6722 -0.1687  0.4348
 3011SOL     OW20665   3.510   0.549   6.396  0.4630 -0.7615 -0.3662
 3011SOL    HW120666   3.588   0.597   6.425 -0.5870  0.0551  1.1140
 3011SOL    HW220667   3.511   0.481   6.463 -1.1898  0.0462  0.4655
 3012SOL     OW20668   1.186   1.633   3.741 -0.1529 -0.2568 -0.1486
 3012SOL    HW120669   1.094   1.655   3.728 -0.4108 -1.4066 -0.2203
 3012SOL    HW220670   1.187   1.567   3.810  2.4644 -0.9027 -0.8029
 3013SOL     OW20671   4.222   0.942   2.913 -0.0141  0.2734 -0.2593
 3013SOL    HW120672   4.298   0.990   2.947  1.4004 -1.4002 -1.0242
 3013SOL    HW220673   4.260   0.916   2.829  0.7333 -2.4657  0.9430
 3014SOL     OW20674   4.176   0.031  17.580  0.4052 -0.2853  0.0392
 3014SOL    HW120675   4.262   0.028  17.538  0.1450 -0.5498 -0.4864
 3014SOL    HW220676   4.140   0.109  17.536  0.7364 -0.0278  0.2243
 3015SOL     OW20677   3.615   3.670  10.573 -0.2498  0.2142  0.1515
 3015SOL    HW120678   3.625   3.740  10.639 -1.3244  0.5366 -0.0151
 3015SOL    HW220679   3.623   3.589  10.624  2.1874  0.0742 -0.5004
 3016SOL     OW20680   1.725   4.148   6.929 -0.1621  0.3906 -0.2816
 3016SOL    HW120681   1.654   4.115   6.874  1.1913 -1.6149 -0.8700
 3016SOL    HW220682   1.683   4.212   6.985  0.8949  2.0548 -1.3917
 3017SOL     OW20683   2.633   1.955   9.582 -0.3115 -0.3454  0.1935
 3017SOL    HW120684   2.702   1.905   9.540 -0.5564  1.0831 -1.9249
 3017SOL    HW220685   2.584   1.886   9.627  0.1366  0.7467  2.3713
 3018SOL     OW20686   3.435   4.359   6.332  0.6830 -0.0633 -0.1632
 3018SOL    HW120687   3.382   4.279   6.325 -0.5082  0.4458  3.4528
 3018SOL    HW220688   3.509   4.329   6.278 -0.7324  0.1054 -2.1975
 3019SOL     OW20689   4.539   0.553   8.478  0.0329  0.7076 -0.5105
 3019SOL    HW120690   4.616   0.516   8.520 -2.0059  0.1532  2.7176
 3019SOL    HW220691   4.579   0.546   8.391  0.9627  1.5317 -0.1297
 3020SOL     OW20692   2.373   4.372   6.561  0.2688 -0.2295 -0.4496
 3020SOL    HW120693   2.330   4.289   6.541  1.5735 -0.6944 -1.3135
 3020SOL    HW220694   2.368   4.383   6.656  0.5674 -2.7115 -0.1495
 3021SOL     OW20695   2.318   0.374   5.130 -0.1043 -0.2359 -0.2508
 3021SOL    HW120696   2.311   0.294   5.079 -1.5900 -1.2034  1.4728
 3021SOL    HW220697   2.386   0.347   5.193  0.9590  0.6002 -1.0410
 3022SOL     OW20698   0.334   4.727   4.775 -0.4937 -0.2242 -0.3875
 3022SOL    HW120699   0.350   4.706   4.683  1.6849 -1.0792  0.1980
 3022SOL    HW220700   0.241   4.703   4.782 -0.5428  0.0645 -0.0591
 3023SOL     OW20701   0.317   1.280  13.826  0.5018 -0.0546 -0.0512
 3023SOL    HW120702   0.222   1.265  13.820  0.7543 -1.4732 -0.4748
 3023SOL    HW220703   0.325   1.323  13.911  1.2035 -0.1948 -0.0521
 3024SOL     OW20704   3.339   1.830   7.866 -0.0796 -0.0605 -0.2209
 3024SOL    HW120705   3.298   1.904   7.911 -0.5614 -0.4935  0.0602
 3024SOL    HW220706   3.371   1.777   7.939 -1.7684  1.4160  1.5844
 3025SOL     OW20707   2.376   0.340   5.502  0.0622  0.8745 -0.7131
 3025SOL    HW120708   2.443   0.283   5.465  0.5247  0.4824  0.7368
 3025SOL    HW220709   2.308   0.273   5.506 -1.0537  2.0672  0.6162
 3026SOL     OW20710   0.193   2.053  16.648  0.2058 -0.1482  0.1445
 3026SOL    HW120711   0.201   2.082  16.739  0.8155  1.1927 -0.3337
 3026SOL    HW220712   0.180   1.958  16.650  0.2119 -0.1319  0.9146
 3027SOL     OW20713   4.089   3.883   0.693 -0.5647  0.2892  0.2479
 3027SOL    HW120714   4.134   3.962   0.722 -1.1628  0.3005  1.1366
 3027SOL    HW220715   4.165   3.829   0.671 -0.7885  0.5075 -1.0904
 3028SOL     OW20716   3.146   1.479  11.754 -0.0728 -0.5877 -0.8797
 3028SOL    HW120717   3.149   1.385  11.735 -1.1743 -0.7498 -0.2404
 3028SOL    HW220718   3.195   1.483  11.836 -0.3215  0.7516 -0.7898
 3029SOL     OW20719   0.383   4.033  17.192  0.6171 -0.4287  0.1797
 3029SOL    HW120720   0.441   4.108  17.207 -1.9470  1.5223  0.4283
 3029SOL    HW220721   0.450   3.971  17.222  0.8916  0.0907  0.6503
 3030SOL     OW20722   2.440   0.540   2.494  0.0628 -0.0323 -0.6022
 3030SOL    HW120723   2.358   0.530   2.542 -0.0696  0.4909 -0.7108
 3030SOL    HW220724   2.480   0.596   2.561  0.0275  0.9381 -1.3908
 3031SOL     OW20725   2.831   3.591   4.977 -0.0200 -0.2206 -0.3332
 3031SOL    HW120726   2.770   3.665   4.970  2.0356  1.5982  1.0523
 3031SOL    HW220727   2.882   3.588   4.896  1.3625 -1.5121  0.5915
 3032SOL     OW20728   0.734   1.457   6.019 -0.3330  0.3952  0.1458
 3032SOL    HW120729   0.746   1.517   5.946  0.1080  1.0938  0.7953
 3032SOL    HW220730   0.812   1.474   6.072 -0.5904 -0.2329  0.7331
 3033SOL     OW20731   4.670   2.941  15.273  0.1496 -0.2118  0.0136
 3033SOL    HW120732   0.022   2.978  15.265  0.3231 -0.5762  0.2034
 3033SOL    HW220733   4.645   2.990  15.351 -3.1103 -0.4683 -0.9008
 3034SOL     OW20734   2.547   2.915   4.018 -0.3254  0.0901  0.0544
 3034SOL    HW120735   2.554   2.871   3.933 -0.5163  1.1137 -0.4944
 3034SOL    HW220736   2.481   2.983   4.009 -1.4508 -0.9763  0.3453
 3035SOL     OW20737   1.880   1.466   4.566 -0.2471 -0.1711 -0.2154
 3035SOL    HW120738   1.917   1.384   4.535  1.5396  1.1193 -1.5303
 3035SOL    HW220739   1.873   1.444   4.659  2.2598 -0.6240 -0.1437
 3036SOL     OW20740   3.056   0.762  10.813 -0.1143 -0.2928  0.2781
 3036SOL    HW120741   3.056   0.692  10.748 -0.7824  0.1600 -0.2076
 3036SOL    HW220742   3.127   0.726  10.866 -0.5022  0.9529  1.6506
 3037SOL     OW20743   0.158   2.364   4.150 -0.5146  0.1024  0.4247
 3037SOL    HW120744   0.213   2.422   4.202 -1.4152 -0.5754  2.1614
 3037SOL    HW220745   0.202   2.287   4.188 -0.8267 -0.1006  0.3751
 3038SOL     OW20746   1.326   1.475   8.687  0.1523 -0.0315 -0.0122
 3038SOL    HW120747   1.326   1.414   8.613  1.7190 -0.1320  0.0755
 3038SOL    HW220748   1.251   1.528   8.662 -1.6518 -2.9915 -0.8863
 3039SOL     OW20749   0.592   3.479   2.728  1.0875 -0.2552 -0.5514
 3039SOL    HW120750   0.679   3.518   2.743  1.6603 -2.1113  0.9800
 3039SOL    HW220751   0.612   3.386   2.720 -0.3895 -0.6105  0.0363
 3040SOL     OW20752   3.063   3.885   7.297  0.3284 -0.1655 -1.1679
 3040SOL    HW120753   3.108   3.959   7.338 -1.4542 -0.8523  2.0533
 3040SOL    HW220754   3.073   3.908   7.205  1.1777 -0.7332 -1.2195
 3041SOL     OW20755   1.969   3.226   6.062  0.3497  0.1692 -0.9047
 3041SOL    HW120756   1.937   3.283   6.132  0.3568 -0.6102 -0.2668
 3041SOL    HW220757   1.894   3.166   6.058 -0.7287  1.3252  1.7379
 3042SOL     OW20758   4.587   3.852   5.887 -0.2432 -0.3655 -0.0099
 3042SOL    HW120759   4.550   3.930   5.845  1.1675 -0.7418 -1.9301
 3042SOL    HW220760   4.547   3.784   5.833 -0.6053 -0.1148 -0.0646
 3043SOL     OW20761   2.163   3.807  15.346 -0.9675 -0.1409 -0.4598
 3043SOL    HW120762   2.250   3.798  15.385 -1.3848 -0.8789  0.2972
 3043SOL    HW220763   2.114   3.852  15.414  1.5950 -1.4263  2.2284
 3044SOL     OW20764   4.162   4.568   0.021  0.2105  0.4714  0.8591
 3044SOL    HW120765   4.155   4.642  17.703 -1.1547 -2.7562 -2.8905
 3044SOL    HW220766   4.136   4.612   0.102  1.5381  0.3409  1.3526
 3045SOL     OW20767   3.706   0.234   3.104 -0.0471 -0.5057  0.4608
 3045SOL    HW120768   3.718   0.324   3.134 -0.6565  0.3311 -1.8563
 3045SOL    HW220769   3.765   0.178   3.156  2.4588  1.4663 -0.2474
 3046SOL     OW20770   4.560   4.406   8.476 -0.6944  0.1371  0.5566
 3046SOL    HW120771   4.573   4.479   8.415 -2.9939 -0.8378 -1.1132
 3046SOL    HW220772   4.594   4.329   8.431  2.1628  0.2190  2.6260
 3047SOL     OW20773   1.466   2.309   7.027  0.7235  0.4457  0.1239
 3047SOL    HW120774   1.459   2.268   7.113  1.3618  0.5565  0.2296
 3047SOL    HW220775   1.386   2.360   7.018  1.3929  1.7143  1.4237
 3048SOL     OW20776   3.198   1.404  14.806  0.0160 -0.1641 -0.1827
 3048SOL    HW120777   3.128   1.364  14.755  0.0093  2.2162 -2.0735
 3048SOL    HW220778   3.219   1.337  14.871  0.4107 -0.7457 -0.9220
 3049SOL     OW20779   2.132   3.899   5.832 -0.1474 -0.3460 -0.1701
 3049SOL    HW120780   2.215   3.934   5.865 -0.2847  0.2172 -0.4122
 3049SOL    HW220781   2.152   3.906   5.739  1.6273  1.9974  0.3796
 3050SOL     OW20782   3.375   3.343  13.202 -0.2618 -0.1312 -0.1328
 3050SOL    HW120783   3.321   3.279  13.156  0.0592 -1.1503  0.9150
 3050SOL    HW220784   3.322   3.364  13.279 -1.9287  1.4260 -1.6959
 3051SOL     OW20785   2.657   0.195   4.460 -0.0460 -0.3620 -0.3645
 3051SOL    HW120786   2.646   0.119   4.403 -0.4999  0.1730 -0.9875
 3051SOL    HW220787   2.713   0.155   4.527  0.6367  1.8835  0.4035
 3052SOL     OW20788   3.138   1.961   2.150 -0.3931  0.0908 -0.0128
 3052SOL    HW120789   3.228   1.941   2.124  0.2455  1.0714  1.4745
 3052SOL    HW220790   3.154   2.030   2.214 -2.9529  0.3196  0.4047
 3053SOL     OW20791   2.294   4.201   5.417 -0.0848 -0.7283 -0.3551
 3053SOL    HW120792   2.206   4.183   5.448 -0.2613  1.1609  0.2755
 3053SOL    HW220793   2.297   4.293   5.390  1.5063  0.1215  2.7973
 3054SOL     OW20794   2.020   2.076   8.981 -0.1800 -0.0574  0.6669
 3054SOL    HW120795   2.107   2.071   9.022  0.4391  1.7660 -0.4274
 3054SOL    HW220796   1.967   2.112   9.052  1.0028  2.8102  0.1023
 3055SOL     OW20797   1.273   1.181   6.191 -0.0513  0.8112  0.0833
 3055SOL    HW120798   1.266   1.126   6.269  0.1324  0.1206 -0.3777
 3055SOL    HW220799   1.201   1.240   6.211 -0.7340 -0.1742  0.5234
 3056SOL     OW20800   3.153   4.322   1.036 -0.0162 -0.0490  0.2560
 3056SOL    HW120801   3.158   4.346   1.129  0.3581 -1.5994  0.6428
 3056SOL    HW220802   3.229   4.364   0.996  0.7140  0.1097  1.7971
 3057SOL     OW20803   4.158   2.421   5.292 -0.5026 -0.3866  0.4563
 3057SOL    HW120804   4.180   2.337   5.334  1.2811  1.9929  4.3158
 3057SOL    HW220805   4.063   2.417   5.282 -0.1939 -1.9515 -1.9744
 3058SOL     OW20806   1.213   4.050   1.619  0.5924  0.4519  0.2095
 3058SOL    HW120807   1.280   4.112   1.589  2.5713 -3.1093 -2.8379
 3058SOL    HW220808   1.249   4.034   1.706  1.2819  1.3299  0.0903
 3059SOL     OW20809   3.839   3.272   2.719  0.0484  0.4504  0.4816
 3059SOL    HW120810   3.932   3.258   2.703  0.4938  3.0052  0.7026
 3059SOL    HW220811   3.801   3.244   2.636  1.5630  0.2178 -0.1314
 3060SOL     OW20812   3.694   0.372  13.321 -0.0179  0.4319  0.0269
 3060SOL    HW120813   3.768   0.328  13.365  0.0686  0.2998 -0.2516
 3060SOL    HW220814   3.727   0.459  13.342  0.5915  0.2313 -0.0770
 3061SOL     OW20815   4.431   3.635   3.362 -0.2009  0.1028 -0.2183
 3061SOL    HW120816   4.472   3.721   3.372 -1.6869  0.4129  3.2902
 3061SOL    HW220817   4.401   3.640   3.272  3.1475 -0.7603 -1.3561
 3062SOL     OW20818   2.150   1.236   1.991 -0.3270 -0.3427  0.6365
 3062SOL    HW120819   2.130   1.283   1.909  0.8996  0.7909  1.0010
 3062SOL    HW220820   2.206   1.298   2.036  0.4126  0.3434 -1.2117
 3063SOL     OW20821   4.183   3.587   3.197 -0.1961  0.2247  0.0121
 3063SOL    HW120822   4.128   3.510   3.211  1.2857 -0.9384 -0.6139
 3063SOL    HW220823   4.126   3.663   3.208  1.1117  1.4150 -1.4867
 3064SOL     OW20824   0.704   0.409   9.240  0.5285 -0.7176 -0.0916
 3064SOL    HW120825   0.748   0.432   9.158  0.0222  1.2417  0.1909
 3064SOL    HW220826   0.622   0.453   9.220 -0.3394 -2.6295 -0.7060
 3065SOL     OW20827   1.452   0.498  16.196 -0.1593  0.1682  0.2558
 3065SOL    HW120828   1.397   0.532  16.126  1.2421 -1.4778 -1.6244
 3065SOL    HW220829   1.485   0.413  16.170 -1.8256 -0.8592  1.4953
 3066SOL     OW20830   2.673   0.443   3.653 -0.3358 -0.4671  0.2178
 3066SOL    HW120831   2.717   0.469   3.734 -2.5766  0.0268  1.2478
 3066SOL    HW220832   2.684   0.350   3.668 -0.7955 -0.6542 -0.6004
 3067SOL     OW20833   4.205   4.254  15.944  0.4302 -0.0800 -0.2518
 3067SOL    HW120834   4.180   4.324  15.884  1.9713  0.9681  0.3132
 3067SOL    HW220835   4.236   4.303  16.021 -1.6505 -3.9642  3.0580
 3068SOL     OW20836   1.975   0.727  13.428 -0.3834  0.9524  0.5233
 3068SOL    HW120837   1.946   0.788  13.496 -1.6210 -1.2166  1.9669
 3068SOL    HW220838   2.020   0.667  13.488 -0.2270  0.7131  0.1690
 3069SOL     OW20839   0.521   1.938   3.544  0.1958 -0.6265 -0.2607
 3069SOL    HW120840   0.459   1.994   3.497 -0.6785 -1.9633 -0.6944
 3069SOL    HW220841   0.596   1.980   3.502 -1.1184  0.5399 -1.4623
 3070SOL     OW20842   0.705   2.364   2.280  0.1490 -0.1716  0.1789
 3070SOL    HW120843   0.722   2.292   2.220 -0.9860  0.7671 -1.2725
 3070SOL    HW220844   0.683   2.314   2.358  1.6306 -0.5359  0.3531
 3071SOL     OW20845   1.110   0.403   6.158  0.0246 -0.1678 -0.1757
 3071SOL    HW120846   1.100   0.378   6.066  0.1896 -0.3437 -0.1471
 3071SOL    HW220847   1.045   0.343   6.195  0.1380 -0.6404 -0.7608
 3072SOL     OW20848   2.813   0.266   4.085 -0.6036  0.0535 -0.0367
 3072SOL    HW120849   2.863   0.303   4.158 -0.1299 -2.9475  1.1689
 3072SOL    HW220850   2.860   0.184   4.072  2.1336  1.6658 -0.3115
 3073SOL     OW20851   3.906   1.006   2.326  0.2703 -0.4447  0.1085
 3073SOL    HW120852   3.931   0.925   2.371  1.8787  0.9450  1.6893
 3073SOL    HW220853   3.858   0.970   2.251 -1.0098 -0.2505  0.8289
 3074SOL     OW20854   1.050   2.223  10.027 -0.1105  0.2258  0.1823
 3074SOL    HW120855   0.992   2.296  10.007  0.0146  0.6107  1.2176
 3074SOL    HW220856   1.026   2.208  10.119  0.3590 -0.9178  0.1198
 3075SOL     OW20857   3.458   0.818   4.710  0.3173 -0.0368  0.0411
 3075SOL    HW120858   3.419   0.733   4.728 -0.3223  0.2422 -0.0138
 3075SOL    HW220859   3.382   0.873   4.688  1.8711  1.3146 -1.9162
 3076SOL     OW20860   3.420   0.112   3.502 -0.2164 -0.6376 -0.3225
 3076SOL    HW120861   3.490   0.134   3.563  2.1557 -4.3857 -1.7021
 3076SOL    HW220862   3.365   0.191   3.510 -0.4425 -0.7651 -0.6434
 3077SOL     OW20863   0.573   1.419   9.168  0.9045 -0.2885  0.6502
 3077SOL    HW120864   0.492   1.394   9.213 -0.9617 -1.1620 -3.2223
 3077SOL    HW220865   0.599   1.495   9.219 -0.4369  1.4134 -1.2293
 3078SOL     OW20866   3.436   1.141   9.215 -0.5555 -0.2219 -0.2542
 3078SOL    HW120867   3.439   1.055   9.258 -1.7609  1.2693  2.8392
 3078SOL    HW220868   3.379   1.195   9.270  0.9557  1.0740  0.0125
 3079SOL     OW20869   2.424   0.432  13.224  0.3559  0.0270  0.1209
 3079SOL    HW120870   2.339   0.440  13.267  0.7718 -1.1719  1.1553
 3079SOL    HW220871   2.437   0.343  13.257  0.3336 -0.1538 -0.3612
 3080SOL     OW20872   1.710   0.293   7.841 -0.0649 -0.1521 -0.4562
 3080SOL    HW120873   1.793   0.312   7.884 -0.7435  0.4240  0.5803
 3080SOL    HW220874   1.687   0.205   7.872 -1.5118  0.0778 -0.8524
 3081SOL     OW20875   3.770   3.187   7.528  0.9629 -0.1993  0.0159
 3081SOL    HW120876   3.856   3.154   7.503  1.5275  0.2608  1.3468
 3081SOL    HW220877   3.730   3.128   7.592  0.2046 -2.2262 -2.3590
 3082SOL     OW20878   1.254   2.632  12.483 -0.3315  0.2307  0.0810
 3082SOL    HW120879   1.186   2.568  12.460 -0.0636 -0.0667  0.1053
 3082SOL    HW220880   1.204   2.713  12.482  1.0126  1.0833  2.0640
 3083SOL     OW20881   1.354   0.097   7.959  0.3567  0.2808 -0.0970
 3083SOL    HW120882   1.421   0.085   7.892  0.9743  1.5204  0.3083
 3083SOL    HW220883   1.367   0.021   8.016  0.6030 -0.0761 -0.6265
 3084SOL     OW20884   1.791   2.383   7.660 -0.1557 -0.1717  0.1059
 3084SOL    HW120885   1.700   2.395   7.634 -0.3773  0.9510  1.3827
 3084SOL    HW220886   1.807   2.467   7.704  0.5748  1.0927 -2.5072
 3085SOL     OW20887   1.107   3.830   4.177  0.6036 -0.0917 -0.8714
 3085SOL    HW120888   1.197   3.859   4.191  0.4050 -0.0137  0.2339
 3085SOL    HW220889   1.117   3.805   4.085 -0.7502 -1.4426 -0.6564
 3086SOL     OW20890   3.183   0.267   5.618 -0.3704 -0.2482  0.3387
 3086SOL    HW120891   3.108   0.285   5.674 -1.1063  0.4036 -0.8516
 3086SOL    HW220892   3.247   0.224   5.675  0.4736  0.4780 -0.0433
 3087SOL     OW20893   1.961   1.419   3.458 -0.3103 -0.6105  0.4426
 3087SOL    HW120894   1.887   1.479   3.444  1.7335  1.8729  0.2525
 3087SOL    HW220895   1.914   1.347   3.499 -0.4363  0.0864  1.5227
 3088SOL     OW20896   0.162   0.998   8.364  0.3842  0.0108  0.3161
 3088SOL    HW120897   0.175   0.930   8.297 -2.1562  0.3447 -0.5164
 3088SOL    HW220898   0.159   1.073   8.303 -0.1762 -1.5715 -1.6129
 3089SOL     OW20899   4.653   3.685  12.586 -0.1900  0.3872  0.3850
 3089SOL    HW120900   4.704   3.694  12.667 -1.4162 -2.6621  1.5028
 3089SOL    HW220901   4.665   3.770  12.544 -0.9676  0.9661  1.3162
 3090SOL     OW20902   4.365   3.647   5.666 -0.3566  0.0084 -0.0852
 3090SOL    HW120903   4.447   3.630   5.711  0.2292 -1.7882 -1.8324
 3090SOL    HW220904   4.348   3.570   5.613  1.7488 -0.9582  0.6530
 3091SOL     OW20905   0.668   1.305   3.878 -0.2205  0.1584  0.3526
 3091SOL    HW120906   0.617   1.376   3.839  1.3596  1.1650  0.1363
 3091SOL    HW220907   0.673   1.329   3.970  1.6804  3.4153 -0.6320
 3092SOL     OW20908   0.634   2.924  15.074  0.5027 -0.3271 -0.4133
 3092SOL    HW120909   0.604   2.889  14.991 -1.6559 -0.0421  0.2558
 3092SOL    HW220910   0.600   3.013  15.064  2.0681  0.1471 -1.4895
 3093SOL     OW20911   4.206   1.573   6.029 -0.4902 -0.1032  0.0339
 3093SOL    HW120912   4.198   1.485   6.068  3.0682 -0.3350  0.2108
 3093SOL    HW220913   4.276   1.549   5.969 -1.2094 -1.4792 -0.2673
 3094SOL     OW20914   0.634   2.084   9.406 -0.0515 -0.1961  0.3229
 3094SOL    HW120915   0.626   2.001   9.360 -0.1488  0.2618 -0.4886
 3094SOL    HW220916   0.717   2.077   9.454 -0.2014  0.7923  0.7112
 3095SOL     OW20917   1.050   0.802  13.230  0.2055  0.0208  0.4430
 3095SOL    HW120918   1.075   0.753  13.308 -2.7585 -0.5640  1.0344
 3095SOL    HW220919   1.059   0.895  13.247 -1.2911  0.4051 -0.8538
 3096SOL     OW20920   1.547   0.091   9.645 -0.5244  0.6085  0.2176
 3096SOL    HW120921   1.593   0.174   9.662 -0.6792  0.6018  0.6656
 3096SOL    HW220922   1.590   0.056   9.566 -0.0836  0.4883  0.5062
 3097SOL     OW20923   4.382   2.840   1.304  0.4644 -0.9343 -0.2102
 3097SOL    HW120924   4.410   2.817   1.215 -0.2471 -0.9388 -0.4416
 3097SOL    HW220925   4.368   2.758   1.351  2.4176 -0.9954  0.2431
 3098SOL     OW20926   2.466   0.359   7.046 -0.9696 -0.9840  0.2040
 3098SOL    HW120927   2.533   0.384   6.983  0.3506  1.1587  2.4544
 3098SOL    HW220928   2.436   0.448   7.069 -0.1460 -0.1476 -2.0085
 3099SOL     OW20929   0.693   3.841   5.850 -0.1698 -0.1793  0.1693
 3099SOL    HW120930   0.770   3.795   5.884 -0.7401 -1.3113 -0.0514
 3099SOL    HW220931   0.654   3.881   5.928 -1.8209  2.6785 -2.1203
 3100SOL     OW20932   2.520   0.071   8.818 -0.2193  0.1580  0.5270
 3100SOL    HW120933   2.509   0.150   8.765 -1.5405 -1.1437 -1.1620
 3100SOL    HW220934   2.597   0.038   8.771  0.8643  1.3541  1.4593
 3101SOL     OW20935   2.233   4.478   4.294 -0.3951  0.3986 -0.4099
 3101SOL    HW120936   2.146   4.512   4.316 -1.0548 -1.4961 -0.0663
 3101SOL    HW220937   2.209   4.392   4.260  1.4993 -0.1929 -0.2132
 3102SOL     OW20938   0.050   0.692   9.480 -0.4238  0.0886  0.2419
 3102SOL    HW120939   0.040   0.692   9.575  1.7546  3.2734  0.4726
 3102SOL    HW220940   4.713   0.742   9.445  2.6444  0.8832 -5.0093
 3103SOL     OW20941   2.741   3.889   2.166 -0.3114 -0.1709 -0.0072
 3103SOL    HW120942   2.730   3.984   2.159  0.2427  0.1434  3.1256
 3103SOL    HW220943   2.828   3.874   2.131  0.1539  1.0871  0.5888
 3104SOL     OW20944   3.387   4.116  12.887  0.0649 -0.4212  0.0648
 3104SOL    HW120945   3.388   4.211  12.872  0.7301 -0.6069 -1.1456
 3104SOL    HW220946   3.450   4.085  12.822  2.8615  3.4427  0.9278
 3105SOL     OW20947   1.816   1.953   6.043  0.2351  0.0581  0.3745
 3105SOL    HW120948   1.754   1.886   6.072  0.0210  0.5249  0.9879
 3105SOL    HW220949   1.782   2.027   6.094 -0.2930  0.3739 -0.4241
 3106SOL     OW20950   4.669   2.386   6.003  0.4008  0.3975  0.5577
 3106SOL    HW120951   4.614   2.359   6.076 -1.7617  1.8772 -0.5414
 3106SOL    HW220952   4.678   2.478   6.030  4.7940 -0.4792  2.1418
 3107SOL     OW20953   2.158   2.084   1.061 -0.1226 -0.1867 -0.1629
 3107SOL    HW120954   2.169   2.037   0.979 -2.1263  0.1091 -0.6214
 3107SOL    HW220955   2.250   2.107   1.068 -0.2130  0.5024 -1.2713
 3108SOL     OW20956   2.779   2.227   8.511  0.0613 -0.6250 -0.1923
 3108SOL    HW120957   2.720   2.209   8.438  0.6653  0.5074 -0.9650
 3108SOL    HW220958   2.791   2.322   8.520  0.3112 -0.7311  0.5945
 3109SOL     OW20959   1.122   4.592   6.400 -0.0129  0.4982  0.1335
 3109SOL    HW120960   1.173   4.671   6.415 -0.4318  0.5730  1.1737
 3109SOL    HW220961   1.178   4.523   6.434  1.1139  1.2987 -0.1260
 3110SOL     OW20962   2.922   2.278   3.520 -0.0390  0.0563  0.0899
 3110SOL    HW120963   2.997   2.220   3.534 -0.0699  0.4780  2.0664
 3110SOL    HW220964   2.939   2.312   3.432 -0.3892  1.1539  0.4489
 3111SOL     OW20965   2.571   1.156   5.550 -0.0207 -0.0776 -0.1684
 3111SOL    HW120966   2.531   1.225   5.603 -1.8593 -0.6472 -0.8182
 3111SOL    HW220967   2.611   1.216   5.488 -0.8653 -0.0659 -0.6965
 3112SOL     OW20968   4.632   3.738  15.025 -0.0812  0.4219 -0.5335
 3112SOL    HW120969   4.675   3.652  15.032  0.9021  1.0365  0.9614
 3112SOL    HW220970   4.705   3.788  14.989  1.6276 -1.3116  0.4724
 3113SOL     OW20971   4.273   4.149   3.019  0.1358 -0.6811  0.2307
 3113SOL    HW120972   4.209   4.102   2.965 -0.0628  0.3509 -0.4421
 3113SOL    HW220973   4.344   4.085   3.020  1.4272  0.7538 -0.4197
 3114SOL     OW20974   3.000   4.307   7.090 -0.3378 -0.1257 -0.0863
 3114SOL    HW120975   2.994   4.340   7.180  0.0149  0.6081 -0.3296
 3114SOL    HW220976   2.913   4.336   7.061  0.0755  0.2639 -0.9330
 3115SOL     OW20977   0.732   2.747  12.246  0.1543 -0.4015  0.5853
 3115SOL    HW120978   0.739   2.681  12.176 -3.9618 -1.1644  0.8941
 3115SOL    HW220979   0.642   2.727  12.273 -0.1213  0.3568  0.1974
 3116SOL     OW20980   3.160   3.059   1.876 -0.8475 -0.4506 -0.1639
 3116SOL    HW120981   3.075   3.056   1.832 -1.9418 -2.4881  2.0841
 3116SOL    HW220982   3.138   3.125   1.941  1.8044  0.6566 -0.3952
 3117SOL     OW20983   1.824   0.668   6.212  0.2944  0.1230 -0.1236
 3117SOL    HW120984   1.768   0.599   6.247 -0.7703  0.3609 -1.3520
 3117SOL    HW220985   1.791   0.746   6.257 -1.8936  0.1593 -1.7928
 3118SOL     OW20986   4.317   4.172  17.598  0.4941  0.8012 -0.1535
 3118SOL    HW120987   4.343   4.260  17.572 -1.4275  1.1055 -1.0242
 3118SOL    HW220988   4.397   4.123  17.578  0.4788  0.6020  0.2622
 3119SOL     OW20989   2.723   2.922   7.276 -0.2697 -0.6592 -0.2475
 3119SOL    HW120990   2.714   2.827   7.264  0.6419 -0.7579 -0.1670
 3119SOL    HW220991   2.636   2.939   7.311  0.0801 -1.2908  0.9285
 3120SOL     OW20992   3.827   3.414   6.179  0.3343  0.2551  0.0008
 3120SOL    HW120993   3.912   3.458   6.184 -0.3147  1.4417  0.9595
 3120SOL    HW220994   3.801   3.414   6.272  1.6244 -0.7073  0.3612
 3121SOL     OW20995   0.293   1.263   3.327  0.2606  0.3165  0.1057
 3121SOL    HW120996   0.343   1.269   3.408 -0.9428 -0.9986  0.9313
 3121SOL    HW220997   0.286   1.354   3.300  0.1101  0.5360  0.8948
 3122SOL     OW20998   0.581   4.529   0.708 -0.4081 -0.4969  0.3590
 3122SOL    HW120999   0.640   4.597   0.677 -1.4121  0.7171  1.1059
 3122SOL    HW221000   0.573   4.470   0.633 -2.6605  0.3548 -0.0926
 3123SOL     OW21001   0.862   0.511   8.266 -0.1278 -0.6135 -0.0821
 3123SOL    HW121002   0.944   0.468   8.242  0.1357 -0.9649  1.4796
 3123SOL    HW221003   0.805   0.448   8.220 -0.4358 -0.8795  0.6671
 3124SOL     OW21004   3.634   2.332   7.271  0.7787 -0.9658 -0.1194
 3124SOL    HW121005   3.654   2.397   7.203 -1.0935 -3.1151 -2.6916
 3124SOL    HW221006   3.617   2.257   7.214  2.4575 -0.5520 -1.1692
 3125SOL     OW21007   4.317   3.525   2.606  0.0836 -0.6483  0.1660
 3125SOL    HW121008   4.401   3.494   2.573  0.2895  0.1530 -0.0574
 3125SOL    HW221009   4.265   3.447   2.587 -0.3240 -1.2629  3.8483
 3126SOL     OW21010   2.935   1.475   6.456 -0.9262 -0.6961  0.2721
 3126SOL    HW121011   2.968   1.444   6.540  2.1082  0.2219 -0.5775
 3126SOL    HW221012   2.891   1.402   6.413  0.4117 -0.9195 -0.7072
 3127SOL     OW21013   2.609   4.170   6.859  0.2896 -0.4731  0.0809
 3127SOL    HW121014   2.622   4.213   6.775  2.3198  0.1250  0.6716
 3127SOL    HW221015   2.516   4.151   6.855  0.5153 -1.2914 -1.0817
 3128SOL     OW21016   4.700   0.585   4.094  0.3802  0.1430 -0.3378
 3128SOL    HW121017   0.023   0.545   4.157  1.0977  1.0296 -0.4489
 3128SOL    HW221018   4.734   0.670   4.068 -0.8931  1.0661  0.9534
 3129SOL     OW21019   3.357   4.624   2.931 -0.1054 -0.1014  0.4038
 3129SOL    HW121020   3.279   4.679   2.920 -0.2065  0.0427  1.8263
 3129SOL    HW221021   3.420   4.695   2.946 -0.4040 -0.4838  3.4401
 3130SOL     OW21022   4.087   3.694   2.263  0.4801  0.0082 -0.3749
 3130SOL    HW121023   4.143   3.751   2.316  2.4124 -1.8094 -0.4514
 3130SOL    HW221024   4.043   3.657   2.339 -0.2334  0.1407 -0.7218
 3131SOL     OW21025   4.111   4.013  10.244  0.3722  0.3292  0.1340
 3131SOL    HW121026   4.115   3.945  10.176  0.0550  0.5220 -0.0808
 3131SOL    HW221027   4.178   4.068  10.203 -2.7368  3.2228 -1.0204
 3132SOL     OW21028   3.000   1.223  14.711 -0.5339 -0.2403 -0.2014
 3132SOL    HW121029   2.989   1.188  14.623 -1.9376  1.7774 -0.8361
 3132SOL    HW221030   2.931   1.289  14.707 -2.1117 -1.9057 -0.2166
 3133SOL     OW21031   3.961   1.677   6.033 -0.7557  0.3177  0.6380
 3133SOL    HW121032   3.931   1.673   5.942  0.3432 -0.0771  0.2953
 3133SOL    HW221033   4.054   1.657   6.042 -0.0821  3.5637  1.0213
 3134SOL     OW21034   3.069   0.695   6.027  0.2459 -0.5741  0.5429
 3134SOL    HW121035   2.994   0.656   6.069  0.6784  0.7859  2.5731
 3134SOL    HW221036   3.143   0.680   6.085 -0.7064  1.8462  2.3952
 3135SOL     OW21037   4.620   2.924   7.339 -0.5715 -0.0188 -0.2312
 3135SOL    HW121038   4.546   2.960   7.389 -0.7302 -0.4409 -0.1554
 3135SOL    HW221039   4.682   2.892   7.405 -1.1945 -0.5376  0.1120
 3136SOL     OW21040   2.852   2.512   9.749 -0.0444 -0.4037  0.1008
 3136SOL    HW121041   2.760   2.539   9.756 -0.2275 -1.1244  0.4355
 3136SOL    HW221042   2.852   2.421   9.779  0.8501 -0.3272  0.3279
 3137SOL     OW21043   1.850   4.125   1.691 -0.2836 -0.4501  0.1352
 3137SOL    HW121044   1.817   4.076   1.765  2.2638 -1.1158  0.8313
 3137SOL    HW221045   1.942   4.101   1.676  0.4843  0.6034  3.2348
 3138SOL     OW21046   3.022   2.447   7.204 -0.2198  0.8361 -0.1451
 3138SOL    HW121047   3.079   2.484   7.137  0.0442 -0.1420 -0.4593
 3138SOL    HW221048   3.011   2.362   7.161  0.6480  0.0531  1.1679
 3139SOL     OW21049   3.957   3.756   7.472 -0.3335 -0.1366  0.1350
 3139SOL    HW121050   3.881   3.813   7.461  0.0829  0.5368  0.7616
 3139SOL    HW221051   3.922   3.677   7.431 -0.4712 -0.0740  0.1305
 3140SOL     OW21052   4.350   2.674   6.848 -0.1845 -0.0388  0.4593
 3140SOL    HW121053   4.261   2.695   6.823  0.9172 -0.0498 -3.4048
 3140SOL    HW221054   4.357   2.597   6.792 -0.0478 -0.1106  0.5729
 3141SOL     OW21055   2.603   2.354   4.962  0.5725 -0.0883  0.1223
 3141SOL    HW121056   2.629   2.446   4.950  1.2783  0.2743  4.3883
 3141SOL    HW221057   2.690   2.316   4.952  0.9686  0.2155  2.3899
 3142SOL     OW21058   3.933   4.687   7.514 -0.4251 -0.9069 -0.0655
 3142SOL    HW121059   3.850   4.677   7.467 -0.6921  1.0489 -0.0017
 3142SOL    HW221060   3.931   4.603   7.560 -0.1115  0.2726  2.1012
 3143SOL     OW21061   4.275   2.453  13.529 -0.3401  0.3438  0.5768
 3143SOL    HW121062   4.205   2.406  13.483  2.1372 -1.0739 -1.7325
 3143SOL    HW221063   4.348   2.421  13.476 -0.1585  0.7891  0.5629
 3144SOL     OW21064   4.592   2.104   2.379 -0.6297 -0.7152  0.5893
 3144SOL    HW121065   4.614   2.196   2.392  2.3035 -1.5419  1.4525
 3144SOL    HW221066   4.662   2.079   2.319 -0.3418 -0.5351  0.8508
 3145SOL     OW21067   4.668   2.990  11.881  0.2594  0.3082  0.8102
 3145SOL    HW121068   4.645   3.065  11.936 -0.1001  0.7987 -0.0109
 3145SOL    HW221069   4.587   2.964  11.839 -0.1934 -2.4651  3.4095
 3146SOL     OW21070   0.017   4.636   7.942  0.0812  0.0956 -0.0603
 3146SOL    HW121071   4.705   4.555   7.924 -1.0366  0.2521  2.2850
 3146SOL    HW221072   0.026   4.675   7.855  2.3169 -1.8377 -0.6911
 3147SOL     OW21073   0.392   4.387   4.737 -0.6266 -0.2002  0.1579
 3147SOL    HW121074   0.405   4.342   4.654 -2.3589 -0.2835 -0.0542
 3147SOL    HW221075   0.479   4.382   4.778 -0.4837  1.0288  0.0156
 3148SOL     OW21076   2.463   4.427   7.049 -0.3107 -0.1211  0.1981
 3148SOL    HW121077   2.404   4.364   7.006 -1.0969  0.4855  0.3952
 3148SOL    HW221078   2.412   4.435   7.130 -0.5943 -2.2898  0.2457
 3149SOL     OW21079   0.650   3.950   6.088 -0.3437 -0.2761 -0.7030
 3149SOL    HW121080   0.686   4.020   6.034 -1.7023  1.0465  0.0962
 3149SOL    HW221081   0.654   4.002   6.168  1.4759  2.0084 -2.2722
 3150SOL     OW21082   4.420   1.553   5.865  0.1300 -0.0480 -0.1671
 3150SOL    HW121083   4.451   1.463   5.876 -0.1672  0.0718  1.6583
 3150SOL    HW221084   4.494   1.610   5.843  0.5309 -0.6357 -0.3312
 3151SOL     OW21085   4.256   2.988   6.701  0.7916  0.2884 -0.0164
 3151SOL    HW121086   4.289   2.958   6.616  2.3524  1.6035  0.1301
 3151SOL    HW221087   4.168   3.019   6.680  0.2508 -0.5986  0.9761
 3152SOL     OW21088   4.037   2.409   1.362 -0.0107  0.0816 -0.0639
 3152SOL    HW121089   4.106   2.355   1.400 -0.1941  0.5150  0.8895
 3152SOL    HW221090   3.965   2.349   1.347 -0.5668  0.7944 -0.2538
 3153SOL     OW21091   0.938   3.205   3.930  0.0206 -0.0528  0.3313
 3153SOL    HW121092   1.024   3.164   3.923 -0.1099 -0.1882 -0.4137
 3153SOL    HW221093   0.914   3.180   4.019 -1.1550  1.8005  0.5454
 3154SOL     OW21094   1.436   4.116  12.423  0.2051  0.1140  0.4531
 3154SOL    HW121095   1.398   4.078  12.502 -2.9112 -0.7274 -1.4391
 3154SOL    HW221096   1.438   4.037  12.368 -2.8137  0.3895 -0.0698
 3155SOL     OW21097   3.206   4.122   8.590 -0.1321  0.2219  0.3371
 3155SOL    HW121098   3.214   4.173   8.670  1.4956  3.1731 -1.6809
 3155SOL    HW221099   3.263   4.052   8.621  1.9528  1.0275 -1.6843
 3156SOL     OW21100   1.287   4.515  13.862 -0.1894 -0.0653  0.5050
 3156SOL    HW121101   1.364   4.462  13.883  2.1154  2.7580 -0.8340
 3156SOL    HW221102   1.322   4.603  13.873  0.3118 -0.2200  0.1562
 3157SOL     OW21103   4.329   1.959   8.368 -0.2154  0.0424  0.3474
 3157SOL    HW121104   4.355   1.928   8.282 -1.0810 -0.4285  0.2528
 3157SOL    HW221105   4.239   1.991   8.366  0.1670  1.0420 -0.6919
 3158SOL     OW21106   2.797   3.508   8.683 -0.1781 -0.1563 -0.0939
 3158SOL    HW121107   2.780   3.414   8.670 -1.1950 -0.1922  1.5827
 3158SOL    HW221108   2.707   3.540   8.681  0.6298  2.0349 -0.4790
 3159SOL     OW21109   1.798   1.441  13.395 -0.4130 -0.1677 -0.0992
 3159SOL    HW121110   1.839   1.385  13.461  0.2923  2.4482  1.6817
 3159SOL    HW221111   1.871   1.503  13.389  0.7611 -1.5563 -0.1687
 3160SOL     OW21112   4.117   2.205   6.810  0.5538  0.3642  0.0916
 3160SOL    HW121113   4.208   2.203   6.842  0.5530 -1.9536 -0.0522
 3160SOL    HW221114   4.096   2.287   6.855 -0.8831  0.3157 -0.5092
 3161SOL     OW21115   2.563   2.114  15.499  0.5122 -0.2645  0.4584
 3161SOL    HW121116   2.513   2.137  15.578  0.2971 -0.6721  0.4397
 3161SOL    HW221117   2.599   2.031  15.531  1.7170 -0.4848 -1.4659
 3162SOL     OW21118   1.309   1.184   5.408  0.4267  0.1655  0.3599
 3162SOL    HW121119   1.234   1.124   5.413  1.2313 -0.9111 -0.4559
 3162SOL    HW221120   1.374   1.133   5.360  1.3392 -0.1170  1.9081
 3163SOL     OW21121   2.786   2.428   9.467 -0.1245 -0.2994  0.4421
 3163SOL    HW121122   2.719   2.359   9.464 -2.2575  1.7615  0.6371
 3163SOL    HW221123   2.759   2.466   9.550  1.8225  0.0725  0.8868
 3164SOL     OW21124   1.821   0.636   5.190 -0.3888  0.4161 -0.2923
 3164SOL    HW121125   1.815   0.573   5.263 -1.7581 -0.1975 -0.9360
 3164SOL    HW221126   1.890   0.589   5.143  0.0231 -0.5782  1.2836
 3165SOL     OW21127   3.401   3.451   7.800 -0.3290 -0.2024 -0.2825
 3165SOL    HW121128   3.341   3.490   7.736  0.3904  0.6712 -0.4363
 3165SOL    HW221129   3.443   3.536   7.816  0.0431 -0.1655 -1.4195
 3166SOL     OW21130   0.349   1.859   4.496  0.6966  0.4449  0.0432
 3166SOL    HW121131   0.292   1.882   4.423  0.7941  1.8435  0.4088
 3166SOL    HW221132   0.308   1.903   4.571  1.1131 -2.3264  1.8956
 3167SOL     OW21133   0.099   2.889  12.059 -0.5626  1.1802 -0.5679
 3167SOL    HW121134   0.179   2.901  12.008  1.0081 -4.3453  0.5609
 3167SOL    HW221135   0.045   2.938  11.997 -1.4127  0.9519  0.0037
 3168SOL     OW21136   2.874   3.748  13.314  0.0532 -0.4088 -0.5021
 3168SOL    HW121137   2.948   3.776  13.260 -1.3713  0.3726 -2.0181
 3168SOL    HW221138   2.908   3.754  13.403 -1.9021  0.5841  0.1612
 3169SOL     OW21139   2.530   4.515  15.680 -0.4879  0.3410  0.4966
 3169SOL    HW121140   2.541   4.512  15.775  0.5803  1.4941  0.4093
 3169SOL    HW221141   2.435   4.506  15.672 -0.1313 -1.2118 -2.0236
 3170SOL     OW21142   2.787   0.674   0.866 -0.1977 -0.7089  0.5697
 3170SOL    HW121143   2.868   0.693   0.912  0.7586 -2.3695 -0.4160
 3170SOL    HW221144   2.790   0.581   0.843  0.3669 -0.0956 -1.9158
 3171SOL     OW21145   4.706   4.429  10.063  0.1749 -0.1348  0.2223
 3171SOL    HW121146   4.678   4.519  10.075  1.2258  0.0900  0.9219
 3171SOL    HW221147   4.625   4.381  10.082  0.1285 -0.3452 -0.5124
 3172SOL     OW21148   0.175   1.772  15.115 -0.1249 -0.1820  0.4376
 3172SOL    HW121149   0.102   1.830  15.096  0.9301  1.0961  0.2988
 3172SOL    HW221150   0.157   1.700  15.054  1.2467  0.0808 -0.2697
 3173SOL     OW21151   3.703   0.299   4.004 -0.6328 -0.3980  0.2375
 3173SOL    HW121152   3.783   0.251   4.028  0.5466  0.7473 -1.3483
 3173SOL    HW221153   3.649   0.232   3.962 -2.0339  1.3110 -0.7003
 3174SOL     OW21154   3.879   1.070   6.589 -0.3715 -0.3652 -0.4686
 3174SOL    HW121155   3.850   1.140   6.531 -0.8805 -0.7990 -0.7379
 3174SOL    HW221156   3.918   1.011   6.525  0.9216 -0.9579  0.8678
 3175SOL     OW21157   3.413   0.685   9.492  0.3198  0.7878 -0.0251
 3175SOL    HW121158   3.497   0.640   9.477  0.2627  1.3952 -2.2128
 3175SOL    HW221159   3.360   0.638   9.428 -1.2575 -0.7588  2.4106
 3176SOL     OW21160   2.474   4.437   4.396  0.4396 -0.1565  0.0376
 3176SOL    HW121161   2.509   4.351   4.371 -0.8467 -0.5937 -0.2711
 3176SOL    HW221162   2.397   4.451   4.341 -0.3954  0.2087  1.3213
 3177SOL     OW21163   0.909   1.709   3.861  0.0532  0.5723  0.0428
 3177SOL    HW121164   0.849   1.767   3.908 -0.5889 -1.3521  1.6014
 3177SOL    HW221165   0.955   1.667   3.934 -0.1843  1.1633  0.5348
 3178SOL     OW21166   4.201   0.431   0.732  0.7880  0.2116 -0.1146
 3178SOL    HW121167   4.216   0.491   0.659  3.3091  0.9448  1.0384
 3178SOL    HW221168   4.108   0.446   0.751  0.7845  0.2951 -0.1937
 3179SOL     OW21169   2.042   3.334  13.792 -0.4058  0.0855 -0.4141
 3179SOL    HW121170   2.035   3.390  13.870  0.2048  0.9089 -0.9473
 3179SOL    HW221171   2.013   3.248  13.822 -0.3379 -1.1052 -3.7804
 3180SOL     OW21172   2.717   4.553  11.195 -1.1175 -0.0009 -0.3607
 3180SOL    HW121173   2.802   4.529  11.230 -1.3188 -1.0555 -0.5712
 3180SOL    HW221174   2.725   4.647  11.184  2.3797 -0.3019 -0.2255
 3181SOL     OW21175   1.007   0.046  13.304  0.1983 -0.1133  0.1456
 3181SOL    HW121176   1.096   0.019  13.281 -0.5403 -0.8905 -1.7457
 3181SOL    HW221177   0.963   0.025  13.222 -1.5472 -0.6101  1.2247
 3182SOL     OW21178   0.027   4.105   5.508  0.4740 -0.1789  0.4359
 3182SOL    HW121179   0.047   4.128   5.599 -1.4457 -1.4153  1.1582
 3182SOL    HW221180   4.672   4.082   5.523  0.7385 -2.1768 -0.9841
 3183SOL     OW21181   0.450   2.257   2.004  0.5728  0.5956  0.0502
 3183SOL    HW121182   0.455   2.344   2.044 -0.9102  0.3339  0.7928
 3183SOL    HW221183   0.505   2.195   2.053 -1.3466 -1.1577 -0.0395
 3184SOL     OW21184   3.351   4.127   6.812  0.3677  0.4607  0.3422
 3184SOL    HW121185   3.336   4.163   6.725 -1.0026  0.2306  0.4787
 3184SOL    HW221186   3.441   4.095   6.809 -0.6535 -2.3038 -0.6600
 3185SOL     OW21187   3.987   0.362   6.429 -0.9573  0.2364  0.5738
 3185SOL    HW121188   3.951   0.366   6.341 -1.6996  0.3667  0.8820
 3185SOL    HW221189   3.909   0.361   6.485 -0.3052 -1.2488  1.4373
 3186SOL     OW21190   1.201   1.371  17.230 -0.0237 -0.3387 -0.7376
 3186SOL    HW121191   1.245   1.456  17.227 -0.2628 -0.2879 -3.0494
 3186SOL    HW221192   1.238   1.337  17.312  2.7615  3.1869 -0.5626
 3187SOL     OW21193   0.134   2.309  12.754  0.4167  0.1841  0.0288
 3187SOL    HW121194   0.130   2.214  12.746  1.3329  0.0973  0.5956
 3187SOL    HW221195   0.138   2.312  12.850 -1.3625 -1.0038  0.1536
 3188SOL     OW21196   0.434   3.037  12.177  0.1549 -0.3483 -0.0929
 3188SOL    HW121197   0.360   3.027  12.117 -0.2852 -1.6245  0.6482
 3188SOL    HW221198   0.448   2.949  12.212 -0.9640  0.1674  1.7034
 3189SOL     OW21199   3.330   1.340   6.787 -0.5545 -0.8517 -0.0186
 3189SOL    HW121200   3.274   1.355   6.712 -0.5241 -0.6569 -0.0014
 3189SOL    HW221201   3.296   1.258   6.823 -3.9373  0.9132  0.7268
 3190SOL     OW21202   1.576   3.044   1.750  0.6435 -0.1960 -0.4900
 3190SOL    HW121203   1.663   3.054   1.711 -0.2902  1.2606 -2.2411
 3190SOL    HW221204   1.523   3.063   1.672 -0.5974 -2.6693 -0.2280
 3191SOL     OW21205   3.636   1.803  10.078  0.2126 -0.1708  0.5456
 3191SOL    HW121206   3.595   1.723  10.045  1.1176 -0.7092  0.7109
 3191SOL    HW221207   3.588   1.875  10.037 -0.5631 -0.9626  0.0591
 3192SOL     OW21208   3.287   4.379   6.623  0.1355 -0.2564  0.2835
 3192SOL    HW121209   3.256   4.349   6.709 -1.8953  0.3638 -0.2314
 3192SOL    HW221210   3.212   4.384   6.564  0.0205  1.7146  0.6159
 3193SOL     OW21211   1.629   1.353  16.788 -0.7173 -0.0709  0.0437
 3193SOL    HW121212   1.598   1.430  16.741  0.7310  1.3673  1.4630
 3193SOL    HW221213   1.628   1.282  16.723 -1.2069  1.7329 -1.9151
 3194SOL     OW21214   2.877   3.663   6.866 -0.2328 -0.0597 -0.1026
 3194SOL    HW121215   2.859   3.589   6.808  0.7509  0.3925 -0.9815
 3194SOL    HW221216   2.784   3.670   6.888 -0.3163  1.0484 -0.7614
 3195SOL     OW21217   1.838   1.636   4.905  0.1396  0.7323 -0.2448
 3195SOL    HW121218   1.864   1.676   4.822  0.3515 -1.2561 -1.1393
 3195SOL    HW221219   1.801   1.552   4.877 -0.0899  1.8402 -3.2506
 3196SOL     OW21220   4.450   4.095   5.896  0.2108 -0.3871  0.0961
 3196SOL    HW121221   4.367   4.139   5.914  0.9037  0.8239  0.3566
 3196SOL    HW221222   4.479   4.063   5.982 -1.5547  0.1740  0.9132
 3197SOL     OW21223   2.401   4.405   1.778 -0.2530  0.2378  0.0785
 3197SOL    HW121224   2.369   4.464   1.846 -0.6616 -1.7203  1.5829
 3197SOL    HW221225   2.454   4.462   1.722 -0.7514  1.8471  1.2435
 3198SOL     OW21226   1.665   2.729  12.771  0.3695 -0.4463  1.0502
 3198SOL    HW121227   1.585   2.755  12.724 -0.1975 -1.1002  1.6488
 3198SOL    HW221228   1.716   2.690  12.700 -0.4793  2.6501 -1.2753
 3199SOL     OW21229   2.186   4.336   2.646  0.0639 -0.6196  0.6511
 3199SOL    HW121230   2.264   4.391   2.641  0.1209 -0.7467  0.0720
 3199SOL    HW221231   2.206   4.276   2.718  1.0530 -1.8819 -0.6728
 3200SOL     OW21232   2.261   1.594   6.648  0.4147 -0.1712 -0.1062
 3200SOL    HW121233   2.308   1.586   6.731 -0.6343 -0.9066  0.4186
 3200SOL    HW221234   2.193   1.660   6.665  1.4485  1.1614 -1.1541
 3201SOL     OW21235   4.119   4.649   2.340 -0.4644 -0.2449  0.0299
 3201SOL    HW121236   4.156   4.732   2.308 -1.6007  0.3752  0.3381
 3201SOL    HW221237   4.131   4.599   2.260 -0.8185 -1.2204  0.5898
 3202SOL     OW21238   2.289   3.892   3.344 -0.1657 -0.4241  0.6665
 3202SOL    HW121239   2.244   3.970   3.377  0.0012 -0.2061  0.3884
 3202SOL    HW221240   2.217   3.858   3.292 -0.0022  0.8140 -0.3889
 3203SOL     OW21241   1.851   3.484  16.770 -0.0453 -0.2251  0.8091
 3203SOL    HW121242   1.766   3.483  16.724  0.8499 -1.5168 -0.8409
 3203SOL    HW221243   1.878   3.571  16.743  0.7853 -0.1146  2.0238
 3204SOL     OW21244   4.071   1.855  15.814  0.2507 -0.0174  0.2178
 3204SOL    HW121245   4.100   1.874  15.903 -0.9212 -1.3842  0.9040
 3204SOL    HW221246   4.044   1.943  15.789 -0.8343 -1.4157 -3.5780
 3205SOL     OW21247   4.468   4.734   3.311  0.4548  0.0217  0.2062
 3205SOL    HW121248   4.471   4.717   3.217  3.3542 -0.1265  0.3161
 3205SOL    HW221249   4.419   0.080   3.308  0.2757 -0.0455  1.1988
 3206SOL     OW21250   2.112   2.573   3.802 -0.4449 -0.3061  0.9239
 3206SOL    HW121251   2.165   2.645   3.836 -0.3015 -0.4025  0.9073
 3206SOL    HW221252   2.184   2.514   3.781  0.1139  0.9765 -0.8012
 3207SOL     OW21253   3.774   2.919  12.003 -0.0814 -0.2746  0.0630
 3207SOL    HW121254   3.706   2.927  12.070  0.2100 -1.3987  0.4816
 3207SOL    HW221255   3.711   2.904  11.933 -0.4373  0.9568  0.1058
 3208SOL     OW21256   1.397   2.888   8.835 -0.0586 -0.8640 -0.5854
 3208SOL    HW121257   1.491   2.904   8.834 -0.1183 -0.4007  1.0722
 3208SOL    HW221258   1.366   2.946   8.904  0.1606 -0.6913 -0.6334
 3209SOL     OW21259   4.255   4.180   2.590 -0.6883  0.1872  0.0642
 3209SOL    HW121260   4.228   4.264   2.628  0.3646  0.3415  0.4758
 3209SOL    HW221261   4.288   4.221   2.510  2.1688 -0.5679  0.8586
 3210SOL     OW21262   1.330   4.607  11.707 -0.2370 -0.0078  0.0972
 3210SOL    HW121263   1.368   4.669  11.770 -1.9832  2.1081 -0.9223
 3210SOL    HW221264   1.267   4.666  11.666 -0.4140  1.5236  2.5440
 3211SOL     OW21265   0.026   3.523  12.044 -0.2975  0.0695  0.2020
 3211SOL    HW121266   4.722   3.592  12.096  0.7751 -0.1774  1.3527
 3211SOL    HW221267   4.690   3.460  12.038 -0.0267 -0.1275 -1.0964
 3212SOL     OW21268   1.652   3.164   2.540  0.1419  1.3328 -0.1427
 3212SOL    HW121269   1.653   3.120   2.625  0.0363  0.4688 -0.5817
 3212SOL    HW221270   1.742   3.196   2.543  0.6592 -0.1781  0.2409
 3213SOL     OW21271   4.698   4.077   2.679  0.6772  0.0160  0.2401
 3213SOL    HW121272   0.021   4.026   2.625 -0.2666 -0.3119 -0.4803
 3213SOL    HW221273   4.629   4.010   2.682 -1.1453  1.8729  0.0047
 3214SOL     OW21274   2.171   2.761   1.711  0.2503  0.0573  0.8032
 3214SOL    HW121275   2.091   2.716   1.682  0.9022 -0.5961  0.0411
 3214SOL    HW221276   2.238   2.702   1.676  0.2835 -0.5323  1.8456
 3215SOL     OW21277   0.148   3.155   6.678 -0.3846 -0.0285  0.0213
 3215SOL    HW121278   0.069   3.169   6.730  2.2194  0.3955  3.8485
 3215SOL    HW221279   0.179   3.078   6.725 -1.2762 -0.2497  0.2365
 3216SOL     OW21280   1.648   4.720   4.294 -0.4174 -0.3426 -0.0165
 3216SOL    HW121281   1.674   4.651   4.235  0.5214 -0.5541  0.6521
 3216SOL    HW221282   1.689   0.050   4.239 -2.3538  0.3759 -0.6022
 3217SOL     OW21283   0.253   4.329   4.161 -0.4963  0.2008 -0.2212
 3217SOL    HW121284   0.234   4.402   4.102 -0.5009  0.1294 -0.3073
 3217SOL    HW221285   0.187   4.352   4.227 -1.4531 -1.4881 -0.5896
 3218SOL     OW21286   4.496   2.482   1.572  0.2192 -0.5369 -0.0363
 3218SOL    HW121287   4.550   2.447   1.501 -1.1193 -1.7426 -0.4536
 3218SOL    HW221288   4.528   2.442   1.652  1.3220 -0.0897 -0.2551
 3219SOL     OW21289   1.923   0.509   7.693 -0.6823 -0.1825 -0.4411
 3219SOL    HW121290   1.893   0.518   7.783  0.6344  0.2526 -0.0541
 3219SOL    HW221291   1.853   0.460   7.650  1.0277 -3.7641  0.8207
 3220SOL     OW21292   4.340   1.380   7.134  0.1341 -0.4261  0.1995
 3220SOL    HW121293   4.353   1.411   7.045 -2.3989 -2.0880 -0.7489
 3220SOL    HW221294   4.256   1.415   7.161 -0.2042  0.4706 -2.0281
 3221SOL     OW21295   0.398   2.756   4.976 -0.1814 -0.2797 -0.3118
 3221SOL    HW121296   0.319   2.799   4.943 -0.1109  1.0155  1.2171
 3221SOL    HW221297   0.407   2.679   4.919  0.6532  0.3486 -1.0153
 3222SOL     OW21298   3.236   2.445   6.740  0.0645  0.3154  0.3899
 3222SOL    HW121299   3.331   2.454   6.734  0.0293  0.8533  0.6529
 3222SOL    HW221300   3.204   2.488   6.662 -3.0298 -1.7331  0.5447
 3223SOL     OW21301   4.295   4.527  16.957 -0.1221  0.3654 -0.1859
 3223SOL    HW121302   4.387   4.547  16.973 -0.4101  1.5747 -0.0670
 3223SOL    HW221303   4.265   4.605  16.910 -2.9931 -0.2559  0.6679
 3224SOL     OW21304   2.286   2.305   1.581  0.1053  0.2961  0.6123
 3224SOL    HW121305   2.345   2.275   1.651  0.7255  3.4684  1.4567
 3224SOL    HW221306   2.315   2.253   1.506 -2.0201  0.2008 -0.1447
 3225SOL     OW21307   1.691   4.251   7.827 -0.4780  0.0748  0.1331
 3225SOL    HW121308   1.623   4.313   7.854  0.0980  1.0775 -0.7042
 3225SOL    HW221309   1.723   4.226   7.914  0.9100 -0.2745 -0.4861
 3226SOL     OW21310   0.769   1.510   5.465  0.3340 -0.1727  0.1128
 3226SOL    HW121311   0.700   1.444   5.467 -0.7145  0.8869 -0.9875
 3226SOL    HW221312   0.786   1.524   5.559  0.4608  1.7301 -0.1948
 3227SOL     OW21313   0.722   0.408   2.668 -0.3013 -0.4580 -0.0332
 3227SOL    HW121314   0.757   0.490   2.632 -1.0473  0.1174  0.5458
 3227SOL    HW221315   0.712   0.355   2.589  0.2050  0.5264 -0.7641
 3228SOL     OW21316   4.388   4.530   6.621  0.1698  0.1474  0.1535
 3228SOL    HW121317   4.330   4.571   6.685 -0.9463  2.1155 -2.0817
 3228SOL    HW221318   4.449   4.601   6.604 -0.2040  0.9171  2.0264
 3229SOL     OW21319   0.478   4.326   4.483 -0.7208  0.0401  0.5289
 3229SOL    HW121320   0.499   4.249   4.431 -1.1173  1.0154 -1.0832
 3229SOL    HW221321   0.569   4.356   4.486 -0.0753 -1.6255 -2.1849
 3230SOL     OW21322   1.347   3.769   5.974 -0.1846  0.2261 -0.1226
 3230SOL    HW121323   1.382   3.845   5.929 -3.5675  3.0027  1.8813
 3230SOL    HW221324   1.409   3.702   5.947  0.3746  0.2493  1.0904
 3231SOL     OW21325   1.424   1.678   3.617  0.5783  0.6482 -0.1243
 3231SOL    HW121326   1.345   1.653   3.665  2.5144 -1.9699  1.6867
 3231SOL    HW221327   1.404   1.767   3.586  0.9081  1.4036  1.8502
 3232SOL     OW21328   3.036   0.788   8.096 -0.3077  0.5559  0.1638
 3232SOL    HW121329   3.027   0.693   8.099  1.5858  0.4085  1.4520
 3232SOL    HW221330   3.009   0.792   8.004 -1.5647  1.7856  0.5846
 3233SOL     OW21331   2.017   0.207   8.094  0.9294 -0.3425  0.0540
 3233SOL    HW121332   2.105   0.215   8.130  1.2281  0.2235 -0.8157
 3233SOL    HW221333   1.984   0.295   8.078 -1.8625 -1.2264  0.8810
 3234SOL     OW21334   1.780   0.431   2.417 -0.1766 -0.4283 -0.2110
 3234SOL    HW121335   1.736   0.469   2.341 -0.6851 -1.5036 -0.4596
 3234SOL    HW221336   1.713   0.452   2.482  0.1245  1.5660 -0.5537
 3235SOL     OW21337   1.314   3.304   4.523  0.3583 -0.5463  0.1563
 3235SOL    HW121338   1.236   3.347   4.489  0.7840 -0.3595 -0.5938
 3235SOL    HW221339   1.372   3.338   4.455  1.1732  0.9190  1.5908
 3236SOL     OW21340   1.734   4.353   3.435  0.3215 -0.3227 -0.2208
 3236SOL    HW121341   1.754   4.275   3.487 -1.8177 -0.8134 -0.1237
 3236SOL    HW221342   1.651   4.320   3.402  0.4628  0.3591 -1.2328
 3237SOL     OW21343   3.048   3.732  14.349  0.8215 -0.9127 -0.1618
 3237SOL    HW121344   2.964   3.697  14.379  0.2479  1.9453  1.5670
 3237SOL    HW221345   3.058   3.822  14.381  0.1493 -1.4477  1.5303
 3238SOL     OW21346   2.624   0.449  17.412 -0.6429 -0.1584  0.2357
 3238SOL    HW121347   2.637   0.360  17.380  0.8328  0.0583  0.2381
 3238SOL    HW221348   2.530   0.447  17.431 -0.9425 -0.4186 -1.2234
 3239SOL     OW21349   4.368   2.046   3.064 -0.3819  0.1063 -0.4899
 3239SOL    HW121350   4.309   2.060   2.990  0.5440 -0.8517 -1.4117
 3239SOL    HW221351   4.439   2.006   3.014  0.7762  2.4917 -0.7651
 3240SOL     OW21352   2.938   2.378   7.475 -0.2829 -0.1396 -0.1432
 3240SOL    HW121353   2.973   2.376   7.385 -0.9106 -1.4582 -0.3635
 3240SOL    HW221354   3.007   2.335   7.524 -0.0382  0.6550  0.2154
 3241SOL     OW21355   2.474   1.556   5.525 -0.1513  0.3709 -0.2719
 3241SOL    HW121356   2.513   1.609   5.595  2.7087 -0.9375 -0.8664
 3241SOL    HW221357   2.515   1.597   5.449  1.2718  1.6111  1.1850
 3242SOL     OW21358   3.020   4.212  17.199  0.7655 -0.6948  0.2285
 3242SOL    HW121359   2.961   4.246  17.132  2.6906 -1.5292 -1.9286
 3242SOL    HW221360   3.031   4.293  17.249  2.7864 -1.6083  1.2656
 3243SOL     OW21361   2.179   1.674   5.695 -0.3106  0.5899 -0.7059
 3243SOL    HW121362   2.104   1.671   5.636 -2.6552  1.6808  2.2438
 3243SOL    HW221363   2.233   1.610   5.649 -0.1987 -0.2982  0.6477
 3244SOL     OW21364   2.983   2.152   5.984 -0.3687  0.2116  0.5756
 3244SOL    HW121365   2.922   2.195   5.924 -0.8493 -0.5813  0.4879
 3244SOL    HW221366   2.997   2.232   6.034 -1.1443 -0.9417  2.6558
 3245SOL     OW21367   3.451   0.364   4.174  0.0257  0.3891 -0.0802
 3245SOL    HW121368   3.383   0.417   4.218  0.2992  0.7336 -0.0700
 3245SOL    HW221369   3.526   0.417   4.201 -0.4564  0.3751  1.3022
 3246SOL     OW21370   0.129   4.480  13.353 -0.4790  0.5713  0.2463
 3246SOL    HW121371   0.206   4.425  13.339 -0.7413 -0.1640  1.6231
 3246SOL    HW221372   0.164   4.539  13.420  0.5663  0.4713 -0.2160
 3247SOL     OW21373   2.250   4.529  15.607 -0.0292 -0.0166  0.4989
 3247SOL    HW121374   2.180   4.468  15.632 -0.8693  0.7391 -0.0108
 3247SOL    HW221375   2.234   4.542  15.513  0.4787 -1.7550  0.1740
 3248SOL     OW21376   3.572   3.717   5.341 -0.2737 -0.0071 -0.2714
 3248SOL    HW121377   3.521   3.757   5.411 -3.2672  1.5654 -3.3263
 3248SOL    HW221378   3.543   3.626   5.349 -4.2646  1.3240  0.4947
 3249SOL     OW21379   1.421   3.959   3.344  0.3848  0.1012  0.2225
 3249SOL    HW121380   1.427   3.909   3.425 -0.3556  0.2690  0.3807
 3249SOL    HW221381   1.395   4.047   3.369  0.0932  0.0857 -0.0187
 3250SOL     OW21382   1.491   3.828  12.734  0.1626 -0.2102 -0.5199
 3250SOL    HW121383   1.564   3.826  12.672  0.5507 -1.1353 -0.0463
 3250SOL    HW221384   1.519   3.759  12.794 -1.3156  0.4699  0.9446
 3251SOL     OW21385   0.253   1.558  15.598 -0.1603 -0.1787 -0.2776
 3251SOL    HW121386   0.259   1.614  15.520 -1.5884  0.8838  0.3800
 3251SOL    HW221387   0.159   1.541  15.595 -0.1035 -0.7082  1.5489
 3252SOL     OW21388   1.899   2.115   6.991  0.8096  0.2261  0.5801
 3252SOL    HW121389   1.838   2.188   6.989 -0.3208 -0.7996 -1.9307
 3252SOL    HW221390   1.887   2.071   7.075 -0.1012 -1.1502 -0.2748
 3253SOL     OW21391   0.645   3.326   1.550  0.4376  0.2735 -0.0947
 3253SOL    HW121392   0.556   3.327   1.516  0.0389 -0.8837  0.9046
 3253SOL    HW221393   0.680   3.238   1.535  0.6524  0.3181  0.1393
 3254SOL     OW21394   3.856   3.020   5.070 -0.5326 -1.0427 -0.3294
 3254SOL    HW121395   3.917   2.986   5.004 -0.1462 -1.0825  0.0513
 3254SOL    HW221396   3.811   3.088   5.020  1.0367  1.8188  2.1117
 3255SOL     OW21397   2.295   1.763   8.810 -0.0187  0.3615  0.1357
 3255SOL    HW121398   2.259   1.683   8.771 -2.2932  1.5275 -0.1868
 3255SOL    HW221399   2.315   1.730   8.897  1.9265 -0.3687 -0.6059
 3256SOL     OW21400   2.711   2.125   1.027 -0.2826  0.5495 -0.3275
 3256SOL    HW121401   2.684   2.187   0.960  2.4174  1.2326 -0.8059
 3256SOL    HW221402   2.807   2.131   1.021 -0.2453  0.4522  0.1214
 3257SOL     OW21403   0.616   0.409   5.618 -0.2452 -0.1448  0.6087
 3257SOL    HW121404   0.695   0.356   5.614  1.2100  2.1837 -1.0015
 3257SOL    HW221405   0.652   0.496   5.603  0.8878 -0.9410 -1.3437
 3258SOL     OW21406   0.460   1.477   6.400 -0.1230 -0.3422  0.1640
 3258SOL    HW121407   0.471   1.515   6.313  2.5577 -1.4264  0.0359
 3258SOL    HW221408   0.510   1.396   6.391  1.5825  0.4705  2.2753
 3259SOL     OW21409   1.359   0.545  10.065  0.0397 -0.0997 -0.2206
 3259SOL    HW121410   1.360   0.470  10.006 -0.0978 -0.5116  0.3088
 3259SOL    HW221411   1.415   0.608  10.020  1.2127 -1.3250 -0.4584
 3260SOL     OW21412   0.902   2.588   0.776  0.0981 -0.1932  0.0149
 3260SOL    HW121413   0.909   2.678   0.810  1.3076  0.7244 -2.6477
 3260SOL    HW221414   0.984   2.552   0.807  0.9938 -0.8201 -3.1334
 3261SOL     OW21415   0.256   2.912  16.344 -0.6084 -0.5941  0.0249
 3261SOL    HW121416   0.335   2.951  16.382 -1.1878  1.0033 -0.4059
 3261SOL    HW221417   0.299   2.841  16.298 -0.4127 -1.1023  0.9837
 3262SOL     OW21418   1.835   3.215   5.492 -0.5718 -0.1006 -0.1840
 3262SOL    HW121419   1.876   3.165   5.563 -2.3980 -1.0748  0.2107
 3262SOL    HW221420   1.855   3.164   5.414 -1.6227 -0.8191  0.0112
 3263SOL     OW21421   0.362   2.331   3.601  0.4364 -0.0819 -0.0798
 3263SOL    HW121422   0.452   2.361   3.617  1.2264 -1.8705 -1.1184
 3263SOL    HW221423   0.327   2.334   3.690 -0.2980  1.0967 -0.4185
 3264SOL     OW21424   2.597   3.930  12.457  0.1656  0.0453  0.1368
 3264SOL    HW121425   2.510   3.959  12.430  0.3969 -0.1361 -0.8266
 3264SOL    HW221426   2.594   3.835  12.445 -0.4993  0.1708 -0.7265
 3265SOL     OW21427   2.457   2.862   6.921  0.2526  0.0928  1.0862
 3265SOL    HW121428   2.467   2.926   6.991  1.5292 -0.1664  1.1521
 3265SOL    HW221429   2.366   2.868   6.894  0.9194  1.5028 -0.7910
 3266SOL     OW21430   3.816   2.551  10.457  0.0100 -0.0073  0.7767
 3266SOL    HW121431   3.745   2.569  10.395  0.3220  1.8688  0.9588
 3266SOL    HW221432   3.855   2.638  10.461  0.3654 -0.0608 -1.2898
 3267SOL     OW21433   1.227   0.372   3.368  0.3074  0.2214 -0.2029
 3267SOL    HW121434   1.180   0.350   3.449 -3.0654  1.2369 -1.8808
 3267SOL    HW221435   1.263   0.456   3.395  0.9994 -0.1718  0.0857
 3268SOL     OW21436   4.176   4.020  16.575 -0.2093 -0.3391 -0.0280
 3268SOL    HW121437   4.224   3.938  16.569  0.5009  0.0556  0.2610
 3268SOL    HW221438   4.241   4.076  16.617  1.1048  0.5472 -3.2301
 3269SOL     OW21439   4.287   3.396  11.183 -0.0304  0.2338 -0.3274
 3269SOL    HW121440   4.246   3.438  11.258 -0.6378 -0.7467 -0.1059
 3269SOL    HW221441   4.332   3.468  11.138  1.7892 -0.1181  0.8972
 3270SOL     OW21442   3.149   1.946   6.214 -0.2170  0.5978 -0.7826
 3270SOL    HW121443   3.161   2.041   6.217  0.7270  0.4072  1.5101
 3270SOL    HW221444   3.208   1.918   6.284 -1.8161 -1.1841 -0.1408
 3271SOL     OW21445   1.182   0.228  10.617 -0.0767  0.5476  0.1314
 3271SOL    HW121446   1.106   0.285  10.629 -0.4354 -1.2309  5.9580
 3271SOL    HW221447   1.201   0.204  10.708  1.8546 -0.2266 -0.4732
 3272SOL     OW21448   3.074   0.013   4.792 -0.4941  0.5913 -0.0395
 3272SOL    HW121449   3.052   0.014   4.885 -0.9685 -1.2176 -0.1120
 3272SOL    HW221450   3.094   4.656   4.778  0.4997  0.9033 -0.5966
 3273SOL     OW21451   2.598   3.535   7.827 -0.1770 -0.1814 -0.4016
 3273SOL    HW121452   2.667   3.505   7.769 -2.6479 -2.8102 -1.9669
 3273SOL    HW221453   2.639   3.507   7.909 -0.7666 -1.9101 -0.7062
 3274SOL     OW21454   2.188   2.924  16.396  0.7856 -0.0948 -0.1098
 3274SOL    HW121455   2.171   2.941  16.488  0.3355 -1.4210  0.0507
 3274SOL    HW221456   2.099   2.899  16.373  1.1709 -1.3474 -0.1988
 3275SOL     OW21457   4.579   3.558   7.296  0.1036 -0.1444 -0.7698
 3275SOL    HW121458   4.539   3.588   7.378  0.6204 -1.7058  0.0554
 3275SOL    HW221459   4.561   3.465   7.295 -0.4140 -0.0425 -0.7885
 3276SOL     OW21460   3.338   2.495   7.386  0.2725  0.0042  0.1415
 3276SOL    HW121461   3.309   2.568   7.332  0.5520  0.1915  0.2412
 3276SOL    HW221462   3.323   2.418   7.331  1.8247 -0.8826  0.9481
 3277SOL     OW21463   2.094   1.249   5.353  0.2940 -0.0960  0.6198
 3277SOL    HW121464   2.003   1.246   5.323  0.8701  0.0556 -1.1004
 3277SOL    HW221465   2.126   1.164   5.321 -0.3813  0.5752 -1.8291
 3278SOL     OW21466   1.643   0.456   3.281 -0.9030 -0.2126 -0.1374
 3278SOL    HW121467   1.600   0.372   3.262 -2.3295  0.3424  0.6341
 3278SOL    HW221468   1.696   0.438   3.359 -0.7445 -1.3494 -0.5084
 3279SOL     OW21469   2.168   2.562   2.946  1.1381 -0.6030 -0.2174
 3279SOL    HW121470   2.156   2.481   2.996  2.5710  0.4059  1.7349
 3279SOL    HW221471   2.211   2.521   2.872  2.1282 -0.5255  0.3224
 3280SOL     OW21472   3.616   2.602  10.243 -0.1445  0.3525  0.4905
 3280SOL    HW121473   3.600   2.655  10.165  2.7645  1.9929  1.0026
 3280SOL    HW221474   3.627   2.515  10.204  2.0121 -0.0879  2.1008
 3281SOL     OW21475   3.722   3.352   0.214  0.6562  0.0038  0.2118
 3281SOL    HW121476   3.642   3.315   0.177  1.8801 -1.4197 -1.0135
 3281SOL    HW221477   3.694   3.444   0.213  2.7886  0.6638  1.3066
 3282SOL     OW21478   1.095   1.035  10.082 -0.8200 -0.2519  0.8637
 3282SOL    HW121479   1.008   1.051  10.044 -1.6430  0.0102  2.8326
 3282SOL    HW221480   1.082   1.040  10.177 -0.3521  1.8594  0.8094
 3283SOL     OW21481   3.629   4.580  13.803 -0.1019  0.1348  0.3404
 3283SOL    HW121482   3.560   4.620  13.855  0.2963  2.1441 -0.6693
 3283SOL    HW221483   3.712   4.611  13.841 -0.4944 -0.0636  1.3624
 3284SOL     OW21484   1.003   2.112  13.883 -0.2749 -0.5544  0.2374
 3284SOL    HW121485   0.975   2.023  13.861 -1.4792  0.0423 -0.6305
 3284SOL    HW221486   0.975   2.155  13.802 -2.2155  1.1518  1.8092
 3285SOL     OW21487   0.627   0.587  13.461  0.4449  0.2180  0.2372
 3285SOL    HW121488   0.585   0.621  13.382 -0.2014 -1.2334 -0.0508
 3285SOL    HW221489   0.568   0.604  13.534  0.8154  2.6161 -0.0230
 3286SOL     OW21490   1.795   3.390   2.880 -0.3413 -0.1117 -0.1850
 3286SOL    HW121491   1.859   3.426   2.818 -0.3707  0.1448 -0.0618
 3286SOL    HW221492   1.848   3.321   2.920 -1.0895 -0.5176  0.0967
 3287SOL     OW21493   3.184   1.422   5.919 -0.0020 -0.7176  0.1296
 3287SOL    HW121494   3.175   1.517   5.926 -1.2850 -0.6947 -1.9181
 3287SOL    HW221495   3.160   1.399   6.009  0.7717 -0.7381  0.3300
 3288SOL     OW21496   3.710   4.441   2.385 -0.9913 -0.2717  0.5495
 3288SOL    HW121497   3.712   4.510   2.319  1.9259 -0.7736  0.1206
 3288SOL    HW221498   3.797   4.448   2.425 -0.9159 -1.6535  0.6257
 3289SOL     OW21499   1.768   1.341   8.839  0.3780 -0.8153 -0.1253
 3289SOL    HW121500   1.709   1.386   8.778 -0.2580 -1.2327  0.1803
 3289SOL    HW221501   1.705   1.330   8.911  1.2374 -0.1535  0.7291
 3290SOL     OW21502   3.383   2.134  10.286  0.0600  0.0781  0.1296
 3290SOL    HW121503   3.334   2.123  10.205  0.3881 -1.5930  0.1451
 3290SOL    HW221504   3.419   2.045  10.294  2.8500  1.1745 -0.2008
 3291SOL     OW21505   1.104   3.117   0.195 -0.3168 -0.7586 -0.5460
 3291SOL    HW121506   1.081   3.207   0.215  1.2274  0.3081 -3.4416
 3291SOL    HW221507   1.034   3.068   0.239 -0.7299 -2.8851 -3.5449
 3292SOL     OW21508   0.470   2.910   8.956 -0.2535 -0.6222  0.6856
 3292SOL    HW121509   0.383   2.877   8.933  0.1562 -0.4082 -1.2078
 3292SOL    HW221510   0.445   2.935   9.045  3.4705  1.2582  1.1920
 3293SOL     OW21511   4.668   2.707   7.701  0.1827 -0.2327  0.0611
 3293SOL    HW121512   4.700   2.795   7.683 -0.9387 -0.0122 -0.8588
 3293SOL    HW221513   4.606   2.723   7.773  1.1298  1.5204  0.4785
 3294SOL     OW21514   4.459   0.006  14.083 -0.0582 -0.1353  0.2255
 3294SOL    HW121515   4.401   0.081  14.095  1.9486  1.2142  1.4417
 3294SOL    HW221516   4.434   4.703  14.000  1.6516 -3.2876  1.1902
 3295SOL     OW21517   2.732   1.251  14.097  0.0853  0.3362  0.7373
 3295SOL    HW121518   2.770   1.313  14.159 -1.3574 -1.3776  3.3449
 3295SOL    HW221519   2.657   1.299  14.060  0.5112  0.6473  0.2871
 3296SOL     OW21520   1.226   2.094  17.108  0.2333  0.3690 -0.5980
 3296SOL    HW121521   1.228   2.149  17.031  2.9767  0.4684 -0.4551
 3296SOL    HW221522   1.182   2.021  17.064 -1.4231  1.0942 -0.1720
 3297SOL     OW21523   0.207   3.581   1.894 -0.6030  0.1952 -0.3395
 3297SOL    HW121524   0.189   3.574   1.987 -0.0339 -1.2173 -0.3379
 3297SOL    HW221525   0.130   3.534   1.859  0.1366  1.3310 -3.5470
 3298SOL     OW21526   1.163   3.668   4.500 -0.5892 -0.3563 -0.1278
 3298SOL    HW121527   1.090   3.721   4.534 -1.3675 -1.4166 -0.1258
 3298SOL    HW221528   1.107   3.606   4.452  0.2034 -1.3225  0.1855
 3299SOL     OW21529   4.335   4.579   2.618 -0.2285  0.3371  0.0055
 3299SOL    HW121530   4.408   4.621   2.663 -0.8183  0.3973  0.9186
 3299SOL    HW221531   4.358   4.601   2.528  1.5003 -0.7336  0.1737
 3300SOL     OW21532   0.193   3.460   0.474  0.5649  0.2116 -0.3514
 3300SOL    HW121533   0.172   3.470   0.381  1.4508 -0.5245 -0.6245
 3300SOL    HW221534   0.156   3.371   0.475  0.9398  0.0995  3.5942
 3301SOL     OW21535   1.652   1.420  15.466 -0.0351  0.2008  0.0429
 3301SOL    HW121536   1.610   1.417  15.381  0.7948  2.3684 -0.4269
 3301SOL    HW221537   1.648   1.332  15.504  0.0458  0.0882 -0.2156
 3302SOL     OW21538   1.735   3.730   5.382 -0.0938 -0.2818  0.1419
 3302SOL    HW121539   1.656   3.697   5.339 -0.5609 -0.1356  0.8718
 3302SOL    HW221540   1.747   3.809   5.330  0.4701 -0.4210  0.0636
 3303SOL     OW21541   4.354   3.132   5.774 -0.0043 -0.3694  0.5767
 3303SOL    HW121542   4.354   3.185   5.854  1.4481  1.3982 -0.6267
 3303SOL    HW221543   4.420   3.067   5.797  0.8933  0.7402  1.1121
 3304SOL     OW21544   0.918   3.001   7.961 -0.0614  0.7033  0.8678
 3304SOL    HW121545   0.894   2.914   7.992 -1.1218  0.4259 -0.7383
 3304SOL    HW221546   0.985   2.979   7.897  0.2956 -0.5044  1.6567
 3305SOL     OW21547   1.469   2.127   5.297  0.3441 -0.7185  0.0187
 3305SOL    HW121548   1.409   2.129   5.371  1.0769  2.4609  0.5514
 3305SOL    HW221549   1.523   2.052   5.319  1.1957 -0.1748 -0.2207
 3306SOL     OW21550   0.555   3.985   5.070  0.1217 -0.0051  0.2908
 3306SOL    HW121551   0.529   4.076   5.059 -1.4973 -0.9382 -3.6688
 3306SOL    HW221552   0.548   3.978   5.165  1.2783 -2.5098  0.1873
 3307SOL     OW21553   0.542   0.071   7.961 -0.0599 -0.8371  0.3161
 3307SOL    HW121554   0.477   0.131   7.997  0.7102  0.6436 -0.7902
 3307SOL    HW221555   0.536   4.731   8.018 -1.9699 -2.5861 -2.1929
 3308SOL     OW21556   2.223   1.007   9.855  0.2106  0.4133  0.3809
 3308SOL    HW121557   2.295   1.016   9.916  1.4225  2.2591 -1.2975
 3308SOL    HW221558   2.231   1.090   9.808  2.5393 -0.5042 -0.8234
 3309SOL     OW21559   0.032   4.723   3.345 -0.0529 -0.1880  0.0673
 3309SOL    HW121560   4.689   4.696   3.300  0.9741 -0.1701 -1.7309
 3309SOL    HW221561   0.105   4.708   3.285 -0.0270 -0.2509  0.1139
 3310SOL     OW21562   2.110   0.057  17.459  0.3503 -0.5135  0.3487
 3310SOL    HW121563   2.146   0.005  17.531  1.2868  1.6145  1.4048
 3310SOL    HW221564   2.052   0.118  17.504 -0.4143 -1.4063  0.5671
 3311SOL     OW21565   4.674   1.066   4.826  0.5945  0.7441  0.9211
 3311SOL    HW121566   4.582   1.046   4.842  0.4699  0.8504  0.3408
 3311SOL    HW221567   4.691   1.008   4.752 -2.0333 -2.2686  2.6573
 3312SOL     OW21568   2.894   1.680  13.186  0.2871  0.6962  0.2993
 3312SOL    HW121569   2.927   1.612  13.245  0.8630  0.5642 -0.1749
 3312SOL    HW221570   2.935   1.647  13.106 -0.3186 -1.2946  0.8234
 3313SOL     OW21571   1.099   0.339   9.778 -0.3773  0.5887  0.3123
 3313SOL    HW121572   1.094   0.388   9.696 -1.5715 -0.8584 -0.4704
 3313SOL    HW221573   1.019   0.360   9.827  1.2701  1.1224  2.7772
 3314SOL     OW21574   2.283   4.584   7.612  0.2543 -0.1645  0.6126
 3314SOL    HW121575   2.248   4.579   7.701  1.0691  1.6550  1.0392
 3314SOL    HW221576   2.296   4.678   7.599  1.5522 -0.2264  1.4265
 3315SOL     OW21577   1.352   2.632   4.248  0.7888  0.4812  0.1227
 3315SOL    HW121578   1.257   2.639   4.242  0.7112 -0.6854 -0.0956
 3315SOL    HW221579   1.366   2.541   4.276  1.6780  0.0095 -1.8634
 3316SOL     OW21580   3.044   2.023   5.191 -0.2706  0.1202  0.3012
 3316SOL    HW121581   2.957   2.020   5.151  0.4959  1.4911 -1.4832
 3316SOL    HW221582   3.067   1.931   5.178  0.3849  0.1150  1.4669
 3317SOL     OW21583   3.207   1.158   1.953 -0.6439  0.2881  0.0572
 3317SOL    HW121584   3.208   1.182   2.046  1.3054  0.7764 -0.1057
 3317SOL    HW221585   3.202   1.241   1.907  1.7796  0.7686  0.6599
 3318SOL     OW21586   0.709   3.352   6.945 -0.2717  0.0970 -0.5848
 3318SOL    HW121587   0.740   3.442   6.953 -0.1525  0.1213 -1.3363
 3318SOL    HW221588   0.644   3.347   7.016 -1.9595 -1.2160 -2.2188
 3319SOL     OW21589   0.598   4.462   5.575  0.4782  0.0650 -0.2560
 3319SOL    HW121590   0.634   4.539   5.619 -1.1175  1.4310 -1.3087
 3319SOL    HW221591   0.577   4.498   5.489 -1.0750 -0.3902 -0.0601
 3320SOL     OW21592   1.654   1.027   3.440  0.6452 -0.1709 -0.2768
 3320SOL    HW121593   1.671   1.083   3.364 -1.3802 -0.0433 -0.6305
 3320SOL    HW221594   1.683   0.946   3.399 -2.0083 -0.0363 -2.3984
 3321SOL     OW21595   2.018   0.319   3.569  0.1947 -0.0423  0.0860
 3321SOL    HW121596   2.078   0.387   3.598 -1.9050  0.5997  2.9900
 3321SOL    HW221597   2.079   0.257   3.529  0.4416 -0.2382  0.7704
 3322SOL     OW21598   1.872   3.755   9.278  0.3231 -0.4644 -0.0895
 3322SOL    HW121599   1.795   3.810   9.264 -0.0000 -0.8417  0.1961
 3322SOL    HW221600   1.934   3.828   9.283 -1.0251  0.6192  0.5777
 3323SOL     OW21601   3.840   1.682   2.366 -0.2913  0.0443  0.4341
 3323SOL    HW121602   3.802   1.759   2.325  1.1111  0.1958 -0.5705
 3323SOL    HW221603   3.765   1.624   2.350 -0.9709  1.1444 -0.3568
 3324SOL     OW21604   4.546   3.600   2.292 -0.4632  0.0739  0.2786
 3324SOL    HW121605   4.612   3.632   2.230 -1.2151 -0.8898 -1.0257
 3324SOL    HW221606   4.485   3.555   2.234  1.4891 -2.7376  0.4059
 3325SOL     OW21607   0.965   1.289   7.251  0.0162  0.2584  0.0296
 3325SOL    HW121608   1.014   1.327   7.324 -2.1805 -1.2732  2.2988
 3325SOL    HW221609   0.981   1.195   7.254 -1.0870  0.0800  0.3625
 3326SOL     OW21610   3.339   3.680  10.802  0.1920 -0.0347  0.2912
 3326SOL    HW121611   3.393   3.758  10.807  0.1428 -0.1448  2.3900
 3326SOL    HW221612   3.307   3.676  10.892  0.9022  2.6938  0.6508
 3327SOL     OW21613   4.197   3.761   4.420 -0.6340 -0.2558  0.2686
 3327SOL    HW121614   4.235   3.726   4.500  0.6056 -0.6673 -0.4937
 3327SOL    HW221615   4.280   3.778   4.375 -0.3487 -0.1842  0.8276
 3328SOL     OW21616   2.402   4.542   2.604 -0.2916  0.0279  0.2109
 3328SOL    HW121617   2.482   4.508   2.563 -1.3009 -1.8494 -0.2151
 3328SOL    HW221618   2.369   4.599   2.535 -1.5252 -0.0153  0.7623
 3329SOL     OW21619   0.021   0.586  12.898  0.1805 -0.2621  0.4270
 3329SOL    HW121620   4.676   0.637  12.900  0.8991  0.8905 -0.2708
 3329SOL    HW221621   0.078   0.661  12.910  0.0046  0.3547 -2.5972
 3330SOL     OW21622   4.258   0.740   2.055  0.0306 -0.0783 -0.4612
 3330SOL    HW121623   4.188   0.723   2.118 -1.3483  1.0340 -1.6720
 3330SOL    HW221624   4.253   0.654   2.014  2.0812 -0.7129  0.6702
 3331SOL     OW21625   2.312   0.712   0.362  0.4909  0.0831  0.2364
 3331SOL    HW121626   2.243   0.646   0.366  0.5912 -0.0447 -0.1184
 3331SOL    HW221627   2.398   0.674   0.347  0.6712  1.9048 -3.2614
 3332SOL     OW21628   0.521   1.197   9.880  0.0352  0.0028 -0.2348
 3332SOL    HW121629   0.435   1.193   9.920 -0.0335  1.7180 -0.2304
 3332SOL    HW221630   0.538   1.105   9.857  1.6824 -0.1573  1.6290
 3333SOL     OW21631   2.476   1.934  16.686 -0.0372 -0.7210 -0.0376
 3333SOL    HW121632   2.486   1.910  16.778  1.0825  1.8474  0.4892
 3333SOL    HW221633   2.538   2.006  16.687  0.3411 -1.0228 -1.2968
 3334SOL     OW21634   2.854   0.546   7.989 -0.0727  0.2574  0.1188
 3334SOL    HW121635   2.804   0.469   8.015  1.8973 -0.9295  0.3640
 3334SOL    HW221636   2.808   0.618   8.033  0.0593 -1.1142  2.5175
 3335SOL     OW21637   4.419   2.672   4.582 -0.2227 -0.7691  0.2240
 3335SOL    HW121638   4.464   2.741   4.631  0.1257 -2.1481  1.8546
 3335SOL    HW221639   4.459   2.671   4.495  2.2285 -1.7356  1.3652
 3336SOL     OW21640   4.708   2.846   3.061  0.1532  0.5482 -0.1597
 3336SOL    HW121641   0.045   2.792   3.092 -0.3097 -1.7359 -2.9716
 3336SOL    HW221642   4.652   2.848   3.138 -0.4321  0.5565 -0.5829
 3337SOL     OW21643   2.998   1.934   5.697 -0.0454 -0.5633  0.2563
 3337SOL    HW121644   3.002   1.844   5.666  2.2559 -0.5123  0.4213
 3337SOL    HW221645   2.910   1.956   5.666 -0.1523  0.6551  1.4236
 3338SOL     OW21646   2.737   4.338   7.031 -0.9994  0.4499  0.2497
 3338SOL    HW121647   2.704   4.268   6.974 -0.8543 -0.9885  1.9035
 3338SOL    HW221648   2.657   4.350   7.082 -0.3623 -2.3494  1.9209
 3339SOL     OW21649   2.485   4.523   6.305 -0.2125  0.2360 -0.0129
 3339SOL    HW121650   2.545   4.574   6.251  1.1425  0.4085  1.6629
 3339SOL    HW221651   2.517   4.550   6.391 -1.0195 -1.1793  0.7355
 3340SOL     OW21652   0.884   1.544   3.618 -0.0483 -0.0161  0.3242
 3340SOL    HW121653   0.874   1.454   3.649 -1.5524  1.2203  3.4269
 3340SOL    HW221654   0.879   1.586   3.704 -0.6310 -0.9059  0.7275
 3341SOL     OW21655   4.154   4.635   3.063  0.5796  0.0651 -0.4217
 3341SOL    HW121656   4.161   4.677   2.977  0.8844 -0.6897 -0.7625
 3341SOL    HW221657   4.212   4.560   3.053 -1.2206 -1.2966 -0.5298
 3342SOL     OW21658   2.682   1.081   3.783 -0.0053  0.3871 -0.1625
 3342SOL    HW121659   2.629   1.145   3.831 -0.2437 -0.1815  0.3323
 3342SOL    HW221660   2.632   1.069   3.702 -1.9648  0.1683  1.0855
 3343SOL     OW21661   3.301   3.649  17.686 -0.0289 -0.0939  0.0918
 3343SOL    HW121662   3.211   3.617  17.685 -0.7315  1.9579 -0.9538
 3343SOL    HW221663   3.348   3.575  17.647  1.3226  0.3192  0.9248
 3344SOL     OW21664   1.258   3.858   5.458  0.2184  0.0279  0.0999
 3344SOL    HW121665   1.345   3.891   5.438  0.0523 -0.6075 -1.6989
 3344SOL    HW221666   1.275   3.766   5.476  0.0486  0.2681  1.4552
 3345SOL     OW21667   2.984   0.835   7.775 -0.0982 -0.1695  0.1647
 3345SOL    HW121668   2.982   0.921   7.734  3.8966 -0.2059 -0.0875
 3345SOL    HW221669   3.033   0.773   7.721  0.2871 -0.2581  0.6055
 3346SOL     OW21670   1.103   3.126  13.704 -0.2037 -0.8722  0.4178
 3346SOL    HW121671   1.169   3.191  13.728  0.1633 -0.0029 -2.9780
 3346SOL    HW221672   1.159   3.049  13.708 -0.9831 -1.3474  2.1889
 3347SOL     OW21673   0.360   0.615   7.899 -0.4571 -0.5122 -0.3631
 3347SOL    HW121674   0.371   0.564   7.979  0.6448 -1.1126 -0.9005
 3347SOL    HW221675   0.330   0.540   7.848  0.8693 -0.3633 -1.3375
 3348SOL     OW21676   1.316   4.230   6.127  0.1892  0.6555 -0.0364
 3348SOL    HW121677   1.383   4.259   6.189  0.7622 -1.3452  0.2854
 3348SOL    HW221678   1.362   4.159   6.082  1.3095  1.2267  0.2121
 3349SOL     OW21679   4.092   1.514   4.408  0.2735 -0.2521 -0.3063
 3349SOL    HW121680   4.091   1.596   4.360  0.8157  0.6277  1.1893
 3349SOL    HW221681   4.178   1.518   4.450 -0.8907 -0.4083  2.1087
 3350SOL     OW21682   1.766   1.396   7.058 -0.0957  0.1754  0.2405
 3350SOL    HW121683   1.823   1.402   7.135 -1.8291 -2.7603  1.7619
 3350SOL    HW221684   1.711   1.318   7.064  1.0176 -0.6640 -0.4839
 3351SOL     OW21685   3.905   2.732   4.582 -0.3660  0.6516  0.2374
 3351SOL    HW121686   3.870   2.649   4.615 -2.1112  1.7013  1.0098
 3351SOL    HW221687   3.992   2.726   4.622  0.4881 -1.4342 -1.9004
 3352SOL     OW21688   2.635   2.663   5.334 -0.1600  0.1695 -0.1026
 3352SOL    HW121689   2.614   2.573   5.308 -1.1420  0.2525  0.3927
 3352SOL    HW221690   2.723   2.671   5.297  0.8365 -3.1015  1.5442
 3353SOL     OW21691   1.285   4.735   0.379  0.0311  0.1461  0.2487
 3353SOL    HW121692   1.381   0.003   0.377  0.1491 -2.9214 -0.0412
 3353SOL    HW221693   1.257   0.088   0.402 -0.8921 -0.1184  0.1615
 3354SOL     OW21694   4.176   2.308  15.759 -0.2696  0.6510  0.3953
 3354SOL    HW121695   4.253   2.312  15.702 -1.7167 -1.3716 -1.6952
 3354SOL    HW221696   4.202   2.233  15.813 -1.2605  0.7663  1.0321
 3355SOL     OW21697   0.292   3.572  15.052  0.3385  0.0068  0.2220
 3355SOL    HW121698   0.381   3.607  15.053  0.3202 -0.0089  1.4704
 3355SOL    HW221699   0.274   3.546  14.961  2.1923 -3.7135  0.9325
 3356SOL     OW21700   0.053   4.466   4.307  0.4750  0.2842  0.2881
 3356SOL    HW121701   0.021   4.542   4.260 -1.2282 -1.8256 -1.9496
 3356SOL    HW221702   0.075   4.506   4.392  1.5527 -2.9729  1.5556
 3357SOL     OW21703   2.797   1.432   4.218  0.0252  0.0952  0.3245
 3357SOL    HW121704   2.878   1.384   4.203  0.0628  1.1796 -2.7735
 3357SOL    HW221705   2.831   1.521   4.226 -1.9457  0.6921  2.1254
 3358SOL     OW21706   2.715   4.338   1.065 -0.2302  0.0896 -0.2990
 3358SOL    HW121707   2.773   4.330   1.141 -1.0070  1.1369  0.4012
 3358SOL    HW221708   2.767   4.308   0.990  0.6705 -2.5184  1.3520
 3359SOL     OW21709   2.734   4.586   5.390 -0.2495  0.5019  0.3033
 3359SOL    HW121710   2.760   4.582   5.482  0.7440  1.4764  0.0666
 3359SOL    HW221711   2.720   4.492   5.375 -2.0610  0.7659  0.3784
 3360SOL     OW21712   1.375   4.626  10.090 -0.5775  0.8060  0.1298
 3360SOL    HW121713   1.302   4.650  10.034 -0.8047  0.9361  0.4852
 3360SOL    HW221714   1.417   4.712  10.094 -0.0870  0.6406 -1.4926
 3361SOL     OW21715   3.596   3.303  15.067 -0.2397 -0.5079  0.0745
 3361SOL    HW121716   3.618   3.287  15.159  1.4202 -1.5920 -0.5032
 3361SOL    HW221717   3.686   3.325  15.043 -0.5151  0.2013 -0.3109
 3362SOL     OW21718   1.323   4.249   8.668 -0.2591  0.1491 -0.3174
 3362SOL    HW121719   1.300   4.286   8.582  1.0301  0.3817 -0.5669
 3362SOL    HW221720   1.417   4.261   8.679 -0.2743  0.8984 -0.9888
 3363SOL     OW21721   2.899   3.407   1.866  0.9163  1.3146 -0.2043
 3363SOL    HW121722   2.982   3.404   1.817 -0.0568 -3.5243 -1.4806
 3363SOL    HW221723   2.928   3.354   1.939  0.6733 -0.5476 -1.4644
 3364SOL     OW21724   4.637   3.685   2.067  0.0885 -0.3535  0.6773
 3364SOL    HW121725   4.620   3.755   2.004  3.6749  1.3874  1.6610
 3364SOL    HW221726   4.578   3.625   2.021 -1.5701  1.8454 -0.0611
 3365SOL     OW21727   2.035   3.120   1.403 -0.3762 -0.1599 -1.0523
 3365SOL    HW121728   2.099   3.072   1.350  1.2195  2.5582 -1.5560
 3365SOL    HW221729   2.052   3.081   1.489 -1.5497  0.1721 -0.6744
 3366SOL     OW21730   0.424   0.557   2.426 -0.3706  0.4067  0.2189
 3366SOL    HW121731   0.447   0.504   2.503  1.0447  1.7299  0.7135
 3366SOL    HW221732   0.481   0.522   2.358 -2.0364  0.1270 -1.0333
 3367SOL     OW21733   4.398   3.214   2.649 -0.4406 -0.6394  0.1531
 3367SOL    HW121734   4.445   3.243   2.727 -2.0275 -0.7203  1.1401
 3367SOL    HW221735   4.439   3.262   2.577 -2.3801  1.9298  0.7463
 3368SOL     OW21736   1.207   4.039   7.955 -0.2715  0.3298  0.2281
 3368SOL    HW121737   1.147   3.977   7.914  0.3484 -0.0467 -0.1222
 3368SOL    HW221738   1.274   3.974   7.978 -0.3873  1.2832  3.3165
 3369SOL     OW21739   1.110   0.998   6.902  0.6924  0.0984  0.1586
 3369SOL    HW121740   1.060   0.950   6.837  1.2540 -0.5364  0.1918
 3369SOL    HW221741   1.098   1.092   6.886  2.1273 -0.3029 -3.1821
 3370SOL     OW21742   1.522   1.611  11.027  0.2745  0.2399  0.4077
 3370SOL    HW121743   1.578   1.537  11.048 -0.2367 -0.5495 -1.0314
 3370SOL    HW221744   1.523   1.603  10.932  1.4551  0.8109  0.3838
 3371SOL     OW21745   0.976   2.547  15.801  0.2950  0.4435  0.4447
 3371SOL    HW121746   0.896   2.504  15.830  0.3565 -0.3046 -0.5159
 3371SOL    HW221747   0.957   2.629  15.847  1.3383  0.5141  0.7553
 3372SOL     OW21748   1.492   1.585   8.897 -1.1417  0.4144 -0.0029
 3372SOL    HW121749   1.551   1.600   8.823  0.7628  0.1088  1.4574
 3372SOL    HW221750   1.416   1.557   8.846 -1.0117  0.9141 -0.4738
 3373SOL     OW21751   4.012   2.540   1.871  0.5490  0.2206 -0.1189
 3373SOL    HW121752   3.948   2.474   1.897 -0.9836  1.1924 -1.4261
 3373SOL    HW221753   4.023   2.514   1.780 -0.4098  1.4262 -0.5805
 3374SOL     OW21754   1.271   0.108   4.628 -0.2920  0.1280  0.1354
 3374SOL    HW121755   1.219   0.040   4.584  0.2801 -0.6647  0.6839
 3374SOL    HW221756   1.337   0.123   4.560  0.7506 -0.1796  1.0854
 3375SOL     OW21757   4.374   0.418   6.460  0.1154  0.0483 -0.3435
 3375SOL    HW121758   4.326   0.435   6.540 -4.9719 -0.5984 -3.2911
 3375SOL    HW221759   4.462   0.439   6.493  0.0539 -0.4853  0.1659
 3376SOL     OW21760   1.069   1.898   6.840  0.6815 -0.4650  0.0632
 3376SOL    HW121761   1.128   1.873   6.911  0.4661 -0.7334  0.1510
 3376SOL    HW221762   0.994   1.841   6.859 -1.1387  0.9439 -2.8138
 3377SOL     OW21763   3.952   2.486   3.502 -0.3330 -0.3494  0.1989
 3377SOL    HW121764   3.958   2.394   3.476  1.6793 -0.0118 -0.5322
 3377SOL    HW221765   3.994   2.536   3.432  0.5394  0.0973  1.0448
 3378SOL     OW21766   0.722   1.584   2.311 -0.2151 -0.5010  0.0683
 3378SOL    HW121767   0.801   1.634   2.334 -0.8288  1.4554 -2.1096
 3378SOL    HW221768   0.750   1.551   2.226  2.3443  2.3738 -0.2485
 3379SOL     OW21769   0.533   2.118   3.043  0.2018  0.2302 -0.6032
 3379SOL    HW121770   0.444   2.102   3.011  0.5877 -0.3216 -1.4021
 3379SOL    HW221771   0.602   2.064   3.005  0.6470  1.4300 -1.5106
 3380SOL     OW21772   1.685   1.119   4.443 -0.5369  0.0325  0.7184
 3380SOL    HW121773   1.695   1.183   4.372  3.5613 -2.1521 -0.6386
 3380SOL    HW221774   1.645   1.050   4.390 -0.6081  0.9454 -0.4124
 3381SOL     OW21775   1.249   1.981   8.364 -0.1119  0.5715  0.1756
 3381SOL    HW121776   1.285   2.015   8.282  0.6908  1.5805  0.9398
 3381SOL    HW221777   1.317   2.003   8.427 -1.4919 -1.0446  2.2278
 3382SOL     OW21778   4.138   0.120  17.126  0.7777 -0.5382 -0.3762
 3382SOL    HW121779   4.049   0.086  17.138  0.1061  1.3695  0.0456
 3382SOL    HW221780   4.128   0.179  17.052 -0.7892 -1.7189 -1.1056
 3383SOL     OW21781   2.199   1.658   9.502  0.1942  0.0621 -0.9203
 3383SOL    HW121782   2.109   1.632   9.522  0.2416 -1.3792 -2.6141
 3383SOL    HW221783   2.234   1.573   9.529  0.9078  0.2432 -1.2795
 3384SOL     OW21784   2.312   1.578   7.230  0.6135  0.5484  0.3681
 3384SOL    HW121785   2.269   1.532   7.158 -1.6845  1.7248  0.9862
 3384SOL    HW221786   2.292   1.661   7.187  1.3170  0.8219  0.5787
 3385SOL     OW21787   2.185   2.248   8.291 -0.6386 -0.3145  0.4258
 3385SOL    HW121788   2.274   2.279   8.309 -1.3874  3.5402 -2.5012
 3385SOL    HW221789   2.198   2.153   8.294 -0.1980 -0.2147  1.5256
 3386SOL     OW21790   3.307   1.387  10.866 -0.1850 -0.2596 -0.3068
 3386SOL    HW121791   3.271   1.323  10.928  0.0509  0.1800  0.2792
 3386SOL    HW221792   3.356   1.327  10.810 -0.5217 -0.3591 -0.4934
 3387SOL     OW21793   2.477   1.338   1.257  0.5226  0.2187  0.1222
 3387SOL    HW121794   2.406   1.371   1.312  1.2769  0.3319  1.0410
 3387SOL    HW221795   2.462   1.245   1.240 -2.6761  0.9088 -0.7927
 3388SOL     OW21796   1.081   2.892   3.322  0.0021  0.3608  0.0046
 3388SOL    HW121797   1.128   2.975   3.317 -1.3730  1.0870 -1.2206
 3388SOL    HW221798   1.152   2.832   3.302  0.1276  0.3313  0.5442
 3389SOL     OW21799   3.144   3.802   1.675  0.5482 -0.1515  0.4102
 3389SOL    HW121800   3.228   3.756   1.685  1.3967  1.3539  0.2595
 3389SOL    HW221801   3.097   3.747   1.612  2.5233 -0.9918 -0.3583
 3390SOL     OW21802   0.441   3.744   3.785  0.2576 -0.1955  0.3229
 3390SOL    HW121803   0.422   3.756   3.692  2.4315  1.6256  0.1120
 3390SOL    HW221804   0.430   3.835   3.811 -0.3320 -0.4109  0.8377
 3391SOL     OW21805   4.573   3.053   5.237 -0.0829 -0.4275 -0.3266
 3391SOL    HW121806   4.519   3.129   5.259 -0.4930 -1.0176  0.7379
 3391SOL    HW221807   4.657   3.081   5.273  0.3791 -0.5455 -1.2931
 3392SOL     OW21808   1.973   0.208  10.540  0.2706 -0.6536  0.4455
 3392SOL    HW121809   2.030   0.131  10.541 -0.7701 -1.4489 -0.7574
 3392SOL    HW221810   1.994   0.255  10.621  2.3752 -0.7145 -0.0741
 3393SOL     OW21811   1.411   4.594   8.713  0.0796 -0.2221 -0.1179
 3393SOL    HW121812   1.405   4.690   8.718  0.4484 -0.2410  0.6480
 3393SOL    HW221813   1.435   4.576   8.621  1.8249  2.2753 -0.1557
 3394SOL     OW21814   0.317   2.674   8.391 -0.6809 -0.1436  0.0612
 3394SOL    HW121815   0.352   2.594   8.431 -0.8341  0.2242  0.9339
 3394SOL    HW221816   0.238   2.690   8.443 -0.9646  0.3579 -0.5204
 3395SOL     OW21817   1.899   0.450   7.975 -0.5292  0.6125 -0.0501
 3395SOL    HW121818   1.983   0.496   7.974 -0.0130 -0.3034  0.8283
 3395SOL    HW221819   1.861   0.488   8.055 -3.8146 -2.1904 -0.3158
 3396SOL     OW21820   1.245   0.522  15.100  0.0584  0.5383 -0.2544
 3396SOL    HW121821   1.206   0.595  15.052  0.0050 -0.7159 -2.1522
 3396SOL    HW221822   1.193   0.449  15.067 -2.8024  2.1412  0.7946
 3397SOL     OW21823   1.689   3.777  15.187  0.0334  0.1529  0.3211
 3397SOL    HW121824   1.712   3.740  15.102  1.6768  2.4647 -0.2405
 3397SOL    HW221825   1.751   3.850  15.184 -0.3209  0.4311 -0.3100
 3398SOL     OW21826   3.376   2.216   7.908  0.0235 -0.3128  0.3820
 3398SOL    HW121827   3.299   2.167   7.938  1.2170 -0.7675  2.6813
 3398SOL    HW221828   3.332   2.301   7.907  1.1319  0.2932  3.1340
 3399SOL     OW21829   3.188   0.903   4.576  0.0997  0.5189  0.1778
 3399SOL    HW121830   3.105   0.855   4.573 -1.1261  2.6570  0.1018
 3399SOL    HW221831   3.202   0.911   4.671  0.5249  0.4290  0.1198
 3400SOL     OW21832   1.749   0.245  10.981 -0.0003  0.1848  0.3918
 3400SOL    HW121833   1.767   0.339  10.977 -2.3615  0.4375 -3.9143
 3400SOL    HW221834   1.756   0.224  11.074  1.5645  0.5070  0.3451
 3401SOL     OW21835   1.700   3.424   4.775  0.3505 -0.3063  0.1589
 3401SOL    HW121836   1.736   3.348   4.728  2.4882 -1.0424  3.0169
 3401SOL    HW221837   1.688   3.483   4.701  1.4266  2.0388  1.8708
 3402SOL     OW21838   1.583   1.402  12.472  0.6950  0.0236  0.1585
 3402SOL    HW121839   1.634   1.349  12.534 -2.3740 -1.0724  1.7349
 3402SOL    HW221840   1.497   1.384  12.511  0.8122  0.5101  0.6417
 3403SOL     OW21841   1.480   2.717   6.277  0.6185 -0.0064  0.0175
 3403SOL    HW121842   1.386   2.702   6.289  0.2846  2.3331  0.4831
 3403SOL    HW221843   1.514   2.703   6.365 -0.0042  1.8751  0.5566
 3404SOL     OW21844   2.505   0.420   4.408  0.4552  0.9953  0.0187
 3404SOL    HW121845   2.418   0.396   4.441  1.3104  1.0883  2.3149
 3404SOL    HW221846   2.552   0.341   4.433 -1.2476 -0.1759 -0.4664
 3405SOL     OW21847   2.643   0.600  15.973  0.2617 -0.5015  0.5692
 3405SOL    HW121848   2.607   0.626  16.057  2.1582 -0.6690  1.4269
 3405SOL    HW221849   2.725   0.562  16.006  1.1842  1.9325  1.0418
 3406SOL     OW21850   1.710   3.441   6.133  0.2398 -0.2286 -0.0433
 3406SOL    HW121851   1.710   3.432   6.228  0.4406  1.5587  0.1356
 3406SOL    HW221852   1.736   3.352   6.110  1.9995  0.5180 -0.8703
 3407SOL     OW21853   3.656   3.957   6.129 -0.1284  0.2028  0.5679
 3407SOL    HW121854   3.664   3.880   6.185 -0.2745  0.0750  0.4116
 3407SOL    HW221855   3.562   3.952   6.109  0.6791 -0.3122 -3.1139
 3408SOL     OW21856   0.529   4.174   3.617  0.2045 -0.1214  0.3286
 3408SOL    HW121857   0.553   4.114   3.688  1.2521 -1.4942 -1.1549
 3408SOL    HW221858   0.436   4.155   3.603 -0.4857  1.9695  2.1236
 3409SOL     OW21859   4.603   2.352   8.392 -0.2701  0.3947  0.1861
 3409SOL    HW121860   4.529   2.314   8.345  0.9713  1.2924 -2.5343
 3409SOL    HW221861   4.628   2.271   8.435  2.8650  1.0716 -0.3480
 3410SOL     OW21862   3.664   0.751   7.946  0.0894 -0.0144 -0.4872
 3410SOL    HW121863   3.586   0.697   7.937 -0.9378  1.2670  0.5553
 3410SOL    HW221864   3.738   0.696   7.921  2.3018  1.6778  2.2412
 3411SOL     OW21865   3.599   3.963   1.672  0.5071 -0.0762 -0.0007
 3411SOL    HW121866   3.599   3.972   1.576  0.1243 -1.2520 -0.1187
 3411SOL    HW221867   3.651   4.038   1.699  0.8785 -0.3115 -0.0700
 3412SOL     OW21868   0.882   4.644   2.276 -0.3872 -0.1866 -0.4737
 3412SOL    HW121869   0.854   4.618   2.364  0.7263 -0.0758 -0.0831
 3412SOL    HW221870   0.806   4.651   2.219  0.3046  2.7735 -1.0134
 3413SOL     OW21871   4.251   3.673   1.990  0.0250 -0.2763 -0.4905
 3413SOL    HW121872   4.277   3.760   2.020 -0.3183 -0.2097 -0.3900
 3413SOL    HW221873   4.220   3.635   2.072 -1.1616 -0.2962 -0.9420
 3414SOL     OW21874   0.066   1.838  10.764  0.4296 -0.0648 -0.1571
 3414SOL    HW121875   0.157   1.807  10.767  0.9359  1.5113  0.6531
 3414SOL    HW221876   0.057   1.890  10.684  0.6174  1.5056  0.8584
 3415SOL     OW21877   4.015   2.226   1.707  0.2195  0.0049  1.1305
 3415SOL    HW121878   4.088   2.220   1.645  0.5041 -1.0386  1.5782
 3415SOL    HW221879   3.976   2.139   1.701  0.8263 -0.1402 -0.7686
 3416SOL     OW21880   3.760   3.445   6.596  0.4580  0.6749 -0.1309
 3416SOL    HW121881   3.764   3.521   6.538 -2.1129  0.3335 -0.7723
 3416SOL    HW221882   3.749   3.378   6.529  0.4354 -0.0030  0.5500
 3417SOL     OW21883   4.099   2.038   4.094 -0.1609  0.5593 -0.4772
 3417SOL    HW121884   4.080   2.006   4.005  0.3567 -1.5349  0.1555
 3417SOL    HW221885   4.182   2.084   4.088  0.5295 -0.7013 -0.6882
 3418SOL     OW21886   2.544   0.367  10.412  0.0273 -0.4391 -0.4112
 3418SOL    HW121887   2.625   0.413  10.431 -0.0207 -0.3254 -0.4766
 3418SOL    HW221888   2.558   0.277  10.439 -1.9889  0.0836  2.4042
 3419SOL     OW21889   0.919   0.219   2.839 -0.0784  0.4283  0.0120
 3419SOL    HW121890   0.904   0.169   2.919  2.0477 -0.6826 -0.2895
 3419SOL    HW221891   0.864   0.295   2.855 -0.9651 -0.4742  1.2915
 3420SOL     OW21892   2.565   0.397   4.106 -0.4774  0.1642  0.3945
 3420SOL    HW121893   2.575   0.404   4.201 -0.4624  1.3613  0.3099
 3420SOL    HW221894   2.643   0.344   4.087 -0.7785  0.5112 -1.8299
 3421SOL     OW21895   0.292   0.149  12.627 -0.2061 -0.6288 -0.2330
 3421SOL    HW121896   0.206   0.135  12.666 -0.1041  1.3375  0.6840
 3421SOL    HW221897   0.262   0.168  12.538  0.0387  2.9828  0.4742
 3422SOL     OW21898   0.719   4.142   6.376  0.1685 -0.3235 -0.1768
 3422SOL    HW121899   0.738   4.215   6.318 -2.6583 -0.4100 -1.2454
 3422SOL    HW221900   0.803   4.098   6.369 -0.1391 -1.0233  0.4867
 3423SOL     OW21901   2.335   3.598  17.553 -0.1383 -0.1412 -0.1275
 3423SOL    HW121902   2.253   3.616  17.600 -1.7148 -3.8085 -1.4332
 3423SOL    HW221903   2.403   3.643  17.603  0.6176  0.9772 -2.1678
 3424SOL     OW21904   1.198   4.593   7.658 -0.1117  0.2206  0.4000
 3424SOL    HW121905   1.194   4.519   7.598 -0.6500 -0.2288  0.9864
 3424SOL    HW221906   1.158   4.556   7.737  0.2582  1.2967  1.0910
 3425SOL     OW21907   1.478   2.977   5.143  0.6677  0.3745 -0.3767
 3425SOL    HW121908   1.472   2.901   5.084  2.4072 -0.6480  0.7547
 3425SOL    HW221909   1.562   2.960   5.186  0.1376 -1.5482 -0.0737
 3426SOL     OW21910   3.589   2.598  16.136  0.6026  0.1796  0.1947
 3426SOL    HW121911   3.641   2.656  16.081  1.0802 -0.6249 -0.2064
 3426SOL    HW221912   3.500   2.610  16.104  1.4297 -0.5043 -2.3759
 3427SOL     OW21913   2.013   3.962  14.561 -0.3839  0.3194  0.1631
 3427SOL    HW121914   2.022   3.962  14.466  1.6655 -0.9403  0.3749
 3427SOL    HW221915   2.090   3.911  14.585  1.4090  2.4497 -1.0626
 3428SOL     OW21916   1.517   3.367   8.159 -0.1607 -0.2032  0.4994
 3428SOL    HW121917   1.598   3.318   8.151  0.5869  0.9762  0.8308
 3428SOL    HW221918   1.451   3.325   8.104  1.7978 -1.0034 -1.2273
 3429SOL     OW21919   3.661   0.734  15.084 -0.1126 -0.0097 -0.4290
 3429SOL    HW121920   3.627   0.673  15.149 -3.1128  1.1029 -0.9676
 3429SOL    HW221921   3.593   0.768  15.027 -1.5639 -0.4511  1.0414
 3430SOL     OW21922   4.075   0.091   7.749 -0.3190  0.3746  0.3215
 3430SOL    HW121923   4.015   0.089   7.675  1.8812  1.9604 -1.5011
 3430SOL    HW221924   4.155   0.078   7.700 -0.2248 -1.4003  0.9627
 3431SOL     OW21925   3.146   3.004   4.368  0.0119 -0.2157 -0.3805
 3431SOL    HW121926   3.222   3.011   4.426  0.4232 -0.0736 -0.9375
 3431SOL    HW221927   3.099   2.939   4.419 -0.2085  1.9308  2.1431
 3432SOL     OW21928   2.092   2.640  11.725 -0.1953  0.4280  0.2053
 3432SOL    HW121929   2.045   2.599  11.653  0.4561 -0.0798  0.0771
 3432SOL    HW221930   2.181   2.647  11.691  0.3453  2.2706  1.9398
 3433SOL     OW21931   1.825   2.402   6.521 -0.4285 -0.6685  0.7211
 3433SOL    HW121932   1.800   2.361   6.438 -0.5902 -0.0320  0.4551
 3433SOL    HW221933   1.749   2.379   6.574 -1.4681 -1.6655 -1.2144
 3434SOL     OW21934   0.981   2.551   0.421  0.2955 -0.8911  0.2655
 3434SOL    HW121935   0.985   2.505   0.504  2.1592  0.9285  1.1607
 3434SOL    HW221936   0.896   2.595   0.425 -0.1420 -1.5375 -1.6868
 3435SOL     OW21937   3.373   4.574   1.861  0.0851  0.4035 -0.3548
 3435SOL    HW121938   3.418   4.648   1.818  2.5903  0.2294  1.9408
 3435SOL    HW221939   3.431   4.564   1.936 -0.4441 -0.8829 -0.1357
 3436SOL     OW21940   3.515   0.643   6.111 -0.6598 -0.3074 -0.0523
 3436SOL    HW121941   3.419   0.649   6.114 -0.7425 -1.7104  0.2503
 3436SOL    HW221942   3.533   0.601   6.195  0.6087  0.5752  0.1111
 3437SOL     OW21943   1.491   2.125   9.998  0.3012 -0.1517 -0.3106
 3437SOL    HW121944   1.567   2.178  10.020 -1.6194  1.7739  1.6313
 3437SOL    HW221945   1.499   2.062  10.070  0.6189 -2.0842 -2.0352
 3438SOL     OW21946   1.348   0.125   3.025 -0.6425 -1.1131 -0.1808
 3438SOL    HW121947   1.387   0.175   3.097 -0.9899  2.0761 -2.1714
 3438SOL    HW221948   1.263   0.095   3.060 -1.2338 -0.5941 -1.1748
 3439SOL     OW21949   0.076   3.057  14.997 -1.1014 -0.3028 -0.3549
 3439SOL    HW121950   0.054   3.146  15.022  3.2006 -0.1881  3.0347
 3439SOL    HW221951   4.729   3.012  15.013 -1.5307  0.6187 -0.0393
 3440SOL     OW21952   4.004   2.477   7.481 -0.2387  0.2712  0.0390
 3440SOL    HW121953   3.956   2.560   7.484 -0.5427  0.1165 -0.5497
 3440SOL    HW221954   4.068   2.497   7.549 -0.3515  4.2805 -1.0066
 3441SOL     OW21955   1.627   1.849   8.267 -0.2056  0.3405  0.7607
 3441SOL    HW121956   1.654   1.775   8.212 -0.0399  0.5719  0.5304
 3441SOL    HW221957   1.560   1.878   8.205  0.0755  0.3543  0.4596
 3442SOL     OW21958   3.263   4.225   2.240  0.5449  0.5440 -0.1902
 3442SOL    HW121959   3.323   4.191   2.173  0.5481 -0.6520  0.4165
 3442SOL    HW221960   3.193   4.160   2.251  1.1681 -0.4461 -2.1249
 3443SOL     OW21961   1.447   0.889   5.576 -0.4470 -0.1606  0.4548
 3443SOL    HW121962   1.354   0.878   5.596 -0.5470 -0.4855 -0.1673
 3443SOL    HW221963   1.459   0.984   5.579 -0.0995 -0.1981  0.1963
 3444SOL     OW21964   3.770   1.700   9.387 -0.2168  0.2675  0.0718
 3444SOL    HW121965   3.678   1.710   9.414 -0.4968  1.3247 -1.2576
 3444SOL    HW221966   3.820   1.731   9.462  0.5403 -1.2289  0.1834
 3445SOL     OW21967   3.328   3.561   5.127 -0.3689  0.3258 -0.4942
 3445SOL    HW121968   3.341   3.501   5.200 -2.2655  0.0752 -0.3664
 3445SOL    HW221969   3.248   3.526   5.089 -2.2419  0.3687  3.4932
 3446SOL     OW21970   2.306   0.998  16.696 -0.1174  0.4322 -0.7176
 3446SOL    HW121971   2.236   1.034  16.642 -1.8457 -1.1800  0.4828
 3446SOL    HW221972   2.260   0.915  16.705  0.9237  0.1817  2.4023
 3447SOL     OW21973   3.669   2.831   0.664  0.6986  0.1886  0.9492
 3447SOL    HW121974   3.702   2.781   0.589  0.2110  1.5308 -0.1628
 3447SOL    HW221975   3.723   2.822   0.742  2.1679  0.2111 -0.0599
 3448SOL     OW21976   3.465   4.256   1.311 -0.2830  0.4467 -0.0079
 3448SOL    HW121977   3.493   4.290   1.396  0.6040 -2.2135  0.7671
 3448SOL    HW221978   3.510   4.313   1.248 -0.2639  0.6455  0.1835
 3449SOL     OW21979   3.839   4.725   2.771  0.2608 -0.2697 -0.3580
 3449SOL    HW121980   3.868   0.007   2.860  1.7196  0.0531 -0.8867
 3449SOL    HW221981   3.928   4.711   2.737  0.6203  0.3824  0.3137
 3450SOL     OW21982   3.851   0.137  10.385 -0.1183 -0.2172 -0.3680
 3450SOL    HW121983   3.895   0.155  10.468  0.6222  0.8084 -0.9841
 3450SOL    HW221984   3.892   0.050  10.378 -0.5303 -0.2256 -2.5814
 3451SOL     OW21985   3.638   2.880   3.432  0.0058  0.2310  0.0039
 3451SOL    HW121986   3.570   2.873   3.366  0.0104 -0.5438  0.0767
 3451SOL    HW221987   3.633   2.971   3.459 -0.9570  1.5586 -4.7651
 3452SOL     OW21988   4.073   1.766   4.285  0.1540  0.2027  0.0097
 3452SOL    HW121989   4.138   1.799   4.223 -0.9092  1.0389 -0.6533
 3452SOL    HW221990   4.025   1.846   4.306  0.4521  0.8775 -1.9443
 3453SOL     OW21991   3.996   2.654   0.567  0.4789 -0.0149  0.0575
 3453SOL    HW121992   4.079   2.638   0.612 -0.5877 -2.3536  1.1598
 3453SOL    HW221993   3.930   2.681   0.631  0.5106  2.4840 -0.9406
 3454SOL     OW21994   0.175   2.573  12.709  0.2349 -0.6704  0.2614
 3454SOL    HW121995   0.150   2.482  12.725 -1.6921 -0.4586 -1.4754
 3454SOL    HW221996   0.148   2.616  12.790 -1.0882 -2.2078  0.6437
 3455SOL     OW21997   1.751   3.479   3.600  0.0544 -0.3445 -0.0832
 3455SOL    HW121998   1.768   3.486   3.506  1.1625  1.9469  0.2923
 3455SOL    HW221999   1.672   3.425   3.598 -0.5435  0.5005  0.6915
 3456SOL     OW22000   2.733   4.119   5.861  0.0773 -0.0828 -0.5062
 3456SOL    HW122001   2.791   4.164   5.800  1.6990  0.1072  1.1553
 3456SOL    HW222002   2.654   4.167   5.838  0.2297 -0.3642 -1.5822
 3457SOL     OW22003   2.780   4.335   3.060  0.7491  0.0082  0.1737
 3457SOL    HW122004   2.748   4.384   3.135  0.1457  0.6203 -0.4858
 3457SOL    HW222005   2.873   4.323   3.082  1.2107  1.6963 -0.8739
 3458SOL     OW22006   3.557   3.165   1.926 -0.4798  0.1647  0.1435
 3458SOL    HW122007   3.612   3.243   1.916 -1.7402  1.1401  0.6994
 3458SOL    HW222008   3.584   3.122   1.846  1.2420 -0.8555  1.2802
 3459SOL     OW22009   1.420   1.953   3.531 -0.3388 -0.1472 -0.1346
 3459SOL    HW122010   1.389   2.003   3.607 -0.5956 -2.7760  1.5156
 3459SOL    HW222011   1.514   1.963   3.549 -0.0863 -1.7794 -0.5136
 3460SOL     OW22012   0.725   3.993  12.814 -0.1403  0.4594 -0.0582
 3460SOL    HW122013   0.751   4.027  12.728  0.8987  1.2284  0.5697
 3460SOL    HW222014   0.802   3.936  12.820 -0.8110 -0.3723  0.6663
 3461SOL     OW22015   0.045   3.097  13.081  0.8429 -0.9048  0.4346
 3461SOL    HW122016   0.058   3.079  13.174 -1.5381 -3.2385  0.3153
 3461SOL    HW222017   4.698   3.052  13.065 -0.8188  1.7948  1.5932
 3462SOL     OW22018   1.427   1.749   6.559  0.0218  1.4279  0.3434
 3462SOL    HW122019   1.502   1.722   6.506  0.8004  1.8835  1.2178
 3462SOL    HW222020   1.457   1.716   6.644  0.4726 -1.5542 -0.9459
 3463SOL     OW22021   4.092   3.985   5.287  0.0294  0.4668  0.1631
 3463SOL    HW122022   4.144   3.904   5.289  2.5471  2.1031  0.6070
 3463SOL    HW222023   4.044   3.973   5.370 -0.0371 -2.9112 -0.3603
 3464SOL     OW22024   1.337   1.020  12.681 -0.1659 -0.1375  0.2235
 3464SOL    HW122025   1.301   1.089  12.625 -1.4720  0.5535  1.9192
 3464SOL    HW222026   1.300   0.948  12.630  0.4881  0.3845 -0.9900
 3465SOL     OW22027   2.960   1.004   2.249  0.1933  0.3274  0.0204
 3465SOL    HW122028   3.053   0.983   2.241  0.3273  2.4159 -3.9807
 3465SOL    HW222029   2.917   0.924   2.218  1.0406 -0.5078  1.0087
 3466SOL     OW22030   0.471   2.354   5.846 -0.2588  0.2406 -0.0914
 3466SOL    HW122031   0.438   2.266   5.863 -0.4576  0.3276 -0.0195
 3466SOL    HW222032   0.391   2.405   5.862 -0.4765  0.4119 -1.7310
 3467SOL     OW22033   0.412   3.080   5.109 -0.5818  0.0472  0.1249
 3467SOL    HW122034   0.329   3.127   5.100 -0.4302  0.0392 -1.3152
 3467SOL    HW222035   0.377   2.991   5.109  0.1796 -0.2552  1.0170
 3468SOL     OW22036   2.978   2.008   8.714 -0.1728 -0.5233 -0.0516
 3468SOL    HW122037   3.041   1.998   8.785 -1.7197  0.7742  1.5133
 3468SOL    HW222038   3.043   2.010   8.645 -1.3372 -0.6203 -1.1510
 3469SOL     OW22039   1.558   2.649   8.287 -0.1286 -0.0202 -0.3556
 3469SOL    HW122040   1.560   2.583   8.356 -0.2007  0.6541  0.2905
 3469SOL    HW222041   1.464   2.666   8.285 -0.0850  0.4872  2.0645
 3470SOL     OW22042   1.503   4.399   9.581 -0.2365  0.8348 -0.2094
 3470SOL    HW122043   1.466   4.350   9.655 -0.4471 -0.0363 -0.8888
 3470SOL    HW222044   1.477   4.345   9.506 -0.8527 -3.8703  3.3759
 3471SOL     OW22045   1.278   1.921   3.130  0.4916 -0.3055  0.0848
 3471SOL    HW122046   1.247   1.995   3.183 -1.1509 -1.2366  0.4095
 3471SOL    HW222047   1.195   1.873   3.135 -0.0395  0.5115 -0.7328
 3472SOL     OW22048   0.331   3.922  12.520  0.0640  0.1367 -0.0935
 3472SOL    HW122049   0.412   3.890  12.480 -0.5077 -0.2222 -0.9694
 3472SOL    HW222050   0.356   3.905  12.610  1.7594 -3.2164 -1.1927
 3473SOL     OW22051   0.474   4.550   6.575 -0.1495  0.0673  0.4221
 3473SOL    HW122052   0.409   4.574   6.509 -1.8746 -2.6005  1.1399
 3473SOL    HW222053   0.483   4.457   6.557 -1.8827 -0.1903  0.9254
 3474SOL     OW22054   3.597   1.467  17.134  0.4202  0.0236  0.5341
 3474SOL    HW122055   3.675   1.450  17.082  0.7718 -0.0130  1.0651
 3474SOL    HW222056   3.599   1.397  17.200 -1.7937  0.4100  0.9919
 3475SOL     OW22057   1.448   4.013   7.389  0.1535 -0.7848  0.1145
 3475SOL    HW122058   1.448   4.046   7.479  1.2987 -0.4541  0.0048
 3475SOL    HW222059   1.543   4.016   7.374  0.3412  0.1668  1.4390
 3476SOL     OW22060   1.090   2.909   9.033  0.1065 -0.6831  0.1766
 3476SOL    HW122061   1.090   2.827   9.081  2.8959  0.0248  1.4024
 3476SOL    HW222062   1.162   2.945   9.085  1.0339 -2.2134 -0.0669
 3477SOL     OW22063   3.955   1.814   3.641 -0.3370 -0.5444 -0.0693
 3477SOL    HW122064   3.983   1.831   3.551  1.8972  1.1419  0.9284
 3477SOL    HW222065   3.909   1.732   3.626  0.6649 -1.4002  1.6336
 3478SOL     OW22066   0.047   0.883   4.989 -0.1224 -0.1527  0.5394
 3478SOL    HW122067   0.004   0.952   4.939  0.0685  1.3302  2.4038
 3478SOL    HW222068   0.140   0.899   4.974 -0.1989  1.4438  1.7659
 3479SOL     OW22069   3.664   2.789  13.765  0.2167  0.3203  0.0365
 3479SOL    HW122070   3.735   2.728  13.786  0.1512  0.0966 -0.3888
 3479SOL    HW222071   3.628   2.804  13.852  1.2296  0.5331  0.4178
 3480SOL     OW22072   0.318   3.556  12.096  0.7905  0.6377 -0.0052
 3480SOL    HW122073   0.227   3.529  12.092  0.2148  2.7860 -1.2874
 3480SOL    HW222074   0.358   3.473  12.123 -1.5827  0.1498  2.1082
 3481SOL     OW22075   0.109   4.508  10.340 -0.3029 -0.2214 -0.2427
 3481SOL    HW122076   0.114   4.492  10.246  1.6960  1.4338 -0.4235
 3481SOL    HW222077   0.200   4.524  10.365  0.7143 -0.4240 -3.8797
 3482SOL     OW22078   3.209   3.396   0.167  0.1547 -0.1163 -0.3408
 3482SOL    HW122079   3.161   3.323   0.206 -0.7985  1.1412  0.8448
 3482SOL    HW222080   3.130   3.425   0.123  1.4674  1.4237 -1.6710
 3483SOL     OW22081   4.388   1.710   4.443  0.1865 -0.1646  0.2916
 3483SOL    HW122082   4.357   1.793   4.407  2.9708  1.0146  0.5487
 3483SOL    HW222083   4.481   1.732   4.446  0.0302  0.3685  1.1257
 3484SOL     OW22084   0.915   0.143  17.212 -0.1529 -0.3920  0.4828
 3484SOL    HW122085   0.993   0.145  17.268 -1.1488 -1.5967  1.8951
 3484SOL    HW222086   0.901   0.238  17.214 -1.1867 -0.5284 -0.5318
 3485SOL     OW22087   2.213   1.825  11.068  0.0664  0.9110 -0.3939
 3485SOL    HW122088   2.202   1.797  10.977  1.0775 -0.0883 -0.2225
 3485SOL    HW222089   2.121   1.844  11.086 -0.7334 -2.8326 -0.5718
 3486SOL     OW22090   0.503   1.458   7.211  0.3731 -0.0508 -0.3627
 3486SOL    HW122091   0.448   1.528   7.246 -0.9843 -1.3361  0.0733
 3486SOL    HW222092   0.579   1.453   7.270  0.6899  2.1913 -0.5886
 3487SOL     OW22093   4.518   3.984   3.103 -0.1761 -0.1428  0.2136
 3487SOL    HW122094   4.459   4.009   3.173 -1.2418 -1.1049 -0.3475
 3487SOL    HW222095   4.517   3.888   3.105 -0.7243 -0.1266  0.5412
 3488SOL     OW22096   2.763   3.031   3.386  0.2851  0.8809  0.2549
 3488SOL    HW122097   2.703   2.968   3.347  1.0608  1.2717 -1.5711
 3488SOL    HW222098   2.850   2.994   3.369 -0.2509 -0.9365  1.5407
 3489SOL     OW22099   4.424   0.701  10.515 -0.0922  0.0160 -0.6081
 3489SOL    HW122100   4.377   0.631  10.559 -0.7842 -0.0356 -1.4269
 3489SOL    HW222101   4.356   0.769  10.519 -0.1547 -0.0893 -0.0038
 3490SOL     OW22102   0.495   1.202  13.152  0.0165 -0.0346  0.0612
 3490SOL    HW122103   0.560   1.188  13.083  0.6414  2.1189  0.2096
 3490SOL    HW222104   0.556   1.194  13.226 -0.1552  1.6398  0.3847
 3491SOL     OW22105   3.912   3.782   2.886 -0.0561  0.1186 -0.3832
 3491SOL    HW122106   3.863   3.820   2.813 -1.3762  0.1307  0.5049
 3491SOL    HW222107   3.917   3.694   2.848  0.2870 -0.9420  2.1624
 3492SOL     OW22108   3.667   3.113   7.225 -1.1997  0.6994  0.3003
 3492SOL    HW122109   3.655   3.099   7.319 -0.9630 -0.6599  0.1243
 3492SOL    HW222110   3.758   3.140   7.219 -0.8334  0.1033  3.0618
 3493SOL     OW22111   3.084   2.877  10.193 -0.0022  0.1315 -0.3321
 3493SOL    HW122112   3.044   2.887  10.279  0.7389 -1.0053  0.1293
 3493SOL    HW222113   3.174   2.896  10.217  0.2686 -0.5914 -0.7933
 3494SOL     OW22114   3.029   0.639  17.329  0.2325  0.1898 -0.0877
 3494SOL    HW122115   3.067   0.581  17.395  0.3089  0.2551 -0.0740
 3494SOL    HW222116   2.938   0.630  17.358 -0.3027 -0.0198 -1.8505
 3495SOL     OW22117   2.104   0.604   3.880  0.0352 -0.2257  0.1835
 3495SOL    HW122118   2.074   0.653   3.804 -0.6690 -0.2201  0.4674
 3495SOL    HW222119   2.195   0.596   3.851  0.3149  1.3970  0.5927
 3496SOL     OW22120   2.810   1.865   0.815  0.0200  0.1490 -0.2742
 3496SOL    HW122121   2.739   1.895   0.871 -0.5081 -0.4730 -0.6224
 3496SOL    HW222122   2.789   1.930   0.748 -3.1369 -0.0613  0.5227
 3497SOL     OW22123   1.409   4.056   7.654  0.1302  0.1503  0.2911
 3497SOL    HW122124   1.473   3.992   7.685 -0.8000 -1.2573 -0.7512
 3497SOL    HW222125   1.415   4.131   7.714  1.0378  0.1906  0.1526
 3498SOL     OW22126   0.229   4.590   7.127 -0.9516  0.7204 -0.2795
 3498SOL    HW122127   0.222   4.645   7.049  0.2873  1.1556 -0.0800
 3498SOL    HW222128   0.216   4.501   7.096 -0.5911  1.1226 -1.5739
 3499SOL     OW22129   3.708   2.013   4.096 -0.2886 -0.1679  0.0800
 3499SOL    HW122130   3.633   2.057   4.056  0.1328  0.1906 -0.3160
 3499SOL    HW222131   3.740   1.962   4.022  1.4875  0.6659  0.2735
 3500SOL     OW22132   2.269   0.505   9.793 -0.1444  0.3034  0.1263
 3500SOL    HW122133   2.357   0.468   9.790  0.4074  1.7647 -1.1687
 3500SOL    HW222134   2.254   0.512   9.888 -0.8493 -1.4656  0.1448
 3501SOL     OW22135   0.942   1.815   9.004  0.5448 -0.3309 -0.1575
 3501SOL    HW122136   0.983   1.755   9.065 -1.1632 -1.7214 -0.3811
 3501SOL    HW222137   1.015   1.849   8.953  0.7859 -0.4152  0.1314
 3502SOL     OW22138   3.396   0.171   6.816 -0.0943 -0.7651 -0.6441
 3502SOL    HW122139   3.478   0.139   6.853 -1.8012 -2.9395  1.2302
 3502SOL    HW222140   3.424   0.244   6.761  2.3289  0.4706  2.2496
 3503SOL     OW22141   3.583   0.142   4.224  0.3347 -0.8176 -0.2719
 3503SOL    HW122142   3.656   0.177   4.275 -0.7985 -0.7129  1.2656
 3503SOL    HW222143   3.552   0.225   4.188  2.4215 -1.1333 -2.7507
 3504SOL     OW22144   1.852   2.904   7.430 -0.1323  0.2454 -0.0014
 3504SOL    HW122145   1.762   2.928   7.410  0.4299  1.4720 -1.0617
 3504SOL    HW222146   1.848   2.925   7.523  0.3762  2.0149 -0.3859
 3505SOL     OW22147   3.545   1.791   3.171 -0.1136 -0.4290 -0.0465
 3505SOL    HW122148   3.616   1.824   3.225 -0.5775  0.3471  0.0919
 3505SOL    HW222149   3.558   1.831   3.085  2.3086 -0.4843  0.3077
 3506SOL     OW22150   1.022   3.512   5.995  0.3801 -0.3637  0.0566
 3506SOL    HW122151   0.977   3.506   5.910  0.3736 -0.4895  0.0685
 3506SOL    HW222152   1.044   3.605   5.994  1.1081 -0.5278  2.5392
 3507SOL     OW22153   4.239   0.205   1.701  0.1769 -0.4773  0.3065
 3507SOL    HW122154   4.308   0.270   1.710  0.8564 -1.0042 -1.0874
 3507SOL    HW222155   4.287   0.146   1.642 -0.0126 -1.3028  0.9807
 3508SOL     OW22156   2.413   0.358   7.387  0.3704 -0.1068  0.2095
 3508SOL    HW122157   2.352   0.327   7.454 -0.1499  0.4241 -0.0130
 3508SOL    HW222158   2.410   0.290   7.320 -1.1135  0.5563 -0.4063
 3509SOL     OW22159   0.434   0.182  12.865 -0.2802 -0.7962  0.3943
 3509SOL    HW122160   0.396   0.170  12.778 -0.3231  0.1126  0.2961
 3509SOL    HW222161   0.359   0.192  12.924 -0.4027  0.8512 -0.0612
 3510SOL     OW22162   0.579   0.476  10.466 -0.0935  0.2037  0.2411
 3510SOL    HW122163   0.520   0.543  10.499  2.7029  2.7348  0.1422
 3510SOL    HW222164   0.665   0.518  10.453 -0.4536  1.5756  2.3881
 3511SOL     OW22165   2.319   1.270   2.373 -0.0319  0.4796 -0.2246
 3511SOL    HW122166   2.242   1.287   2.428  0.1381 -0.6223  0.3479
 3511SOL    HW222167   2.315   1.175   2.373  0.4245  0.4588 -0.7764
 3512SOL     OW22168   0.068   2.370   5.336 -0.2708 -0.1279  0.2687
 3512SOL    HW122169   0.086   2.462   5.357 -1.4688 -0.3578  2.3018
 3512SOL    HW222170   4.734   2.389   5.274  0.2983  2.7879  0.5150
 3513SOL     OW22171   0.236   0.706   6.713 -0.5267  0.2775 -0.6919
 3513SOL    HW122172   0.187   0.783   6.682 -0.8653  0.8033  1.1368
 3513SOL    HW222173   0.158   0.656   6.736  0.0597  0.2136  1.1615
 3514SOL     OW22174   3.190   2.992  16.975  0.1943  0.3131  0.1529
 3514SOL    HW122175   3.272   2.967  16.930 -0.3049 -2.0280  0.5198
 3514SOL    HW222176   3.211   3.079  17.009 -2.7648  0.5570  1.2997
 3515SOL     OW22177   0.177   0.519   1.667 -0.0598 -0.3162  0.2496
 3515SOL    HW122178   0.234   0.475   1.729 -0.1169  0.9839  1.2430
 3515SOL    HW222179   0.126   0.442   1.644 -0.7332  0.1091  0.2842
 3516SOL     OW22180   2.555   2.497   3.867 -0.3365 -0.1041  0.7659
 3516SOL    HW122181   2.583   2.515   3.957  1.0285 -3.7206  1.0807
 3516SOL    HW222182   2.620   2.438   3.829 -1.5883 -2.8135  2.7688
 3517SOL     OW22183   0.570   0.310   5.150  0.4415 -0.0676  0.4355
 3517SOL    HW122184   0.523   0.358   5.219  1.6077  1.2024  0.3543
 3517SOL    HW222185   0.516   0.337   5.076  0.2665  0.3124  0.7017
 3518SOL     OW22186   2.788   0.716   1.803  0.3314 -0.2331 -0.2382
 3518SOL    HW122187   2.761   0.769   1.878  1.9775 -1.0943  0.9548
 3518SOL    HW222188   2.824   0.637   1.844  2.2348  0.5276 -0.4646
 3519SOL     OW22189   3.021   4.578  13.719  0.7373 -0.0398  0.3831
 3519SOL    HW122190   2.956   4.513  13.746 -0.0216 -0.1894 -1.7943
 3519SOL    HW222191   3.032   4.568  13.625 -0.7948 -0.4606  0.2480
 3520SOL     OW22192   4.199   3.660  12.348  0.9462  0.0990 -0.2263
 3520SOL    HW122193   4.184   3.741  12.300  0.5057 -0.8866 -1.7526
 3520SOL    HW222194   4.277   3.677  12.402 -1.3824  2.2876  2.4185
 3521SOL     OW22195   0.208   3.008   4.633  0.4558 -0.0382 -0.1320
 3521SOL    HW122196   0.207   3.012   4.537 -0.2970 -1.1838 -0.1612
 3521SOL    HW222197   0.125   3.055   4.645  0.7473  0.5286 -0.2878
 3522SOL     OW22198   1.452   4.389  17.438 -0.1997 -0.1622  0.4346
 3522SOL    HW122199   1.545   4.408  17.434 -0.2032  0.0987  1.4699
 3522SOL    HW222200   1.423   4.391  17.347 -2.4666 -2.2943  1.0870
 3523SOL     OW22201   4.080   2.673   1.261  0.4026 -0.2648  0.1791
 3523SOL    HW122202   4.057   2.580   1.269  2.0685 -0.7578 -0.8617
 3523SOL    HW222203   4.172   2.680   1.284  0.1377  2.8709  0.2344
 3524SOL     OW22204   3.198   4.124   7.399  0.7561 -0.1846  0.2055
 3524SOL    HW122205   3.287   4.155   7.383  0.0857 -0.5069 -4.2891
 3524SOL    HW222206   3.163   4.209   7.426 -2.5333 -1.6657  0.5284
 3525SOL     OW22207   3.727   0.685   1.709 -0.5394 -0.5642  0.0476
 3525SOL    HW122208   3.684   0.732   1.638  2.9147  0.1291 -1.5653
 3525SOL    HW222209   3.808   0.651   1.671 -0.1378  0.1916  0.2303
 3526SOL     OW22210   2.405   3.554   1.364 -0.1295  0.2446 -0.2541
 3526SOL    HW122211   2.439   3.572   1.276  1.1735 -0.2800  0.1417
 3526SOL    HW222212   2.332   3.496   1.342  0.4884 -0.3596 -0.7167
 3527SOL     OW22213   1.366   2.863  17.488 -0.5432 -0.1531  0.2907
 3527SOL    HW122214   1.389   2.787  17.541 -0.8151  2.5686  4.2706
 3527SOL    HW222215   1.318   2.825  17.415  1.5711 -1.0423 -0.6374
 3528SOL     OW22216   2.981   3.050   1.080 -0.0021 -0.0910 -0.5674
 3528SOL    HW122217   3.050   3.114   1.098 -0.7401  0.5598 -0.0555
 3528SOL    HW222218   2.962   3.018   1.168 -0.1058  1.2259 -0.1190
 3529SOL     OW22219   3.586   1.562   6.959 -0.0174  0.3452  0.0851
 3529SOL    HW122220   3.517   1.509   6.999  0.2635 -0.7082 -0.8138
 3529SOL    HW222221   3.584   1.538   6.866 -0.7441 -0.7858  0.3944
 3530SOL     OW22222   4.342   1.735   6.979 -0.1550  0.6024  0.2070
 3530SOL    HW122223   4.265   1.781   7.013  0.0616  1.2665 -0.1849
 3530SOL    HW222224   4.384   1.801   6.923  2.0964  0.0961  1.2677
 3531SOL     OW22225   4.181   2.430   6.087 -0.1260  0.2876 -0.0243
 3531SOL    HW122226   4.095   2.468   6.106  0.4092 -0.0194  2.9512
 3531SOL    HW222227   4.162   2.336   6.091  2.2738 -0.1962  0.0735
 3532SOL     OW22228   3.662   2.085   5.543  0.1285 -0.3962 -0.5368
 3532SOL    HW122229   3.650   2.053   5.633  2.2407 -0.2471 -0.2046
 3532SOL    HW222230   3.575   2.121   5.523 -0.1955 -1.0861 -0.3685
 3533SOL     OW22231   3.308   3.501  10.246 -0.2686  0.7398  0.0861
 3533SOL    HW122232   3.376   3.565  10.267  3.3346 -2.8774 -0.6480
 3533SOL    HW222233   3.331   3.429  10.305  1.7392  2.0837  0.9562
 3534SOL     OW22234   1.154   0.853   9.389 -0.0187  0.1607 -0.0801
 3534SOL    HW122235   1.059   0.849   9.389  0.0738 -1.9703  0.7157
 3534SOL    HW222236   1.160   0.943   9.357  1.6670 -0.6155 -1.9308
 3535SOL     OW22237   2.925   1.868   9.031  0.3715 -0.0924 -0.2402
 3535SOL    HW122238   2.914   1.871   9.126 -0.6850 -0.4931 -0.3443
 3535SOL    HW222239   2.986   1.941   9.018 -0.2962  0.8069  1.7201
 3536SOL     OW22240   4.724   4.163   5.086  0.0781 -0.7970 -0.5654
 3536SOL    HW122241   0.072   4.188   5.047  0.2449 -0.5447 -0.0534
 3536SOL    HW222242   4.675   4.232   5.042 -0.5514 -0.4300  0.7258
 3537SOL     OW22243   4.037   1.047   8.576 -0.1698 -0.1563 -0.4502
 3537SOL    HW122244   3.961   0.989   8.589  1.0573 -1.9648 -1.3249
 3537SOL    HW222245   4.102   0.979   8.591  0.1708  0.0996 -0.7566
 3538SOL     OW22246   1.340   3.221   8.764  0.6857 -0.4366  0.4836
 3538SOL    HW122247   1.271   3.159   8.788  0.5779  0.1636  1.7215
 3538SOL    HW222248   1.367   3.197   8.675 -1.8098  0.5026 -0.5100
 3539SOL     OW22249   2.583   3.584  13.435  0.0734 -0.3051  0.0272
 3539SOL    HW122250   2.547   3.541  13.357  0.8006 -0.2006 -0.3710
 3539SOL    HW222251   2.583   3.675  13.404 -2.5855  0.2156  1.5790
 3540SOL     OW22252   3.757   4.450   8.099  0.3855 -0.2610  0.6807
 3540SOL    HW122253   3.743   4.483   8.188  0.4246 -2.2468  1.4273
 3540SOL    HW222254   3.852   4.457   8.090  0.1647  2.2034  0.4248
 3541SOL     OW22255   1.491   0.920  12.878 -0.1064  0.1384  0.2151
 3541SOL    HW122256   1.429   0.881  12.940  0.8076  0.9286  1.6321
 3541SOL    HW222257   1.435   0.944  12.804 -0.1503 -1.6878 -0.3464
 3542SOL     OW22258   1.542   4.442  13.785  0.2314 -0.3146 -0.2896
 3542SOL    HW122259   1.511   4.460  13.696  1.0176 -0.7766 -0.6527
 3542SOL    HW222260   1.532   4.346  13.780  1.8539 -0.5278  0.5832
 3543SOL     OW22261   2.298   4.581   1.975  0.4750  0.5919  0.5837
 3543SOL    HW122262   2.303   4.676   1.970  0.4429  0.5917  0.5530
 3543SOL    HW222263   2.218   4.563   2.025  1.4291  2.1557  2.6857
 3544SOL     OW22264   3.019   1.149   6.505 -0.3376  0.3229 -0.2245
 3544SOL    HW122265   2.931   1.124   6.479  0.0775  0.2834 -1.6119
 3544SOL    HW222266   3.070   1.117   6.431 -0.4118 -0.7916  0.2096
 3545SOL     OW22267   4.606   2.252  14.924 -0.2690  0.0451  0.5734
 3545SOL    HW122268   4.528   2.197  14.923 -1.1698  1.3118  0.6683
 3545SOL    HW222269   4.564   2.331  14.890 -0.2996 -0.3984 -0.4047
 3546SOL     OW22270   4.581   2.052   5.950  0.3227  0.2889  0.2619
 3546SOL    HW122271   4.508   1.990   5.949  2.1372 -1.8667  0.7423
 3546SOL    HW222272   4.547   2.111   6.017 -0.3021  0.3292 -0.0871
 3547SOL     OW22273   2.078   0.298   6.611 -0.2451  0.3726 -0.6261
 3547SOL    HW122274   2.064   0.220   6.557  2.2260  1.2645 -2.5196
 3547SOL    HW222275   1.990   0.334   6.626 -0.7190 -0.3018 -1.7220
 3548SOL     OW22276   4.310   2.206  14.317  0.1760 -0.0797  0.2584
 3548SOL    HW122277   4.281   2.188  14.407 -0.0754  1.2007  0.4435
 3548SOL    HW222278   4.234   2.253  14.282  2.1614  0.9299 -2.6931
 3549SOL     OW22279   0.967   2.245   2.509 -0.5086 -0.4227  0.9278
 3549SOL    HW122280   1.027   2.192   2.562  0.7406  1.2928  1.2073
 3549SOL    HW222281   0.963   2.183   2.435 -1.2402 -0.3475  0.9049
 3550SOL     OW22282   2.162   3.505   7.521 -0.1256 -0.0288  0.5927
 3550SOL    HW122283   2.247   3.489   7.561 -0.4405  1.6250  1.9081
 3550SOL    HW222284   2.122   3.422   7.547 -1.0115 -0.0905 -0.9656
 3551SOL     OW22285   3.498   2.565   6.614 -0.4621 -0.1159  0.2389
 3551SOL    HW122286   3.483   2.555   6.520 -1.7100 -1.7762  0.6164
 3551SOL    HW222287   3.593   2.575   6.609 -0.3751 -0.3138  1.4903
 3552SOL     OW22288   0.255   2.400   2.389  0.0752 -0.1939 -0.2452
 3552SOL    HW122289   0.324   2.467   2.393  1.3225 -1.5296  0.5394
 3552SOL    HW222290   0.188   2.450   2.342  0.1226  0.4257  0.3439
 3553SOL     OW22291   4.640   3.556  14.168 -0.1065 -0.5070 -0.3604
 3553SOL    HW122292   4.727   3.596  14.169  0.7741 -2.4323  0.9402
 3553SOL    HW222293   4.588   3.619  14.217  1.4455 -1.0605  2.0350
 3554SOL     OW22294   0.932   1.604   6.748  0.2688 -0.1065 -0.0247
 3554SOL    HW122295   1.005   1.546   6.727  0.2582  0.2462 -1.0410
 3554SOL    HW222296   0.947   1.616   6.841 -2.0969 -1.7108  0.5574
 3555SOL     OW22297   2.042   0.760   1.861  0.2445  0.0463 -0.8413
 3555SOL    HW122298   1.979   0.750   1.932  1.5898 -3.0552 -0.0777
 3555SOL    HW222299   2.122   0.746   1.911 -1.0437  1.5395  1.6321
 3556SOL     OW22300   3.213   3.041   2.230  0.1332  1.1130 -0.0995
 3556SOL    HW122301   3.260   3.104   2.176  1.6125 -0.7781 -1.0417
 3556SOL    HW222302   3.121   3.050   2.205 -0.0729 -0.5055  0.0713
 3557SOL     OW22303   3.444   2.165  16.066 -0.1966  0.0894  0.4178
 3557SOL    HW122304   3.492   2.083  16.052  1.2756  0.9061  0.6131
 3557SOL    HW222305   3.470   2.212  15.986 -1.4543  1.1962  0.6752
 3558SOL     OW22306   1.691   4.040   8.297 -0.1603  0.3938 -0.0950
 3558SOL    HW122307   1.610   4.000   8.267  0.1851 -1.1269  1.0239
 3558SOL    HW222308   1.669   4.043   8.390  1.3944 -1.2980  0.3159
 3559SOL     OW22309   4.379   4.268   6.566  0.8548  0.0020  0.4379
 3559SOL    HW122310   4.407   4.253   6.476 -0.9043 -0.8729  0.0250
 3559SOL    HW222311   4.405   4.359   6.573  0.5610  0.2446 -1.8582
 3560SOL     OW22312   3.262   3.717   4.004  0.2462 -0.4592  0.0190
 3560SOL    HW122313   3.355   3.702   3.987  0.5178 -0.4731  1.5753
 3560SOL    HW222314   3.251   3.799   3.957 -2.4759 -1.5019 -1.1967
 3561SOL     OW22315   2.096   2.333  16.281 -0.7043 -0.1735  0.1148
 3561SOL    HW122316   2.072   2.300  16.195 -3.1625  3.0087 -0.4571
 3561SOL    HW222317   2.175   2.383  16.261  0.4677 -1.5732  1.2950
 3562SOL     OW22318   1.872   2.909   4.139  0.1554 -0.1764  0.1050
 3562SOL    HW122319   1.850   2.861   4.059 -0.5166  1.6940 -0.8404
 3562SOL    HW222320   1.785   2.949   4.146  1.0831  2.0651 -1.2940
 3563SOL     OW22321   1.310   0.105   0.950 -0.2029 -0.9993 -0.1232
 3563SOL    HW122322   1.316   0.185   1.002 -1.1336 -0.3721 -0.9721
 3563SOL    HW222323   1.215   0.089   0.952 -0.4902  0.7646 -0.1115
 3564SOL     OW22324   1.270   1.813   1.557  0.3923 -0.0274 -0.5096
 3564SOL    HW122325   1.198   1.813   1.619  1.8788 -1.8258  1.2445
 3564SOL    HW222326   1.345   1.806   1.615  0.2728 -0.1905 -0.3764
 3565SOL     OW22327   1.400   4.519   2.384  0.1352 -0.2890 -0.3852
 3565SOL    HW122328   1.394   4.503   2.478 -1.7696 -0.0622 -0.4665
 3565SOL    HW222329   1.317   4.566   2.377 -0.1385 -0.7414 -0.2249
 3566SOL     OW22330   0.094   2.568   2.229  0.2896 -0.1042 -0.0130
 3566SOL    HW122331   0.125   2.580   2.139  2.4154  0.3995  0.7827
 3566SOL    HW222332   0.050   2.646   2.261 -0.0614 -0.2256 -0.1973
 3567SOL     OW22333   3.647   1.966  11.870 -0.2395 -0.1576  0.5288
 3567SOL    HW122334   3.653   1.911  11.792 -2.0239  0.2557  0.0956
 3567SOL    HW222335   3.691   1.906  11.931 -1.7497 -0.4411  1.3479
 3568SOL     OW22336   2.339   0.082   8.524  0.4281  0.3264 -0.3531
 3568SOL    HW122337   2.284   0.146   8.569  0.0547 -0.5240  0.3961
 3568SOL    HW222338   2.419   0.135   8.517  0.5995 -0.2141 -2.5622
 3569SOL     OW22339   2.739   1.026  13.882 -0.3102 -0.6814  0.0861
 3569SOL    HW122340   2.682   1.102  13.877 -1.8914 -1.9806 -1.7819
 3569SOL    HW222341   2.684   0.963  13.836 -0.6044 -1.1059  1.0147
 3570SOL     OW22342   0.186   0.789   8.199  0.2365 -0.0793 -0.8104
 3570SOL    HW122343   0.182   0.857   8.132 -0.9071  0.6747  0.0339
 3570SOL    HW222344   0.144   0.713   8.157 -0.6411  0.2538 -0.5260
 3571SOL     OW22345   2.290   1.094  15.940 -0.0326  0.2089  0.0809
 3571SOL    HW122346   2.194   1.088  15.942  0.0481 -0.8107  0.5988
 3571SOL    HW222347   2.310   1.103  15.847  0.7479 -2.6728 -0.0184
 3572SOL     OW22348   3.153   2.439   4.778  0.6700 -1.0383  0.0730
 3572SOL    HW122349   3.185   2.391   4.701  0.5129 -0.8660 -0.1003
 3572SOL    HW222350   3.123   2.520   4.736  1.8950 -0.6617 -0.0685
 3573SOL     OW22351   0.565   4.310   2.988 -0.0083  0.2166  0.0047
 3573SOL    HW122352   0.501   4.378   2.969 -1.6848 -1.2744  0.2754
 3573SOL    HW222353   0.578   4.274   2.900 -0.8157  0.0470 -0.0473
 3574SOL     OW22354   1.848   4.591   1.345 -0.4940  0.2356 -0.7099
 3574SOL    HW122355   1.848   4.651   1.420  2.3141  1.5438 -1.7542
 3574SOL    HW222356   1.942   4.586   1.331 -0.6042  1.6613 -1.9307
 3575SOL     OW22357   3.243   2.911   2.766 -0.3920  0.6119  0.6922
 3575SOL    HW122358   3.214   2.878   2.681 -0.4066  1.1380  0.4928
 3575SOL    HW222359   3.303   2.978   2.736  1.3226 -1.9482 -1.5728
 3576SOL     OW22360   2.705   4.353  12.367 -0.2877 -0.2030  0.3703
 3576SOL    HW122361   2.736   4.262  12.371  0.0196 -0.1580 -0.8378
 3576SOL    HW222362   2.788   4.395  12.389 -0.6377  1.7886 -2.2304
 3577SOL     OW22363   3.317   3.090   5.601  0.0811  0.4260 -0.0442
 3577SOL    HW122364   3.363   3.163   5.644 -0.5305 -0.4699  2.0903
 3577SOL    HW222365   3.230   3.130   5.602  0.2755  0.9086 -2.5643
 3578SOL     OW22366   1.214   0.491   5.685 -0.1276  0.1417 -0.8976
 3578SOL    HW122367   1.167   0.544   5.622 -0.5583  0.7363 -0.0781
 3578SOL    HW222368   1.251   0.551   5.750 -1.0965 -0.9165  0.6450
 3579SOL     OW22369   0.819   1.666   1.868 -0.0597  0.6473 -0.3204
 3579SOL    HW122370   0.863   1.751   1.862 -0.6295  0.7814 -2.4015
 3579SOL    HW222371   0.888   1.618   1.821  0.7157  0.3463  1.0988
 3580SOL     OW22372   1.487   1.650   2.100 -0.0683  0.3782  0.2165
 3580SOL    HW122373   1.575   1.652   2.061 -0.9333 -1.1659 -1.8175
 3580SOL    HW222374   1.456   1.740   2.111  0.7679  0.7671 -0.6044
 3581SOL     OW22375   4.243   4.344   0.161  0.1375  0.2947  0.2348
 3581SOL    HW122376   4.322   4.383   0.199  1.0372 -0.3207 -1.0334
 3581SOL    HW222377   4.220   4.413   0.099 -0.8581  1.4717  1.8827
 3582SOL     OW22378   2.801   4.572   5.662  0.2225 -0.2061  0.5436
 3582SOL    HW122379   2.721   4.605   5.703  0.3293  0.5235  0.1664
 3582SOL    HW222380   2.863   4.636   5.695 -0.1094  0.3994 -0.0101
 3583SOL     OW22381   1.397   3.312   2.278 -0.3541 -0.5248  0.2227
 3583SOL    HW122382   1.425   3.250   2.211  2.6305  0.3687  0.6094
 3583SOL    HW222383   1.312   3.342   2.246 -0.7978  1.3812  3.1924
 3584SOL     OW22384   0.574   4.526   4.922 -0.0053 -0.4406  0.1533
 3584SOL    HW122385   0.486   4.532   4.884  0.7629  0.7339 -1.4601
 3584SOL    HW222386   0.562   4.581   4.999 -0.8385 -1.0143  0.4351
 3585SOL     OW22387   0.570   1.079  15.453 -0.1921  0.2192 -0.5898
 3585SOL    HW122388   0.536   1.165  15.477  1.4451  0.2502  1.5229
 3585SOL    HW222389   0.518   1.037  15.521  2.4464 -1.8663  0.1130
 3586SOL     OW22390   0.893   3.373  15.478  0.5812  0.1996  0.0636
 3586SOL    HW122391   0.956   3.413  15.417  0.0651  0.0647 -0.5580
 3586SOL    HW222392   0.944   3.295  15.500 -1.3756 -1.0216  0.2331
 3587SOL     OW22393   2.488   3.001  12.613  0.7243  0.4454  0.1697
 3587SOL    HW122394   2.503   3.025  12.704  0.7980  0.3380  0.1853
 3587SOL    HW222395   2.522   3.079  12.570  0.2853  0.4434 -0.1755
 3588SOL     OW22396   1.982   4.296  17.398 -0.3354  0.2520 -0.2326
 3588SOL    HW122397   2.034   4.254  17.467  2.3373  2.1795 -1.0564
 3588SOL    HW222398   2.060   4.326  17.351 -0.5348 -0.1667 -0.8411
 3589SOL     OW22399   4.235   0.372   7.569  0.2655 -0.3877 -0.7061
 3589SOL    HW122400   4.145   0.355   7.542 -0.5279  0.4618  1.4085
 3589SOL    HW222401   4.267   0.436   7.505 -0.0125  0.0297 -0.4336
 3590SOL     OW22402   1.010   1.949   3.516  0.1075  0.1638  0.1390
 3590SOL    HW122403   0.997   1.950   3.610  1.1808  1.4347  0.2666
 3590SOL    HW222404   0.922   1.940   3.478  0.8366 -0.5577 -1.4211
 3591SOL     OW22405   1.686   2.150   9.391 -0.2224 -0.0731 -0.1942
 3591SOL    HW122406   1.691   2.062   9.430 -0.9638 -1.1308 -2.4606
 3591SOL    HW222407   1.691   2.208   9.467  1.0005 -1.2510  0.6195
 3592SOL     OW22408   3.166   2.274   3.926  0.0480  0.0467 -0.2579
 3592SOL    HW122409   3.200   2.362   3.915 -2.4363  0.9959 -0.1749
 3592SOL    HW222410   3.180   2.232   3.841  0.8755  1.5748 -0.8781
 3593SOL     OW22411   4.017   2.520   1.605 -0.2549  0.0003 -0.0276
 3593SOL    HW122412   4.064   2.602   1.591  0.4042 -0.4621 -0.5163
 3593SOL    HW222413   4.020   2.475   1.520 -0.2841  1.3793 -0.7639
 3594SOL     OW22414   2.024   4.685   9.418 -0.3668  0.9207 -0.1477
 3594SOL    HW122415   2.077   4.689   9.497 -0.3066  0.4643 -0.1641
 3594SOL    HW222416   2.089   4.663   9.351 -1.8141 -0.7741 -0.9877
 3595SOL     OW22417   1.398   1.942  10.190  0.5800  0.0574  0.2984
 3595SOL    HW122418   1.361   1.871  10.138  1.6386 -0.6541  0.4991
 3595SOL    HW222419   1.333   1.945  10.261 -0.3730 -1.8807 -0.4995
 3596SOL     OW22420   4.558   3.588   8.388 -0.7470 -0.1168 -0.7130
 3596SOL    HW122421   4.569   3.498   8.418 -2.3847 -0.0075  0.2364
 3596SOL    HW222422   4.579   3.574   8.296 -0.5547 -1.7374 -0.4180
 3597SOL     OW22423   1.266   4.051   1.904  0.5865  0.4968  0.2155
 3597SOL    HW122424   1.204   4.111   1.946 -1.6284 -2.2899  0.8613
 3597SOL    HW222425   1.255   3.979   1.966  0.4721  0.4697  0.1639
 3598SOL     OW22426   2.170   0.766   5.642  0.2604 -0.5059  0.7982
 3598SOL    HW122427   2.234   0.814   5.588  0.2570 -3.3837 -1.7781
 3598SOL    HW222428   2.091   0.789   5.593  1.4875 -0.7058 -1.3133
 3599SOL     OW22429   0.040   2.479   8.662  1.1879  0.5787  0.5118
 3599SOL    HW122430   4.707   2.414   8.647  0.8306  0.8798  0.8611
 3599SOL    HW222431   4.720   2.545   8.703  0.6069  0.2379  0.2720
 3600SOL     OW22432   1.760   2.108  15.402  0.3098 -0.2804 -0.2565
 3600SOL    HW122433   1.801   2.135  15.319 -0.7971  0.5711 -0.5187
 3600SOL    HW222434   1.671   2.129  15.376 -0.1682 -2.6962 -0.5547
 3601SOL     OW22435   4.723   1.366   8.421 -0.2390 -0.2904 -0.0718
 3601SOL    HW122436   4.710   1.459   8.403  2.3241  0.3276  1.3491
 3601SOL    HW222437   0.015   1.363   8.512  0.2628  2.5129 -0.1456
 3602SOL     OW22438   3.660   1.086   3.945 -1.0208 -0.7076 -0.0876
 3602SOL    HW122439   3.569   1.070   3.968 -0.8744 -1.5678 -0.1020
 3602SOL    HW222440   3.691   1.024   4.012 -0.1058  0.5362  0.6617
 3603SOL     OW22441   2.462   4.021  12.739 -0.1287 -0.4476 -0.0936
 3603SOL    HW122442   2.528   3.954  12.721  2.5389  2.2884 -0.4787
 3603SOL    HW222443   2.428   4.014  12.650 -0.5130 -1.4735  0.1310
 3604SOL     OW22444   4.598   4.410   5.520  0.2154 -0.6657 -0.0514
 3604SOL    HW122445   4.544   4.339   5.485 -2.8868  1.5318  0.2880
 3604SOL    HW222446   4.603   4.463   5.441  0.3077 -2.2899 -1.1250
 3605SOL     OW22447   3.200   1.621   7.304  0.4068 -0.3981 -0.0548
 3605SOL    HW122448   3.225   1.685   7.237 -2.7694 -0.3556 -1.2355
 3605SOL    HW222449   3.143   1.671   7.362  0.7092  1.0847 -1.0462
 3606SOL     OW22450   0.429   1.233   6.775 -0.1780  0.4123  0.0782
 3606SOL    HW122451   0.471   1.148   6.763  0.1580  0.3108  1.9214
 3606SOL    HW222452   0.506   1.284   6.802 -0.5859  0.4629  1.1557
 3607SOL     OW22453   0.043   1.692   4.166 -0.2735 -0.1112  0.1288
 3607SOL    HW122454   0.080   1.605   4.187 -1.9973 -0.7408  0.5045
 3607SOL    HW222455   0.005   1.674   4.080 -0.1964  0.0608  0.0601
 3608SOL     OW22456   0.180   1.840   6.523 -0.2222 -0.5941  0.3334
 3608SOL    HW122457   0.205   1.773   6.459 -0.2387 -0.4949  0.2226
 3608SOL    HW222458   0.265   1.879   6.544 -0.8827  0.2899  1.3185
 3609SOL     OW22459   4.724   3.375   5.656 -0.1823 -0.4438  0.0575
 3609SOL    HW122460   0.075   3.369   5.697  1.1942  3.6694 -2.3226
 3609SOL    HW222461   4.677   3.301   5.693  0.1450  0.0165  1.4052
 3610SOL     OW22462   1.493   1.649   4.997  0.3405 -0.3605  0.4310
 3610SOL    HW122463   1.557   1.719   5.012 -2.0048  1.4429  2.0401
 3610SOL    HW222464   1.412   1.696   5.017  0.6546 -0.7995  2.7274
 3611SOL     OW22465   3.829   1.185   0.159  0.0486 -1.0317 -0.0241
 3611SOL    HW122466   3.823   1.164   0.066 -1.1504  1.5130 -0.5304
 3611SOL    HW222467   3.786   1.270   0.155  4.3757  1.2671  2.0873
 3612SOL     OW22468   1.743   1.369   3.944 -0.0749 -0.0062 -0.6744
 3612SOL    HW122469   1.810   1.314   3.904 -0.4462 -0.1354 -1.1202
 3612SOL    HW222470   1.790   1.442   3.983  0.4749 -0.9827  0.4832
 3613SOL     OW22471   1.354   0.198  10.240 -0.2554 -0.5016 -0.0254
 3613SOL    HW122472   1.385   0.213  10.151  1.8401  0.3895  0.8616
 3613SOL    HW222473   1.402   0.273  10.275  0.6147 -1.2533  0.3591
 3614SOL     OW22474   0.087   0.918   7.558  0.4782 -0.0211  0.3721
 3614SOL    HW122475   0.175   0.903   7.524 -0.5982  0.0143 -2.4416
 3614SOL    HW222476   0.073   1.001   7.513 -0.1664 -1.1697 -1.5722
 3615SOL     OW22477   2.590   0.182   3.170 -0.0903 -0.7661 -0.1780
 3615SOL    HW122478   2.537   0.107   3.199  1.4580 -1.8364 -0.1051
 3615SOL    HW222479   2.528   0.229   3.114  0.6546  1.7043  1.0796
 3616SOL     OW22480   4.486   0.634   1.729 -0.3788  0.0843 -0.6087
 3616SOL    HW122481   4.520   0.662   1.814 -0.5990  1.0867 -0.8414
 3616SOL    HW222482   4.527   0.699   1.671  0.5844  1.1850  1.3073
 3617SOL     OW22483   1.645   2.182   6.427 -0.6744  0.2000 -0.1164
 3617SOL    HW122484   1.577   2.117   6.446 -0.5115 -0.0622 -0.4293
 3617SOL    HW222485   1.614   2.249   6.487 -0.6178 -0.2122  0.3699
 3618SOL     OW22486   0.031   0.533   2.531 -0.2328 -0.7282  0.3194
 3618SOL    HW122487   0.006   0.469   2.464 -2.0313 -1.6224  1.8231
 3618SOL    HW222488   0.054   0.614   2.487 -0.7337 -0.8941 -0.2406
 3619SOL     OW22489   4.125   2.923  11.418 -0.0669  0.0502  0.2851
 3619SOL    HW122490   4.143   2.847  11.362 -0.2904  0.0350  0.2328
 3619SOL    HW222491   4.117   2.994  11.354 -0.3347 -0.9773 -0.8292
 3620SOL     OW22492   2.558   2.003  16.974 -0.1101 -0.2162  0.2524
 3620SOL    HW122493   2.652   2.018  16.986 -0.1200 -0.2456  0.3673
 3620SOL    HW222494   2.563   1.908  16.972  0.6279 -0.1282 -2.0931
 3621SOL     OW22495   2.199   0.468  16.148  0.3218  0.6178 -0.1045
 3621SOL    HW122496   2.208   0.563  16.152  2.2672  0.5008 -1.6328
 3621SOL    HW222497   2.210   0.454  16.054 -1.7982  0.2673 -0.2967
 3622SOL     OW22498   0.193   0.462   6.989 -0.2555 -0.6835 -0.5798
 3622SOL    HW122499   0.279   0.420   6.999 -0.1832 -0.5928 -0.8017
 3622SOL    HW222500   0.136   0.391   7.016 -0.2743 -0.8468 -1.0459
 3623SOL     OW22501   0.212   1.469   4.198  0.9385 -0.6779  0.2513
 3623SOL    HW122502   0.308   1.472   4.201  1.0137 -3.7479  1.6400
 3623SOL    HW222503   0.192   1.400   4.262  1.6931 -2.8749 -1.8587
 3624SOL     OW22504   2.021   0.646  10.295 -0.4368  0.0458 -0.4441
 3624SOL    HW122505   1.988   0.732  10.321  2.8334  1.3267 -0.6069
 3624SOL    HW222506   2.025   0.662  10.201  1.9219 -0.2630 -0.3825
 3625SOL     OW22507   2.606   0.349  10.792  0.5008  0.4205  0.3099
 3625SOL    HW122508   2.696   0.319  10.801 -0.6405 -3.0780  0.0680
 3625SOL    HW222509   2.577   0.303  10.713  0.8022  1.3839 -0.3622
 3626SOL     OW22510   0.616   3.395   6.698 -0.1457  0.6004 -0.1524
 3626SOL    HW122511   0.660   3.373   6.780 -4.3428 -2.7783  1.1763
 3626SOL    HW222512   0.554   3.455   6.739 -1.3602 -1.3623  0.9076
 3627SOL     OW22513   2.264   3.662   3.553 -0.2550  0.1114  0.4437
 3627SOL    HW122514   2.309   3.598   3.498 -2.2068  0.3259 -1.4289
 3627SOL    HW222515   2.249   3.735   3.491  0.9047 -0.8477 -0.9682
 3628SOL     OW22516   3.027   2.171   7.629  0.4300 -0.6083  0.8110
 3628SOL    HW122517   3.088   2.100   7.607 -0.6565 -1.0492 -0.8304
 3628SOL    HW222518   2.995   2.145   7.716 -0.8906  2.9022  1.3646
 3629SOL     OW22519   0.161   1.729   7.092 -0.5703 -0.1618 -0.2746
 3629SOL    HW122520   0.241   1.773   7.063 -1.1880 -0.7464 -2.9127
 3629SOL    HW222521   0.121   1.708   7.007 -0.3964  0.6996 -0.5655
 3630SOL     OW22522   1.100   3.585   2.619  0.4318 -0.3533 -1.0373
 3630SOL    HW122523   1.052   3.613   2.541 -1.6795 -0.2365  0.2992
 3630SOL    HW222524   1.160   3.528   2.571  0.9795 -0.1756 -0.5603
 3631SOL     OW22525   2.338   4.173  17.139 -0.1768  0.0627 -0.9795
 3631SOL    HW122526   2.283   4.238  17.183  0.7745 -1.0526  1.8541
 3631SOL    HW222527   2.298   4.092  17.169  0.1702  0.0896 -0.4471
 3632SOL     OW22528   1.760   1.466   0.268 -0.1023  0.3367  0.7178
 3632SOL    HW122529   1.797   1.418   0.342  2.7821  1.0921 -0.2437
 3632SOL    HW222530   1.698   1.531   0.302 -3.1570 -1.9084 -0.5662
 3633SOL     OW22531   3.799   3.741   4.011 -0.8029  0.0185 -0.0529
 3633SOL    HW122532   3.721   3.688   3.997 -2.6047  1.8259  3.2300
 3633SOL    HW222533   3.861   3.671   3.990 -3.8064 -2.3513 -1.0423
 3634SOL     OW22534   0.735   2.728   0.260  0.1598 -0.5512  0.3955
 3634SOL    HW122535   0.644   2.727   0.231 -0.1698 -1.1040  1.4172
 3634SOL    HW222536   0.731   2.743   0.355 -0.0280  1.5494  0.0427
 3635SOL     OW22537   3.741   2.715   6.898  0.2836  0.4434 -0.6329
 3635SOL    HW122538   3.747   2.700   6.803 -0.8278 -0.0994 -0.6142
 3635SOL    HW222539   3.755   2.810   6.902 -1.1475  0.6362 -0.2648
 3636SOL     OW22540   4.136   2.716  16.607  0.3901  0.2633  0.4331
 3636SOL    HW122541   4.212   2.771  16.591  0.5276 -0.5557 -1.7198
 3636SOL    HW222542   4.177   2.632  16.584  0.6907  0.7354 -0.7482
 3637SOL     OW22543   3.289   3.885   5.790  0.8405  0.0383 -0.6500
 3637SOL    HW122544   3.299   3.976   5.760 -0.1622  0.3162 -0.1364
 3637SOL    HW222545   3.197   3.866   5.773  0.7427  1.2306 -1.5102
 3638SOL     OW22546   1.776   4.633  10.372  0.5712 -0.1162  0.2191
 3638SOL    HW122547   1.792   4.544  10.401 -0.7430 -1.2757 -2.5587
 3638SOL    HW222548   1.742   4.669  10.454 -2.6334  0.1808 -1.2069
 3639SOL     OW22549   2.875   1.857   1.256  0.1126  0.2475 -0.9459
 3639SOL    HW122550   2.804   1.799   1.228 -0.9956  0.6751  1.0348
 3639SOL    HW222551   2.853   1.934   1.203  1.6774  2.5722  1.7985
 3640SOL     OW22552   4.141   1.177   8.041  0.5371  0.0170  0.0131
 3640SOL    HW122553   4.176   1.260   8.073  3.1258 -1.0156 -0.1451
 3640SOL    HW222554   4.127   1.139   8.128 -2.8335 -0.4124 -0.7189
 3641SOL     OW22555   1.386   1.934   8.980  0.2234  0.2147 -0.0836
 3641SOL    HW122556   1.327   1.866   8.950  0.3831  0.2751 -0.5332
 3641SOL    HW222557   1.469   1.894   8.956 -0.4970  0.2688 -2.5997
 3642SOL     OW22558   3.558   1.956   5.966 -0.0517 -0.6610 -0.0355
 3642SOL    HW122559   3.478   1.905   5.972  0.4590 -1.0689  3.0546
 3642SOL    HW222560   3.605   1.931   5.886  0.2350  1.1979 -0.4576
 3643SOL     OW22561   4.506   2.083  10.965 -0.7003 -0.1853 -0.2993
 3643SOL    HW122562   4.481   2.020  11.033 -1.5362 -0.3164 -0.7380
 3643SOL    HW222563   4.563   2.137  11.020 -0.7285  0.1576 -0.6143
 3644SOL     OW22564   3.360   1.341   9.385 -1.1142  0.3034 -0.1742
 3644SOL    HW122565   3.357   1.436   9.371  1.3381  0.2514 -1.0535
 3644SOL    HW222566   3.455   1.331   9.392 -1.3754  0.4274  3.2174
 3645SOL     OW22567   1.521   1.388  12.181 -0.1383 -0.0052 -0.1132
 3645SOL    HW122568   1.466   1.311  12.191 -2.2860  1.4919 -0.5032
 3645SOL    HW222569   1.584   1.395  12.253  0.2356  2.5948 -0.6734
 3646SOL     OW22570   1.086   1.591   4.054  0.4897 -0.5469  0.3027
 3646SOL    HW122571   1.181   1.583   4.061  0.3708 -2.9850 -0.8352
 3646SOL    HW222572   1.071   1.497   4.052  0.5656 -0.5693  0.9768
 3647SOL     OW22573   2.318   1.000   5.056  0.0177  0.0183  0.6440
 3647SOL    HW122574   2.257   0.980   4.985  0.4411 -0.2977  0.3731
 3647SOL    HW222575   2.380   0.928   5.049  0.6817  0.6668 -0.2742
 3648SOL     OW22576   2.442   3.489   4.448  0.3558 -0.7814 -0.1414
 3648SOL    HW122577   2.480   3.540   4.376  0.3842 -0.2589  0.2401
 3648SOL    HW222578   2.518   3.433   4.462  0.2608 -1.0275 -0.6331
 3649SOL     OW22579   3.391   2.540  15.055  0.1779  0.4346 -0.2463
 3649SOL    HW122580   3.443   2.599  15.000  2.0189 -0.3152  0.7070
 3649SOL    HW222581   3.353   2.486  14.986  1.7824  0.4585 -1.1507
 3650SOL     OW22582   1.467   4.074   5.003 -0.3507  0.0588  0.0427
 3650SOL    HW122583   1.545   4.112   4.963  0.6641 -0.5229  1.5000
 3650SOL    HW222584   1.419   4.153   5.028 -0.8620 -0.7544  1.6042
 3651SOL     OW22585   0.483   1.151   5.552 -0.1861  0.6744  0.5899
 3651SOL    HW122586   0.492   1.236   5.595 -0.1402 -0.1354  2.1529
 3651SOL    HW222587   0.575   1.128   5.544 -0.1651  0.7482  0.6209
 3652SOL     OW22588   0.698   2.971   5.401 -0.0565  0.2504 -0.4193
 3652SOL    HW122589   0.638   2.994   5.473  2.1059 -0.7564  1.7184
 3652SOL    HW222590   0.737   3.054   5.374 -0.1842 -0.0893 -1.6356
 3653SOL     OW22591   0.131   0.824   3.611 -0.0967  0.3420 -0.2206
 3653SOL    HW122592   0.170   0.910   3.598 -1.7433  1.1991  0.4599
 3653SOL    HW222593   0.042   0.847   3.639 -1.1396 -3.7075 -0.1415
 3654SOL     OW22594   2.981   3.278   4.803  0.4670  0.3400 -0.3521
 3654SOL    HW122595   3.002   3.345   4.869 -2.0284  0.3991  0.3816
 3654SOL    HW222596   3.054   3.217   4.808  0.5584  0.3057 -2.0638
 3655SOL     OW22597   0.613   0.481  16.817  0.1810 -0.1834  0.7235
 3655SOL    HW122598   0.520   0.494  16.801  0.6761 -1.2710 -2.8890
 3655SOL    HW222599   0.629   0.536  16.894  2.1687  1.6590 -1.0365
 3656SOL     OW22600   2.746   0.665  17.373  0.1683  0.1100 -0.1409
 3656SOL    HW122601   2.687   0.591  17.387 -0.8768  0.8651 -0.5691
 3656SOL    HW222602   2.702   0.685  17.290 -2.2830 -0.9561  0.9055
 3657SOL     OW22603   3.390   1.469  16.926 -0.1886  0.4274 -0.6252
 3657SOL    HW122604   3.442   1.455  17.006  1.5171 -1.1615 -1.9986
 3657SOL    HW222605   3.454   1.485  16.857 -0.6267 -1.3410 -1.4391
 3658SOL     OW22606   1.646   4.121  10.908  0.7835  0.8098 -0.0847
 3658SOL    HW122607   1.578   4.060  10.879  1.7750  0.0196 -0.7556
 3658SOL    HW222608   1.636   4.145  11.000 -0.6834 -0.9147  0.1995
 3659SOL     OW22609   1.057   1.193   2.112 -0.3467  0.0327 -0.2360
 3659SOL    HW122610   1.002   1.133   2.062  1.0711  0.3515 -2.1978
 3659SOL    HW222611   1.081   1.235   2.029 -1.6962  1.8131  0.2617
 3660SOL     OW22612   1.591   4.082   6.567 -0.2212 -0.0410 -0.1203
 3660SOL    HW122613   1.571   4.170   6.598  0.5676 -0.3663  1.3323
 3660SOL    HW222614   1.558   4.032   6.642  0.4774 -0.6181 -0.1939
 3661SOL     OW22615   1.849   4.709   3.706  0.0227  0.4728  0.9729
 3661SOL    HW122616   1.872   4.620   3.731 -2.9143 -0.9782 -1.4774
 3661SOL    HW222617   1.921   4.725   3.645  0.1422 -1.6377  0.5630
 3662SOL     OW22618   2.214   1.565   5.962 -0.7009  0.0444 -0.0306
 3662SOL    HW122619   2.309   1.567   5.972 -0.7884  0.7127  0.7129
 3662SOL    HW222620   2.195   1.655   5.936  0.0007  0.5035  1.0150
 3663SOL     OW22621   1.707   1.122   3.205  0.1981 -0.0258  0.0542
 3663SOL    HW122622   1.687   1.045   3.152 -3.4341 -1.1537  3.0378
 3663SOL    HW222623   1.802   1.126   3.215  0.3177  0.1463 -1.1401
 3664SOL     OW22624   3.868   2.746   0.813 -0.0927 -0.3998 -0.4601
 3664SOL    HW122625   3.924   2.778   0.884  1.2899 -3.8045 -0.0179
 3664SOL    HW222626   3.853   2.664   0.860  1.5771 -0.6906 -0.4308
 3665SOL     OW22627   3.293   1.456  15.943  0.0063  0.0835 -0.8265
 3665SOL    HW122628   3.282   1.550  15.959  1.1275  0.4760 -2.3078
 3665SOL    HW222629   3.322   1.464  15.852  0.2876  3.0169 -0.4929
 3666SOL     OW22630   0.161   0.576   3.069  0.1099 -0.5678 -0.3193
 3666SOL    HW122631   0.096   0.520   3.112 -1.8203  0.2148 -2.2132
 3666SOL    HW222632   0.243   0.565   3.118 -0.2373  1.3208  0.7026
 3667SOL     OW22633   1.615   2.591   3.784  0.2429  0.1762 -0.5773
 3667SOL    HW122634   1.524   2.601   3.757 -0.2032 -1.5191  0.2621
 3667SOL    HW222635   1.630   2.496   3.787 -2.6139 -0.1555  2.3589
 3668SOL     OW22636   0.665   2.634   0.944 -0.1187 -0.1875 -0.5427
 3668SOL    HW122637   0.603   2.663   0.877  0.3722  0.7961 -0.5656
 3668SOL    HW222638   0.739   2.612   0.887 -0.9814 -1.2390 -1.2488
 3669SOL     OW22639   0.540   3.454   3.211 -0.5900 -0.4717 -0.5843
 3669SOL    HW122640   0.477   3.389   3.181 -0.1575 -1.2295  0.1628
 3669SOL    HW222641   0.482   3.530   3.208 -0.6829 -0.5319 -0.2991
 3670SOL     OW22642   0.795   0.788   3.797 -0.0060 -0.1256  0.1462
 3670SOL    HW122643   0.861   0.837   3.749 -0.4554  2.7136  2.4635
 3670SOL    HW222644   0.815   0.811   3.888 -0.5715 -0.4797  0.3610
 3671SOL     OW22645   2.964   1.689   8.196  0.6116  0.4015  0.4091
 3671SOL    HW122646   2.954   1.595   8.177 -1.8282  0.5462  1.0376
 3671SOL    HW222647   2.956   1.683   8.291  1.2235  2.5618  0.5969
 3672SOL     OW22648   1.411   4.547  12.953  0.0900  0.0535 -0.1641
 3672SOL    HW122649   1.394   4.578  12.864 -1.6459 -0.7670 -0.1129
 3672SOL    HW222650   1.425   4.453  12.941  0.5767  0.1875 -0.6669
 3673SOL     OW22651   3.162   3.510   1.498  0.4576 -0.4884 -0.0539
 3673SOL    HW122652   3.081   3.560   1.492  0.3282 -0.7998 -0.8866
 3673SOL    HW222653   3.217   3.562   1.439 -0.0322 -0.6294 -0.6413
 3674SOL     OW22654   2.682   1.585   8.330 -0.2379 -0.1883 -0.1400
 3674SOL    HW122655   2.636   1.667   8.311 -2.0419 -1.1266  0.1350
 3674SOL    HW222656   2.747   1.628   8.385 -2.6985  0.2660  2.3751
 3675SOL     OW22657   4.386   3.760   6.065  0.1747  0.1797 -0.1530
 3675SOL    HW122658   4.473   3.796   6.047 -0.0442  1.2986  1.0679
 3675SOL    HW222659   4.372   3.807   6.147 -0.4260 -1.7512  0.8447
 3676SOL     OW22660   2.966   2.896   5.310 -0.1304  0.3002  0.1897
 3676SOL    HW122661   2.894   2.919   5.252 -0.8448  0.4140  1.1114
 3676SOL    HW222662   3.023   2.972   5.317  0.1605  0.1451 -0.5945
 3677SOL     OW22663   1.719   4.711   0.597  0.5745 -0.4588 -0.0030
 3677SOL    HW122664   1.714   4.683   0.689  1.0746  1.0220  0.4640
 3677SOL    HW222665   1.697   4.627   0.557 -0.6071  0.3209 -0.9902
 3678SOL     OW22666   0.186   2.065   7.299  0.1985 -0.4502  0.2604
 3678SOL    HW122667   0.184   2.055   7.203 -0.2465  3.0835 -0.0909
 3678SOL    HW222668   0.167   2.159   7.306 -0.4097 -0.5789  0.3764
 3679SOL     OW22669   1.926   1.584   2.476 -0.4765 -0.4130  0.3679
 3679SOL    HW122670   1.930   1.643   2.552  0.0220  2.4234 -1.8578
 3679SOL    HW222671   1.837   1.550   2.488 -1.2502  2.1606  1.9489
 3680SOL     OW22672   4.614   2.538   5.588 -0.2998 -0.2347  0.7808
 3680SOL    HW122673   4.703   2.537   5.552 -0.4743  0.2774  0.3376
 3680SOL    HW222674   4.592   2.628   5.563 -0.4823  0.1267  2.2568
 3681SOL     OW22675   1.417   3.468   9.367 -0.7961 -0.3167  0.1123
 3681SOL    HW122676   1.372   3.539   9.322  0.3303  0.8957  0.8836
 3681SOL    HW222677   1.430   3.405   9.296  1.4238 -1.1272  1.2105
 3682SOL     OW22678   2.702   2.852   6.022 -0.2433  0.2013 -0.3491
 3682SOL    HW122679   2.760   2.915   6.065 -1.8534  0.2452  1.7374
 3682SOL    HW222680   2.715   2.878   5.931  1.4438 -1.2423 -0.5371
 3683SOL     OW22681   3.640   4.242   4.831  0.0396  0.4087  0.0938
 3683SOL    HW122682   3.685   4.184   4.892 -1.0828  0.7423  1.2294
 3683SOL    HW222683   3.570   4.279   4.885  1.0746  0.2834  1.5222
 3684SOL     OW22684   2.465   0.635   8.502  0.0313 -0.7573 -0.1821
 3684SOL    HW122685   2.408   0.711   8.513  0.0036 -0.8267  0.1273
 3684SOL    HW222686   2.441   0.605   8.414  3.6255 -1.7701 -0.8332
 3685SOL     OW22687   4.508   1.817   9.028  0.0826 -0.1399  0.3319
 3685SOL    HW122688   4.414   1.808   9.010 -0.3953  2.0491  1.7422
 3685SOL    HW222689   4.530   1.765   9.106  1.0075 -0.3959 -0.0961
 3686SOL     OW22690   4.412   0.458   7.222  0.3293 -0.2697 -0.2369
 3686SOL    HW122691   4.451   0.464   7.309  0.9727 -1.3054 -0.4437
 3686SOL    HW222692   4.337   0.516   7.238  1.3184  1.6346 -2.5743
 3687SOL     OW22693   0.550   4.039   8.078 -0.2726 -0.3573 -0.8723
 3687SOL    HW122694   0.502   4.094   8.016 -0.6190  0.5602  0.2050
 3687SOL    HW222695   0.491   3.970   8.105  1.1690 -0.7185  1.3815
 3688SOL     OW22696   1.622   4.376   0.785 -0.0936 -0.2089 -0.2966
 3688SOL    HW122697   1.634   4.291   0.827  0.0173 -0.6213 -1.1683
 3688SOL    HW222698   1.595   4.343   0.699 -1.2966  1.8823 -0.7240
 3689SOL     OW22699   0.324   0.484  12.888 -0.1018  0.0867  0.0383
 3689SOL    HW122700   0.314   0.547  12.817 -1.4439  1.8064  1.7762
 3689SOL    HW222701   0.238   0.441  12.887  0.1227 -0.3517 -0.8078
 3690SOL     OW22702   1.897   1.756   7.115 -0.3312 -0.2090 -0.6524
 3690SOL    HW122703   1.855   1.691   7.172  0.6298  1.2383  1.6939
 3690SOL    HW222704   1.837   1.772   7.041  0.8553  2.7206 -0.9686
 3691SOL     OW22705   1.413   4.087   4.325 -0.5639 -0.1772  0.1809
 3691SOL    HW122706   1.406   3.998   4.291  0.6632 -1.1019  2.3371
 3691SOL    HW222707   1.470   4.070   4.400  0.4305 -0.8706 -0.7309
 3692SOL     OW22708   3.062   0.368   1.484  0.3583  0.0548 -0.0955
 3692SOL    HW122709   3.148   0.376   1.442  1.0990  1.5574  1.6418
 3692SOL    HW222710   3.089   0.402   1.570  2.2354 -1.4697 -0.0773
 3693SOL     OW22711   2.420   3.271   5.305 -0.4927 -0.3207 -0.2561
 3693SOL    HW122712   2.336   3.253   5.264 -0.7644  0.3211  0.0123
 3693SOL    HW222713   2.397   3.312   5.389 -0.1311  1.3109 -0.9460
 3694SOL     OW22714   3.441   0.806  10.269  0.0427  0.6661  0.0127
 3694SOL    HW122715   3.522   0.769  10.306  0.7757 -0.6789 -2.9661
 3694SOL    HW222716   3.467   0.866  10.200 -0.2965  0.8270  0.0247
 3695SOL     OW22717   3.124   0.735  10.179 -0.2574 -0.7865 -0.0486
 3695SOL    HW122718   3.085   0.683  10.249  0.3388 -1.4879 -0.2358
 3695SOL    HW222719   3.211   0.751  10.216 -0.8446 -0.0480  1.0224
 3696SOL     OW22720   0.564   0.563   5.961  0.3819 -0.3146 -0.1457
 3696SOL    HW122721   0.521   0.501   5.903 -1.7092  0.8884  0.1414
 3696SOL    HW222722   0.487   0.590   6.011  0.3597  1.2512 -1.0238
 3697SOL     OW22723   3.072   3.483  14.229 -0.6973 -0.6331 -0.1361
 3697SOL    HW122724   3.045   3.570  14.257 -0.5250 -0.4109 -0.6651
 3697SOL    HW222725   3.144   3.463  14.290  0.0390  0.3585 -0.6758
 3698SOL     OW22726   0.632   1.632   7.664  0.0399 -0.0605  0.3707
 3698SOL    HW122727   0.551   1.682   7.677  0.1926 -0.2890  2.2907
 3698SOL    HW222728   0.699   1.696   7.690 -0.5678 -0.1355  2.1690
 3699SOL     OW22729   3.829   1.332   0.872  0.0822 -0.0268  0.4298
 3699SOL    HW122730   3.912   1.326   0.826  0.1686  1.5056  0.3970
 3699SOL    HW222731   3.854   1.279   0.949 -0.4221  0.8965  1.2276
 3700SOL     OW22732   0.896   4.394   2.905 -0.4040  0.2896  0.3796
 3700SOL    HW122733   0.866   4.382   2.996  0.7041 -1.1766  0.5502
 3700SOL    HW222734   0.989   4.376   2.916 -0.7569 -1.4178  0.5000
 3701SOL     OW22735   2.099   1.302   3.107  0.4978  0.3975 -0.3621
 3701SOL    HW122736   2.151   1.293   3.187 -1.4922  1.5260  1.0363
 3701SOL    HW222737   2.046   1.376   3.134  3.9682  1.9194  2.2249
 3702SOL     OW22738   2.953   2.133   1.716 -0.3236 -0.0807  0.1886
 3702SOL    HW122739   2.885   2.199   1.725 -0.2627  0.2547 -1.9093
 3702SOL    HW222740   2.923   2.082   1.641  1.0821  0.3185 -0.6512
 3703SOL     OW22741   4.128   0.965   3.884  0.3539  0.6224  0.5805
 3703SOL    HW122742   4.158   0.930   3.800  1.1648  2.6515  0.0150
 3703SOL    HW222743   4.034   0.960   3.870  0.7478 -2.5825 -0.9443
 3704SOL     OW22744   1.563   2.559   2.719 -0.1905 -0.2895 -0.4904
 3704SOL    HW122745   1.467   2.564   2.715 -0.4301 -2.2732  2.2875
 3704SOL    HW222746   1.589   2.646   2.750  1.1176 -0.8490 -0.0074
 3705SOL     OW22747   1.290   0.652   5.910  0.8114  0.2253  0.2681
 3705SOL    HW122748   1.241   0.597   5.971 -2.1329  1.3720 -1.0651
 3705SOL    HW222749   1.302   0.731   5.962  1.3033 -0.5671  1.3698
 3706SOL     OW22750   4.045   0.658   9.022  0.1316 -0.1662 -0.3325
 3706SOL    HW122751   3.994   0.731   9.058  0.8063  0.7066 -1.1324
 3706SOL    HW222752   4.088   0.701   8.948  2.3882  0.1997  1.2015
 3707SOL     OW22753   3.041   1.635   2.244  0.0449 -0.2609  0.0426
 3707SOL    HW122754   2.989   1.556   2.260  1.2849 -1.0767  0.0244
 3707SOL    HW222755   3.000   1.691   2.178 -0.5336 -0.8434 -0.0975
 3708SOL     OW22756   1.123   1.327   7.020  0.0827 -0.4478 -0.4424
 3708SOL    HW122757   1.085   1.316   7.107 -0.1936  0.2524 -0.4764
 3708SOL    HW222758   1.215   1.348   7.032 -1.0413  2.9272  2.0605
 3709SOL     OW22759   1.354   1.616  12.084  0.6976  0.6939 -0.2265
 3709SOL    HW122760   1.388   1.618  11.994  1.7552  0.9201  0.1864
 3709SOL    HW222761   1.397   1.535  12.109  0.5701 -0.0594 -2.3794
 3710SOL     OW22762   0.489   4.460   8.503 -0.3106 -0.0194 -0.1885
 3710SOL    HW122763   0.460   4.405   8.430 -0.9391 -0.6955  0.5801
 3710SOL    HW222764   0.420   4.441   8.566  0.8715  1.1236  1.4400
 3711SOL     OW22765   4.071   1.079   6.882  0.4835 -0.4118 -0.2664
 3711SOL    HW122766   4.066   1.096   6.976 -1.4935 -1.3494 -0.2116
 3711SOL    HW222767   4.158   1.115   6.863  0.6625 -0.0811  1.1337
 3712SOL     OW22768   1.473   0.155   4.450  0.0884 -0.4084 -0.4722
 3712SOL    HW122769   1.527   0.091   4.403  1.6370  0.0759  0.6298
 3712SOL    HW222770   1.516   0.239   4.433  1.5201 -1.3356 -1.4628
 3713SOL     OW22771   0.726   0.934   3.239 -0.5997  0.5493 -0.8164
 3713SOL    HW122772   0.793   0.999   3.220  0.9700 -0.9471 -0.4067
 3713SOL    HW222773   0.703   0.960   3.328 -1.9957 -0.6976 -0.8105
 3714SOL     OW22774   0.793   0.304  15.549  0.1439 -0.4466 -0.7000
 3714SOL    HW122775   0.793   0.212  15.575  1.7160 -0.3187 -0.2358
 3714SOL    HW222776   0.773   0.293  15.457  0.4073  0.1785 -0.8317
 3715SOL     OW22777   4.357   0.336   2.771  0.1112 -0.3503  0.0119
 3715SOL    HW122778   4.437   0.385   2.790  2.0136 -2.4922 -2.5952
 3715SOL    HW222779   4.306   0.409   2.737  1.7395  0.9616  0.3583
 3716SOL     OW22780   3.547   0.574   9.919  0.3794 -0.5709  0.0329
 3716SOL    HW122781   3.630   0.557   9.964  0.5191  0.6186  0.2227
 3716SOL    HW222782   3.582   0.621   9.843 -1.0985  3.0655  1.5850
 3717SOL     OW22783   3.010   3.813   5.471 -0.0556  0.0948  0.3184
 3717SOL    HW122784   2.995   3.794   5.563  0.9644 -0.7008  0.3284
 3717SOL    HW222785   3.059   3.738   5.436  0.2496  0.2221  0.4689
 3718SOL     OW22786   4.670   0.896   8.512  0.4895  0.2478  0.3755
 3718SOL    HW122787   4.699   0.955   8.582  1.7114  0.7637 -0.5768
 3718SOL    HW222788   4.731   0.928   8.446 -0.6818  0.6815 -0.4975
 3719SOL     OW22789   3.615   1.324  15.899  0.5175 -0.3603 -0.6423
 3719SOL    HW122790   3.680   1.267  15.940 -1.5544 -1.5811  0.9583
 3719SOL    HW222791   3.650   1.320  15.810 -0.8609 -0.7905 -1.1707
 3720SOL     OW22792   0.739   2.198   8.420 -0.3032  0.5041 -0.1993
 3720SOL    HW122793   0.730   2.107   8.392 -1.8587  1.1683 -1.8862
 3720SOL    HW222794   0.833   2.207   8.436 -0.6116  0.2120  1.7672
 3721SOL     OW22795   2.632   0.778   5.838  0.1141 -0.4651  0.5156
 3721SOL    HW122796   2.671   0.862   5.860  0.1918 -0.7879  1.6224
 3721SOL    HW222797   2.631   0.786   5.742 -1.2623  1.0166  0.6496
 3722SOL     OW22798   0.878   3.268  16.394 -0.2933 -0.2173  0.0750
 3722SOL    HW122799   0.824   3.315  16.457 -1.9014 -0.8115 -0.8552
 3722SOL    HW222800   0.880   3.191  16.452  1.0818 -0.6771 -0.5826
 3723SOL     OW22801   4.569   2.774   5.262 -0.5169 -0.3186 -0.2411
 3723SOL    HW122802   4.493   2.717   5.257 -0.6672 -0.1783  0.4912
 3723SOL    HW222803   4.528   2.861   5.256  0.2718  0.1758  1.7011
 3724SOL     OW22804   3.311   3.763   0.447 -0.0070  0.2520 -0.0633
 3724SOL    HW122805   3.282   3.680   0.485 -0.3867  2.4368  4.3051
 3724SOL    HW222806   3.396   3.767   0.491  0.3229  0.5592 -0.7165
 3725SOL     OW22807   1.393   3.261  14.428 -0.0488 -0.0234  0.4241
 3725SOL    HW122808   1.394   3.352  14.458  0.3900 -0.0506  0.4910
 3725SOL    HW222809   1.372   3.221  14.513 -1.2476 -0.2466  0.0211
 3726SOL     OW22810   0.586   0.653   5.081  0.0590 -0.1795 -0.0199
 3726SOL    HW122811   0.625   0.699   5.155  1.1841 -0.9598 -0.1270
 3726SOL    HW222812   0.502   0.619   5.111 -0.6412  1.4829 -0.0803
 3727SOL     OW22813   0.207   3.577   2.803 -0.3260 -0.1219  0.1539
 3727SOL    HW122814   0.134   3.556   2.862  0.5793  1.9132  1.9870
 3727SOL    HW222815   0.165   3.541   2.725 -0.3080 -0.7514  0.4316
 3728SOL     OW22816   0.927   1.225   4.654 -0.2826  0.2458 -0.5895
 3728SOL    HW122817   0.940   1.314   4.687  0.8443  0.0506 -0.5177
 3728SOL    HW222818   1.001   1.188   4.702 -0.4009 -1.9452 -2.1057
 3729SOL     OW22819   1.156   0.913   1.879  0.5557  0.4594 -0.2380
 3729SOL    HW122820   1.190   0.937   1.793  0.8299  0.0476 -0.2463
 3729SOL    HW222821   1.087   0.974   1.905 -1.4222 -2.4913  1.5622
 3730SOL     OW22822   3.779   4.064   8.073 -0.3314  0.3490 -0.2364
 3730SOL    HW122823   3.804   4.094   8.160 -1.3096  0.8267 -0.1214
 3730SOL    HW222824   3.766   3.973   8.098 -1.1002 -0.0044 -1.8817
 3731SOL     OW22825   2.786   2.649   3.673  0.4336 -0.2548  0.3771
 3731SOL    HW122826   2.814   2.666   3.763 -3.1455  0.5861  1.3531
 3731SOL    HW222827   2.838   2.570   3.659 -0.1900 -0.3184 -1.6018
 3732SOL     OW22828   3.737   1.590   0.910 -0.6578  0.6316  0.3735
 3732SOL    HW122829   3.748   1.607   1.003  0.6394 -1.6236  0.6152
 3732SOL    HW222830   3.767   1.500   0.901  0.6282  0.8939  2.0657
 3733SOL     OW22831   3.369   3.331   6.580 -0.2195  0.5920 -0.2878
 3733SOL    HW122832   3.398   3.406   6.633 -0.9088  0.4450  0.2997
 3733SOL    HW222833   3.425   3.261   6.613 -1.5469  0.6182  2.0882
 3734SOL     OW22834   4.124   3.984   2.862 -0.4131  0.2031 -0.3939
 3734SOL    HW122835   4.054   3.919   2.873  0.3949 -0.7332 -0.7884
 3734SOL    HW222836   4.158   3.964   2.775  0.1647  0.3153 -0.1933
 3735SOL     OW22837   2.806   1.522   5.840  0.1855 -0.3683 -0.7358
 3735SOL    HW122838   2.869   1.489   5.776  2.4819 -1.6988  2.2051
 3735SOL    HW222839   2.759   1.441   5.858 -1.2434  0.3261 -1.3744
 3736SOL     OW22840   2.985   2.991   7.345 -0.3551 -0.5224 -0.0703
 3736SOL    HW122841   2.892   2.969   7.349 -0.1944 -1.0635  0.6458
 3736SOL    HW222842   2.985   3.067   7.403  2.4575 -2.9758  3.1619
 3737SOL     OW22843   4.394   3.850   2.338  0.2521  0.4280  0.4122
 3737SOL    HW122844   4.451   3.911   2.386  0.4499 -0.7559  1.6787
 3737SOL    HW222845   4.450   3.773   2.327 -0.6976 -0.2775  0.4758
 3738SOL     OW22846   3.349   3.952   7.043  0.1077 -0.1215 -0.0207
 3738SOL    HW122847   3.353   4.003   6.962  2.1138  0.9949  0.7927
 3738SOL    HW222848   3.257   3.973   7.059 -0.0187 -1.2986  0.8311
 3739SOL     OW22849   1.538   2.306   2.593  0.3610 -0.4337 -0.4083
 3739SOL    HW122850   1.552   2.381   2.652 -0.8365 -1.4528  1.1582
 3739SOL    HW222851   1.511   2.242   2.659 -1.6462 -1.1917 -1.9729
 3740SOL     OW22852   3.229   1.008  12.019  0.2907  0.6580  0.0375
 3740SOL    HW122853   3.257   1.059  11.942  0.9330 -0.6084 -0.5615
 3740SOL    HW222854   3.316   1.003  12.058 -0.1539 -0.2488  0.9254
 3741SOL     OW22855   0.843   0.470   4.935  0.6485 -0.0042 -0.1492
 3741SOL    HW122856   0.752   0.473   4.905  0.3680 -0.4070  0.6679
 3741SOL    HW222857   0.867   0.378   4.946  2.3286  0.0250 -3.3165
 3742SOL     OW22858   1.709   2.114   8.312 -0.0403  0.6238 -0.0398
 3742SOL    HW122859   1.705   2.020   8.299 -0.6356  0.7973 -1.0993
 3742SOL    HW222860   1.790   2.125   8.362  1.2601 -1.6982 -1.6528
 3743SOL     OW22861   2.706   4.400   3.323  0.4391  0.2706  0.3795
 3743SOL    HW122862   2.634   4.339   3.309  0.1112  0.9502 -0.8258
 3743SOL    HW222863   2.672   4.462   3.388  0.5123 -0.0240  0.7000
 3744SOL     OW22864   2.811   1.412   2.341 -0.0903  0.3107  0.1305
 3744SOL    HW122865   2.716   1.399   2.352  0.0679  1.4076  2.8626
 3744SOL    HW222866   2.851   1.326   2.332 -0.8441  0.1358 -1.5771
 3745SOL     OW22867   2.609   1.865   3.311 -0.2739 -0.0652  0.1941
 3745SOL    HW122868   2.679   1.915   3.355  0.7010 -2.2948  1.1584
 3745SOL    HW222869   2.603   1.790   3.369  1.9018 -0.3163  0.0850
 3746SOL     OW22870   4.651   3.399   3.460  0.1125  0.2117 -0.0118
 3746SOL    HW122871   4.605   3.391   3.543 -1.1765 -0.3711 -0.7673
 3746SOL    HW222872   0.001   3.431   3.484  0.0323  0.3867  0.0407
 3747SOL     OW22873   0.385   0.065   8.850  0.2211 -0.5817  0.4339
 3747SOL    HW122874   0.335   0.013   8.913 -2.5614  2.1475  0.4841
 3747SOL    HW222875   0.342   0.045   8.766  0.8986 -0.5228  0.0728
 3748SOL     OW22876   0.001   3.774   6.440  0.1284  0.1036 -0.3859
 3748SOL    HW122877   4.701   3.855   6.476 -0.7029 -0.8229  0.8505
 3748SOL    HW222878   0.090   3.805   6.423 -0.4401  0.7152 -2.3117
 3749SOL     OW22879   2.086   1.952   8.126 -0.1956 -0.3318  0.5770
 3749SOL    HW122880   2.155   2.018   8.122  0.1783 -0.7741 -0.2490
 3749SOL    HW222881   2.090   1.922   8.217  1.6702 -1.0900  0.2577
 3750SOL     OW22882   4.424   3.889  14.958  0.4407 -0.8143 -0.4213
 3750SOL    HW122883   4.494   3.830  14.986 -0.7420 -1.4786  1.1442
 3750SOL    HW222884   4.357   3.829  14.925 -0.1911 -0.5992  0.4695
 3751SOL     OW22885   3.596   1.062   7.257  0.2675 -0.4554  0.3101
 3751SOL    HW122886   3.687   1.081   7.236  0.6277 -2.1372  0.3702
 3751SOL    HW222887   3.581   1.112   7.338  0.9046  1.3553 -0.6928
 3752SOL     OW22888   2.809   4.377   3.650 -0.0360 -0.2859  0.1428
 3752SOL    HW122889   2.872   4.314   3.616  1.6364  2.2872 -1.4682
 3752SOL    HW222890   2.866   4.453   3.643 -1.3530  0.7690  0.9485
 3753SOL     OW22891   1.678   4.126   0.380  0.4143 -0.0353 -0.3278
 3753SOL    HW122892   1.607   4.077   0.423 -0.8937  0.4354 -1.9561
 3753SOL    HW222893   1.715   4.058   0.324  0.7092 -1.4069  1.5272
 3754SOL     OW22894   3.678   2.711   3.169 -0.0236 -0.3487  0.4883
 3754SOL    HW122895   3.749   2.757   3.124 -1.5264 -0.3086 -1.8367
 3754SOL    HW222896   3.610   2.776   3.153  0.6189 -0.2001 -1.6790
 3755SOL     OW22897   1.527   1.318   6.691 -0.1270 -0.3062  0.6648
 3755SOL    HW122898   1.583   1.384   6.651  1.4337 -0.1914  2.9786
 3755SOL    HW222899   1.470   1.370   6.748 -0.3437 -0.3120  0.4509
 3756SOL     OW22900   2.374   0.443   8.684  0.3519  0.1756  0.5316
 3756SOL    HW122901   2.400   0.514   8.625  0.7239 -0.2326  0.2102
 3756SOL    HW222902   2.456   0.394   8.676 -0.4696 -1.0815 -0.1348
 3757SOL     OW22903   0.370   2.790   1.522 -0.2021 -0.4456 -0.0110
 3757SOL    HW122904   0.354   2.874   1.479  0.3614 -0.0989  0.4594
 3757SOL    HW222905   0.310   2.730   1.477 -1.2677  2.0494 -1.8651
 3758SOL     OW22906   0.611   2.472   4.186  1.1096  0.5050  0.5095
 3758SOL    HW122907   0.633   2.456   4.094 -0.1228  0.2342  0.2562
 3758SOL    HW222908   0.515   2.477   4.178  1.1564  0.2937 -0.1880
 3759SOL     OW22909   4.274   1.128   0.975  0.3752  0.9190  0.4323
 3759SOL    HW122910   4.315   1.171   0.900  0.2514  0.2997  0.0120
 3759SOL    HW222911   4.332   1.156   1.046 -0.7482  0.5118  1.5118
 3760SOL     OW22912   0.470   2.626   2.774 -0.4310  0.4043  0.2481
 3760SOL    HW122913   0.505   2.684   2.705 -1.6968  1.1582  0.2506
 3760SOL    HW222914   0.549   2.615   2.827 -1.0268 -0.5911  0.9204
 3761SOL     OW22915   3.063   0.924   5.038 -0.2988 -0.1531 -0.1437
 3761SOL    HW122916   3.123   0.948   5.108  0.0350 -1.4381 -0.0084
 3761SOL    HW222917   3.075   0.830   5.043 -1.2204 -0.3349 -1.2680
 3762SOL     OW22918   0.415   1.515  10.859 -0.0245 -0.6577  0.3642
 3762SOL    HW122919   0.411   1.545  10.950 -0.5200 -1.0427  0.4702
 3762SOL    HW222920   0.437   1.600  10.821  0.3847  0.1504  2.4319
 3763SOL     OW22921   4.503   1.860   8.566  0.7675  0.0854 -0.6450
 3763SOL    HW122922   4.499   1.765   8.582  0.2899  0.2471  0.1995
 3763SOL    HW222923   4.423   1.881   8.518  0.8398 -0.3875 -0.9685
 3764SOL     OW22924   2.347   0.836   2.873  0.2193  0.2907 -0.0954
 3764SOL    HW122925   2.370   0.745   2.855  0.0450  0.3446 -0.5931
 3764SOL    HW222926   2.368   0.863   2.783 -0.1890  0.4741 -0.1328
 3765SOL     OW22927   4.227   3.425  15.666  0.4014 -0.4087  0.0159
 3765SOL    HW122928   4.192   3.429  15.578  0.7677  0.7530 -0.0722
 3765SOL    HW222929   4.146   3.415  15.715  0.0234 -2.4442 -1.0264
 3766SOL     OW22930   1.321   0.308   6.963 -0.0805  0.2555 -0.0341
 3766SOL    HW122931   1.317   0.342   7.053 -0.1859 -2.1841  0.8782
 3766SOL    HW222932   1.404   0.341   6.928  1.0394 -2.9954 -0.3623
 3767SOL     OW22933   1.346   3.044   3.501  0.6139 -0.5217 -0.0524
 3767SOL    HW122934   1.427   3.056   3.452 -0.5868  0.7742 -1.7379
 3767SOL    HW222935   1.278   3.075   3.440 -0.6254  1.6514  2.4144
 3768SOL     OW22936   2.927   0.076   1.817  0.3470  0.1669  0.7778
 3768SOL    HW122937   2.888   4.728   1.839  0.4636 -0.0616  0.1273
 3768SOL    HW222938   2.856   0.128   1.779  0.5961  0.4751  0.7267
 3769SOL     OW22939   4.294   4.311  13.169 -0.5060  0.7859 -0.0312
 3769SOL    HW122940   4.243   4.353  13.100 -0.6481  0.6005 -0.0388
 3769SOL    HW222941   4.350   4.388  13.178  1.6305 -0.4908 -2.3325
 3770SOL     OW22942   1.162   2.604  13.327  0.2840 -0.2051  0.1011
 3770SOL    HW122943   1.251   2.622  13.294  1.1945 -1.0885  2.1170
 3770SOL    HW222944   1.118   2.689  13.330  0.8306  0.1549 -1.8519
 3771SOL     OW22945   3.242   2.292   8.694  0.5016 -0.0215 -0.1285
 3771SOL    HW122946   3.150   2.314   8.704  0.8371  1.0930  0.5110
 3771SOL    HW222947   3.285   2.356   8.751  1.1202 -1.3885  0.9492
 3772SOL     OW22948   4.088   1.115   4.496  0.0161  0.4698  0.0894
 3772SOL    HW122949   4.002   1.154   4.508  0.0197  0.9840 -1.5829
 3772SOL    HW222950   4.147   1.190   4.484  2.0807 -0.4910  3.9728
 3773SOL     OW22951   0.800   0.105   3.782 -0.3281 -0.0781 -0.1978
 3773SOL    HW122952   0.822   0.140   3.696  1.4749  1.3467  0.8392
 3773SOL    HW222953   0.709   0.078   3.770 -0.2421  0.0382 -1.1448
 3774SOL     OW22954   3.916   2.011   9.067 -0.0426 -0.4396  0.2663
 3774SOL    HW122955   3.855   2.004   8.994 -1.8153  0.1851  1.6943
 3774SOL    HW222956   3.860   2.052   9.133  0.9925  1.2633  0.0845
 3775SOL     OW22957   1.763   2.281   3.093 -0.0327  0.2404 -0.2135
 3775SOL    HW122958   1.760   2.206   3.152 -1.5579  0.7342  0.3435
 3775SOL    HW222959   1.778   2.356   3.152  1.0133 -0.5926  0.5853
 3776SOL     OW22960   2.760   1.318   9.140  0.2207 -0.2229  0.1797
 3776SOL    HW122961   2.708   1.259   9.194  0.4960  0.5109  1.2533
 3776SOL    HW222962   2.705   1.322   9.062  0.5903 -0.4707 -0.0898
 3777SOL     OW22963   3.390   0.341   7.662  0.3757 -0.7088 -0.0969
 3777SOL    HW122964   3.302   0.340   7.625  0.2234 -0.5984  0.2570
 3777SOL    HW222965   3.377   0.376   7.750  0.4651  1.9049 -1.1210
 3778SOL     OW22966   1.773   4.564   9.200  0.0962  0.1875 -0.3302
 3778SOL    HW122967   1.718   4.535   9.127  1.8393  1.2721 -2.0946
 3778SOL    HW222968   1.862   4.558   9.164 -0.4582  0.6239 -1.7595
 3779SOL     OW22969   0.725   4.237  15.051 -0.2361 -0.2258  0.5369
 3779SOL    HW122970   0.740   4.144  15.035 -0.7680 -0.2250  0.0464
 3779SOL    HW222971   0.642   4.250  15.005 -0.1691 -1.1399  0.1563
 3780SOL     OW22972   3.481   1.252  16.159  0.1208 -0.2430 -0.3838
 3780SOL    HW122973   3.555   1.269  16.217 -0.5122  1.4297 -0.0702
 3780SOL    HW222974   3.504   1.287  16.073 -2.4920  2.4671  0.0129
 3781SOL     OW22975   0.757   4.296   3.167  0.1778  0.4044  0.8235
 3781SOL    HW122976   0.696   4.294   3.093  0.8735  1.1074  0.2249
 3781SOL    HW222977   0.695   4.298   3.240  0.3731 -2.1053  1.0518
 3782SOL     OW22978   2.394   0.830   6.810  0.1328 -0.0554 -0.4582
 3782SOL    HW122979   2.367   0.827   6.902  0.1305 -0.2395 -0.4638
 3782SOL    HW222980   2.344   0.763   6.764 -0.1957 -1.0678  1.3430
 3783SOL     OW22981   1.627   1.600   3.085  0.0840 -0.2347 -0.3223
 3783SOL    HW122982   1.544   1.620   3.130  0.5610 -1.3605  1.0590
 3783SOL    HW222983   1.624   1.504   3.086 -0.1872 -0.2266  0.1570
 3784SOL     OW22984   2.882   0.406   5.290  0.7465  0.1655 -0.3355
 3784SOL    HW122985   2.843   0.421   5.204  0.6880 -2.0406 -0.7008
 3784SOL    HW222986   2.853   0.315   5.299  1.7245 -0.4747 -3.6517
 3785SOL     OW22987   1.784   4.572   5.571  0.0016  0.1375  0.0070
 3785SOL    HW122988   1.785   4.569   5.667 -0.5867  0.2932  0.0182
 3785SOL    HW222989   1.741   4.657   5.561 -1.3871 -0.4569  0.9320
 3786SOL     OW22990   2.415   3.959   5.437 -0.0912  0.7687  0.1639
 3786SOL    HW122991   2.372   4.044   5.427 -0.4620  0.4204 -1.1961
 3786SOL    HW222992   2.503   3.973   5.470  0.3965  0.5679 -1.0580
 3787SOL     OW22993   1.587   0.125   6.721 -0.6981 -0.1555  0.2296
 3787SOL    HW122994   1.527   0.079   6.779 -0.4123  0.3555  0.9331
 3787SOL    HW222995   1.638   0.168   6.789  0.4955 -2.8292  1.0459
 3788SOL     OW22996   2.029   4.650  10.510 -0.0538 -0.4771  0.3327
 3788SOL    HW122997   2.002   4.579  10.568 -0.8130  0.5832  1.2706
 3788SOL    HW222998   1.946   4.659  10.463 -0.5926  0.5209  1.4921
 3789SOL     OW22999   0.912   1.968  11.756 -0.7439  0.4806 -0.3854
 3789SOL    HW123000   0.938   1.916  11.680 -1.8035  0.4586 -0.7259
 3789SOL    HW223001   0.992   2.017  11.774 -0.5530 -0.2300  0.7068
 3790SOL     OW23002   4.530   3.405   2.472  0.2647 -0.0104  0.2460
 3790SOL    HW123003   4.528   3.496   2.443  2.8429 -0.4253 -1.1278
 3790SOL    HW223004   4.587   3.373   2.403 -1.3805 -3.7119  0.5896
 3791SOL     OW23005   4.015   2.343   2.457  0.0748 -0.3771 -0.5722
 3791SOL    HW123006   3.967   2.417   2.419 -0.1139 -0.1282  0.1658
 3791SOL    HW223007   4.022   2.383   2.543 -0.8010  0.2919 -0.8018
 3792SOL     OW23008   4.662   0.726   1.915  0.0285  0.1251  0.0203
 3792SOL    HW123009   4.688   0.752   2.003  2.6144  0.0400 -0.7162
 3792SOL    HW223010   4.717   0.786   1.865  0.4334 -1.5255 -1.5249
 3793SOL     OW23011   4.186   0.532   7.014  0.3452  0.6732 -0.2745
 3793SOL    HW123012   4.117   0.491   6.962  0.5295  0.6844 -0.5252
 3793SOL    HW223013   4.153   0.622   7.006 -1.6553 -0.0076  0.1796
 3794SOL     OW23014   4.369   1.338   8.372  0.6444 -0.3714 -0.8186
 3794SOL    HW123015   4.424   1.401   8.326 -2.4578  1.8480 -1.4386
 3794SOL    HW223016   4.283   1.354   8.334  0.6421  1.3116 -0.1120
 3795SOL     OW23017   3.393   4.587   5.726 -0.4209  0.3974 -0.5014
 3795SOL    HW123018   3.329   4.596   5.797  0.4854 -1.1139  0.5028
 3795SOL    HW223019   3.465   4.552   5.778  1.3641 -0.8696 -3.8591
 3796SOL     OW23020   3.582   1.330   1.367 -0.2994 -0.4677  0.0433
 3796SOL    HW123021   3.491   1.306   1.386 -0.4632  0.1473  0.0075
 3796SOL    HW223022   3.571   1.377   1.285  0.7495 -0.8235 -0.2989
 3797SOL     OW23023   1.786   2.802   4.737  0.1906 -0.0894 -0.3514
 3797SOL    HW123024   1.821   2.800   4.648 -0.7243 -0.0550 -0.7189
 3797SOL    HW223025   1.818   2.887   4.768 -0.5076 -1.1134  3.1434
 3798SOL     OW23026   4.031   3.379  15.194  0.2222 -0.0061  0.3114
 3798SOL    HW123027   4.050   3.313  15.260  2.3812 -0.3556 -0.6492
 3798SOL    HW223028   3.988   3.326  15.127 -0.1681  0.8616 -0.1273
 3799SOL     OW23029   1.556   4.516   2.108 -0.0706  0.0828 -0.4400
 3799SOL    HW123030   1.497   4.561   2.169  0.9805 -2.4606  2.4831
 3799SOL    HW223031   1.549   4.584   2.041  0.2114 -2.8088 -3.3881
 3800SOL     OW23032   1.848   1.036   6.833 -0.0010  0.3032  0.1790
 3800SOL    HW123033   1.767   1.048   6.783 -1.5239 -0.5916  2.4504
 3800SOL    HW223034   1.905   1.076   6.767  2.7878 -1.2414  1.6586
 3801SOL     OW23035   4.684   2.230   2.727 -0.2550 -0.6453 -0.6073
 3801SOL    HW123036   4.651   2.146   2.695 -2.0168  0.2544 -1.1687
 3801SOL    HW223037   4.725   2.201   2.809  0.5865  1.4182 -0.2952
 3802SOL     OW23038   2.293   1.541  14.130 -0.1530 -0.5366  0.1178
 3802SOL    HW123039   2.201   1.525  14.110 -0.0774 -1.5251  0.5659
 3802SOL    HW223040   2.305   1.604  14.058 -0.6045 -2.0010 -1.2312
 3803SOL     OW23041   3.159   0.317   9.748  0.3654 -0.6060  0.0114
 3803SOL    HW123042   3.108   0.398   9.753  0.3451 -0.5849 -0.5079
 3803SOL    HW223043   3.240   0.334   9.797  0.5111 -2.3546  0.3821
 3804SOL     OW23044   2.944   4.319   4.106  0.6273 -0.3338 -0.3789
 3804SOL    HW123045   2.925   4.258   4.035  1.3787 -0.5638 -0.3769
 3804SOL    HW223046   2.867   4.317   4.164  0.8208  0.9265 -0.0738
 3805SOL     OW23047   3.993   0.425   6.836  0.0301 -0.5009 -0.5681
 3805SOL    HW123048   3.923   0.477   6.796 -0.0573 -1.7730 -2.0342
 3805SOL    HW223049   3.948   0.343   6.820 -0.8935 -0.2263  0.5956
 3806SOL     OW23050   1.700   2.965   5.297  0.5184  0.1021  0.1882
 3806SOL    HW123051   1.692   2.946   5.390 -0.6288 -1.2356 -0.1893
 3806SOL    HW223052   1.770   2.899   5.294  0.0896 -0.3238 -0.4195
 3807SOL     OW23053   4.327   1.028   8.733 -0.2515 -0.5366  0.1415
 3807SOL    HW123054   4.393   0.996   8.795  1.7486  1.4902 -0.9514
 3807SOL    HW223055   4.346   1.117   8.704  1.5148 -0.3549  1.8515
 3808SOL     OW23056   0.926   4.469   2.507  0.1345  0.9506 -0.7553
 3808SOL    HW123057   1.015   4.500   2.520  1.0923 -2.4819  0.7001
 3808SOL    HW223058   0.909   4.437   2.596 -0.6516  0.1314 -1.2012
 3809SOL     OW23059   2.602   0.822   7.075  0.0768  0.2079  0.1088
 3809SOL    HW123060   2.508   0.803   7.084  0.0055 -0.3383 -1.9426
 3809SOL    HW223061   2.619   0.817   6.981 -0.6064  0.7835 -0.0431
 3810SOL     OW23062   3.434   3.208   3.321  0.0683 -0.7804 -0.6244
 3810SOL    HW123063   3.412   3.267   3.249 -0.4545 -0.9012 -0.5646
 3810SOL    HW223064   3.349   3.164   3.325 -0.5548  0.5584  1.1365
 3811SOL     OW23065   2.336   1.225  12.534  0.3579  0.3614 -0.4766
 3811SOL    HW123066   2.254   1.212  12.487  0.4484 -0.6020 -0.3644
 3811SOL    HW223067   2.394   1.188  12.468  0.3616 -1.5899  0.6009
 3812SOL     OW23068   0.406   4.595   3.561 -0.9820 -0.3435 -0.4599
 3812SOL    HW123069   0.482   4.540   3.543 -0.8388 -0.9787  2.0428
 3812SOL    HW223070   0.353   4.567   3.486 -0.3610 -1.3599 -0.5208
 3813SOL     OW23071   1.505   3.891   8.172 -0.6459 -0.6869  0.0472
 3813SOL    HW123072   1.444   3.907   8.100  0.6723  2.7846 -0.3043
 3813SOL    HW223073   1.585   3.864   8.125 -1.0150  0.6024 -1.3180
 3814SOL     OW23074   1.472   4.516  15.215  0.4814  0.4311  0.1524
 3814SOL    HW123075   1.452   4.437  15.265 -0.5584  0.5299 -0.1105
 3814SOL    HW223076   1.520   4.561  15.284 -0.6023  0.2976  0.9973
 3815SOL     OW23077   3.899   0.053   5.464 -0.6817 -0.3546  0.2283
 3815SOL    HW123078   3.940   4.704   5.452  0.0740  0.1180 -0.5084
 3815SOL    HW223079   3.885   0.078   5.372 -1.6098 -2.0126 -0.0967
 3816SOL     OW23080   0.293   2.256   6.521  0.1196  0.3961  0.0624
 3816SOL    HW123081   0.244   2.336   6.501  2.1004  2.0152  1.7480
 3816SOL    HW223082   0.251   2.190   6.466  1.6550 -1.5029  1.1836
 3817SOL     OW23083   0.054   1.299   4.042  0.0757  0.7930 -0.1721
 3817SOL    HW123084   0.113   1.363   4.081  2.5745 -0.6357 -1.6072
 3817SOL    HW223085   4.703   1.336   4.054  0.0171  0.3812  0.7044
 3818SOL     OW23086   1.483   3.727  16.879 -0.0954  0.5182  0.5212
 3818SOL    HW123087   1.557   3.760  16.930  1.5512  0.1090 -1.6037
 3818SOL    HW223088   1.418   3.714  16.948 -0.2523  0.9623  0.4561
 3819SOL     OW23089   0.756   2.414   5.946 -0.3502  0.1232  0.3203
 3819SOL    HW123090   0.745   2.505   5.975 -1.5988 -0.1230  0.5985
 3819SOL    HW223091   0.665   2.390   5.930 -0.2172 -0.1304 -0.0645
 3820SOL     OW23092   2.676   0.025   7.982  0.0495  0.1571 -0.1473
 3820SOL    HW123093   2.726   0.094   7.938  1.0037 -0.6415 -0.3206
 3820SOL    HW223094   2.598   0.063   8.023 -0.5417 -0.2929 -0.8627
 3821SOL     OW23095   4.643   2.365   2.221 -0.3195 -0.2665  0.1830
 3821SOL    HW123096   4.708   2.432   2.245  2.0956 -2.3722 -0.5114
 3821SOL    HW223097   4.572   2.425   2.195 -0.4257 -0.4305  0.0979
 3822SOL     OW23098   2.256   3.547  12.273 -0.3226  0.3509  0.0681
 3822SOL    HW123099   2.343   3.518  12.244  0.4355  0.9351  1.7746
 3822SOL    HW223100   2.221   3.575  12.188 -0.5705  0.4094  0.1900
 3823SOL     OW23101   4.631   1.987   8.772  0.4958  0.2863  0.0958
 3823SOL    HW123102   4.588   1.946   8.697  1.6416  0.4212 -0.6384
 3823SOL    HW223103   4.632   1.909   8.828 -1.1873  0.5794  0.5471
 3824SOL     OW23104   0.909   2.869  16.328  0.2659  0.1613 -0.3034
 3824SOL    HW123105   0.872   2.781  16.317  1.1155 -0.0253 -1.7142
 3824SOL    HW223106   0.997   2.843  16.301 -1.1515 -3.8107 -1.1192
 3825SOL     OW23107   4.671   4.356  13.185  0.3825 -1.0067 -0.0951
 3825SOL    HW123108   4.585   4.396  13.173  1.6470  1.7236 -0.3133
 3825SOL    HW223109   4.721   4.413  13.244 -0.7269 -0.7487  0.5832
 3826SOL     OW23110   2.882   0.191   5.787  0.0554 -0.6509  0.6524
 3826SOL    HW123111   2.959   0.134   5.787  1.2833  1.0053 -0.3503
 3826SOL    HW223112   2.897   0.269   5.734 -1.0196 -0.8480  0.0659
 3827SOL     OW23113   4.094   4.400  15.731 -0.4595 -0.3498 -0.3881
 3827SOL    HW123114   4.157   4.470  15.713 -0.2194 -0.0503  1.5748
 3827SOL    HW223115   4.006   4.436  15.727 -0.4384 -0.2063  0.4035
 3828SOL     OW23116   1.089   0.134   9.496 -0.3514 -0.2533 -0.5010
 3828SOL    HW123117   1.070   0.070   9.427  1.3819  0.4222 -1.5910
 3828SOL    HW223118   1.018   0.125   9.559  1.0770 -1.1740  0.9593
 3829SOL     OW23119   4.295   4.343  11.456 -0.2935 -0.0495  0.5230
 3829SOL    HW123120   4.378   4.386  11.436  0.4779 -1.3558  0.8781
 3829SOL    HW223121   4.327   4.300  11.535  0.3641  0.1878  0.3906
 3830SOL     OW23122   1.731   2.360  12.285 -0.1398  0.8134 -0.6719
 3830SOL    HW123123   1.694   2.445  12.307 -0.3952  0.6304 -0.3971
 3830SOL    HW223124   1.664   2.321  12.229 -0.4187  2.1784 -1.2744
 3831SOL     OW23125   4.175   2.586   8.360 -0.7184  0.4670 -0.1689
 3831SOL    HW123126   4.157   2.514   8.422  2.0235  1.3980  1.7098
 3831SOL    HW223127   4.270   2.578   8.369 -0.6354  1.9286  0.2414
 3832SOL     OW23128   2.685   0.442   2.799  0.2754 -0.3163 -0.0392
 3832SOL    HW123129   2.696   0.351   2.773 -2.2722 -0.4241 -0.7633
 3832SOL    HW223130   2.775   0.461   2.827  0.1564  0.2907 -0.0683
 3833SOL     OW23131   1.752   3.613   8.358  0.2665  0.1291  0.0058
 3833SOL    HW123132   1.733   3.541   8.418 -0.5754 -0.1602 -0.6176
 3833SOL    HW223133   1.714   3.689   8.401  1.1747  1.6181 -1.8076
 3834SOL     OW23134   1.145   0.523   7.897 -0.2831 -0.3207 -0.0244
 3834SOL    HW123135   1.134   0.428   7.886 -0.8100 -0.7236  3.8497
 3834SOL    HW223136   1.204   0.544   7.824 -1.7964 -0.1457 -1.1791
 3835SOL     OW23137   2.692   1.341   6.317 -0.7083 -0.7139  0.1440
 3835SOL    HW123138   2.614   1.391   6.289 -0.7272 -0.3647  0.8177
 3835SOL    HW223139   2.664   1.320   6.406 -0.0636 -0.1403  0.4869
 3836SOL     OW23140   4.045   3.850   8.039 -0.4422  0.0738 -0.5451
 3836SOL    HW123141   3.976   3.837   8.103  1.5047  0.7943  1.7001
 3836SOL    HW223142   3.996   3.826   7.961  0.2517 -1.5040 -0.4898
 3837SOL     OW23143   1.973   1.531   1.942  0.3157  0.0651  0.4339
 3837SOL    HW123144   1.927   1.447   1.948 -0.0860  0.2549 -0.0190
 3837SOL    HW223145   2.046   1.503   1.886 -0.5723 -0.1563 -0.6071
 3838SOL     OW23146   2.521   0.311   7.741 -0.1489  0.2866  0.0284
 3838SOL    HW123147   2.532   0.383   7.679 -1.8621  0.9535  0.4769
 3838SOL    HW223148   2.599   0.256   7.733  0.1057  0.5620  0.6992
 3839SOL     OW23149   1.808   4.395   7.151  0.0579 -0.4393  0.1050
 3839SOL    HW123150   1.880   4.360   7.203 -0.0401 -0.9244 -0.0849
 3839SOL    HW223151   1.737   4.343   7.190 -1.1736 -0.0753 -1.6520
 3840SOL     OW23152   4.641   2.932   3.350  0.1312  0.2674  0.6344
 3840SOL    HW123153   4.675   3.019   3.331 -0.0661  0.2590  0.2474
 3840SOL    HW223154   4.718   2.894   3.393  0.4788 -0.8518 -0.9705
 3841SOL     OW23155   2.619   2.772   2.129  0.2830  0.4061 -0.0603
 3841SOL    HW123156   2.535   2.759   2.085 -1.3893 -0.1538  3.3599
 3841SOL    HW223157   2.599   2.846   2.186  1.5476 -0.9535  2.1693
 3842SOL     OW23158   3.157   1.066   6.270  0.5941 -0.2609  0.2455
 3842SOL    HW123159   3.133   1.017   6.191 -0.8481  0.6129  0.1295
 3842SOL    HW223160   3.249   1.046   6.285  0.3963 -0.4782  1.1430
 3843SOL     OW23161   3.488   1.502  14.848  0.5891  0.0291  0.4607
 3843SOL    HW123162   3.510   1.411  14.865  0.9142 -0.2375 -1.4065
 3843SOL    HW223163   3.419   1.487  14.783  0.8463  0.7243  0.0202
 3844SOL     OW23164   4.446   0.280   3.508 -0.3093 -0.0078 -0.2953
 3844SOL    HW123165   4.411   0.291   3.419  2.3986 -0.3705 -1.4212
 3844SOL    HW223166   4.400   0.204   3.543 -2.0570  1.2648  0.1793
 3845SOL     OW23167   1.173   1.827  12.822  0.5780  0.1447  0.1824
 3845SOL    HW123168   1.219   1.910  12.833  0.7874  0.1632 -0.8656
 3845SOL    HW223169   1.251   1.773  12.812  0.4989  0.1335 -0.3674
 3846SOL     OW23170   3.579   0.539   3.001 -1.0041 -0.2489 -0.3002
 3846SOL    HW123171   3.567   0.512   2.910 -0.3407  0.1689 -0.5144
 3846SOL    HW223172   3.655   0.598   3.000 -2.2255  1.2949 -0.6286
 3847SOL     OW23173   0.978   1.196  14.589 -0.3772 -0.0255  0.3892
 3847SOL    HW123174   0.924   1.161  14.660 -0.8587 -0.4071 -0.1667
 3847SOL    HW223175   1.050   1.238  14.637 -1.3892  2.2199 -0.0790
 3848SOL     OW23176   2.940   1.647   3.827 -0.4974  0.2621 -0.0282
 3848SOL    HW123177   2.967   1.636   3.918  2.0215  1.5858 -0.6117
 3848SOL    HW223178   2.845   1.632   3.831 -0.4117 -0.5019 -0.7427
 3849SOL     OW23179   1.883   2.961   9.692  0.0131 -0.3512 -0.1474
 3849SOL    HW123180   1.951   3.027   9.679  0.0472  0.1832  2.7360
 3849SOL    HW223181   1.889   2.902   9.616  1.0336 -1.1612  0.5603
 3850SOL     OW23182   0.149   2.659  17.173 -0.6342 -0.6333  0.0827
 3850SOL    HW123183   0.220   2.698  17.123  0.7512 -0.9574  1.7984
 3850SOL    HW223184   0.101   2.739  17.194 -2.6830 -1.3955 -1.6992
 3851SOL     OW23185   1.760   3.839   4.334 -0.9287  0.4894 -0.1019
 3851SOL    HW123186   1.712   3.831   4.417  2.1901  2.3139  1.8877
 3851SOL    HW223187   1.791   3.749   4.323 -0.9059  0.5893 -0.8188
 3852SOL     OW23188   4.708   1.537  15.544 -0.0239  0.6258 -0.3589
 3852SOL    HW123189   4.626   1.520  15.591  0.3046  1.2438  0.4557
 3852SOL    HW223190   4.681   1.576  15.461 -0.2981 -3.4921 -2.2026
 3853SOL     OW23191   0.532   2.579   8.908  0.7872 -0.1859 -0.2907
 3853SOL    HW123192   0.537   2.490   8.873 -2.7381 -0.1749 -0.8874
 3853SOL    HW223193   0.596   2.581   8.979 -1.1960 -1.1237  1.5197
 3854SOL     OW23194   2.913   3.997   6.825  0.5538  0.4559  0.2223
 3854SOL    HW123195   2.842   3.950   6.782  1.6235 -1.0994  0.1382
 3854SOL    HW223196   2.921   4.062   6.756 -1.7629 -2.3461 -2.6754
 3855SOL     OW23197   4.482   2.715   8.819  0.1363 -0.3496  0.0906
 3855SOL    HW123198   4.564   2.705   8.866  0.5094 -0.0641 -0.4984
 3855SOL    HW223199   4.431   2.763   8.885  1.4875  0.5117  0.5057
 3856SOL     OW23200   0.976   4.605   8.695 -0.2259 -0.5611  0.2877
 3856SOL    HW123201   0.887   4.569   8.699  0.3906 -2.1114  0.2306
 3856SOL    HW223202   1.023   4.543   8.752  0.2622 -1.4534 -1.0915
 3857SOL     OW23203   1.154   4.162   4.419  0.0123  0.4001  0.3250
 3857SOL    HW123204   1.142   4.220   4.343 -1.2674  0.4766  0.5939
 3857SOL    HW223205   1.247   4.138   4.414  0.0459  0.7355 -0.6912
 3858SOL     OW23206   2.797   2.779  14.842  0.2625  0.1672 -0.2892
 3858SOL    HW123207   2.851   2.773  14.763  0.9264  2.5475 -0.0043
 3858SOL    HW223208   2.766   2.869  14.842  0.4845  0.2449 -0.1767
 3859SOL     OW23209   4.596   2.409   5.150 -0.8973  0.2713  0.1810
 3859SOL    HW123210   4.673   2.384   5.099 -0.0724  1.4056  0.8757
 3859SOL    HW223211   4.564   2.473   5.087 -0.8399 -0.4721 -0.6048
 3860SOL     OW23212   3.138   0.499   1.701  0.5820  0.3371  0.3119
 3860SOL    HW123213   3.176   0.587   1.696 -2.0797  1.5895  2.1580
 3860SOL    HW223214   3.067   0.504   1.766 -1.1783 -0.4410 -1.5646
 3861SOL     OW23215   2.943   0.348   3.556 -0.6463 -0.5789  0.5716
 3861SOL    HW123216   2.868   0.404   3.576 -0.4645 -0.4657  0.9434
 3861SOL    HW223217   2.906   0.311   3.476 -1.3448  2.3275 -0.4605
 3862SOL     OW23218   3.350   3.369   5.315 -0.2625  0.3626 -0.1407
 3862SOL    HW123219   3.431   3.346   5.360 -0.2999  1.9924  0.7842
 3862SOL    HW223220   3.293   3.381   5.392  0.6792  1.5669  0.3683
 3863SOL     OW23221   1.051   0.295   5.897  0.1557  0.5387 -0.3520
 3863SOL    HW123222   1.106   0.319   5.823  3.0606 -0.6678  1.4258
 3863SOL    HW223223   1.052   0.199   5.894 -3.5480  0.4255  1.9511
 3864SOL     OW23224   2.603   2.690   8.806  0.4910  0.8847  0.3106
 3864SOL    HW123225   2.577   2.615   8.860  1.4325  1.5700  1.6977
 3864SOL    HW223226   2.692   2.658   8.790  1.2944  2.8213  0.9840
 3865SOL     OW23227   3.598   4.078  10.364 -0.6474  0.3840  0.1349
 3865SOL    HW123228   3.682   4.101  10.324  0.5407 -0.9607  1.8494
 3865SOL    HW223229   3.569   4.156  10.410 -1.1693 -1.2216  2.5581
 3866SOL     OW23230   2.290   2.968   1.367  0.0414  0.1744 -0.1491
 3866SOL    HW123231   2.343   3.034   1.323  0.8280  0.5047  1.2713
 3866SOL    HW223232   2.331   2.960   1.453  0.0629  0.0672 -0.1686
 3867SOL     OW23233   1.254   0.087   9.205 -0.7576 -0.2820 -0.2498
 3867SOL    HW123234   1.220   0.024   9.269  1.6092 -0.9010  0.3684
 3867SOL    HW223235   1.179   0.109   9.149 -1.8970 -2.2747  0.4803
 3868SOL     OW23236   3.702   3.872   7.460  0.2825  0.4175 -0.0551
 3868SOL    HW123237   3.635   3.899   7.398  0.9373  1.2477 -0.3973
 3868SOL    HW223238   3.647   3.866   7.538  0.0752  0.7827 -0.1718
 3869SOL     OW23239   3.528   2.677   4.934 -0.6622 -0.2201  0.2558
 3869SOL    HW123240   3.484   2.736   4.874 -1.5505 -0.8445  0.2954
 3869SOL    HW223241   3.568   2.729   5.005  0.3896  1.0981 -1.3149
 3870SOL     OW23242   0.269   0.425   2.670 -0.0023  0.5265 -0.3997
 3870SOL    HW123243   0.335   0.480   2.713 -1.6302  2.1232  0.0059
 3870SOL    HW223244   0.214   0.487   2.624 -0.7462 -0.9700 -1.5267
 3871SOL     OW23245   1.487   3.993   6.812  0.5014  0.0398 -0.4879
 3871SOL    HW123246   1.391   3.988   6.810  0.4093  2.5805 -1.7907
 3871SOL    HW223247   1.506   3.949   6.896  0.2382  1.8442  0.5171
 3872SOL     OW23248   1.192   0.979   7.959  0.0749 -0.4213  0.2616
 3872SOL    HW123249   1.171   1.072   7.968 -1.1008 -0.5418 -1.2889
 3872SOL    HW223250   1.101   0.949   7.957  0.9899 -3.2260  0.2756
 3873SOL     OW23251   1.792   2.371   8.271 -0.7426  0.2810 -0.0755
 3873SOL    HW123252   1.815   2.399   8.360 -0.8778  1.3333 -0.3815
 3873SOL    HW223253   1.732   2.298   8.290 -0.3301 -0.1272 -0.3508
 3874SOL     OW23254   1.064   3.771   7.881  0.2414 -0.1766 -0.0689
 3874SOL    HW123255   1.067   3.774   7.976 -0.5217 -1.2220 -0.0096
 3874SOL    HW223256   1.065   3.677   7.861 -1.0895 -0.0995 -0.5059
 3875SOL     OW23257   0.263   2.696   8.752  0.4108 -0.2421  0.0226
 3875SOL    HW123258   0.337   2.640   8.728 -0.0855 -0.3039 -1.3526
 3875SOL    HW223259   0.215   2.642   8.815  0.1765  0.5277  0.5032
 3876SOL     OW23260   1.452   0.947  17.705 -0.0518 -0.4101  0.2877
 3876SOL    HW123261   1.366   0.950   0.005  0.1322  0.0397  0.6166
 3876SOL    HW223262   1.471   1.036  17.676 -2.5059 -0.4974 -1.5764
 3877SOL     OW23263   0.333   1.507   2.645  0.1071 -0.0459  0.0408
 3877SOL    HW123264   0.362   1.418   2.664  0.6213 -0.1104 -1.0595
 3877SOL    HW223265   0.420   1.518   2.607  0.4933  1.4467  1.3645
 3878SOL     OW23266   0.412   1.048   8.480 -1.0078  0.1923 -0.2920
 3878SOL    HW123267   0.452   0.966   8.452  0.3507  0.4734  0.8622
 3878SOL    HW223268   0.319   1.033   8.462 -1.5556  1.4003  1.5603
 3879SOL     OW23269   2.165   3.080   7.974  0.1137  0.3917  0.1529
 3879SOL    HW123270   2.245   3.128   7.995 -1.4704  2.7323  0.8592
 3879SOL    HW223271   2.166   3.086   7.878  2.8223 -0.0840  0.1611
 3880SOL     OW23272   0.603   4.359   0.503 -0.0327 -0.0497 -0.7164
 3880SOL    HW123273   0.666   4.289   0.520 -0.1308  0.3092  1.1417
 3880SOL    HW223274   0.521   4.314   0.484 -1.7583  1.6873  2.5474
 3881SOL     OW23275   0.008   3.144  10.009 -0.1466 -0.4710  0.9334
 3881SOL    HW123276   4.679   3.213  10.018  1.7713  1.4665 -0.1187
 3881SOL    HW223277   4.700   3.082  10.068  0.5757 -2.3689 -0.5137
 3882SOL     OW23278   4.106   4.366  17.398  0.1013 -0.0451  0.1370
 3882SOL    HW123279   4.022   4.328  17.370 -0.2879 -0.0806  1.3736
 3882SOL    HW223280   4.109   4.430  17.326  0.1365  1.3650  1.3938
 3883SOL     OW23281   4.051   2.181   3.015  0.0796 -0.2269 -0.5663
 3883SOL    HW123282   3.963   2.171   2.979  0.8072 -1.9807 -1.9050
 3883SOL    HW223283   4.097   2.233   2.949  0.5816  0.1626  0.0941
 3884SOL     OW23284   2.654   3.098   1.883 -0.0771  0.8049 -0.0050
 3884SOL    HW123285   2.710   3.151   1.826  1.3734  1.1819  1.7761
 3884SOL    HW223286   2.731   3.072   1.933  0.0303 -1.5369 -1.4226
 3885SOL     OW23287   0.521   3.235   7.116 -0.1641 -0.6746  0.1649
 3885SOL    HW123288   0.571   3.163   7.154 -1.7375 -1.4678  0.7621
 3885SOL    HW223289   0.465   3.183   7.058 -1.2705 -0.5179  1.0932
 3886SOL     OW23290   1.949   1.924   9.546  0.1903  0.0090 -0.9089
 3886SOL    HW123291   1.869   1.883   9.512 -0.2569  1.5082 -1.6496
 3886SOL    HW223292   1.925   2.016   9.556 -0.0313 -0.1983  0.4626
 3887SOL     OW23293   4.698   4.419   6.044 -0.2308  0.2533 -0.2943
 3887SOL    HW123294   0.015   4.487   6.003 -0.0334  1.8090  2.5508
 3887SOL    HW223295   4.725   4.425   6.136  1.7051 -0.6869 -0.8019
 3888SOL     OW23296   0.344   2.465   3.086  0.0403  0.2383 -0.2683
 3888SOL    HW123297   0.381   2.442   3.001  1.4086  1.4654 -0.0033
 3888SOL    HW223298   0.264   2.412   3.094 -0.1777  0.3028 -2.1080
 3889SOL     OW23299   3.599   4.540   4.316 -0.1547 -0.0724  1.0472
 3889SOL    HW123300   3.650   4.465   4.285 -0.0604 -0.4894  2.1769
 3889SOL    HW223301   3.662   4.610   4.331 -0.8993  0.9027 -0.3755
 3890SOL     OW23302   1.110   0.850   2.363  0.0724 -0.2774 -0.1789
 3890SOL    HW123303   1.027   0.813   2.394  0.1714 -0.7745 -0.4983
 3890SOL    HW223304   1.108   0.944   2.377  0.3538 -0.2478 -0.3342
 3891SOL     OW23305   0.803   2.320   7.948 -0.2597 -0.3768 -0.8108
 3891SOL    HW123306   0.755   2.288   7.872  0.5671 -1.0296 -1.0620
 3891SOL    HW223307   0.761   2.405   7.952  1.1853  0.3286 -0.5974
 3892SOL     OW23308   1.599   2.814   2.803 -0.3357 -0.1578 -0.2478
 3892SOL    HW123309   1.651   2.883   2.843  0.1812 -0.8676  0.3051
 3892SOL    HW223310   1.558   2.863   2.732 -0.0527  0.0357 -0.2757
 3893SOL     OW23311   0.799   0.382  17.110  0.3432 -0.9467  0.7667
 3893SOL    HW123312   0.831   0.374  17.021 -1.1619  0.5219  0.0821
 3893SOL    HW223313   0.708   0.351  17.102  0.6098 -1.9478  1.6376
 3894SOL     OW23314   3.898   1.483   5.271 -0.4551 -0.2012 -0.5057
 3894SOL    HW123315   3.929   1.518   5.355 -1.3697 -2.8062  0.9113
 3894SOL    HW223316   3.805   1.475   5.289 -0.2236 -0.4622  0.5875
 3895SOL     OW23317   1.465   2.901   2.241 -0.1782  0.3615  0.3200
 3895SOL    HW123318   1.455   2.912   2.146 -2.0402 -1.0335  0.3541
 3895SOL    HW223319   1.554   2.867   2.246 -0.7139 -1.2435 -0.9818
 3896SOL     OW23320   2.850   4.710  10.194  0.3571 -0.4259 -0.5655
 3896SOL    HW123321   2.767   0.009  10.228  0.2059 -0.7512 -0.6046
 3896SOL    HW223322   2.848   0.022  10.112  0.4035 -0.4183 -0.5620
 3897SOL     OW23323   3.955   1.831   9.619 -0.0852  0.6562 -0.1540
 3897SOL    HW123324   3.888   1.792   9.675 -0.3954 -1.7447 -2.1879
 3897SOL    HW223325   4.019   1.864   9.681  0.6824  0.0095 -0.5861
 3898SOL     OW23326   2.933   1.469  13.374 -0.3344 -0.6943 -0.1105
 3898SOL    HW123327   2.919   1.503  13.462 -0.2865  0.8300 -0.6802
 3898SOL    HW223328   3.028   1.479  13.365 -0.4659 -0.1268 -0.9280
 3899SOL     OW23329   1.757   0.351  12.841 -0.1744  0.5392  0.0866
 3899SOL    HW123330   1.741   0.305  12.924 -0.5036  0.3706 -0.0707
 3899SOL    HW223331   1.810   0.426  12.869 -0.7450  2.0630 -3.0072
 3900SOL     OW23332   2.392   0.421   1.511 -0.0805  0.2761 -0.5404
 3900SOL    HW123333   2.470   0.410   1.456 -1.0731  0.6671 -1.9948
 3900SOL    HW223334   2.376   0.515   1.506 -3.3677 -0.2806 -0.5402
 3901SOL     OW23335   1.634   3.984   2.578 -0.0298 -0.5388  0.4481
 3901SOL    HW123336   1.585   3.917   2.626  2.2360 -2.2980  0.3206
 3901SOL    HW223337   1.692   4.005   2.652 -2.7446  2.1049  1.8239
 3902SOL     OW23338   2.417   2.270   2.085  0.5856 -0.0221  0.0084
 3902SOL    HW123339   2.508   2.261   2.112  0.6196 -0.0100 -0.1062
 3902SOL    HW223340   2.367   2.254   2.166  0.5626  1.1934  0.2408
 3903SOL     OW23341   2.230   0.367  15.888  0.1791 -0.5758  0.3507
 3903SOL    HW123342   2.172   0.299  15.854 -0.9200 -0.8987  2.8946
 3903SOL    HW223343   2.308   0.348  15.836 -0.5917 -1.6848 -0.3926
 3904SOL     OW23344   4.441   2.176  13.706  0.1324  0.4604 -0.2805
 3904SOL    HW123345   4.428   2.136  13.792  1.0421  0.6925 -0.0354
 3904SOL    HW223346   4.421   2.269  13.707 -2.7823 -0.1722  0.2304
 3905SOL     OW23347   2.142   2.888   8.344  0.4905 -0.2410 -0.3933
 3905SOL    HW123348   2.089   2.816   8.376 -1.4264  1.8415  1.1581
 3905SOL    HW223349   2.180   2.925   8.424 -1.5300 -0.7102  0.7813
 3906SOL     OW23350   4.551   4.475   2.222 -0.4039  0.3087 -0.1275
 3906SOL    HW123351   4.637   4.488   2.182  0.3335 -2.4815  0.5623
 3906SOL    HW223352   4.507   4.457   2.139 -0.2183  0.2472 -0.2120
 3907SOL     OW23353   3.463   3.893  15.711 -0.5258  0.2739 -0.2491
 3907SOL    HW123354   3.528   3.894  15.640  0.3633 -0.7859  0.5609
 3907SOL    HW223355   3.403   3.962  15.682  2.4171  2.6861 -0.5543
 3908SOL     OW23356   1.906   2.947   8.705 -0.1378 -0.0252 -0.1476
 3908SOL    HW123357   1.868   2.860   8.695 -1.4798  0.3842  1.3770
 3908SOL    HW223358   1.831   3.006   8.710  1.1855  1.8941 -3.1691
 3909SOL     OW23359   0.672   1.721   6.204  0.2483 -0.0916 -0.1522
 3909SOL    HW123360   0.726   1.762   6.137  1.3291 -0.7205  0.3248
 3909SOL    HW223361   0.726   1.646   6.230  1.3017  0.6654 -0.1490
 3910SOL     OW23362   2.498   0.287  13.677  0.0048  0.1906  0.2643
 3910SOL    HW123363   2.480   0.243  13.594 -1.0764  2.9955 -0.9875
 3910SOL    HW223364   2.499   0.378  13.648 -2.4167  0.8199  2.1886
 3911SOL     OW23365   0.016   4.283  15.174  0.1422 -0.0414  0.2226
 3911SOL    HW123366   4.695   4.326  15.238 -0.5949 -0.9246  0.1425
 3911SOL    HW223367   0.030   4.196  15.210 -0.4303 -0.1671  0.1286
 3912SOL     OW23368   0.048   3.810   3.196 -0.6691 -0.2810  0.1680
 3912SOL    HW123369   0.034   3.885   3.137 -0.6203  1.9211  2.9661
 3912SOL    HW223370   4.728   3.743   3.158 -1.9125  0.3241  0.9400
 3913SOL     OW23371   0.152   1.122  16.446 -0.1396 -0.0557  0.1537
 3913SOL    HW123372   0.133   1.039  16.402 -0.9019  0.3714 -0.3246
 3913SOL    HW223373   0.084   1.123  16.513 -1.9586  1.2705 -1.6919
 3914SOL     OW23374   2.595   1.078   8.359 -0.6015  0.2053 -0.5144
 3914SOL    HW123375   2.685   1.110   8.365 -0.5969  0.2662 -0.9071
 3914SOL    HW223376   2.543   1.157   8.377  0.6380  1.3678 -2.0204
 3915SOL     OW23377   4.339   1.890   4.827 -0.2282  0.5111  0.0781
 3915SOL    HW123378   4.277   1.834   4.780 -1.4207 -0.9011  3.3394
 3915SOL    HW223379   4.292   1.964   4.866 -1.7548  0.3645 -1.4647
 3916SOL     OW23380   3.344   0.887   3.542  0.2201 -0.0581 -0.4559
 3916SOL    HW123381   3.343   0.792   3.547 -1.0954  0.0248  0.8707
 3916SOL    HW223382   3.422   0.919   3.588  0.1354 -2.1942  1.1781
 3917SOL     OW23383   1.388   4.252   5.546 -0.2995  0.2019  0.4550
 3917SOL    HW123384   1.450   4.274   5.477 -0.9616 -0.7763 -0.4441
 3917SOL    HW223385   1.341   4.184   5.500  1.4897 -1.9642  1.8335
 3918SOL     OW23386   1.661   1.900   4.195 -0.2091 -0.0177  0.1502
 3918SOL    HW123387   1.611   1.963   4.247  1.4463 -0.7934  2.6756
 3918SOL    HW223388   1.742   1.902   4.246  1.9942 -1.3246 -3.2335
 3919SOL     OW23389   3.267   2.965  11.030 -0.2855  0.3414 -0.1421
 3919SOL    HW123390   3.235   2.970  10.940  0.4322  0.3363 -0.3948
 3919SOL    HW223391   3.319   3.045  11.036  2.2317 -1.1907 -1.5729
 3920SOL     OW23392   3.267   0.137   2.049 -0.3040  0.1370 -0.3989
 3920SOL    HW123393   3.339   0.161   2.107 -1.1836 -1.4332  1.3428
 3920SOL    HW223394   3.209   0.091   2.111  2.7655  0.5593  2.7673
 3921SOL     OW23395   0.917   4.057   7.994 -0.4849  0.2387 -0.8397
 3921SOL    HW123396   1.009   4.083   7.985  0.0399 -1.2885  0.0454
 3921SOL    HW223397   0.893   4.074   8.085  0.6911  0.4060 -0.5596
 3922SOL     OW23398   4.321   2.841   5.420 -0.2014 -0.1315  1.1523
 3922SOL    HW123399   4.244   2.882   5.381 -0.9020 -2.0150  0.5399
 3922SOL    HW223400   4.330   2.753   5.383 -1.5483  0.1681  0.1102
 3923SOL     OW23401   4.728   3.283  11.779 -0.1786 -0.3119  0.6326
 3923SOL    HW123402   0.040   3.310  11.858  0.0061 -0.4774  0.5770
 3923SOL    HW223403   4.646   3.330  11.791 -0.8795 -1.7958  1.6162
 3924SOL     OW23404   3.433   2.875   8.436 -0.8543  0.3291  0.1917
 3924SOL    HW123405   3.519   2.861   8.475 -1.7193 -0.6334  1.7804
 3924SOL    HW223406   3.380   2.823   8.497 -1.1033 -0.5091 -0.7401
 3925SOL     OW23407   4.147   2.404  17.349  0.5734 -0.8112 -0.2398
 3925SOL    HW123408   4.101   2.454  17.417  2.6149  0.9614 -0.1698
 3925SOL    HW223409   4.074   2.366  17.300 -0.8466  0.4379  0.9205
 3926SOL     OW23410   3.443   2.627   1.570  0.2647 -0.1667 -0.4409
 3926SOL    HW123411   3.535   2.651   1.561  0.5314 -1.5166 -1.2704
 3926SOL    HW223412   3.445   2.535   1.596  0.0042 -0.4820 -1.5382
 3927SOL     OW23413   3.126   1.823   2.501 -0.0888 -0.2108 -0.0032
 3927SOL    HW123414   3.208   1.804   2.547 -0.0282 -0.7370 -0.3309
 3927SOL    HW223415   3.140   1.901   2.448  2.2197 -0.7635 -0.1848
 3928SOL     OW23416   4.120   4.735   7.303  0.6368  0.0304 -0.0721
 3928SOL    HW123417   4.072   4.702   7.379  1.5514  1.2561  1.0167
 3928SOL    HW223418   4.085   0.086   7.289 -1.2564 -0.8190 -0.6981
 3929SOL     OW23419   2.172   3.882   2.517 -0.3692  0.2440 -0.4824
 3929SOL    HW123420   2.117   3.952   2.553  0.2385  0.5002 -0.0522
 3929SOL    HW223421   2.106   3.818   2.490 -0.7338  1.5901 -2.7028
 3930SOL     OW23422   3.643   0.754   5.234 -0.4127 -0.0514  0.3907
 3930SOL    HW123423   3.674   0.844   5.228 -0.2823 -0.0667  0.8222
 3930SOL    HW223424   3.591   0.764   5.154 -0.5669 -1.3424  0.3205
 3931SOL     OW23425   0.122   3.683  17.373 -0.0264 -0.2619  0.4970
 3931SOL    HW123426   0.036   3.646  17.391  1.0317 -2.4090  1.1241
 3931SOL    HW223427   0.180   3.606  17.379 -1.0668 -1.0437  0.4768
 3932SOL     OW23428   2.873   3.355  11.261 -0.1870  0.2862 -0.0270
 3932SOL    HW123429   2.855   3.287  11.327  1.9272 -0.6863 -0.4565
 3932SOL    HW223430   2.790   3.371  11.216 -0.4311  0.8932  0.6395
 3933SOL     OW23431   2.639   1.517  11.157 -0.3275  0.4388 -0.4682
 3933SOL    HW123432   2.583   1.594  11.153  1.4789  1.7490 -0.7264
 3933SOL    HW223433   2.620   1.478  11.242 -0.0768  2.2240  0.3825
 3934SOL     OW23434   0.172   1.327  17.147 -0.7697 -0.5575 -0.2701
 3934SOL    HW123435   0.216   1.243  17.158 -0.4825 -0.3047  0.5262
 3934SOL    HW223436   0.241   1.365  17.092 -1.3995  1.2269  0.1579
 3935SOL     OW23437   3.385   1.097   8.736  0.1955 -0.1841 -0.8355
 3935SOL    HW123438   3.324   1.161   8.772  2.2120  0.5802  1.3166
 3935SOL    HW223439   3.363   1.011   8.771  0.2457  0.2795  0.3396
 3936SOL     OW23440   2.757   4.002   1.672  0.8062 -0.4489 -0.0289
 3936SOL    HW123441   2.851   4.014   1.682  0.9468 -0.5873 -1.1104
 3936SOL    HW223442   2.730   4.075   1.728 -0.8859 -0.5985 -0.6520
 3937SOL     OW23443   0.800   1.252   2.255 -0.1483  0.3910 -0.0776
 3937SOL    HW123444   0.879   1.205   2.227 -0.0617  0.4207  0.1156
 3937SOL    HW223445   0.816   1.338   2.217  1.3949  0.4249  0.6462
 3938SOL     OW23446   3.396   3.298   2.493  0.3217 -0.5200 -0.7649
 3938SOL    HW123447   3.318   3.320   2.442 -1.4771 -1.7783  1.4434
 3938SOL    HW223448   3.463   3.360   2.465 -0.0693  0.5507  0.6675
 3939SOL     OW23449   2.518   1.918   5.135 -0.2438 -0.0832  0.4367
 3939SOL    HW123450   2.506   1.863   5.057 -3.0196 -0.6822  1.3201
 3939SOL    HW223451   2.511   1.849   5.202 -2.1887 -0.1595  0.1370
 3940SOL     OW23452   3.194   3.754   2.038  0.2054 -0.2521  0.0683
 3940SOL    HW123453   3.236   3.669   2.023 -0.4874 -0.1584 -2.4570
 3940SOL    HW223454   3.270   3.802   2.069 -1.2586  1.3652  1.2055
 3941SOL     OW23455   2.235   1.191   3.346  0.1328  0.2466 -0.1782
 3941SOL    HW123456   2.293   1.116   3.342 -0.9790 -0.6796  1.0067
 3941SOL    HW223457   2.282   1.272   3.326  0.3769  0.5549  1.6283
 3942SOL     OW23458   2.000   0.046   4.766 -0.7022  0.2023  0.4654
 3942SOL    HW123459   2.007   4.692   4.797 -0.0118  0.1837  0.2694
 3942SOL    HW223460   1.909   0.043   4.736 -0.4299 -0.0745 -0.3613
 3943SOL     OW23461   2.311   2.518   4.915  0.8397  0.0685  0.2108
 3943SOL    HW123462   2.324   2.423   4.908  1.9910  0.3332 -1.3404
 3943SOL    HW223463   2.396   2.551   4.883 -0.2500  1.9379 -0.7484
 3944SOL     OW23464   0.859   4.663   5.764 -0.2958  0.2574 -0.0762
 3944SOL    HW123465   0.815   4.672   5.849  2.2574 -0.4250  1.3109
 3944SOL    HW223466   0.949   4.645   5.789 -0.0250  3.2672  1.1240
 3945SOL     OW23467   0.248   2.310   4.546  0.1877 -0.5449  0.2994
 3945SOL    HW123468   0.279   2.294   4.457  1.3345 -1.8661  0.9469
 3945SOL    HW223469   0.315   2.279   4.607 -0.5096 -1.5616  0.5545
 3946SOL     OW23470   4.045   1.765   7.970  0.4878 -0.3296  0.1929
 3946SOL    HW123471   4.112   1.832   7.985  1.7223 -0.8520 -2.9763
 3946SOL    HW223472   4.050   1.760   7.874  0.4350 -0.5944  0.2034
 3947SOL     OW23473   0.226   0.831   5.434  1.0279 -0.1142  0.2415
 3947SOL    HW123474   0.266   0.909   5.396 -1.8435  0.3853 -1.7141
 3947SOL    HW223475   0.160   0.818   5.367  1.3000  0.1365 -0.0730
 3948SOL     OW23476   1.157   3.132  12.397  0.1329  0.0269  0.5598
 3948SOL    HW123477   1.120   3.049  12.429  1.4282 -0.9942 -0.6410
 3948SOL    HW223478   1.237   3.143  12.448 -0.7917  1.2607  1.7604
 3949SOL     OW23479   4.301   0.759   6.258 -0.1218 -0.2742  0.3694
 3949SOL    HW123480   4.393   0.762   6.232 -0.0073 -1.2523  0.6546
 3949SOL    HW223481   4.281   0.666   6.253  1.4962 -0.6124  0.3373
 3950SOL     OW23482   2.774   2.789  17.726  0.0395  0.1325 -0.4166
 3950SOL    HW123483   2.700   2.827   0.029 -0.2064  0.5946 -1.1842
 3950SOL    HW223484   2.848   2.808   0.040  1.2551  2.3831 -2.6944
 3951SOL     OW23485   1.784   3.233   4.604 -0.1551 -0.1766  0.2014
 3951SOL    HW123486   1.873   3.222   4.571  0.2252 -0.9347  1.4809
 3951SOL    HW223487   1.733   3.166   4.558  0.6314  0.8484 -2.1889
 3952SOL     OW23488   2.448   2.354   5.188 -0.2054 -0.5746 -0.0752
 3952SOL    HW123489   2.489   2.357   5.101 -0.5309 -2.3942 -0.2914
 3952SOL    HW223490   2.384   2.284   5.179 -0.7781  0.1960 -2.0699
 3953SOL     OW23491   1.804   1.182   2.287 -0.7164 -0.0554  0.4315
 3953SOL    HW123492   1.757   1.099   2.274 -1.0065  0.0286  0.9478
 3953SOL    HW223493   1.853   1.151   2.364  1.7992  1.9334 -0.3875
 3954SOL     OW23494   1.861   4.277  11.998  0.0677  0.1792 -0.1224
 3954SOL    HW123495   1.830   4.198  12.042 -0.9236  2.4889  3.2559
 3954SOL    HW223496   1.842   4.332  12.074  1.4914 -1.2157  1.2473
 3955SOL     OW23497   3.366   0.945   1.827 -0.5313  0.4347  0.0392
 3955SOL    HW123498   3.315   1.025   1.837  0.4082  0.8886  1.2682
 3955SOL    HW223499   3.342   0.901   1.909 -0.1578  2.2579  1.1247
 3956SOL     OW23500   4.596   2.263   6.251 -0.2962  0.1173 -0.3178
 3956SOL    HW123501   4.532   2.312   6.302  0.0209 -0.5627  0.7492
 3956SOL    HW223502   4.571   2.174   6.276 -1.8458  0.2544 -1.3928
 3957SOL     OW23503   4.629   3.255   0.141 -0.2025  0.4009 -0.1442
 3957SOL    HW123504   4.643   3.163   0.163 -0.6156  0.6650  1.1751
 3957SOL    HW223505   4.646   3.261   0.047  2.3768 -0.2567  0.2779
 3958SOL     OW23506   4.296   4.487   7.096  0.3988  0.3290 -0.2021
 3958SOL    HW123507   4.215   4.468   7.143  1.7990 -1.3397  1.5869
 3958SOL    HW223508   4.324   4.395   7.091 -1.5831 -0.2265 -0.8465
 3959SOL     OW23509   4.733   3.832  15.789  0.0885  0.3074 -0.4118
 3959SOL    HW123510   0.015   3.909  15.842  3.1513 -0.6663 -0.0357
 3959SOL    HW223511   4.674   3.780  15.843  1.5711  1.4293  2.2550
 3960SOL     OW23512   0.394   0.804   4.674  0.0391 -0.0412  0.2299
 3960SOL    HW123513   0.332   0.734   4.697 -0.2375  0.2511  0.3754
 3960SOL    HW223514   0.367   0.830   4.585 -1.1195  0.4937  0.7326
 3961SOL     OW23515   3.378   3.037   4.514 -0.2190  0.0652  0.0629
 3961SOL    HW123516   3.414   3.075   4.594 -2.2686  1.7712  0.1962
 3961SOL    HW223517   3.438   2.968   4.487  0.6374  2.3787 -3.9568
 3962SOL     OW23518   0.575   1.691   5.324  0.2545 -0.0257  0.0524
 3962SOL    HW123519   0.665   1.671   5.350  0.7984 -1.1864 -2.6131
 3962SOL    HW223520   0.530   1.708   5.406  0.5286  0.9073  0.0110
 3963SOL     OW23521   3.805   0.320   3.488 -0.4735 -0.0255  0.7323
 3963SOL    HW123522   3.742   0.353   3.424 -0.9093 -2.0302  0.1126
 3963SOL    HW223523   3.758   0.242   3.518  1.9719 -1.4457  0.8995
 3964SOL     OW23524   1.724   0.138   2.750  0.2264 -0.2074 -0.3573
 3964SOL    HW123525   1.686   0.051   2.743  0.4556 -0.1863 -1.8073
 3964SOL    HW223526   1.784   0.113   2.820  0.1197 -0.8570 -0.5041
 3965SOL     OW23527   1.749   2.054   2.719 -0.4182 -0.4778 -0.1702
 3965SOL    HW123528   1.750   2.126   2.783 -5.3168  0.2687 -0.9088
 3965SOL    HW223529   1.839   2.066   2.690 -0.4930  0.1945 -0.1335
 3966SOL     OW23530   2.324   3.463  16.683 -0.6668 -0.2656 -0.0780
 3966SOL    HW123531   2.303   3.526  16.615 -3.4551 -0.9554  0.1742
 3966SOL    HW223532   2.244   3.411  16.689 -1.3740  0.6032 -2.2354
 3967SOL     OW23533   3.221   1.693   1.580 -0.8717  0.2494  0.2747
 3967SOL    HW123534   3.182   1.780   1.587  0.1876  0.8066 -0.7977
 3967SOL    HW223535   3.177   1.636   1.643 -1.2391  2.1348  1.7030
 3968SOL     OW23536   3.809   3.343  13.505 -0.2327 -0.2925 -0.0120
 3968SOL    HW123537   3.853   3.266  13.470  0.6901  0.0946  0.2928
 3968SOL    HW223538   3.744   3.368  13.438  0.8155  2.1035 -0.1247
 3969SOL     OW23539   2.227   1.390  10.884 -0.1553 -0.1147  0.3412
 3969SOL    HW123540   2.146   1.352  10.851  0.9354 -2.2467  0.0551
 3969SOL    HW223541   2.270   1.305  10.895 -0.1497 -0.4330 -2.0514
 3970SOL     OW23542   2.977   0.252   2.594 -0.4953  0.4347 -0.0045
 3970SOL    HW123543   2.952   0.162   2.576 -0.6692  0.5813 -0.4951
 3970SOL    HW223544   2.954   0.291   2.510 -0.2594  0.2502 -0.1524
 3971SOL     OW23545   2.007   3.679   5.183 -0.7965 -0.7354 -0.2348
 3971SOL    HW123546   1.912   3.672   5.174 -1.0583  1.0598  1.3881
 3971SOL    HW223547   2.017   3.756   5.238  2.3587 -2.2555  1.2968
 3972SOL     OW23548   2.640   0.513   3.259  0.0977 -0.2507  0.0071
 3972SOL    HW123549   2.656   0.605   3.240  2.5140 -0.8045 -0.6101
 3972SOL    HW223550   2.723   0.487   3.299 -1.5082  0.4960  3.8706
 3973SOL     OW23551   3.854   1.840   5.459  0.3608  0.3481 -0.8242
 3973SOL    HW123552   3.943   1.812   5.438 -0.5678 -2.2512 -1.3528
 3973SOL    HW223553   3.821   1.769   5.514  3.9499 -1.2638 -0.7236
 3974SOL     OW23554   4.122   2.045  14.885 -0.4186 -0.8475  0.3786
 3974SOL    HW123555   4.071   2.051  14.967 -1.4145  1.8940 -0.4659
 3974SOL    HW223556   4.049   2.021  14.828 -0.7956  0.4604  0.3184
 3975SOL     OW23557   1.092   1.572   3.336  0.0540 -0.7949 -0.6158
 3975SOL    HW123558   1.128   1.648   3.381 -1.5987 -0.2817 -0.1482
 3975SOL    HW223559   1.123   1.506   3.398  0.4343 -1.0292 -1.0539
 3976SOL     OW23560   4.417   1.508   3.137 -0.3306 -0.1835  0.2929
 3976SOL    HW123561   4.364   1.587   3.125  2.0433  1.2786 -0.5627
 3976SOL    HW223562   4.370   1.467   3.209 -0.9384  0.7829  0.4339
 3977SOL     OW23563   0.535   4.339   5.839 -0.0909  0.2301  0.1083
 3977SOL    HW123564   0.625   4.356   5.868 -0.4798  2.9888 -0.3187
 3977SOL    HW223565   0.555   4.344   5.745  0.5237  2.9923  0.4105
 3978SOL     OW23566   2.059   0.616   4.274  0.1308  0.0059 -0.0172
 3978SOL    HW123567   1.968   0.595   4.252  0.4649 -1.0045 -0.4012
 3978SOL    HW223568   2.066   0.695   4.220 -0.7529  0.2562  0.2406
 3979SOL     OW23569   4.336   2.161   2.414 -0.1454  0.1650  0.0692
 3979SOL    HW123570   4.344   2.223   2.486  0.3771  1.5051 -1.1311
 3979SOL    HW223571   4.427   2.133   2.406 -0.8622 -2.8229  2.3741
 3980SOL     OW23572   3.913   4.727   3.889 -0.9959  0.0833  0.1879
 3980SOL    HW123573   3.948   4.726   3.978 -0.1271 -1.6082 -0.1806
 3980SOL    HW223574   3.899   4.634   3.874 -0.6365  0.2423 -1.1928
 3981SOL     OW23575   2.506   1.973   4.415 -0.3730 -0.0547 -0.1143
 3981SOL    HW123576   2.412   1.970   4.395 -0.3676 -1.6421  0.1306
 3981SOL    HW223577   2.514   1.914   4.489 -1.4170 -2.3937 -1.8698
 3982SOL     OW23578   3.078   4.414   6.464  0.0565  0.1081 -0.3917
 3982SOL    HW123579   3.068   4.508   6.447  2.0539  0.4623  0.3731
 3982SOL    HW223580   2.987   4.399   6.489 -0.7541  2.4470 -1.9339
 3983SOL     OW23581   1.190   4.537   7.396  0.4322 -0.4370  0.3410
 3983SOL    HW123582   1.142   4.560   7.317  0.3587 -0.0330  0.5037
 3983SOL    HW223583   1.185   4.626   7.432 -0.8906 -0.2031 -0.4256
 3984SOL     OW23584   4.736   0.164   4.638 -0.9716 -0.2448  0.3529
 3984SOL    HW123585   4.686   0.241   4.664 -0.2560 -0.4469  2.3348
 3984SOL    HW223586   0.014   0.111   4.716 -0.4614  0.0859  0.4872
 3985SOL     OW23587   0.337   2.001   1.880 -0.1095 -0.4828  0.0148
 3985SOL    HW123588   0.407   2.051   1.837  0.0335  0.6494  1.5357
 3985SOL    HW223589   0.332   2.058   1.958 -2.4984 -0.2656 -0.3122
 3986SOL     OW23590   3.299   1.055   6.826  0.1001  0.2362  0.4508
 3986SOL    HW123591   3.314   0.994   6.753 -1.5636  1.8777 -1.2745
 3986SOL    HW223592   3.320   0.992   6.895 -0.7369 -0.6980 -0.1470
 3987SOL     OW23593   3.058   1.037  10.832 -0.6982  0.6350  0.0935
 3987SOL    HW123594   3.083   0.945  10.825 -0.1254  1.0465 -3.3026
 3987SOL    HW223595   2.966   1.025  10.807 -1.2175  0.7376  1.9842
 3988SOL     OW23596   0.272   4.108   5.417  0.3205 -0.0980 -0.0790
 3988SOL    HW123597   0.186   4.095   5.457  0.0176  0.8273 -0.4373
 3988SOL    HW223598   0.304   4.184   5.466 -1.4509 -0.5706  1.8123
 3989SOL     OW23599   3.203   2.427  10.818 -0.3153 -0.0207  0.0162
 3989SOL    HW123600   3.292   2.453  10.844  0.7346 -0.8608 -2.7518
 3989SOL    HW223601   3.210   2.331  10.821  0.2086  0.0240  0.3095
 3990SOL     OW23602   2.262   1.407   1.418  0.0901 -0.1013  0.2490
 3990SOL    HW123603   2.183   1.450   1.384 -0.0242  1.3897  2.3887
 3990SOL    HW223604   2.245   1.315   1.437  2.1398 -0.0913  2.1404
 3991SOL     OW23605   4.472   2.361   1.064 -0.3892  0.5051 -0.5287
 3991SOL    HW123606   4.400   2.324   1.012 -0.6904 -1.6308  1.3962
 3991SOL    HW223607   4.545   2.360   1.002 -0.0574 -1.9932 -0.1040
 3992SOL     OW23608   0.687   1.759  12.778  0.2687 -0.6424 -0.7659
 3992SOL    HW123609   0.671   1.734  12.869 -0.6745  0.5662 -0.6026
 3992SOL    HW223610   0.781   1.773  12.764  0.8841 -1.0458  2.9780
 3993SOL     OW23611   3.561   4.214   9.798 -0.5221 -0.4244 -0.2590
 3993SOL    HW123612   3.552   4.194   9.891  1.6471  0.5891  0.1726
 3993SOL    HW223613   3.601   4.302   9.800 -1.0996 -0.1484 -0.8415
 3994SOL     OW23614   3.603   1.388   3.077  0.0619 -0.7865  0.0132
 3994SOL    HW123615   3.656   1.323   3.033  1.4312 -0.5612  1.3322
 3994SOL    HW223616   3.663   1.463   3.084  0.8380 -1.3966 -0.1726
 3995SOL     OW23617   1.733   4.248   5.999 -0.7365 -0.0320  0.2313
 3995SOL    HW123618   1.671   4.187   5.960 -1.4320  0.8126  0.0261
 3995SOL    HW223619   1.687   4.330   5.982 -0.4422  0.5313  2.1591
 3996SOL     OW23620   4.106   2.353   5.689  0.1404 -0.2687 -0.1279
 3996SOL    HW123621   4.022   2.308   5.685  0.0142 -0.3701  3.4391
 3996SOL    HW223622   4.077   2.445   5.691 -2.2217 -1.0151 -0.4022
 3997SOL     OW23623   2.629   0.794   5.362 -0.1154 -0.0636  0.1703
 3997SOL    HW123624   2.714   0.795   5.317 -1.5314  0.1140 -2.5050
 3997SOL    HW223625   2.583   0.725   5.314  0.6421  0.5307 -1.4139
 3998SOL     OW23626   1.533   3.142  13.017 -0.5007 -0.3411  0.4022
 3998SOL    HW123627   1.448   3.111  13.049 -0.4145 -2.2035 -1.2358
 3998SOL    HW223628   1.545   3.208  13.086  0.4518  0.0102 -0.1061
 3999SOL     OW23629   2.501   0.170  14.603 -0.5465  0.0448  0.4016
 3999SOL    HW123630   2.590   0.143  14.582 -0.9024  0.1092 -1.2431
 3999SOL    HW223631   2.445   0.131  14.535  2.1034 -1.6991 -0.7599
 4000SOL     OW23632   1.163   4.543   2.604  0.9271 -0.0045  0.5604
 4000SOL    HW123633   1.167   4.612   2.670 -1.9126  1.3525 -0.7281
 4000SOL    HW223634   1.235   4.487   2.636  1.8339  0.4980 -0.6015
 4001SOL     OW23635   0.985   1.781   6.517 -0.2581  0.0517 -0.0058
 4001SOL    HW123636   0.929   1.720   6.564  1.0285 -1.9854 -1.1446
 4001SOL    HW223637   1.070   1.749   6.550 -0.1682  2.1950  1.9209
 4002SOL     OW23638   3.789   1.120   8.764 -0.0343 -0.2346 -0.2657
 4002SOL    HW123639   3.730   1.114   8.839  1.2007 -1.3144  0.6165
 4002SOL    HW223640   3.771   1.037   8.719 -2.4077 -0.4425  1.0764
 4003SOL     OW23641   0.197   0.616   2.253  0.2791 -0.4550  0.1572
 4003SOL    HW123642   0.273   0.579   2.297  1.4005 -0.0977 -1.5000
 4003SOL    HW223643   0.143   0.538   2.266 -0.5446  0.2638  1.0313
 4004SOL     OW23644   2.859   0.643   4.107  0.0780 -0.3971  0.5273
 4004SOL    HW123645   2.843   0.734   4.129 -0.9685 -0.2547 -0.8315
 4004SOL    HW223646   2.910   0.623   4.185  3.8177 -0.5404 -1.9521
 4005SOL     OW23647   2.530   3.629   3.640  0.1816  0.2712  0.2947
 4005SOL    HW123648   2.554   3.712   3.598  2.1627 -0.7471 -0.5932
 4005SOL    HW223649   2.435   3.630   3.645  0.0531 -0.2878 -1.8011
 4006SOL     OW23650   0.349   1.026   7.025 -0.5241  0.2050 -0.1063
 4006SOL    HW123651   0.392   1.087   7.084  0.4540 -0.4597 -0.1428
 4006SOL    HW223652   0.256   1.050   7.022 -0.4229  0.8005  1.5070
 4007SOL     OW23653   3.827   1.728   7.019 -0.3085 -0.1944 -0.4071
 4007SOL    HW123654   3.770   1.651   7.014  0.6994 -0.9272 -0.7073
 4007SOL    HW223655   3.815   1.764   7.107  0.9084  0.3109 -0.4357
 4008SOL     OW23656   0.824   4.549   3.494  0.3639 -0.6620 -0.3125
 4008SOL    HW123657   0.869   4.516   3.572  1.1331 -0.4918 -0.6753
 4008SOL    HW223658   0.742   4.507   3.516 -0.0727  0.2929 -0.0956
 4009SOL     OW23659   3.224   4.667   4.451  0.3994  0.1576  0.0678
 4009SOL    HW123660   3.181   4.692   4.369 -1.6891  0.1103  1.1342
 4009SOL    HW223661   3.185   4.583   4.474  0.0367  0.2709 -0.1153
 4010SOL     OW23662   1.858   2.636   2.105 -0.1676  0.4067  0.3171
 4010SOL    HW123663   1.820   2.693   2.039 -0.0383 -0.5676 -0.5890
 4010SOL    HW223664   1.947   2.663   2.128 -0.2196 -1.0007  2.1747
 4011SOL     OW23665   2.321   0.760   1.997  0.1238  0.0483  0.1091
 4011SOL    HW123666   2.390   0.711   1.952  0.0155 -1.2167  1.2988
 4011SOL    HW223667   2.269   0.687   2.032  1.4771 -0.9854 -0.0102
 4012SOL     OW23668   0.095   0.958   1.555  0.1587 -0.5747  0.6998
 4012SOL    HW123669   0.091   0.895   1.627  0.2892 -0.5275  0.7483
 4012SOL    HW223670   0.186   0.988   1.559 -0.6381  2.2049 -1.9448
 4013SOL     OW23671   3.353   3.510   5.748 -0.3559 -0.0864  0.6475
 4013SOL    HW123672   3.417   3.441   5.766  0.3789  0.3564 -0.3018
 4013SOL    HW223673   3.309   3.474   5.672 -0.9815  2.3811 -0.1620
 4014SOL     OW23674   1.112   0.471   8.187  0.0462 -0.4060 -0.1766
 4014SOL    HW123675   1.149   0.496   8.103  2.8257 -3.5267  0.0999
 4014SOL    HW223676   1.145   0.382   8.175  0.3181  0.0470 -2.6682
 4015SOL     OW23677   0.305   0.287   6.125 -0.1764  0.1533  0.4538
 4015SOL    HW123678   0.329   0.255   6.039  0.8607  1.4320  0.2570
 4015SOL    HW223679   0.240   0.353   6.100 -0.0382  0.5988  1.2425
 4016SOL     OW23680   1.647   1.784  15.586 -0.5845  0.2111  0.1959
 4016SOL    HW123681   1.613   1.861  15.631  1.1935  0.9250  0.3124
 4016SOL    HW223682   1.673   1.723  15.655  1.1466  0.4777 -0.2348
 4017SOL     OW23683   2.477   0.294   2.961 -0.3333 -0.0393  0.0878
 4017SOL    HW123684   2.422   0.246   2.899  0.4294 -2.4311  1.2800
 4017SOL    HW223685   2.554   0.314   2.908 -2.0368  1.0458 -1.9934
 4018SOL     OW23686   1.253   2.619   8.357  0.2312  0.1088 -0.3146
 4018SOL    HW123687   1.242   2.531   8.394  2.5246 -0.0606 -0.0513
 4018SOL    HW223688   1.267   2.672   8.435  0.6022  2.4997 -1.9937
 4019SOL     OW23689   2.640   1.591   9.107 -0.0286  0.0612 -0.1011
 4019SOL    HW123690   2.615   1.568   9.017 -1.2626  0.0123  0.2496
 4019SOL    HW223691   2.713   1.540   9.140 -0.8627 -0.6066  0.7003
 4020SOL     OW23692   2.532   1.479   0.613  0.0595  0.3640 -0.3465
 4020SOL    HW123693   2.557   1.572   0.612  2.9257 -0.3921  1.5126
 4020SOL    HW223694   2.443   1.483   0.578  0.1495  1.2362 -0.4729
 4021SOL     OW23695   3.294   4.664   7.419  0.5540  0.4461 -0.6572
 4021SOL    HW123696   3.218   4.722   7.427  0.2527  0.1086 -1.0507
 4021SOL    HW223697   3.340   4.672   7.502 -1.1641 -0.2722  0.3453
 4022SOL     OW23698   3.501   4.482   9.964 -0.1876  0.3259 -0.2064
 4022SOL    HW123699   3.535   4.571   9.974  0.8374 -0.3240  2.1060
 4022SOL    HW223700   3.453   4.460  10.044  1.7880  0.5361  1.0347
 4023SOL     OW23701   2.754   3.128   2.174 -0.6663  0.7048  0.2985
 4023SOL    HW123702   2.767   3.096   2.263 -1.1342 -0.0289  0.1061
 4023SOL    HW223703   2.836   3.101   2.131 -1.1649  1.7315 -1.3132
 4024SOL     OW23704   1.336   4.326   5.108 -0.1725 -0.1033  0.6814
 4024SOL    HW123705   1.250   4.308   5.145  0.3202 -2.5724  0.6333
 4024SOL    HW223706   1.323   4.328   5.013 -0.8310  0.5313  0.7896
 4025SOL     OW23707   1.761   2.489   7.247  0.0824 -0.2985 -0.1235
 4025SOL    HW123708   1.822   2.558   7.274 -0.2309 -0.7163  1.6730
 4025SOL    HW223709   1.812   2.418   7.288 -0.4362 -0.0344  0.9751
 4026SOL     OW23710   4.150   2.858  11.025 -0.1135 -0.9379  0.5271
 4026SOL    HW123711   4.196   2.877  10.943  0.7738 -0.4308  1.1329
 4026SOL    HW223712   4.060   2.878  11.002  0.2935  1.2324  0.7868
 4027SOL     OW23713   0.228   0.582   4.742  0.0143  0.0113 -0.2630
 4027SOL    HW123714   0.156   0.585   4.679  1.2973 -2.9696 -1.8923
 4027SOL    HW223715   0.253   0.490   4.729  0.4199  0.2814 -1.3779
 4028SOL     OW23716   1.953   3.483   1.902  0.2143  0.3154 -0.3364
 4028SOL    HW123717   1.969   3.578   1.908 -1.6978  0.6185  0.0625
 4028SOL    HW223718   1.925   3.474   1.811 -1.1366  1.2519 -0.0146
 4029SOL     OW23719   2.815   1.709   8.848 -0.0434 -0.5791  0.2787
 4029SOL    HW123720   2.849   1.781   8.901 -1.8700  0.1532  0.4588
 4029SOL    HW223721   2.870   1.642   8.889 -1.3537  0.0364  3.0489
 4030SOL     OW23722   2.410   2.663   5.641 -0.0235  0.2066  0.4152
 4030SOL    HW123723   2.319   2.632   5.643 -0.0481  0.0245 -2.6180
 4030SOL    HW223724   2.444   2.638   5.727 -1.5340 -2.1404  0.3287
 4031SOL     OW23725   1.842   2.140   5.188  0.6514 -0.2902 -0.3336
 4031SOL    HW123726   1.839   2.065   5.247  1.4450 -0.6777 -0.7826
 4031SOL    HW223727   1.861   2.204   5.256  0.4671 -1.4673  0.8132
 4032SOL     OW23728   4.170   2.137  10.512  0.0208 -0.3981  0.0730
 4032SOL    HW123729   4.076   2.143  10.496  0.0453  1.4504  0.6625
 4032SOL    HW223730   4.178   2.159  10.605  1.7886 -1.0763  0.0876
 4033SOL     OW23731   2.432   1.654   4.288 -0.6262  0.5937 -0.3575
 4033SOL    HW123732   2.465   1.627   4.373  1.0521 -0.6656 -1.3872
 4033SOL    HW223733   2.444   1.749   4.289  0.5438  0.4476  0.0050
 4034SOL     OW23734   4.160   3.923   2.459 -0.0852  0.3120 -0.1798
 4034SOL    HW123735   4.186   4.002   2.505  1.0524 -0.4743  0.5253
 4034SOL    HW223736   4.242   3.876   2.443 -1.4027 -1.5343 -1.6706
 4035SOL     OW23737   1.601   3.525  11.868  0.1146  0.6411 -0.3904
 4035SOL    HW123738   1.534   3.463  11.896  1.5120 -0.2427  1.0125
 4035SOL    HW223739   1.676   3.467  11.858 -0.1221  0.0246  1.3423
 4036SOL     OW23740   3.720   0.146   2.572 -0.7155  0.0435  0.4749
 4036SOL    HW123741   3.731   0.214   2.638 -0.5077  0.8057 -0.3485
 4036SOL    HW223742   3.762   0.077   2.624 -2.2370  0.1263  1.8296
 4037SOL     OW23743   1.585   1.597  13.456  0.2691  0.5836 -0.1442
 4037SOL    HW123744   1.528   1.533  13.499 -0.2923 -0.1183 -1.9280
 4037SOL    HW223745   1.659   1.543  13.429 -0.2175 -0.5897  0.8485
 4038SOL     OW23746   2.610   3.825   6.926 -0.4512 -0.0028  0.1231
 4038SOL    HW123747   2.557   3.884   6.980  0.8956  1.3645 -0.0476
 4038SOL    HW223748   2.601   3.749   6.984  1.3435  0.0019  0.4137
 4039SOL     OW23749   3.047   2.586   4.573  0.0756  0.1327 -0.5393
 4039SOL    HW123750   3.073   2.566   4.483  3.6285 -1.1964  0.7701
 4039SOL    HW223751   3.076   2.675   4.594  1.0570  0.2881 -2.5963
 4040SOL     OW23752   4.595   0.156  14.718 -0.6847 -0.5066 -0.0056
 4040SOL    HW123753   4.677   0.117  14.688 -0.8678  0.7383 -2.1986
 4040SOL    HW223754   4.543   0.144  14.638  0.2888 -0.1945 -0.6820
 4041SOL     OW23755   0.651   0.441   6.802  0.9465 -0.0465  0.1063
 4041SOL    HW123756   0.707   0.425   6.726 -0.4268 -1.8515 -0.5259
 4041SOL    HW223757   0.585   0.372   6.802 -1.2120  2.0103  1.5217
 4042SOL     OW23758   1.968   3.350   5.035  0.3305 -0.0964  0.3098
 4042SOL    HW123759   2.039   3.344   5.098  0.3103  1.7745  0.4974
 4042SOL    HW223760   2.012   3.389   4.959 -0.0328 -1.3408 -0.5452
 4043SOL     OW23761   1.410   0.422   0.315  0.6189  0.1063 -0.1179
 4043SOL    HW123762   1.427   0.463   0.400 -2.1275  2.2786 -0.6260
 4043SOL    HW223763   1.465   0.345   0.326 -1.0239 -0.9929  0.3628
 4044SOL     OW23764   4.095   0.380   9.720 -0.2472  0.6259  0.2231
 4044SOL    HW123765   4.003   0.386   9.693  0.4738 -2.3329 -2.9534
 4044SOL    HW223766   4.127   0.382   9.630  0.6777  3.5496  0.6254
 4045SOL     OW23767   1.562   3.737   6.390 -0.0578 -0.4993 -0.5365
 4045SOL    HW123768   1.511   3.718   6.468  0.8197 -0.6935 -0.0063
 4045SOL    HW223769   1.648   3.740   6.433 -1.3224  0.0387  1.9545
 4046SOL     OW23770   1.138   4.417   6.905  0.3064  0.1448  0.1336
 4046SOL    HW123771   1.215   4.416   6.848  1.5489  0.0269  1.7784
 4046SOL    HW223772   1.175   4.364   6.976 -1.4473  1.7602  2.2754
 4047SOL     OW23773   3.751   2.272   2.253  0.2326  0.3121  0.1624
 4047SOL    HW123774   3.783   2.222   2.328  0.6396  0.3570  0.0188
 4047SOL    HW223775   3.678   2.217   2.225 -0.5735  1.1247  0.6658
 4048SOL     OW23776   1.065   0.482   6.519  0.6202 -0.1126 -0.0482
 4048SOL    HW123777   1.146   0.480   6.569 -0.0710 -0.2871  1.0778
 4048SOL    HW223778   1.086   0.533   6.441  0.1773  1.7568  1.0574
 4049SOL     OW23779   3.264   2.665   1.353 -0.1703 -0.1424 -0.0902
 4049SOL    HW123780   3.338   2.697   1.403 -0.6479  0.3389  0.3048
 4049SOL    HW223781   3.279   2.571   1.365 -0.4501  0.0538  1.7092
 4050SOL     OW23782   2.646   3.834   8.007 -0.2821  0.0100 -0.4159
 4050SOL    HW123783   2.701   3.801   7.936 -0.7647 -1.9809  0.1415
 4050SOL    HW223784   2.715   3.844   8.072 -2.1967 -0.7046  1.7165
 4051SOL     OW23785   3.605   3.538   1.287  0.3617 -0.1166  0.0592
 4051SOL    HW123786   3.665   3.612   1.278  1.3473 -0.6608  2.0721
 4051SOL    HW223787   3.522   3.575   1.319 -0.4810  0.2607 -2.5993
 4052SOL     OW23788   0.819   0.949   6.066 -0.3185 -0.1893 -0.2330
 4052SOL    HW123789   0.755   0.960   6.135  0.2016 -0.2310  0.2546
 4052SOL    HW223790   0.779   0.887   6.005  0.4511 -0.9087 -0.0212
 4053SOL     OW23791   1.304   4.049   3.879  0.0590 -0.2990 -0.4627
 4053SOL    HW123792   1.381   4.001   3.910  0.7567  0.1322 -1.4816
 4053SOL    HW223793   1.345   4.111   3.817 -0.0852 -0.8285 -1.0853
 4054SOL     OW23794   2.317   3.273   6.825 -0.3401 -1.0206 -0.5675
 4054SOL    HW123795   2.403   3.236   6.804  1.1234  1.9417  0.2097
 4054SOL    HW223796   2.334   3.365   6.801 -1.4198 -0.5825  0.3715
 4055SOL     OW23797   2.840   1.990   6.628  0.2552 -0.0428 -0.3915
 4055SOL    HW123798   2.759   2.024   6.665  1.8857  2.5932  0.7429
 4055SOL    HW223799   2.802   1.959   6.546  0.3316 -0.0888 -0.4094
 4056SOL     OW23800   4.048   1.692  16.215 -0.0342 -0.2384  0.0437
 4056SOL    HW123801   4.087   1.608  16.241  3.4712  1.0417 -1.2176
 4056SOL    HW223802   3.985   1.663  16.149 -1.0171 -1.1276  1.3510
 4057SOL     OW23803   2.917   0.444   3.230 -0.0444  0.0962 -0.1009
 4057SOL    HW123804   3.009   0.417   3.223 -0.1959  0.1763 -2.1851
 4057SOL    HW223805   2.925   0.523   3.177  2.3509 -0.3924 -0.4743
 4058SOL     OW23806   3.823   1.286  16.587  0.6953  0.3695  0.6121
 4058SOL    HW123807   3.848   1.194  16.589 -0.2420  0.1200  0.7915
 4058SOL    HW223808   3.892   1.321  16.644 -0.8001 -1.0831  3.3083
 4059SOL     OW23809   1.190   0.498   3.078  0.1672 -0.1131  0.1332
 4059SOL    HW123810   1.194   0.532   3.167 -0.0374 -0.5253  0.2971
 4059SOL    HW223811   1.106   0.531   3.043  1.1815  0.9647 -1.3066
 4060SOL     OW23812   3.253   2.054   0.052  0.1171  0.3224 -0.2841
 4060SOL    HW123813   3.218   2.028   0.138 -1.0346 -1.1418 -1.1970
 4060SOL    HW223814   3.184   2.098   0.003  0.2263  0.3818 -0.3856
 4061SOL     OW23815   1.798   0.398   6.660 -0.4869 -0.3340 -0.1211
 4061SOL    HW123816   1.732   0.467   6.650  0.2655  0.2201 -1.2962
 4061SOL    HW223817   1.833   0.390   6.571 -2.9122 -0.4765 -1.0938
 4062SOL     OW23818   4.214   1.652  15.706  0.3497 -0.3130 -0.1280
 4062SOL    HW123819   4.141   1.590  15.707 -2.2209  2.6841 -2.5353
 4062SOL    HW223820   4.170   1.728  15.744 -1.2338 -0.3116 -1.9655
 4063SOL     OW23821   3.747   0.986   0.340 -0.4275 -0.0725 -0.4194
 4063SOL    HW123822   3.788   1.055   0.287 -0.0217  0.1609  0.2086
 4063SOL    HW223823   3.669   0.977   0.286  0.7518  3.6845 -2.7958
 4064SOL     OW23824   0.396   2.919  11.010  0.0748 -0.7013  0.1492
 4064SOL    HW123825   0.368   2.994  10.958  0.5988  0.5396  1.6218
 4064SOL    HW223826   0.409   2.859  10.937 -0.5023 -0.1547 -0.3967
 4065SOL     OW23827   1.289   3.020   7.548  0.4425 -0.2236  0.3192
 4065SOL    HW123828   1.216   2.999   7.606 -0.5120  0.0046 -0.8149
 4065SOL    HW223829   1.240   3.042   7.469  2.0400  1.3036 -0.2524
 4066SOL     OW23830   0.259   3.102   2.956 -0.2319 -0.4556 -0.8969
 4066SOL    HW123831   0.171   3.089   2.991 -0.4679 -1.8842 -1.9736
 4066SOL    HW223832   0.318   3.043   3.003 -0.2028  2.4319  2.6591
 4067SOL     OW23833   0.220   3.614   3.891 -0.3704 -0.3688 -0.3354
 4067SOL    HW123834   0.287   3.676   3.862 -0.2293  0.0770  0.9026
 4067SOL    HW223835   0.144   3.672   3.900 -0.7126 -1.2922  2.8915
 4068SOL     OW23836   3.434   1.492   2.824  0.0371 -0.0506  0.4937
 4068SOL    HW123837   3.511   1.515   2.876  1.0068  1.0754 -1.4382
 4068SOL    HW223838   3.470   1.434   2.758 -1.8510 -0.8685  0.2058
 4069SOL     OW23839   1.577   4.677   3.625 -0.2548  0.1837  0.0166
 4069SOL    HW123840   1.548   4.691   3.716 -0.1404 -3.2038  0.5785
 4069SOL    HW223841   1.648   0.004   3.616 -2.4786  2.8273  0.9472
 4070SOL     OW23842   1.091   2.733  13.855 -0.3978  0.3448  0.2566
 4070SOL    HW123843   1.167   2.767  13.807 -1.8408  4.1753  0.6951
 4070SOL    HW223844   1.120   2.748  13.945  0.5806 -1.8715  0.3061
 4071SOL     OW23845   3.952   1.162   4.128 -0.1994  0.1619  0.1300
 4071SOL    HW123846   4.004   1.242   4.143 -0.1670  0.2736 -0.5845
 4071SOL    HW223847   4.018   1.095   4.141 -1.3405 -0.9830 -0.0249
 4072SOL     OW23848   3.771   0.811   3.999 -0.4319 -0.3882  0.3587
 4072SOL    HW123849   3.861   0.819   4.030 -0.1594 -1.9875 -0.0488
 4072SOL    HW223850   3.768   0.717   3.980  1.7106 -0.4021  0.1008
 4073SOL     OW23851   3.268   2.541  10.582  0.5393 -0.4478 -0.3609
 4073SOL    HW123852   3.284   2.461  10.532  0.3193 -1.2995  0.9532
 4073SOL    HW223853   3.232   2.504  10.663 -0.7896 -0.5360 -0.9914
 4074SOL     OW23854   3.485   2.560  14.456  0.1345  0.1223 -0.2654
 4074SOL    HW123855   3.537   2.625  14.410  1.1077 -0.2849  0.2635
 4074SOL    HW223856   3.517   2.566  14.546  0.9823  1.5081 -0.6755
 4075SOL     OW23857   3.353   4.279   3.942 -0.2967 -0.2169  0.1525
 4075SOL    HW123858   3.433   4.329   3.925 -0.2064 -0.3177  0.2860
 4075SOL    HW223859   3.306   4.336   4.002 -1.5373 -1.5616  0.4624
 4076SOL     OW23860   2.495   2.981   6.325 -0.0561 -0.6496  0.2745
 4076SOL    HW123861   2.562   3.049   6.327 -0.1862 -0.5372  0.6879
 4076SOL    HW223862   2.415   3.029   6.301  1.3637  0.8260 -1.4891
 4077SOL     OW23863   3.868   3.611  13.552 -0.2534 -0.0869 -0.4932
 4077SOL    HW123864   3.874   3.515  13.552 -0.0652 -0.0601  2.3020
 4077SOL    HW223865   3.961   3.633  13.545 -0.1952 -0.5737 -1.2153
 4078SOL     OW23866   3.102   4.166   9.647 -0.3594  0.1789 -0.2218
 4078SOL    HW123867   3.055   4.231   9.699  1.9730 -0.4543  2.6605
 4078SOL    HW223868   3.032   4.120   9.602  1.2340 -1.3402 -1.1690
 4079SOL     OW23869   0.343   0.058   0.311 -0.0860 -0.9160 -0.3054
 4079SOL    HW123870   0.425   0.035   0.268  0.0978  1.6830 -1.3596
 4079SOL    HW223871   0.330   4.721   0.371 -1.2064 -0.1973  0.3196
 4080SOL     OW23872   1.116   4.668  10.570 -0.6105 -0.0167 -0.5235
 4080SOL    HW123873   1.197   4.634  10.608 -2.6867 -2.5172  1.7338
 4080SOL    HW223874   1.138   4.672  10.477  0.1894 -0.0673 -0.3332
 4081SOL     OW23875   1.139   1.383  14.751  0.1162  0.4395 -0.0870
 4081SOL    HW123876   1.060   1.391  14.804  2.3213  0.5695  3.1936
 4081SOL    HW223877   1.197   1.333  14.808  0.4460  0.4487 -0.4076
 4082SOL     OW23878   1.664   1.412   8.062  0.1451 -0.1882 -0.1169
 4082SOL    HW123879   1.587   1.396   8.006 -0.2278 -0.9350  0.6102
 4082SOL    HW223880   1.665   1.330   8.111 -0.7030 -0.3659 -0.3851
 4083SOL     OW23881   3.761   3.575  12.890 -0.0054  0.2489 -0.6416
 4083SOL    HW123882   3.757   3.513  12.817 -0.0708  1.1230 -1.3724
 4083SOL    HW223883   3.721   3.651  12.849  0.8613  1.6238  1.0662
 4084SOL     OW23884   1.885   1.486  15.566 -0.4042  0.5436  0.3809
 4084SOL    HW123885   1.856   1.504  15.656 -1.9413 -0.6492  0.1323
 4084SOL    HW223886   1.801   1.483  15.521  2.0568 -0.2396 -4.0923
 4085SOL     OW23887   0.808   1.691  15.559 -0.6767  0.1035 -0.1029
 4085SOL    HW123888   0.785   1.784  15.557 -1.1294  0.0174  0.7057
 4085SOL    HW223889   0.826   1.683  15.653  1.0763  0.3319 -0.4198
 4086SOL     OW23890   3.516   1.433   3.846 -0.0066 -0.1391 -0.1339
 4086SOL    HW123891   3.567   1.429   3.926  2.1151  1.1101 -1.4382
 4086SOL    HW223892   3.573   1.419   3.770 -0.8955 -0.6049 -0.7198
 4087SOL     OW23893   1.863   1.418   9.774 -0.1058 -0.0792 -0.4225
 4087SOL    HW123894   1.910   1.352   9.724 -3.1391 -2.2346 -0.4086
 4087SOL    HW223895   1.894   1.392   9.861 -1.2823 -0.9584 -0.2751
 4088SOL     OW23896   2.541   1.486  12.875  0.5678  0.2977 -0.3483
 4088SOL    HW123897   2.563   1.579  12.888 -1.9011  0.5262  2.1309
 4088SOL    HW223898   2.497   1.495  12.791 -0.3187 -1.4247 -0.0653
 4089SOL     OW23899   1.671   1.296   9.423 -0.1696 -0.0544 -0.0783
 4089SOL    HW123900   1.665   1.290   9.519 -1.8962  2.2922 -0.0456
 4089SOL    HW223901   1.764   1.305   9.399 -0.4247  2.1425 -0.2560
 4090SOL     OW23902   1.226   2.795   8.554 -0.7546 -0.0503 -0.3069
 4090SOL    HW123903   1.180   2.794   8.637 -0.8923  0.4082 -0.3750
 4090SOL    HW223904   1.164   2.862   8.523 -1.3542  0.4956  2.0911
 4091SOL     OW23905   2.622   4.366   3.947  0.0135 -0.2575 -0.7585
 4091SOL    HW123906   2.565   4.415   4.007 -0.6802  1.5710 -2.9019
 4091SOL    HW223907   2.569   4.355   3.868 -2.0664  0.6722  0.5075
 4092SOL     OW23908   4.556   4.170   1.175 -0.2041 -0.0586 -0.4032
 4092SOL    HW123909   4.480   4.127   1.213  0.8630 -0.9198  0.7718
 4092SOL    HW223910   4.571   4.241   1.237  1.2979 -0.5440 -0.2054
 4093SOL     OW23911   2.691   0.246   0.524 -0.1118 -0.1593 -0.0458
 4093SOL    HW123912   2.710   0.192   0.601 -0.8016 -0.6528 -0.2196
 4093SOL    HW223913   2.751   0.320   0.518 -1.7363  1.1367 -0.1886
 4094SOL     OW23914   1.736   1.162   4.728  0.9893  0.2244 -0.5668
 4094SOL    HW123915   1.730   1.134   4.636  2.0692  1.0761 -0.8959
 4094SOL    HW223916   1.643   1.164   4.749  1.2834  1.3152  0.5680
 4095SOL     OW23917   0.941   2.396   6.486  0.0525 -0.0863 -0.6824
 4095SOL    HW123918   0.941   2.491   6.475 -0.2275  0.0347  0.3787
 4095SOL    HW223919   0.856   2.381   6.529 -0.3422  0.9702 -1.1077
 4096SOL     OW23920   4.230   2.844   5.993 -0.0717  0.1517  0.8147
 4096SOL    HW123921   4.245   2.809   5.905  0.6121  1.6928  0.3289
 4096SOL    HW223922   4.312   2.893   5.999 -0.3918  1.1297 -2.5307
 4097SOL     OW23923   3.863   4.136  10.271  0.1043 -0.2181  0.7701
 4097SOL    HW123924   3.953   4.103  10.272  0.4892  0.8589  1.2688
 4097SOL    HW223925   3.836   4.108  10.184  0.9326  2.2292 -0.2412
 4098SOL     OW23926   3.176   3.078   3.178  0.3430  1.1688 -0.2101
 4098SOL    HW123927   3.147   3.046   3.093  0.0414 -1.4387  0.8767
 4098SOL    HW223928   3.104   3.043   3.231  2.1041 -2.1607  0.0096
 4099SOL     OW23929   0.899   0.544  13.529  0.3658 -0.3394 -0.3854
 4099SOL    HW123930   0.925   0.471  13.472  0.2331  0.9385 -2.0980
 4099SOL    HW223931   0.811   0.554  13.493 -0.4614 -2.6753  0.9702
 4100SOL     OW23932   3.666   2.285   2.569  0.0170 -0.3245 -0.6632
 4100SOL    HW123933   3.699   2.371   2.596 -0.2608  0.0732 -1.5555
 4100SOL    HW223934   3.614   2.322   2.497 -1.6163 -0.8647  0.2374
 4101SOL     OW23935   4.225   1.697   9.748  0.0282 -0.7414  0.5300
 4101SOL    HW123936   4.241   1.789   9.768 -0.2565 -0.4118 -0.7649
 4101SOL    HW223937   4.180   1.666   9.827 -0.1881 -2.3086 -0.2000
 4102SOL     OW23938   2.406   0.668  10.038  0.0757 -0.6501 -0.4987
 4102SOL    HW123939   2.418   0.592  10.095 -0.2983 -0.0137  0.4177
 4102SOL    HW223940   2.313   0.684  10.056  0.7391  2.8510 -0.3284
 4103SOL     OW23941   3.598   0.999   5.866  0.3381  0.1497  0.0917
 4103SOL    HW123942   3.649   1.080   5.862 -0.4410  0.7179  1.5047
 4103SOL    HW223943   3.562   0.982   5.779 -1.2158 -4.9324  1.6907
 4104SOL     OW23944   3.035   2.443   8.392 -0.2314  0.3709 -1.0397
 4104SOL    HW123945   2.957   2.474   8.439 -0.8055 -0.2284 -1.5844
 4104SOL    HW223946   3.111   2.448   8.450  0.1732 -0.7087 -1.4650
 4105SOL     OW23947   1.716   2.297   3.974 -0.3160  0.4876 -0.1402
 4105SOL    HW123948   1.755   2.351   4.043 -2.4093 -1.6588  2.7048
 4105SOL    HW223949   1.786   2.297   3.908 -0.0693 -0.9315  0.1281
 4106SOL     OW23950   3.901   4.589   5.255 -0.1581  0.0252  0.4787
 4106SOL    HW123951   3.841   4.543   5.314  1.4173 -0.0955  1.9946
 4106SOL    HW223952   3.839   4.588   5.182  0.8863  1.5280 -0.4227
 4107SOL     OW23953   3.390   2.737   4.182  0.7964 -0.6326  0.4492
 4107SOL    HW123954   3.368   2.664   4.124 -2.8251 -0.7314  1.9046
 4107SOL    HW223955   3.340   2.811   4.148 -0.1399 -1.7404 -0.5829
 4108SOL     OW23956   2.859   0.487   0.510  0.5458  0.5621 -0.2069
 4108SOL    HW123957   2.880   0.510   0.601 -0.6043  0.7080  0.0217
 4108SOL    HW223958   2.946   0.461   0.479  0.7120 -0.8541  1.4014
 4109SOL     OW23959   0.857   2.321   3.028 -0.4284  0.0812  0.4373
 4109SOL    HW123960   0.797   2.387   2.994  2.9949  2.7273 -0.5233
 4109SOL    HW223961   0.882   2.279   2.946 -1.0076  0.3560  0.1252
 4110SOL     OW23962   2.401   2.024   2.832 -0.3553 -0.0378  0.0871
 4110SOL    HW123963   2.402   1.933   2.801  1.6941  0.5924 -1.7194
 4110SOL    HW223964   2.422   2.001   2.922 -1.1892 -0.4763  0.1648
 4111SOL     OW23965   2.383   4.681   5.534 -0.2894  0.3177 -0.7496
 4111SOL    HW123966   2.359   4.643   5.618 -0.9438 -0.8100 -1.4392
 4111SOL    HW223967   2.314   0.007   5.513 -0.3491 -0.0967 -1.8163
 4112SOL     OW23968   3.662   3.084  16.023  0.2618 -0.1811  0.7535
 4112SOL    HW123969   3.737   3.135  15.994  0.0966 -1.3841 -1.8524
 4112SOL    HW223970   3.590   3.143  16.000 -0.9798 -2.7175 -1.9984
 4113SOL     OW23971   1.407   2.643   7.229  0.3107  0.4339 -0.6205
 4113SOL    HW123972   1.386   2.724   7.275  0.4669 -0.2521  0.6510
 4113SOL    HW223973   1.429   2.679   7.143  3.5191  0.4001  0.1736
 4114SOL     OW23974   0.359   3.498   9.390  0.5476 -0.1990 -0.4953
 4114SOL    HW123975   0.428   3.522   9.452  1.9584  1.8542 -2.8450
 4114SOL    HW223976   0.375   3.409   9.358  0.9953  0.0196 -0.8818
 4115SOL     OW23977   2.418   2.103   9.357 -0.4298 -0.2561  0.1539
 4115SOL    HW123978   2.409   2.194   9.387  2.0627 -0.3750  1.3226
 4115SOL    HW223979   2.357   2.059   9.417  0.0934 -2.7412 -1.1483
 4116SOL     OW23980   2.373   0.320   6.687 -0.0082  0.3796 -0.2732
 4116SOL    HW123981   2.280   0.322   6.662 -0.8443  0.9141  2.8636
 4116SOL    HW223982   2.382   0.227   6.703 -1.8685  0.3515  0.6628
 4117SOL     OW23983   0.686   1.731   1.032 -0.2932 -0.2889  0.1971
 4117SOL    HW123984   0.619   1.664   1.013 -2.1294  2.0912 -1.7020
 4117SOL    HW223985   0.752   1.686   1.084 -2.5122 -0.7674  2.6090
 4118SOL     OW23986   3.175   2.368   0.871  0.1843 -0.1720 -0.2911
 4118SOL    HW123987   3.115   2.442   0.864  1.7457  1.2019  1.0283
 4118SOL    HW223988   3.218   2.393   0.953  0.5113 -1.8761  0.0676
 4119SOL     OW23989   0.963   2.470   7.709 -0.0760 -0.0173  0.4003
 4119SOL    HW123990   0.978   2.495   7.800  0.6850  0.8472  0.0354
 4119SOL    HW223991   0.872   2.501   7.704  0.9569  2.7904 -0.9752
 4120SOL     OW23992   1.669   0.718   4.474 -0.0825 -0.2055  0.3540
 4120SOL    HW123993   1.663   0.787   4.540  2.9732  1.0940 -0.7415
 4120SOL    HW223994   1.648   0.760   4.391 -1.9600 -1.3513  0.2403
 4121SOL     OW23995   4.359   3.186   9.903 -0.1793  0.1314  0.4380
 4121SOL    HW123996   4.403   3.260   9.946 -1.9252  1.7795 -0.6377
 4121SOL    HW223997   4.360   3.116   9.969 -1.1240  0.7032  1.0642
 4122SOL     OW23998   4.495   3.412  11.916 -0.1787  0.3675  0.4916
 4122SOL    HW123999   4.404   3.386  11.904 -0.9555  2.5987  1.5681
 4122SOL    HW224000   4.491   3.503  11.946  0.7032  0.1726  1.1894
 4123SOL     OW24001   2.282   2.753   9.819 -0.3766 -0.3114  0.1829
 4123SOL    HW124002   2.248   2.810   9.750  3.1057 -0.8449 -1.9612
 4123SOL    HW224003   2.331   2.813   9.876 -2.6174 -0.6743  2.5266
 4124SOL     OW24004   0.344   0.776   9.482 -0.1558  0.4875 -0.2869
 4124SOL    HW124005   0.253   0.795   9.460 -0.8428 -2.5083 -0.0315
 4124SOL    HW224006   0.321   0.711   9.548  0.4435  1.7975  1.2318
 4125SOL     OW24007   2.685   1.152   4.180 -0.2807 -0.2484 -0.3479
 4125SOL    HW124008   2.699   1.134   4.273 -0.4391  1.7542  0.0557
 4125SOL    HW224009   2.708   1.244   4.166  0.9227 -0.3064  1.3929
 4126SOL     OW24010   3.599   0.913   6.129  0.1538 -0.0555  0.5732
 4126SOL    HW124011   3.598   0.943   6.038  2.2379 -0.1350  0.5247
 4126SOL    HW224012   3.581   0.819   6.120  0.6187 -0.2493  1.7353
 4127SOL     OW24013   1.939   2.380  16.927 -0.0319  0.3614 -0.7647
 4127SOL    HW124014   2.005   2.441  16.958 -1.0548  1.6740 -1.1791
 4127SOL    HW224015   1.984   2.296  16.919  1.1216  0.9717 -0.7574
 4128SOL     OW24016   4.648   4.604  10.511 -0.4410  0.3803 -0.0631
 4128SOL    HW124017   4.699   4.682  10.530 -1.1758  1.0840 -1.0075
 4128SOL    HW224018   4.693   4.562  10.438 -0.8804  0.1808 -0.2184
 4129SOL     OW24019   1.182   3.182   6.746  0.2174 -0.3504 -0.0978
 4129SOL    HW124020   1.103   3.225   6.714  0.1036 -0.5010 -0.0210
 4129SOL    HW224021   1.142   3.103   6.782  1.0102  0.6756  3.0661
 4130SOL     OW24022   1.298   2.103   6.281  0.7976 -0.1553  0.0676
 4130SOL    HW124023   1.330   2.193   6.273 -1.0587  0.7067  2.1558
 4130SOL    HW224024   1.323   2.081   6.371  1.2067  0.2392  0.0522
 4131SOL     OW24025   1.379   4.732   2.049 -0.0521  0.2791 -0.1649
 4131SOL    HW124026   1.439   0.036   2.112 -0.2249  2.2892 -1.2791
 4131SOL    HW224027   1.308   4.707   2.108 -0.8562  1.3094 -0.6924
 4132SOL     OW24028   1.383   3.842   4.173  0.2753  0.3463  0.1498
 4132SOL    HW124029   1.452   3.835   4.108 -0.0016 -0.0920 -0.0988
 4132SOL    HW224030   1.379   3.755   4.213  0.2422  0.4227  0.3145
 4133SOL     OW24031   3.413   3.576  13.050  0.2233 -0.4629 -0.0371
 4133SOL    HW124032   3.390   3.515  13.120 -0.4308 -2.9707 -2.4157
 4133SOL    HW224033   3.445   3.515  12.983  0.0441  2.1304 -2.4413
 4134SOL     OW24034   1.399   3.761   0.093 -0.7498 -0.4894 -0.2163
 4134SOL    HW124035   1.377   3.675   0.056  0.5628 -1.4965  1.3178
 4134SOL    HW224036   1.495   3.766   0.084 -0.6401 -2.4293 -0.2437
 4135SOL     OW24037   0.331   2.063  12.461  0.9261  0.5713 -0.1781
 4135SOL    HW124038   0.362   2.006  12.390  1.5141  0.4023  0.2160
 4135SOL    HW224039   0.236   2.058  12.451  1.0306  0.4097 -1.1290
 4136SOL     OW24040   1.407   2.097   3.783 -0.3781 -0.2154 -0.1822
 4136SOL    HW124041   1.388   2.159   3.853  2.5495  0.6024 -0.1254
 4136SOL    HW224042   1.356   2.019   3.807 -1.3636  0.2151 -0.8666
 4137SOL     OW24043   2.539   3.336   2.464 -0.6411 -0.7342  0.6358
 4137SOL    HW124044   2.613   3.392   2.441 -0.8857  0.2236  2.1542
 4137SOL    HW224045   2.503   3.381   2.541  2.0216 -0.8385  1.9715
 4138SOL     OW24046   3.116   3.300   6.469 -0.2124 -0.0182  0.0004
 4138SOL    HW124047   3.087   3.209   6.479 -0.8334  0.2263  0.4495
 4138SOL    HW224048   3.203   3.295   6.509 -0.8428 -0.4508  1.3248
 4139SOL     OW24049   4.223   3.254   0.773 -0.4182  0.1604 -0.2678
 4139SOL    HW124050   4.155   3.199   0.735 -0.5947 -1.0464  1.8080
 4139SOL    HW224051   4.180   3.338   0.789 -1.4705 -0.4976  0.3625
 4140SOL     OW24052   4.421   1.278   7.590  0.4045  0.3948  0.7263
 4140SOL    HW124053   4.387   1.286   7.679  0.5879 -0.2612  0.8515
 4140SOL    HW224054   4.350   1.317   7.538  0.7664  0.8798  0.5969
 4141SOL     OW24055   0.531   0.324  17.110  0.6419 -0.1574 -0.1530
 4141SOL    HW124056   0.455   0.382  17.116  2.2729  1.6128  3.1814
 4141SOL    HW224057   0.503   0.252  17.167  1.3324 -0.3781 -0.0971
 4142SOL     OW24058   0.389   2.036  12.945  0.2736 -0.4033  0.3434
 4142SOL    HW124059   0.409   1.962  12.888 -2.6779 -0.6342 -0.3770
 4142SOL    HW224060   0.349   2.104  12.889 -0.6804 -2.0146 -0.9312
 4143SOL     OW24061   3.438   2.560  17.588 -0.6334  0.6006 -0.6755
 4143SOL    HW124062   3.524   2.532  17.620 -1.3833 -0.7361  0.1772
 4143SOL    HW224063   3.470   2.589  17.503 -2.2135  2.6116 -0.6000
 4144SOL     OW24064   1.971   2.907   7.174 -0.2555  0.2207 -0.1765
 4144SOL    HW124065   2.058   2.944   7.189  0.1209 -1.4350  1.5616
 4144SOL    HW224066   1.931   2.897   7.260  1.8049 -0.6418  0.6729
 4145SOL     OW24067   1.434   2.032   8.127 -0.1540  0.2550 -0.7628
 4145SOL    HW124068   1.403   2.068   8.043 -2.3542  0.6194  0.2119
 4145SOL    HW224069   1.504   2.089   8.157 -0.5396  0.6640 -0.6382
 4146SOL     OW24070   3.719   0.242  11.791 -0.1384 -0.2124  0.3851
 4146SOL    HW124071   3.650   0.178  11.808 -3.0841  2.4952 -1.3430
 4146SOL    HW224072   3.776   0.224  11.865  0.0941  0.4643  0.3697
 4147SOL     OW24073   2.148   0.021   6.834  0.0356  0.2986 -0.0939
 4147SOL    HW124074   2.127   4.694   6.902 -0.5625 -0.2981 -0.8420
 4147SOL    HW224075   2.080   0.004   6.770  0.0166  1.2022 -0.3216
 4148SOL     OW24076   3.529   3.054   2.341  0.1584 -0.7405  0.0625
 4148SOL    HW124077   3.464   2.994   2.377  0.1013 -1.3062 -0.9660
 4148SOL    HW224078   3.486   3.138   2.359 -2.0958 -1.9203  0.1423
 4149SOL     OW24079   4.598   3.258   4.805 -0.3216  0.4055  0.5073
 4149SOL    HW124080   4.632   3.333   4.854 -0.0210  0.4030  0.3001
 4149SOL    HW224081   4.528   3.227   4.863  1.9978 -3.1757  1.4398
 4150SOL     OW24082   2.768   0.255   3.366 -0.2620 -0.5213 -0.7939
 4150SOL    HW124083   2.694   0.233   3.310  0.0062 -2.5542 -0.3396
 4150SOL    HW224084   2.812   0.306   3.298  1.6522 -1.4486 -0.2564
 4151SOL     OW24085   2.477   3.919   8.636  0.2659  0.1485  0.1932
 4151SOL    HW124086   2.392   3.962   8.627  0.4592  0.1821 -1.3358
 4151SOL    HW224087   2.536   3.989   8.605  2.0549 -0.6728  1.6982
 4152SOL     OW24088   3.856   4.163   6.674 -0.1247  0.1980 -0.3147
 4152SOL    HW124089   3.790   4.219   6.633 -1.7309 -2.7341 -1.7846
 4152SOL    HW224090   3.929   4.221   6.691 -1.1753  2.1869 -2.5791
 4153SOL     OW24091   1.769   0.443  15.671 -0.4669 -0.7655 -0.3753
 4153SOL    HW124092   1.728   0.382  15.610 -0.8651 -0.5302 -0.3371
 4153SOL    HW224093   1.840   0.476  15.615 -1.0574  2.3877  0.7248
 4154SOL     OW24094   2.259   0.280  10.719  0.0000 -0.4994  0.3948
 4154SOL    HW124095   2.245   0.192  10.685  0.4873  0.0992 -1.3679
 4154SOL    HW224096   2.170   0.312  10.734  0.1498  0.3263 -0.4380
 4155SOL     OW24097   4.215   0.879   0.174 -0.0866 -0.0628 -0.1748
 4155SOL    HW124098   4.137   0.826   0.185 -0.4042  0.2913 -0.7378
 4155SOL    HW224099   4.187   0.959   0.217  1.2706  0.5169 -0.3601
 4156SOL     OW24100   1.971   0.537   0.674  0.3131  0.1049  0.3611
 4156SOL    HW124101   1.924   0.453   0.674  1.2339 -0.4077 -0.8506
 4156SOL    HW224102   2.015   0.525   0.758 -0.0671  1.1679  0.7131
 4157SOL     OW24103   3.434   3.160   2.974 -0.0941 -0.1343  0.4618
 4157SOL    HW124104   3.437   3.133   2.883  0.6793  1.4836  0.0030
 4157SOL    HW224105   3.527   3.144   2.995 -0.4097 -0.8204  1.3777
 4158SOL     OW24106   0.831   1.062   8.207  0.1490 -0.3767 -0.5397
 4158SOL    HW124107   0.819   1.093   8.297 -0.1616 -0.4986 -0.5380
 4158SOL    HW224108   0.751   1.101   8.171 -0.5671 -0.4195  1.0045
 4159SOL     OW24109   2.522   1.977   1.689  0.4741 -0.0278 -0.5308
 4159SOL    HW124110   2.548   1.887   1.671 -0.6546 -0.7085  1.1341
 4159SOL    HW224111   2.463   1.961   1.763 -1.1275  1.3856 -1.4947
 4160SOL     OW24112   4.685   2.510   4.020 -0.3021  0.0372  0.5808
 4160SOL    HW124113   4.604   2.487   4.064 -0.4939  0.2069  0.3182
 4160SOL    HW224114   0.012   2.469   4.078  0.8287 -1.5183 -1.7402
 4161SOL     OW24115   4.569   1.708   2.919  0.1686 -0.3922  0.0052
 4161SOL    HW124116   4.605   1.687   2.833 -1.2601 -2.1779 -0.1714
 4161SOL    HW224117   4.475   1.703   2.899  0.0759 -0.1155  0.3709
 4162SOL     OW24118   0.407   0.297   1.814  0.1006  0.0749  0.1730
 4162SOL    HW124119   0.456   0.307   1.733 -0.0488 -1.0703 -0.0634
 4162SOL    HW224120   0.388   0.203   1.821 -0.2477  0.1850  0.7663
 4163SOL     OW24121   4.205   0.871  17.221  0.0018  0.1314 -0.1811
 4163SOL    HW124122   4.277   0.867  17.158 -0.3159 -0.7643 -0.4972
 4163SOL    HW224123   4.215   0.960  17.253 -2.0325  0.8372 -1.5471
 4164SOL     OW24124   4.365   0.583   5.605  0.1112 -0.4975  0.7488
 4164SOL    HW124125   4.408   0.580   5.520  0.4379 -3.1746  1.0119
 4164SOL    HW224126   4.275   0.572   5.575  0.2799 -1.7185  0.7062
 4165SOL     OW24127   3.584   2.418   4.856 -0.0468 -0.6703 -0.0912
 4165SOL    HW124128   3.587   2.505   4.897  1.4572 -0.9023  0.2884
 4165SOL    HW224129   3.491   2.412   4.834  0.6506 -3.4397 -2.1846
 4166SOL     OW24130   0.237   1.934  13.148  0.4789 -0.0145 -0.5163
 4166SOL    HW124131   0.300   1.967  13.084  1.9292 -0.0794  0.8763
 4166SOL    HW224132   0.157   1.960  13.103 -0.1562  1.0332  1.2388
 4167SOL     OW24133   0.039   3.440   2.942  0.3105  0.8970  0.2882
 4167SOL    HW124134   4.704   3.451   3.004  0.5318 -3.0401  1.2010
 4167SOL    HW224135   4.734   3.396   2.868  0.1594  0.0166  0.9004
 4168SOL     OW24136   1.037   3.835   6.028 -0.2594  0.4377 -0.0651
 4168SOL    HW124137   1.023   3.900   5.959 -0.5980  1.3533  0.8640
 4168SOL    HW224138   1.126   3.866   6.047  0.4836 -1.6577 -0.0805
 4169SOL     OW24139   2.934   1.615   7.532 -1.1234 -0.1489 -0.2071
 4169SOL    HW124140   2.881   1.606   7.452 -0.2047 -1.7885 -0.6370
 4169SOL    HW224141   2.948   1.527   7.566 -2.4927 -1.0205 -1.8624
 4170SOL     OW24142   0.027   3.082  17.382 -0.3264  0.4915  0.0505
 4170SOL    HW124143   0.001   3.173  17.371 -0.3556  0.4072 -0.5894
 4170SOL    HW224144   0.029   3.076  17.477  0.9263 -1.3176 -0.0825
 4171SOL     OW24145   4.655   0.705   8.761 -0.0362  0.7394 -0.0239
 4171SOL    HW124146   4.626   0.724   8.672  2.8581 -1.4817 -1.4466
 4171SOL    HW224147   0.013   0.725   8.760  0.5834 -2.1332  0.9668
 4172SOL     OW24148   2.575   0.049  15.682 -0.1759  0.6943 -0.3074
 4172SOL    HW124149   2.543   4.702  15.647  1.2872  0.5064 -1.1941
 4172SOL    HW224150   2.488   0.079  15.709  1.0734  1.4722  2.8333
 4173SOL     OW24151   2.084   2.291   5.371 -0.3331  0.0803 -0.0427
 4173SOL    HW124152   2.139   2.333   5.437 -3.1084  1.8329  1.1516
 4173SOL    HW224153   2.153   2.249   5.319  0.7475 -0.4533  1.8038
 4174SOL     OW24154   3.070   0.047   9.472 -0.2096  0.3634 -0.0718
 4174SOL    HW124155   3.154   0.052   9.427  0.0675  0.6847  0.4816
 4174SOL    HW224156   3.028   0.124   9.433 -1.4632  0.9149  2.3432
 4175SOL     OW24157   3.787   3.987   3.874 -0.3743 -0.5645 -0.0644
 4175SOL    HW124158   3.801   3.910   3.928  0.8208  0.7683  1.5042
 4175SOL    HW224159   3.702   4.024   3.896  0.9456  3.5936 -1.8680
 4176SOL     OW24160   3.043   3.839  12.717 -0.1522  0.6761 -0.0137
 4176SOL    HW124161   2.999   3.919  12.687  1.1958  1.1114 -0.7979
 4176SOL    HW224162   3.024   3.784  12.642 -2.0433  1.5658 -0.2010
 4177SOL     OW24163   2.001   2.730   0.915 -0.1304  0.1574  0.2048
 4177SOL    HW124164   2.042   2.742   1.000 -1.7463 -1.3435  1.2066
 4177SOL    HW224165   2.022   2.813   0.872  0.1245 -0.5384 -1.0117
 4178SOL     OW24166   2.729   2.409   1.703 -0.6488  0.7454 -0.5599
 4178SOL    HW124167   2.671   2.337   1.679 -1.2887  0.1820  2.6867
 4178SOL    HW224168   2.727   2.460   1.622  0.3250  1.2213 -0.2848
 4179SOL     OW24169   3.144   3.561   7.798 -0.1048 -0.0858 -0.6845
 4179SOL    HW124170   3.052   3.557   7.772 -0.6486 -1.6912  1.4127
 4179SOL    HW224171   3.134   3.585   7.890  2.7410 -0.0666 -0.3815
 4180SOL     OW24172   4.293   0.812   8.129 -0.7419  0.8443 -0.1732
 4180SOL    HW124173   4.331   0.885   8.079  3.0272 -0.8460  0.2686
 4180SOL    HW224174   4.340   0.820   8.212 -2.9669  2.4192  0.9390
 4181SOL     OW24175   3.269   2.502   8.859  0.3604  0.6906 -0.1032
 4181SOL    HW124176   3.254   2.591   8.890  2.2117  0.7574  0.6330
 4181SOL    HW224177   3.284   2.457   8.942 -1.4830  1.8300  0.8353
 4182SOL     OW24178   1.081   3.811  17.130  0.3881  0.2452  0.2594
 4182SOL    HW124179   1.169   3.801  17.166  0.3017  1.1650  0.7220
 4182SOL    HW224180   1.031   3.813  17.212  1.8452 -1.3179  1.1861
 4183SOL     OW24181   4.082   1.105   0.249  0.4854  0.4378  0.5045
 4183SOL    HW124182   3.988   1.098   0.235  0.6179 -0.6864  0.2172
 4183SOL    HW224183   4.090   1.182   0.193 -0.1910 -1.0642 -1.6488
 4184SOL     OW24184   4.033   2.728   2.072  0.0358  0.0037  0.2908
 4184SOL    HW124185   4.052   2.641   2.036  0.4851  0.1420  0.1964
 4184SOL    HW224186   3.938   2.728   2.085 -0.3725  3.3230 -2.4178
 4185SOL     OW24187   3.513   1.960   5.264 -0.1853  0.3973 -0.5798
 4185SOL    HW124188   3.477   2.006   5.188 -2.5000 -0.6696 -0.1299
 4185SOL    HW224189   3.604   1.988   5.264 -0.3525  0.9414 -0.5604
 4186SOL     OW24190   1.995   1.200   2.655  0.0119  0.2103  0.0210
 4186SOL    HW124191   2.063   1.138   2.681  0.5665 -0.5360 -3.2404
 4186SOL    HW224192   1.982   1.253   2.733 -3.8425 -0.1433 -0.4077
 4187SOL     OW24193   0.665   3.422  10.508  0.3005 -0.2535  0.5222
 4187SOL    HW124194   0.713   3.504  10.509  0.7805 -0.5034 -1.0618
 4187SOL    HW224195   0.627   3.422  10.420  0.7772 -0.5600  0.3168
 4188SOL     OW24196   3.174   1.299   2.564 -0.4171 -0.5825  0.1712
 4188SOL    HW124197   3.130   1.306   2.480 -1.3513 -0.4265  0.6781
 4188SOL    HW224198   3.153   1.209   2.589 -0.5266 -0.3624  0.8873
 4189SOL     OW24199   1.725   1.608   7.344 -0.1444  0.4403  0.4187
 4189SOL    HW124200   1.757   1.625   7.433 -0.5241 -1.5276  0.9264
 4189SOL    HW224201   1.772   1.528   7.322  0.5195  1.2825 -1.2659
 4190SOL     OW24202   4.101   3.409   5.423  0.2443 -0.6376 -0.0195
 4190SOL    HW124203   4.035   3.356   5.466 -0.5546 -1.3851 -2.1628
 4190SOL    HW224204   4.176   3.370   5.468 -0.8898 -1.6421  0.9980
 4191SOL     OW24205   0.652   1.491  12.669  0.1304 -0.1575 -0.6364
 4191SOL    HW124206   0.651   1.576  12.713 -0.2653 -0.6794  0.3781
 4191SOL    HW224207   0.559   1.467  12.668  0.2141 -0.5117  0.0185
 4192SOL     OW24208   3.717   1.795   4.961  0.3897 -0.2068 -0.3284
 4192SOL    HW124209   3.711   1.824   5.052 -0.5891 -1.2527 -0.0492
 4192SOL    HW224210   3.780   1.723   4.964  1.3062  0.7186  3.0874
 4193SOL     OW24211   3.358   2.811  16.797 -0.9528  0.1597 -0.2949
 4193SOL    HW124212   3.342   2.741  16.733  1.0619 -1.5878  1.0834
 4193SOL    HW224213   3.453   2.821  16.793 -0.4966 -2.6314  2.6025
 4194SOL     OW24214   3.004   0.574   4.310 -0.6805 -0.0649  0.1782
 4194SOL    HW124215   3.036   0.486   4.330  0.2598  0.0528 -0.8559
 4194SOL    HW224216   3.085   0.622   4.293 -0.9502 -0.4341 -2.1817
 4195SOL     OW24217   3.147   1.777   1.310 -1.0054 -0.3803 -0.1653
 4195SOL    HW124218   3.060   1.790   1.273 -1.2849  0.1876  0.7128
 4195SOL    HW224219   3.134   1.709   1.375  2.4458 -1.3355 -0.4394
 4196SOL     OW24220   0.442   4.265  10.091 -0.3570 -0.4742 -0.2017
 4196SOL    HW124221   0.487   4.282  10.009  1.4024 -0.9144  0.6678
 4196SOL    HW224222   0.507   4.200  10.121 -0.9672 -0.3348  1.4128
 4197SOL     OW24223   1.784   4.065  15.995 -0.1393 -0.5081 -0.5119
 4197SOL    HW124224   1.741   4.002  16.053  0.3307 -0.2539  0.1234
 4197SOL    HW224225   1.726   4.141  15.998  1.1039  0.3157  3.3619
 4198SOL     OW24226   4.717   4.505  11.943 -0.7612 -0.0405 -0.0923
 4198SOL    HW124227   4.685   4.504  11.853  2.0170 -1.0493 -1.0443
 4198SOL    HW224228   0.073   4.496  11.920 -0.2707 -0.5592  2.0940
 4199SOL     OW24229   2.660   0.488   6.293 -0.0020  0.0164 -0.5346
 4199SOL    HW124230   2.578   0.536   6.277 -0.3020 -0.3501 -0.1153
 4199SOL    HW224231   2.631   0.398   6.276  0.4482 -0.2119 -0.0707
 4200SOL     OW24232   4.290   0.119   7.514 -0.7661 -0.2179  0.6547
 4200SOL    HW124233   4.286   0.088   7.423 -2.3794  0.5874  0.4573
 4200SOL    HW224234   4.273   0.212   7.500 -2.1353 -0.5412  0.2398
 4201SOL     OW24235   3.099   2.529  12.555  0.3103  0.0916 -0.9394
 4201SOL    HW124236   3.133   2.524  12.645 -0.3177  0.3596 -0.6905
 4201SOL    HW224237   3.162   2.472  12.510  0.5616 -0.8254  0.5796
 4202SOL     OW24238   2.591   2.732   7.521 -0.1168 -0.3763  0.2181
 4202SOL    HW124239   2.642   2.661   7.559 -1.7525 -0.7078  1.8132
 4202SOL    HW224240   2.524   2.686   7.470 -2.7183  0.9746  2.4355
 4203SOL     OW24241   2.806   2.183   1.298 -0.2948 -0.0632 -0.2239
 4203SOL    HW124242   2.730   2.175   1.355  0.6194 -5.7400  0.1781
 4203SOL    HW224243   2.773   2.169   1.209 -0.2507  1.0764 -0.4216
 4204SOL     OW24244   4.520   1.684  10.972 -0.2787  0.0076 -0.2024
 4204SOL    HW124245   4.516   1.756  10.910  0.0895  0.2890  0.1071
 4204SOL    HW224246   4.534   1.733  11.053 -0.7816  1.9926 -1.3206
 4205SOL     OW24247   2.348   2.276   2.925 -0.8744 -0.2305 -0.1319
 4205SOL    HW124248   2.326   2.249   3.014 -1.7942 -1.0430 -0.5930
 4205SOL    HW224249   2.373   2.193   2.884  1.0628 -0.3166  1.2728
 4206SOL     OW24250   3.256   4.680   5.216 -0.2806 -0.2569  0.0789
 4206SOL    HW124251   3.289   4.639   5.296  1.0070 -1.9353 -1.2915
 4206SOL    HW224252   3.236   0.033   5.243 -0.9618  0.0952 -1.5381
 4207SOL     OW24253   3.447   2.077   5.013  0.0355 -0.0193 -0.2393
 4207SOL    HW124254   3.424   2.001   4.959 -2.1168 -0.3448  1.1221
 4207SOL    HW224255   3.359   2.115   5.017 -0.1785 -0.8112  2.4517
 4208SOL     OW24256   0.787   1.377   0.977  0.8095  0.2415  0.0188
 4208SOL    HW124257   0.757   1.453   1.027 -0.9314  0.6158 -1.5840
 4208SOL    HW224258   0.702   1.344   0.946  0.8619  0.7807 -0.7015
 4209SOL     OW24259   3.175   3.441   1.756  0.2157 -0.2364  0.0331
 4209SOL    HW124260   3.259   3.397   1.740 -0.0989 -0.2023 -1.7341
 4209SOL    HW224261   3.153   3.460   1.665  0.3664  0.3298  0.1182
 4210SOL     OW24262   2.546   1.703  16.381  0.0161  0.0184 -0.2022
 4210SOL    HW124263   2.636   1.731  16.401  0.0550 -0.4905  0.3605
 4210SOL    HW224264   2.540   1.720  16.287 -1.2664  1.4879  0.1504
 4211SOL     OW24265   0.546   2.297   3.226 -0.0444 -0.0931  0.2548
 4211SOL    HW124266   0.516   2.375   3.179 -0.9773  0.3953  1.6492
 4211SOL    HW224267   0.546   2.226   3.161  1.7887  0.0866  0.0705
 4212SOL     OW24268   2.707   0.523   5.919  0.3235  0.0801  0.6259
 4212SOL    HW124269   2.668   0.603   5.883  1.5484 -0.2998 -1.5305
 4212SOL    HW224270   2.762   0.573   5.978 -1.3191  1.2921  1.1180
 4213SOL     OW24271   1.337   4.205   9.808 -0.0301  0.6453 -0.5210
 4213SOL    HW124272   1.371   4.127   9.851  1.9356  1.2803 -0.9318
 4213SOL    HW224273   1.375   4.278   9.858  0.2376 -0.3787  0.7576
 4214SOL     OW24274   3.294   4.610   7.703  0.5228  0.2224 -0.8062
 4214SOL    HW124275   3.372   4.640   7.750  1.2485 -1.9676 -0.6118
 4214SOL    HW224276   3.293   4.517   7.724 -1.1701  0.4171 -0.0586
 4215SOL     OW24277   3.143   0.621   2.138 -0.1009  0.3438 -0.0312
 4215SOL    HW124278   3.185   0.565   2.204  1.0308 -0.4402 -1.4189
 4215SOL    HW224279   3.221   0.674   2.120 -0.3825  0.1456 -1.8193
 4216SOL     OW24280   0.468   3.182   6.690  0.1062 -0.3871  0.3087
 4216SOL    HW124281   0.413   3.215   6.619  0.8088  0.7627  0.2847
 4216SOL    HW224282   0.532   3.254   6.689 -2.0493  1.5334  1.5074
 4217SOL     OW24283   2.523   2.459   2.910 -0.0000  0.2055  0.0850
 4217SOL    HW124284   2.590   2.422   2.852 -1.4681 -0.8949 -0.9172
 4217SOL    HW224285   2.445   2.407   2.886  0.1468 -0.6848  1.5695
 4218SOL     OW24286   2.921   2.784   9.379  1.0593 -0.0128 -0.1459
 4218SOL    HW124287   2.950   2.875   9.374 -0.9272  0.6028 -0.4086
 4218SOL    HW224288   2.966   2.735   9.448  0.0347  0.7649  1.0706
 4219SOL     OW24289   1.071   0.729  17.712  0.7794 -0.2894 -0.4782
 4219SOL    HW124290   1.145   0.755  17.657  1.2465 -0.3178  0.1325
 4219SOL    HW224291   1.011   0.721  17.638 -0.0914 -0.3019  0.2265
 4220SOL     OW24292   2.405   2.627   1.358  0.4867 -0.4104 -0.4054
 4220SOL    HW124293   2.366   2.624   1.446  1.8554  0.0527  0.2089
 4220SOL    HW224294   2.330   2.591   1.310 -0.8981  0.5987  0.9803
 4221SOL     OW24295   1.568   2.421   8.053  0.5369  0.3987 -0.0861
 4221SOL    HW124296   1.493   2.387   8.102  1.0187 -0.7796 -0.1632
 4221SOL    HW224297   1.588   2.482   8.123 -0.3709 -1.7988  2.0644
 4222SOL     OW24298   0.024   1.167   6.635 -0.3429 -0.2407 -0.8441
 4222SOL    HW124299   0.089   1.196   6.572  0.8238  0.8593  0.8518
 4222SOL    HW224300   0.069   1.211   6.707  0.2934  0.4445 -1.6637
 4223SOL     OW24301   1.592   1.101   3.876  0.3223 -0.3891 -0.0433
 4223SOL    HW124302   1.640   1.178   3.846  0.3077 -0.3784 -0.0394
 4223SOL    HW224303   1.562   1.131   3.962 -1.6083 -0.6146 -0.6340
 4224SOL     OW24304   3.145   2.786  17.177  0.2157  0.3311 -0.3252
 4224SOL    HW124305   3.235   2.757  17.163 -0.4519 -1.4274 -0.8826
 4224SOL    HW224306   3.147   2.865  17.123  0.4410 -0.7749 -1.9238
 4225SOL     OW24307   2.196   3.879   5.557  0.0919  0.3928  0.1823
 4225SOL    HW124308   2.204   3.786   5.535 -1.1342  0.2524  0.3261
 4225SOL    HW224309   2.281   3.911   5.527 -0.6313  0.2723 -2.0424
 4226SOL     OW24310   4.244   2.553  15.686 -0.7850  0.5640 -0.1218
 4226SOL    HW124311   4.177   2.606  15.642 -0.2259  1.2197 -0.1890
 4226SOL    HW224312   4.200   2.469  15.692 -0.3142  0.4737  2.0658
 4227SOL     OW24313   3.803   3.744   1.594 -0.2393 -0.9565  0.5069
 4227SOL    HW124314   3.831   3.674   1.653 -0.9546 -2.4747 -0.9184
 4227SOL    HW224315   3.753   3.802   1.651 -0.6386  1.1954 -2.0634
 4228SOL     OW24316   3.492   1.772  11.059  0.3234 -0.0960  0.0257
 4228SOL    HW124317   3.412   1.787  11.010  0.5708  0.2459 -0.2801
 4228SOL    HW224318   3.521   1.683  11.038  1.4988  1.0955 -3.5170
 4229SOL     OW24319   4.651   4.639   8.192  0.0914 -0.1009  0.6906
 4229SOL    HW124320   4.612   4.727   8.190 -1.3561 -0.6997  2.6860
 4229SOL    HW224321   4.667   4.635   8.098 -0.7287  2.8469  0.4256
 4230SOL     OW24322   0.604   1.820  10.326 -0.3737  0.5879  0.1088
 4230SOL    HW124323   0.634   1.766  10.398  1.5827 -0.3751 -1.4561
 4230SOL    HW224324   0.686   1.843  10.284  0.8756 -1.8971  1.1980
 4231SOL     OW24325   0.317   2.437  10.879  0.1060  0.5586  0.0395
 4231SOL    HW124326   0.284   2.459  10.792  0.3153 -1.7950 -0.6368
 4231SOL    HW224327   0.264   2.360  10.901  1.8217 -0.4888  0.4880
 4232SOL     OW24328   3.969   3.777  16.397  0.1181  0.2754 -0.1759
 4232SOL    HW124329   3.990   3.791  16.305  2.8199 -1.4134  0.1872
 4232SOL    HW224330   4.029   3.714  16.437  2.6887  2.1524 -1.0837
 4233SOL     OW24331   3.587   3.800  12.814 -0.0347  0.0193 -0.6793
 4233SOL    HW124332   3.574   3.887  12.775  1.1932  1.4045  1.9602
 4233SOL    HW224333   3.528   3.809  12.889 -2.2224 -3.1151 -2.0538
 4234SOL     OW24334   4.133   4.727   5.228  0.5088  0.1137 -0.1028
 4234SOL    HW124335   4.048   4.685   5.221  0.6521  0.2599 -3.1042
 4234SOL    HW224336   4.170   4.678   5.302 -1.1701 -2.6195 -1.0841
 4235SOL     OW24337   0.942   2.205  10.309  0.4979  0.1715 -0.0084
 4235SOL    HW124338   0.847   2.207  10.292  0.5829  1.3044 -0.4116
 4235SOL    HW224339   0.943   2.283  10.365  1.3474  0.0074  0.1973
 4236SOL     OW24340   1.112   0.680  13.486  0.6113 -0.0009 -0.4826
 4236SOL    HW124341   1.090   0.716  13.572  1.2891 -1.5679  0.3456
 4236SOL    HW224342   1.030   0.630  13.483  1.2344 -1.2376  3.1328
 4237SOL     OW24343   0.566   4.217   3.324 -0.1390 -0.3482  0.2649
 4237SOL    HW124344   0.471   4.207   3.331 -0.3671  1.3305 -0.4363
 4237SOL    HW224345   0.572   4.222   3.419 -0.0897 -0.8587  0.2882
 4238SOL     OW24346   3.592   4.547  13.548  0.0410  0.2001  0.3174
 4238SOL    HW124347   3.600   4.572  13.640 -1.7456 -2.2296  1.1359
 4238SOL    HW224348   3.514   4.600  13.532 -1.2187 -1.6450  0.3026
 4239SOL     OW24349   2.773   1.644   3.190  0.0109  0.1081  0.1955
 4239SOL    HW124350   2.849   1.702   3.186 -1.0729  1.4963 -0.1189
 4239SOL    HW224351   2.759   1.626   3.097 -4.5908  1.8972  0.5535
 4240SOL     OW24352   2.372   4.123  13.201 -0.6028  0.7593 -0.3872
 4240SOL    HW124353   2.443   4.067  13.172  0.2872  2.1669 -0.9391
 4240SOL    HW224354   2.373   4.206  13.152 -1.2188  0.9599 -0.0687
 4241SOL     OW24355   2.976   0.697   8.657 -0.0571 -0.1953 -0.1901
 4241SOL    HW124356   2.973   0.793   8.659 -0.9459 -0.2205 -0.1812
 4241SOL    HW224357   2.896   0.652   8.631 -1.6399  2.0416  0.7632
 4242SOL     OW24358   1.428   2.671  11.528  0.3877 -0.2014  0.2559
 4242SOL    HW124359   1.440   2.581  11.557  0.6150  0.6394  2.7389
 4242SOL    HW224360   1.388   2.654  11.442 -0.0047  0.0704  0.3885
 4243SOL     OW24361   1.495   3.957   5.451  0.1507  0.5753 -0.9116
 4243SOL    HW124362   1.565   3.969   5.387  0.7185 -3.0599 -0.9317
 4243SOL    HW224363   1.542   3.996   5.525 -0.8908 -0.7612  0.4448
 4244SOL     OW24364   2.842   4.092   8.998 -0.4422  0.6464 -0.2938
 4244SOL    HW124365   2.825   4.079   9.091 -1.1796  2.5638 -0.1612
 4244SOL    HW224366   2.875   4.003   8.989  0.0772  0.6718  1.3409
 4245SOL     OW24367   3.900   4.613  10.380  0.1424  0.0468  0.3363
 4245SOL    HW124368   3.845   4.535  10.368 -2.5106  1.6835  1.7722
 4245SOL    HW224369   3.984   4.569  10.386  0.5266  0.9027  1.3352
 4246SOL     OW24370   3.698   1.716  11.760 -0.0277 -0.2799 -0.7128
 4246SOL    HW124371   3.612   1.683  11.733 -0.7782  0.7903  0.3530
 4246SOL    HW224372   3.684   1.686  11.850  0.0005  0.0500 -0.5985
 4247SOL     OW24373   2.320   3.759   6.678 -0.1645  0.1524 -0.3192
 4247SOL    HW124374   2.277   3.843   6.696 -0.8876 -0.5623  1.2700
 4247SOL    HW224375   2.308   3.750   6.583  0.7705 -0.2253 -0.4034
 4248SOL     OW24376   0.591   4.332   7.168  0.2123 -0.0790 -0.1897
 4248SOL    HW124377   0.650   4.262   7.140 -0.2822 -0.7318  0.4026
 4248SOL    HW224378   0.617   4.330   7.260  0.0437  0.0765 -0.1392
 4249SOL     OW24379   0.123   2.839   3.467  0.0195  0.1809 -0.1597
 4249SOL    HW124380   0.203   2.887   3.447 -0.4828  1.2325  0.3875
 4249SOL    HW224381   0.158   2.780   3.533  0.8297  1.7610  0.8131
 4250SOL     OW24382   0.777   1.084  13.608 -0.4446 -0.3304 -0.0280
 4250SOL    HW124383   0.866   1.048  13.608 -1.7087 -3.4313  0.0234
 4250SOL    HW224384   0.796   1.155  13.669 -1.2218  1.1816 -1.5301
 4251SOL     OW24385   3.710   3.110   4.222 -0.5223 -0.6104 -0.3388
 4251SOL    HW124386   3.669   3.039   4.171  1.4297 -1.4994 -0.6751
 4251SOL    HW224387   3.733   3.060   4.300  0.9166  1.7808  0.7461
 4252SOL     OW24388   0.444   1.559   6.659  0.3718  0.5764 -0.1312
 4252SOL    HW124389   0.414   1.548   6.568 -2.6921  2.5057  0.6479
 4252SOL    HW224390   0.538   1.558   6.642  0.3681 -0.8493 -0.1068
 4253SOL     OW24391   0.770   0.140   6.768 -0.3694  0.2444 -0.1906
 4253SOL    HW124392   0.857   0.160   6.734 -0.0283  0.2653  0.6931
 4253SOL    HW224393   0.763   0.188   6.851 -1.0642  0.8681 -0.6201
 4254SOL     OW24394   2.476   4.495   9.024 -0.4583 -0.4934 -0.0293
 4254SOL    HW124395   2.501   4.517   9.113 -0.8796 -0.0040 -0.0333
 4254SOL    HW224396   2.540   4.425   9.009  1.4603  0.3577  4.0828
 4255SOL     OW24397   2.365   4.465   5.373  0.0335  0.5054  0.0257
 4255SOL    HW124398   2.373   4.537   5.436  1.5587  1.4574 -1.2395
 4255SOL    HW224399   2.321   4.513   5.303 -0.7270  0.1976  0.2995
 4256SOL     OW24400   2.971   2.349   8.751  0.5716 -0.5066  0.3975
 4256SOL    HW124401   2.927   2.434   8.758  0.5982 -0.2915 -2.3239
 4256SOL    HW224402   2.914   2.310   8.685  1.9615  3.2399 -3.0264
 4257SOL     OW24403   3.188   3.623   9.619  0.2660  0.1260 -0.4213
 4257SOL    HW124404   3.112   3.567   9.598  0.2729 -0.4457  1.0905
 4257SOL    HW224405   3.199   3.679   9.542  0.0368  0.9992  0.1793
 4258SOL     OW24406   4.477   1.826  15.895  0.2483  0.2303  0.0140
 4258SOL    HW124407   4.522   1.855  15.974 -0.0287  1.8261 -0.4012
 4258SOL    HW224408   4.391   1.852  15.927  0.2919  0.1371  0.2075
 4259SOL     OW24409   2.146   2.835   2.917  0.0515  0.3123 -0.4591
 4259SOL    HW124410   2.238   2.849   2.940  0.0229  2.3070 -1.4946
 4259SOL    HW224411   2.142   2.741   2.931  0.4476  0.1303 -1.5843
 4260SOL     OW24412   0.907   1.971   9.657  0.1173  0.1416 -0.9225
 4260SOL    HW124413   0.834   1.929   9.704  0.1456  1.7413  0.5446
 4260SOL    HW224414   0.948   1.892   9.622 -0.7020  0.3093 -2.2502
 4261SOL     OW24415   4.670   2.370   1.749  0.1123 -0.0303  0.1876
 4261SOL    HW124416   4.669   2.285   1.705 -0.0356 -0.4717  1.0567
 4261SOL    HW224417   4.725   2.355   1.825 -1.0106 -1.3885  0.7347
 4262SOL     OW24418   2.678   2.901   7.708 -0.2584  0.0662 -0.1787
 4262SOL    HW124419   2.656   2.830   7.769 -1.1292 -0.2586 -0.8628
 4262SOL    HW224420   2.643   2.855   7.632 -1.8079 -1.0129  1.1843
 4263SOL     OW24421   4.416   1.599   8.588 -0.2157  0.0164  0.0160
 4263SOL    HW124422   4.496   1.571   8.543 -1.7079 -1.8448 -1.4970
 4263SOL    HW224423   4.394   1.513   8.623  1.4671 -1.2610 -2.0694
 4264SOL     OW24424   3.054   3.329   8.542 -0.1671 -0.1940  0.1991
 4264SOL    HW124425   3.000   3.292   8.612 -1.3053  0.2695 -0.4417
 4264SOL    HW224426   2.999   3.309   8.467 -0.4821 -0.7133  0.5710
 4265SOL     OW24427   2.706   1.738  16.710 -0.5742  0.2308 -0.2117
 4265SOL    HW124428   2.611   1.733  16.718 -0.4141 -2.5005 -0.2080
 4265SOL    HW224429   2.726   1.735  16.803 -2.0432  0.2546  0.0926
 4266SOL     OW24430   2.946   1.119   3.894 -0.0182 -0.9075  0.4384
 4266SOL    HW124431   2.981   1.089   3.810  1.8527 -0.1729  0.9375
 4266SOL    HW224432   2.862   1.145   3.858  2.1121 -1.6466 -5.0362
 4267SOL     OW24433   0.009   1.317   4.987 -0.5335  0.2551 -0.2907
 4267SOL    HW124434   0.021   1.322   4.892 -0.7480 -1.1375 -0.3874
 4267SOL    HW224435   4.653   1.292   4.995 -0.9575  1.8159 -0.1890
 4268SOL     OW24436   2.734   2.923   5.772  0.2382 -0.6513 -0.2932
 4268SOL    HW124437   2.687   2.857   5.721  1.8736 -2.7203  0.8806
 4268SOL    HW224438   2.739   2.990   5.703  1.0861 -0.5893 -0.1794
 4269SOL     OW24439   1.945   0.392   0.399 -0.3439 -0.2099  0.3135
 4269SOL    HW124440   1.854   0.419   0.385  0.0404  0.2631 -1.3413
 4269SOL    HW224441   1.935   0.315   0.454  0.8861 -1.0544 -0.6499
 4270SOL     OW24442   3.529   1.743  11.334  0.4504  0.3361  0.4820
 4270SOL    HW124443   3.517   1.778  11.246 -2.3434 -2.0008 -0.0670
 4270SOL    HW224444   3.438   1.750  11.365  0.5605 -0.1707  0.9228
 4271SOL     OW24445   2.150   4.554   3.300 -0.5866 -0.1637  0.2168
 4271SOL    HW124446   2.123   4.606   3.224 -2.0226 -1.5227 -0.1890
 4271SOL    HW224447   2.080   4.561   3.364  1.5455 -0.3653  2.5821
 4272SOL     OW24448   1.356   3.303   0.175 -0.0859 -0.4916 -0.2515
 4272SOL    HW124449   1.282   3.262   0.130 -0.9845 -0.6988  1.3999
 4272SOL    HW224450   1.382   3.229   0.230 -1.0956  0.1476  1.1202
 4273SOL     OW24451   1.888   4.653   6.105 -0.4308  0.2768  0.3651
 4273SOL    HW124452   1.847   4.673   6.021 -0.2922 -0.6354  0.0765
 4273SOL    HW224453   1.932   4.733   6.132  0.9806  0.1472 -1.6127
 4274SOL     OW24454   2.337   3.057   2.117 -0.4136 -0.3458  0.1974
 4274SOL    HW124455   2.310   3.140   2.155  1.4346  0.5147 -0.3784
 4274SOL    HW224456   2.372   3.000   2.186 -1.0630  0.8769  1.5212
 4275SOL     OW24457   3.596   4.399   5.900  0.0452 -0.4419 -0.0149
 4275SOL    HW124458   3.654   4.424   5.829  1.6989 -0.5543  1.2959
 4275SOL    HW224459   3.650   4.402   5.979 -2.0689  1.6602  1.3278
 4276SOL     OW24460   3.094   1.287   5.440 -0.0828  0.1467  0.0205
 4276SOL    HW124461   3.120   1.324   5.356  0.7018 -0.9141 -0.1913
 4276SOL    HW224462   3.119   1.356   5.502 -0.1370  1.6614 -1.6220
 4277SOL     OW24463   0.050   2.914   8.321  0.3609 -0.1384  0.1981
 4277SOL    HW124464   0.085   2.995   8.360 -0.1761 -1.2175  2.9084
 4277SOL    HW224465   0.071   2.857   8.395 -0.1469  0.6357  0.9488
 4278SOL     OW24466   2.271   3.094   5.848  0.1257 -0.0281 -0.2594
 4278SOL    HW124467   2.335   3.047   5.902  0.3280  0.3508 -0.1700
 4278SOL    HW224468   2.291   3.067   5.759  1.2241  0.7965 -0.2638
 4279SOL     OW24469   1.035   1.480   8.948 -0.5846  0.7458  0.1315
 4279SOL    HW124470   1.007   1.537   8.876 -1.2629  1.3874  0.9025
 4279SOL    HW224471   0.953   1.431   8.959  0.7460 -0.8469  2.9396
 4280SOL     OW24472   0.302   1.470   7.429  0.1948  0.3186 -0.6050
 4280SOL    HW124473   0.382   1.431   7.462 -0.1548  1.0577  1.1290
 4280SOL    HW224474   0.340   1.546   7.385 -0.9242 -0.9665 -3.7947
 4281SOL     OW24475   0.809   0.145   7.390 -0.2499  0.3655  0.8109
 4281SOL    HW124476   0.734   0.164   7.446 -2.2355 -0.8106 -1.4952
 4281SOL    HW224477   0.770   0.087   7.326  1.1320  0.5757 -0.2249
 4282SOL     OW24478   1.681   1.685   6.452 -0.2632 -0.2315  0.2875
 4282SOL    HW124479   1.770   1.701   6.419 -0.4403  1.1354  0.4525
 4282SOL    HW224480   1.681   1.593   6.478 -0.5699 -0.5841 -0.9696
 4283SOL     OW24481   0.463   0.021   2.805 -0.2172 -0.1025 -0.4769
 4283SOL    HW124482   0.556   0.029   2.826  0.1650  1.9791 -2.9394
 4283SOL    HW224483   0.472   0.049   2.713 -1.2510  1.6159 -0.0596
 4284SOL     OW24484   4.230   0.864   7.323 -0.0662 -0.2197 -0.0297
 4284SOL    HW124485   4.139   0.833   7.311 -0.2737  0.6438 -0.6478
 4284SOL    HW224486   4.254   0.878   7.232  0.3420  1.1081  0.2949
 4285SOL     OW24487   3.042   3.567   2.785  0.8798  0.6297 -0.1056
 4285SOL    HW124488   3.122   3.557   2.837 -0.2303  0.1569  1.5320
 4285SOL    HW224489   3.082   3.600   2.705  1.5972  3.3582  1.3796
 4286SOL     OW24490   1.390   4.410   0.616  0.3230 -0.0270 -0.8995
 4286SOL    HW124491   1.329   4.467   0.569 -1.2768 -1.2015 -0.2282
 4286SOL    HW224492   1.398   4.463   0.696 -0.6048 -1.1142 -0.0880
 4287SOL     OW24493   4.054   2.412   2.165 -0.8863 -0.1175  0.0062
 4287SOL    HW124494   4.089   2.328   2.194  1.4936 -0.1521 -2.9880
 4287SOL    HW224495   4.002   2.381   2.091 -1.6345  0.5425  0.2556
 4288SOL     OW24496   0.986   4.496   6.168  0.0664  0.9689  0.6334
 4288SOL    HW124497   0.995   4.554   6.093  0.5328  0.1248  0.0319
 4288SOL    HW224498   1.040   4.536   6.236  1.2378  1.6536 -0.6969
 4289SOL     OW24499   3.646   0.709  16.433 -0.3592 -0.2192 -0.2434
 4289SOL    HW124500   3.646   0.714  16.337 -3.7515  2.2088 -0.1090
 4289SOL    HW224501   3.668   0.800  16.452 -0.9270 -0.3149  0.8813
 4290SOL     OW24502   0.234   1.965  10.969  0.1594 -0.9456 -0.6373
 4290SOL    HW124503   0.306   1.968  10.906  0.8000 -1.2417  0.0881
 4290SOL    HW224504   0.160   1.968  10.908 -0.1900 -0.9059 -0.2153
 4291SOL     OW24505   2.536   1.433   2.385 -0.2715  0.0623 -0.4802
 4291SOL    HW124506   2.537   1.527   2.400  1.2023  0.0140 -0.2139
 4291SOL    HW224507   2.448   1.406   2.360 -0.0080 -2.7125  1.6078
 4292SOL     OW24508   2.614   1.226   3.351 -0.1519  0.4529 -0.1064
 4292SOL    HW124509   2.695   1.265   3.381 -0.1475 -1.5095  2.4331
 4292SOL    HW224510   2.570   1.184   3.425 -2.5487  1.0048 -1.2194
 4293SOL     OW24511   1.802   2.123   1.763  0.0014 -0.0016  0.0662
 4293SOL    HW124512   1.882   2.174   1.754 -0.1420  0.7952  3.1244
 4293SOL    HW224513   1.820   2.063   1.836  2.2131  0.4092 -0.1460
 4294SOL     OW24514   4.149   4.260   5.968  0.0356  0.3236 -0.0485
 4294SOL    HW124515   4.142   4.212   6.050  0.1807  1.7787  0.8144
 4294SOL    HW224516   4.072   4.228   5.920 -0.6989  1.1665  0.5703
 4295SOL     OW24517   3.005   2.316  13.649  0.4357 -0.0638 -0.0150
 4295SOL    HW124518   3.089   2.332  13.605  1.6869  1.0320  2.7221
 4295SOL    HW224519   2.942   2.375  13.608 -2.5758 -1.4576  2.6436
 4296SOL     OW24520   1.008   2.736  12.727  0.1591  0.7182 -0.3159
 4296SOL    HW124521   0.961   2.665  12.770 -0.0061  1.1941  0.2798
 4296SOL    HW224522   1.097   2.720  12.758 -0.6088  1.2667  2.1761
 4297SOL     OW24523   3.020   0.688   7.513 -0.4503 -0.1733 -0.5210
 4297SOL    HW124524   2.962   0.750   7.470  0.6627  1.0764 -0.2241
 4297SOL    HW224525   2.960   0.625   7.553 -0.4351  0.2185  0.1126
 4298SOL     OW24526   4.425   1.124   5.702  0.6241  0.0272 -0.0339
 4298SOL    HW124527   4.439   1.167   5.618 -0.7754 -0.5897 -0.5721
 4298SOL    HW224528   4.368   1.051   5.677 -1.4395  0.6079  2.8959
 4299SOL     OW24529   1.595   1.965  10.399 -0.3136  0.1924 -0.6199
 4299SOL    HW124530   1.576   1.883  10.446 -0.1691 -0.2977 -1.4239
 4299SOL    HW224531   1.570   1.926  10.315  1.5429  0.1537 -1.1552
 4300SOL     OW24532   0.253   0.660   7.586  0.0055 -0.5621 -0.0461
 4300SOL    HW124533   0.300   0.604   7.647  0.0523 -0.2704  0.1840
 4300SOL    HW224534   0.245   0.610   7.505 -1.4583  2.2031 -1.6123
 4301SOL     OW24535   1.038   1.107   5.921 -0.4096  0.6041  0.3047
 4301SOL    HW124536   1.105   1.051   5.882  0.5598  1.8042  0.2393
 4301SOL    HW224537   0.994   1.036   5.966  3.1480 -0.6556  1.8321
 4302SOL     OW24538   0.876   0.470   7.029  0.0768 -0.0053 -0.0708
 4302SOL    HW124539   0.789   0.432   7.014  0.5329  0.2061 -3.1816
 4302SOL    HW224540   0.924   0.393   7.058 -1.0548 -1.3726 -1.7905
 4303SOL     OW24541   0.886   0.868   0.703  0.0951 -0.0360  0.1457
 4303SOL    HW124542   0.812   0.866   0.642 -0.2339  1.5451  0.4832
 4303SOL    HW224543   0.861   0.938   0.764  0.4719  1.1576 -1.0882
 4304SOL     OW24544   0.413   0.909   6.786  0.0695  0.0653  0.2079
 4304SOL    HW124545   0.354   0.935   6.857  0.5956 -2.0334  1.4046
 4304SOL    HW224546   0.432   0.820   6.815  0.5720  0.4865  1.1386
 4305SOL     OW24547   1.211   0.063   6.996 -0.1900  0.0628 -0.1184
 4305SOL    HW124548   1.187   0.105   7.079 -1.3723 -1.6785  0.4272
 4305SOL    HW224549   1.302   0.093   6.993  0.5732 -1.9960  1.8189
 4306SOL     OW24550   3.300   2.447  10.290 -0.5536 -0.3583  0.1467
 4306SOL    HW124551   3.380   2.425  10.338  0.3952 -0.8011 -1.6480
 4306SOL    HW224552   3.255   2.363  10.300  0.2094 -0.8088 -0.2111
 4307SOL     OW24553   2.435   2.075   5.936 -0.3238  0.6043 -0.5035
 4307SOL    HW124554   2.389   2.012   5.881  0.0819 -0.4816  0.4124
 4307SOL    HW224555   2.510   2.096   5.879  0.6779 -1.9310 -0.1336
 4308SOL     OW24556   0.554   3.069   9.464 -0.0223 -0.0175  0.3843
 4308SOL    HW124557   0.462   3.057   9.438 -0.3332 -0.7585  1.8378
 4308SOL    HW224558   0.577   3.144   9.410  1.9739  0.9663  2.6546
 4309SOL     OW24559   0.793   0.190   5.062  0.2921  0.2220 -0.4073
 4309SOL    HW124560   0.709   0.227   5.089  0.2252  1.6529 -2.5262
 4309SOL    HW224561   0.846   0.220   5.136 -0.5263 -0.5519  0.4898
 4310SOL     OW24562   3.654   1.059   7.542  0.5361  0.3973  0.2199
 4310SOL    HW124563   3.560   1.073   7.537  0.5013 -0.6500 -2.1940
 4310SOL    HW224564   3.678   1.135   7.595  2.4110 -1.0015  1.4051
 4311SOL     OW24565   2.183   2.450   9.965 -0.1222  0.0956 -0.6212
 4311SOL    HW124566   2.277   2.431   9.969 -0.2977 -0.9310 -1.3794
 4311SOL    HW224567   2.187   2.540   9.996 -1.9746  0.7739 -2.3205
 4312SOL     OW24568   1.308   4.455   9.309 -0.8082 -0.1962 -0.1110
 4312SOL    HW124569   1.319   4.496   9.223  0.9534  2.0317  1.1925
 4312SOL    HW224570   1.307   4.533   9.364  0.3659  0.4119 -0.9669
 4313SOL     OW24571   3.929   4.323   2.205  0.2839 -0.3139  0.3537
 4313SOL    HW124572   3.971   4.341   2.289  1.5314 -3.5059  0.3821
 4313SOL    HW224573   3.900   4.234   2.221 -2.2384  0.2835 -0.8624
 4314SOL     OW24574   1.350   2.365   3.259 -0.3537  0.1554  0.0775
 4314SOL    HW124575   1.281   2.300   3.245  0.6597 -1.6061  3.4003
 4314SOL    HW224576   1.365   2.391   3.168 -0.1703 -1.0862 -0.2425
 4315SOL     OW24577   1.535   3.305   6.945 -0.8016  0.6855  0.4491
 4315SOL    HW124578   1.465   3.364   6.915 -0.7229  1.3288  1.5061
 4315SOL    HW224579   1.604   3.308   6.879  0.9288  1.5304  2.2651
 4316SOL     OW24580   2.809   0.963  16.513 -0.0121 -0.0273  0.1013
 4316SOL    HW124581   2.854   1.042  16.544  0.1113 -0.4144  0.9165
 4316SOL    HW224582   2.722   0.983  16.549 -0.3985 -1.6598  0.0548
 4317SOL     OW24583   2.271   1.946   4.823  0.1042  0.4954  0.1569
 4317SOL    HW124584   2.237   1.888   4.755  0.8742 -0.7752  0.8551
 4317SOL    HW224585   2.253   2.034   4.789 -0.6419  0.2046 -0.2068
 4318SOL     OW24586   3.947   1.832  11.744 -0.2371  0.2544  0.1274
 4318SOL    HW124587   3.853   1.837  11.725  0.0471  0.6715 -1.1542
 4318SOL    HW224588   3.962   1.737  11.751 -0.9409  0.3046  2.3131
 4319SOL     OW24589   0.463   0.978  15.685 -0.2078  0.8166  0.2547
 4319SOL    HW124590   0.370   0.963  15.674 -0.2281 -0.2346  1.8414
 4319SOL    HW224591   0.498   0.889  15.678 -2.4979 -0.1403  1.0854
 4320SOL     OW24592   4.191   3.577  15.090 -0.0796  0.4309 -0.6542
 4320SOL    HW124593   4.127   3.512  15.121  0.3506  0.7518  0.9345
 4320SOL    HW224594   4.270   3.546  15.134 -1.3651 -1.7663  0.0997
 4321SOL     OW24595   1.053   0.583   5.468  0.8003 -0.1633  0.6039
 4321SOL    HW124596   1.054   0.571   5.373 -0.2035  0.6320  0.5021
 4321SOL    HW224597   0.967   0.622   5.483 -0.0515 -1.5716 -0.6627
 4322SOL     OW24598   3.763   0.109   5.689 -0.3487  0.8185 -0.1566
 4322SOL    HW124599   3.723   0.195   5.676  0.9159  1.6193  1.2054
 4322SOL    HW224600   3.764   0.073   5.600  0.0864 -2.6647  1.2642
 4323SOL     OW24601   3.692   2.352   2.875 -0.3776  0.1013  0.1682
 4323SOL    HW124602   3.659   2.369   2.786  0.2518  1.9118  0.2878
 4323SOL    HW224603   3.631   2.401   2.930 -1.5665 -2.3116  1.0205
 4324SOL     OW24604   3.218   3.766   9.117 -0.1937 -0.3985  0.1366
 4324SOL    HW124605   3.303   3.733   9.147  0.1634 -0.5541 -1.0387
 4324SOL    HW224606   3.228   3.860   9.133 -1.0999 -0.1935 -0.5075
 4325SOL     OW24607   3.593   2.899   6.450  0.1853 -0.3166  0.1273
 4325SOL    HW124608   3.555   2.899   6.362 -2.6638  1.1184  1.3510
 4325SOL    HW224609   3.679   2.857   6.443  0.6474  0.8309 -1.0059
 4326SOL     OW24610   1.263   2.137   1.714  0.3939  0.6359 -0.6752
 4326SOL    HW124611   1.243   2.133   1.807  0.4846 -2.5442 -0.7977
 4326SOL    HW224612   1.356   2.114   1.719  0.1471 -0.4515 -1.0084
 4327SOL     OW24613   0.136   4.647   5.649 -0.3155 -0.0652  0.0042
 4327SOL    HW124614   0.146   4.677   5.559 -0.0644 -1.9519 -0.6085
 4327SOL    HW224615   0.180   4.713   5.701 -0.6794  1.6912 -1.9388
 4328SOL     OW24616   3.380   4.475  17.554  0.4206  0.2006 -0.3675
 4328SOL    HW124617   3.435   4.438  17.623  0.8698  1.4550 -0.0665
 4328SOL    HW224618   3.329   4.400  17.523  1.1971  0.0233 -1.1896
 4329SOL     OW24619   4.212   1.843   1.405 -0.2322 -0.1311  0.0381
 4329SOL    HW124620   4.254   1.894   1.474  0.8642 -0.7483 -0.1888
 4329SOL    HW224621   4.290   1.827   1.352  0.9609  2.5241  0.9909
 4330SOL     OW24622   3.453   4.707  11.468  0.2068  0.1802 -0.1587
 4330SOL    HW124623   3.459   0.026  11.546 -3.0100 -0.5061  0.6007
 4330SOL    HW224624   3.477   4.620  11.499  0.9675 -0.1567 -1.6806
 4331SOL     OW24625   0.932   1.782   7.953  0.1734  0.5379  0.3855
 4331SOL    HW124626   0.980   1.864   7.951  0.6788  0.2411  0.3149
 4331SOL    HW224627   0.916   1.752   8.042 -0.2953 -1.5924 -0.4082
 4332SOL     OW24628   2.674   2.278   0.801  0.1003 -0.2414  0.1447
 4332SOL    HW124629   2.759   2.318   0.819  1.0290 -2.1128 -0.0368
 4332SOL    HW224630   2.629   2.356   0.770  1.2081 -0.8292 -2.8841
 4333SOL     OW24631   3.344   1.542   9.007 -0.0691 -0.2459  0.6550
 4333SOL    HW124632   3.356   1.485   8.931  0.3955  1.8370 -0.8398
 4333SOL    HW224633   3.296   1.617   8.973 -0.8819  0.0676  2.4995
 4334SOL     OW24634   4.145   4.196   8.288 -0.7690 -0.4716  0.5549
 4334SOL    HW124635   4.195   4.135   8.234 -0.1578  0.2170  0.3492
 4334SOL    HW224636   4.170   4.276   8.242 -1.9613 -0.4808 -0.1224
 4335SOL     OW24637   4.499   0.883   8.902  0.3755 -0.1325 -0.3349
 4335SOL    HW124638   4.554   0.819   8.857  0.9618 -0.0379  0.2525
 4335SOL    HW224639   4.450   0.823   8.957  0.9470  0.5967  0.9648
 4336SOL     OW24640   2.723   1.929  14.817 -0.1597  0.3684  0.0553
 4336SOL    HW124641   2.792   1.879  14.860 -0.8390  1.5909  2.5785
 4336SOL    HW224642   2.714   1.965  14.905 -1.9208  1.0817 -0.4164
 4337SOL     OW24643   2.399   1.396   5.166 -0.2834  0.1383 -0.3033
 4337SOL    HW124644   2.474   1.438   5.208 -1.1582  2.1579 -0.7244
 4337SOL    HW224645   2.338   1.415   5.238 -1.3442 -2.2874 -0.5814
 4338SOL     OW24646   1.803   3.565   4.306  0.0406  0.5432  0.3120
 4338SOL    HW124647   1.806   3.484   4.255 -2.2286  0.4922  0.2728
 4338SOL    HW224648   1.720   3.574   4.351 -0.5980 -0.8193 -0.6066
 4339SOL     OW24649   2.800   4.142   5.432 -0.4342 -0.3077 -0.1191
 4339SOL    HW124650   2.740   4.215   5.415  1.3909  0.6114 -2.6673
 4339SOL    HW224651   2.831   4.173   5.517  0.1864  0.6185 -0.6791
 4340SOL     OW24652   4.569   1.304   8.818 -0.3394  0.0541 -0.1969
 4340SOL    HW124653   4.532   1.361   8.885 -1.4904 -1.1289  0.1753
 4340SOL    HW224654   4.513   1.318   8.742  2.0596  0.8840 -1.8222
 4341SOL     OW24655   3.692   2.907   4.039  0.4638  0.7534 -0.4359
 4341SOL    HW124656   3.714   2.835   3.981 -0.5985  0.1976 -0.1519
 4341SOL    HW224657   3.598   2.899   4.021 -0.0443 -2.4409  3.6780
 4342SOL     OW24658   2.302   3.472   8.100 -0.2126  0.4040 -0.0179
 4342SOL    HW124659   2.352   3.553   8.104 -1.2647  0.9521  1.7430
 4342SOL    HW224660   2.269   3.465   8.189  0.9849  1.0130  0.4660
 4343SOL     OW24661   4.413   0.799   8.418  0.2131 -0.4352  0.2847
 4343SOL    HW124662   4.465   0.719   8.429 -1.3109 -1.4779 -0.1235
 4343SOL    HW224663   4.481   0.860   8.446  1.0443 -0.4829 -1.6657
 4344SOL     OW24664   2.474   1.644   6.044  0.2512 -0.1964 -0.1285
 4344SOL    HW124665   2.512   1.732   6.051 -0.6155  0.3246 -2.0439
 4344SOL    HW224666   2.489   1.615   6.134 -1.2050 -0.8259 -0.0889
 4345SOL     OW24667   2.045   1.580   8.051  0.5745  0.0824  0.7279
 4345SOL    HW124668   1.950   1.588   8.045  0.6344  0.4035  0.2577
 4345SOL    HW224669   2.077   1.531   7.975 -0.8499 -2.6685  1.8909
 4346SOL     OW24670   0.326   1.201   1.106  0.4109 -0.5772  0.0880
 4346SOL    HW124671   0.279   1.136   1.158  0.1685  0.8632  1.6890
 4346SOL    HW224672   0.402   1.226   1.159  0.4018  1.4156 -0.8454
 4347SOL     OW24673   1.223   1.560   7.943  0.6022 -0.2377 -0.2582
 4347SOL    HW124674   1.256   1.499   8.009 -0.7153  0.0436  0.6612
 4347SOL    HW224675   1.245   1.645   7.982  0.4536 -0.8998  1.2521
 4348SOL     OW24676   2.312   0.021  15.740  0.4689 -0.4669  0.6102
 4348SOL    HW124677   2.231   0.072  15.745 -0.5446 -1.8119 -1.9716
 4348SOL    HW224678   2.287   4.683  15.685  1.9312 -0.2701 -0.3162
 4349SOL     OW24679   2.795   3.033  10.237  0.0369 -0.0674  0.0090
 4349SOL    HW124680   2.699   3.039  10.244  0.0471  1.4826 -1.1394
 4349SOL    HW224681   2.806   2.959  10.177 -1.0166 -0.1646 -0.0783
 4350SOL     OW24682   0.900   0.095   3.521  0.3174  0.2639  0.1014
 4350SOL    HW124683   0.853   0.013   3.539 -0.4480  0.4652 -0.9273
 4350SOL    HW224684   0.840   0.138   3.460  1.0846 -0.3500 -1.0910
 4351SOL     OW24685   0.822   3.011   2.971 -0.3090 -0.3297 -0.2272
 4351SOL    HW124686   0.731   3.016   2.940 -0.3350  1.0211  0.0449
 4351SOL    HW224687   0.859   2.974   2.891  1.7577 -0.4332  0.7748
 4352SOL     OW24688   3.430   1.693   7.454 -0.6478 -0.0933  0.4726
 4352SOL    HW124689   3.347   1.664   7.417 -0.3507 -1.4337  0.8757
 4352SOL    HW224690   3.404   1.666   7.542 -0.6437 -0.0537  0.4862
 4353SOL     OW24691   1.441   2.839  10.857 -0.2391 -0.3161  0.0277
 4353SOL    HW124692   1.495   2.907  10.896 -2.3504  0.9330  0.7867
 4353SOL    HW224693   1.461   2.773  10.922  0.3047  0.6288  0.8208
 4354SOL     OW24694   2.907   2.523   1.906 -0.1343 -0.5260 -0.2690
 4354SOL    HW124695   2.995   2.560   1.899 -0.3078  0.3338  2.0882
 4354SOL    HW224696   2.873   2.540   1.818  0.4713  1.8712 -0.0400
 4355SOL     OW24697   0.951   0.472  10.210 -0.1918 -0.1897  0.0667
 4355SOL    HW124698   0.904   0.552  10.188  0.1205  0.6691  2.5558
 4355SOL    HW224699   1.035   0.508  10.238 -0.2979  0.2319 -0.1438
 4356SOL     OW24700   4.472   2.669   7.460 -0.8698 -0.1667  0.1745
 4356SOL    HW124701   4.377   2.663   7.460 -0.9440  0.7417 -1.4698
 4356SOL    HW224702   4.492   2.712   7.543 -0.7510  2.7274 -1.3242
 4357SOL     OW24703   3.756   2.425   7.925 -0.6639  0.4338 -0.7973
 4357SOL    HW124704   3.720   2.460   8.007  0.0237 -0.2556 -0.2068
 4357SOL    HW224705   3.737   2.332   7.936  1.5581 -0.0114 -0.7579
 4358SOL     OW24706   2.936   0.252   8.979 -0.1742  0.2105 -0.4946
 4358SOL    HW124707   2.962   0.230   9.069  0.2999 -0.8763 -0.8949
 4358SOL    HW224708   2.847   0.216   8.975  0.6160 -1.8549  0.5048
 4359SOL     OW24709   2.133   1.264  13.913  0.0780 -0.1106 -0.1147
 4359SOL    HW124710   2.079   1.211  13.855  0.7593 -0.2557 -0.6181
 4359SOL    HW224711   2.086   1.253  13.996  1.2703  2.8415  0.9339
 4360SOL     OW24712   3.357   1.872   4.848 -0.1988 -0.2236 -0.1724
 4360SOL    HW124713   3.404   1.789   4.851 -2.1032 -1.2656  1.0271
 4360SOL    HW224714   3.266   1.852   4.873 -0.3289  0.0415 -0.4341
 4361SOL     OW24715   2.430   0.898   2.619 -0.2615 -0.1360  0.1908
 4361SOL    HW124716   2.484   0.820   2.608 -0.3475 -0.2019  0.2378
 4361SOL    HW224717   2.491   0.961   2.581 -0.2749 -0.7167 -0.8038
 4362SOL     OW24718   1.699   0.467  10.024  0.2333  0.4489 -0.0441
 4362SOL    HW124719   1.725   0.553   9.991  1.7096 -0.7509 -1.9522
 4362SOL    HW224720   1.706   0.476  10.119 -0.5369  1.3918 -0.0646
 4363SOL     OW24721   3.440   4.550  10.832  0.2833  0.2184 -0.1243
 4363SOL    HW124722   3.360   4.585  10.871  0.5937 -1.5302  2.0829
 4363SOL    HW224723   3.408   4.514  10.750 -0.8948 -0.5167  0.6696
 4364SOL     OW24724   1.324   4.317  11.495 -0.4789  0.7854 -0.2897
 4364SOL    HW124725   1.367   4.345  11.576 -0.1525 -0.3976 -0.0530
 4364SOL    HW224726   1.364   4.382  11.437 -0.0653  0.4113 -0.4189
 4365SOL     OW24727   3.048   4.522   7.321 -0.3757  0.1935 -0.5760
 4365SOL    HW124728   3.017   4.605   7.283 -0.1381 -0.3127 -1.8647
 4365SOL    HW224729   2.985   4.494   7.387 -0.2646  0.3585 -0.3987
 4366SOL     OW24730   1.142   0.360  13.120  0.6274 -0.0364  0.0872
 4366SOL    HW124731   1.058   0.331  13.084  2.2161 -1.0657 -2.8000
 4366SOL    HW224732   1.179   0.409  13.047  1.8013 -1.8327 -0.5396
 4367SOL     OW24733   0.405   0.718  15.436  0.1019 -0.1007 -0.0229
 4367SOL    HW124734   0.468   0.708  15.507  0.5470 -2.4297 -0.7270
 4367SOL    HW224735   0.463   0.740  15.364 -1.5738 -0.5797 -1.4990
 4368SOL     OW24736   0.830   0.753   4.156  0.1884 -0.3413 -0.1564
 4368SOL    HW124737   0.854   0.755   4.249 -0.1550  0.1812 -0.0779
 4368SOL    HW224738   0.805   0.841   4.129 -0.2098  0.0766  1.5226
 4369SOL     OW24739   0.121   4.668   2.185 -0.5372 -0.1778  0.0841
 4369SOL    HW124740   0.133   4.640   2.275 -0.6098 -1.2237 -0.2273
 4369SOL    HW224741   0.164   4.595   2.140  0.3770 -0.9365  2.2351
 4370SOL     OW24742   4.714   0.307   7.288  0.6195 -0.2945  0.5620
 4370SOL    HW124743   4.626   0.269   7.288  0.6994 -0.4725 -0.8018
 4370SOL    HW224744   4.702   0.390   7.334 -1.5983 -0.0095 -0.5002
 4371SOL     OW24745   0.110   2.704   6.986  0.2808  0.4895 -0.2238
 4371SOL    HW124746   0.027   2.743   7.012 -0.4910  0.0617 -2.0395
 4371SOL    HW224747   0.162   2.784   6.986  2.2826 -0.7985 -0.3963
 4372SOL     OW24748   1.731   0.324   3.977  0.2368 -0.1312 -0.6215
 4372SOL    HW124749   1.718   0.418   3.967 -1.4008 -0.1857  0.9286
 4372SOL    HW224750   1.822   0.332   4.006 -0.1899 -1.8252  1.1667
 4373SOL     OW24751   0.642   3.047   1.569  1.0420  0.0115 -0.1438
 4373SOL    HW124752   0.627   2.961   1.529 -0.2148  0.1907 -0.0399
 4373SOL    HW224753   0.681   3.022   1.652  1.1435  1.3279  0.2078
 4374SOL     OW24754   2.271   4.339   8.955  0.1042 -0.4956 -0.0067
 4374SOL    HW124755   2.327   4.271   8.919  0.5125  0.4410 -1.1403
 4374SOL    HW224756   2.339   4.404   8.974 -1.3939  1.8654 -2.6360
 4375SOL     OW24757   0.904   2.126   6.921  0.2005  0.2860 -0.1824
 4375SOL    HW124758   0.955   2.051   6.890 -0.2894  0.2306 -0.8694
 4375SOL    HW224759   0.914   2.189   6.849 -1.4757  1.1124  0.3071
 4376SOL     OW24760   1.435   4.340   4.247 -0.1444  0.4969  0.4128
 4376SOL    HW124761   1.386   4.373   4.323 -3.5138 -0.9377 -1.1591
 4376SOL    HW224762   1.419   4.245   4.252 -0.0560  0.4309 -0.6746
 4377SOL     OW24763   4.544   2.260  14.159  0.7068 -0.3411  0.4700
 4377SOL    HW124764   4.598   2.223  14.228  1.1849 -0.6662 -0.0781
 4377SOL    HW224765   4.457   2.256  14.200  0.6636 -1.0486  0.3027
 4378SOL     OW24766   3.605   0.020   5.233  0.1712 -0.0887  0.0866
 4378SOL    HW124767   3.550   4.678   5.239 -1.4035  1.1341  1.2603
 4378SOL    HW224768   3.597   0.051   5.323 -0.7033  2.5618 -0.9268
 4379SOL     OW24769   0.618   4.412   3.573  0.2930 -0.5621 -0.1675
 4379SOL    HW124770   0.635   4.408   3.667  0.6983 -1.6163 -0.2862
 4379SOL    HW224771   0.587   4.321   3.579  0.2520 -0.4351  1.6464
 4380SOL     OW24772   2.024   3.359   5.818  0.4937  0.1610 -0.1277
 4380SOL    HW124773   1.998   3.448   5.844 -1.2152  0.0780 -1.6553
 4380SOL    HW224774   2.041   3.318   5.904 -1.5037  0.6727  0.4985
 4381SOL     OW24775   0.280   3.355   8.953 -0.3786  0.0220 -0.2313
 4381SOL    HW124776   0.371   3.328   8.942 -0.4306 -0.7093  1.1565
 4381SOL    HW224777   0.246   3.358   8.863  1.9138 -0.7637 -1.1349
 4382SOL     OW24778   4.153   3.017   0.087  0.3679 -0.1255 -0.0445
 4382SOL    HW124779   4.203   3.087   0.129 -2.0719  0.9370  1.0838
 4382SOL    HW224780   4.070   3.015   0.135  0.0750 -2.3167 -0.6250
 4383SOL     OW24781   3.103   2.038   2.822 -0.6629  0.1026  0.4878
 4383SOL    HW124782   3.161   2.056   2.748  1.6305 -2.0585  1.7499
 4383SOL    HW224783   3.139   1.954   2.849  0.5551  0.1742 -0.9315
 4384SOL     OW24784   0.474   2.497  11.572 -0.2523 -0.3091  0.7931
 4384SOL    HW124785   0.540   2.547  11.620 -0.4137 -0.5397  1.2630
 4384SOL    HW224786   0.416   2.559  11.529 -0.7069 -0.4827  1.1504
 4385SOL     OW24787   3.433   2.013  13.067 -0.0561  0.3573  0.4808
 4385SOL    HW124788   3.392   1.942  13.018 -1.0106 -0.1514  2.0440
 4385SOL    HW224789   3.389   2.008  13.151 -0.3391  0.0097  0.3107
 4386SOL     OW24790   2.898   3.059   1.384 -0.3534 -0.8719 -0.4377
 4386SOL    HW124791   2.905   3.142   1.431 -0.9461 -0.8509 -0.3852
 4386SOL    HW224792   2.987   3.028   1.368  0.4721  1.9857 -1.3569
 4387SOL     OW24793   2.989   3.129   9.704 -0.3969  0.0002  0.0292
 4387SOL    HW124794   2.984   3.078   9.785 -0.0570 -0.4677 -0.2461
 4387SOL    HW224795   2.920   3.194   9.706  0.8944  1.3447  1.1585
 4388SOL     OW24796   1.298   1.729   6.213 -0.4774  0.1012  0.1241
 4388SOL    HW124797   1.286   1.686   6.129  0.8487 -0.5604  0.2717
 4388SOL    HW224798   1.210   1.764   6.224  0.0051  1.0081  1.2061
 4389SOL     OW24799   1.843   0.884   8.423 -0.0002  0.4358 -0.2426
 4389SOL    HW124800   1.936   0.907   8.413  0.0579 -0.9383 -2.7058
 4389SOL    HW224801   1.793   0.963   8.445  0.0609  0.9198 -1.8472
 4390SOL     OW24802   1.006   3.360  12.372  0.4150  0.6820 -0.2847
 4390SOL    HW124803   1.049   3.281  12.340 -2.2610 -0.8257 -0.1648
 4390SOL    HW224804   1.007   3.359  12.467 -3.1144  0.4769 -0.2220
 4391SOL     OW24805   1.562   1.756  11.831  0.1335 -0.1413 -0.5081
 4391SOL    HW124806   1.649   1.794  11.824 -0.0003  0.7372  2.5273
 4391SOL    HW224807   1.556   1.792  11.920  0.4057 -1.6433  0.1189
 4392SOL     OW24808   2.647   1.144  14.957 -0.1595 -0.4010  0.0459
 4392SOL    HW124809   2.599   1.218  14.919 -0.7018 -1.0626 -0.5545
 4392SOL    HW224810   2.728   1.182  14.992  0.5045 -0.2965 -1.5853
 4393SOL     OW24811   2.387   4.290   6.203  0.0016  0.1463 -0.8108
 4393SOL    HW124812   2.419   4.288   6.112  1.2486 -1.3752 -0.3330
 4393SOL    HW224813   2.423   4.369   6.243 -0.3546  0.7068 -1.5856
 4394SOL     OW24814   3.395   2.915  10.239 -0.3477  0.3089 -0.3847
 4394SOL    HW124815   3.382   2.831  10.194  1.1704  1.3047 -2.7143
 4394SOL    HW224816   3.393   2.971  10.161  2.7597  2.1351  0.8443
 4395SOL     OW24817   0.810   1.296   6.690 -0.1436 -0.1470  0.8430
 4395SOL    HW124818   0.738   1.336   6.739  0.0457 -0.7855  1.6330
 4395SOL    HW224819   0.856   1.251   6.761  0.6664 -1.8148 -0.7458
 4396SOL     OW24820   2.592   0.739   8.853 -0.5912 -0.3290  0.2825
 4396SOL    HW124821   2.585   0.832   8.828 -0.9490 -0.9258 -1.9090
 4396SOL    HW224822   2.498   0.723   8.854 -0.4908 -1.1221 -1.6032
 4397SOL     OW24823   3.444   2.101   4.392  0.3172  0.0012 -0.3037
 4397SOL    HW124824   3.396   2.177   4.361 -0.0962  0.4334  1.3909
 4397SOL    HW224825   3.470   2.133   4.478  0.7491 -0.3754 -0.2928
 4398SOL     OW24826   1.614   1.920   1.514  0.2157  0.1968 -0.1874
 4398SOL    HW124827   1.651   1.972   1.443 -1.4148  0.1949 -1.0285
 4398SOL    HW224828   1.698   1.892   1.550 -0.1417  0.9952  1.2876
 4399SOL     OW24829   0.748   4.377   6.261  0.2143 -0.1636 -0.1968
 4399SOL    HW124830   0.827   4.412   6.220  0.1651  0.8573  0.5786
 4399SOL    HW224831   0.713   4.449   6.314  1.4314  0.3322 -0.0612
 4400SOL     OW24832   2.603   4.681   4.365  0.1043 -0.0241  0.4591
 4400SOL    HW124833   2.668   4.683   4.435  0.1276 -0.0724  0.4391
 4400SOL    HW224834   2.550   4.608   4.398  1.4131 -1.5239 -0.7508
 4401SOL     OW24835   2.796   3.631  14.369 -0.5419  0.0852 -0.4118
 4401SOL    HW124836   2.726   3.634  14.434  0.4611 -0.6614  0.6870
 4401SOL    HW224837   2.806   3.538  14.350 -1.6730  0.1691 -1.4305
 4402SOL     OW24838   0.987   4.096   6.364 -0.0414  0.3163  0.4631
 4402SOL    HW124839   1.075   4.093   6.401 -0.6804 -4.4389  1.6374
 4402SOL    HW224840   1.000   4.133   6.276 -0.6243 -0.9360 -0.1585
 4403SOL     OW24841   0.826   3.915   7.199  0.2223  0.1925  0.1322
 4403SOL    HW124842   0.893   3.875   7.254 -0.1963 -1.1468 -0.3313
 4403SOL    HW224843   0.751   3.859   7.219  0.4051  0.8305  2.6304
 4404SOL     OW24844   0.032   1.420   8.086  0.9317 -0.3819 -0.6482
 4404SOL    HW124845   0.092   1.370   8.141  0.1586  0.3630  0.8709
 4404SOL    HW224846   0.084   1.446   8.010  0.2302  0.9404 -0.6853
 4405SOL     OW24847   0.624   1.945   4.560 -0.5641  0.3788 -0.2175
 4405SOL    HW124848   0.598   1.873   4.618  0.3554  1.7563  1.9247
 4405SOL    HW224849   0.541   1.952   4.512 -1.0909 -0.6433  0.5350
 4406SOL     OW24850   2.002   1.724   2.709 -0.2819  0.2670 -0.0733
 4406SOL    HW124851   2.081   1.669   2.711 -0.2865  0.2786  0.6649
 4406SOL    HW224852   2.034   1.804   2.668 -1.1358  1.7179  2.1034
 4407SOL     OW24853   4.693   1.684   0.724 -0.6162  0.1799  1.0655
 4407SOL    HW124854   4.699   1.777   0.746 -1.4980  0.3675  0.5126
 4407SOL    HW224855   4.656   1.691   0.636  1.7582  2.3596  0.2557
 4408SOL     OW24856   4.048   3.291   3.811 -0.4789 -0.6421 -0.2196
 4408SOL    HW124857   3.995   3.223   3.851  0.1014 -1.0448 -0.1456
 4408SOL    HW224858   4.118   3.297   3.876  0.9796  0.6900 -1.8898
 4409SOL     OW24859   2.672   4.588   0.663 -0.0199 -0.6069  0.1682
 4409SOL    HW124860   2.603   4.521   0.663  0.4384 -1.0892  1.0799
 4409SOL    HW224861   2.676   4.602   0.569  1.6999 -0.4114  0.2652
 4410SOL     OW24862   3.521   2.234   9.644  0.3667  0.3471 -0.0630
 4410SOL    HW124863   3.539   2.274   9.729  2.3740 -0.9252  0.0950
 4410SOL    HW224864   3.575   2.155   9.643  0.6770  0.5892 -1.4323
 4411SOL     OW24865   2.248   3.423   3.722 -0.2420 -0.6344 -0.2167
 4411SOL    HW124866   2.278   3.471   3.644  3.6562 -1.0017  1.0326
 4411SOL    HW224867   2.253   3.501   3.777 -4.2512  0.1732 -1.0334
 4412SOL     OW24868   4.233   3.925   7.046 -0.1374 -0.3575 -0.4092
 4412SOL    HW124869   4.168   3.952   7.111 -1.8990 -1.0573 -1.8468
 4412SOL    HW224870   4.189   3.849   7.006  1.7836 -0.7909 -1.6781
 4413SOL     OW24871   2.563   3.764   7.669 -0.6376 -0.2350 -0.2037
 4413SOL    HW124872   2.629   3.827   7.698  0.5361 -1.6304  0.1170
 4413SOL    HW224873   2.572   3.697   7.736  1.8174  0.7620  0.4757
 4414SOL     OW24874   2.040   4.190  10.507 -0.1915 -0.0738  0.2903
 4414SOL    HW124875   2.064   4.118  10.448  0.3932  0.7049 -0.4274
 4414SOL    HW224876   2.041   4.153  10.595 -1.6858  1.2794  0.8835
 4415SOL     OW24877   2.024   2.780   6.561  0.1270  0.2055  0.1776
 4415SOL    HW124878   1.988   2.823   6.639 -0.1509  0.6313 -0.1882
 4415SOL    HW224879   1.943   2.755   6.516 -1.0659 -0.9544  2.9394
 4416SOL     OW24880   1.043   0.228   4.797  0.3378  0.4098  0.3381
 4416SOL    HW124881   1.065   0.299   4.857 -1.0943  0.4096  0.8584
 4416SOL    HW224882   1.118   0.233   4.738  0.2014  0.9424  0.2091
 4417SOL     OW24883   2.850   3.864  15.677 -0.0360  0.9194  0.5222
 4417SOL    HW124884   2.926   3.851  15.734  0.0875  1.1905  0.4215
 4417SOL    HW224885   2.899   3.854  15.596 -1.6230 -2.8643  0.0303
 4418SOL     OW24886   2.623   2.541   4.125  0.0557 -0.3448 -0.0252
 4418SOL    HW124887   2.568   2.473   4.163 -1.1913  1.1545  0.8575
 4418SOL    HW224888   2.704   2.538   4.176 -0.6581 -2.0806  0.9928
 4419SOL     OW24889   0.907   2.944   0.294  0.2404 -0.3122  0.3712
 4419SOL    HW124890   0.865   2.869   0.252 -0.5193 -0.5071  1.4537
 4419SOL    HW224891   0.911   2.911   0.384  0.3261 -0.2295  0.3972
 4420SOL     OW24892   1.716   4.245   4.165  0.3799 -0.0065  0.2346
 4420SOL    HW124893   1.637   4.210   4.208  0.1878  0.4106  0.2218
 4420SOL    HW224894   1.773   4.243   4.242  0.1983 -0.4807  0.3562
 4421SOL     OW24895   3.455   2.393   2.385 -0.1250 -0.2711  0.2052
 4421SOL    HW124896   3.369   2.411   2.423 -0.9731 -2.6821 -0.5741
 4421SOL    HW224897   3.476   2.470   2.334 -0.0380  0.1494  0.8756
 4422SOL     OW24898   4.652   3.015   0.378  0.5505  0.0552  0.5252
 4422SOL    HW124899   4.574   2.960   0.371 -0.0284  0.4815  3.5925
 4422SOL    HW224900   4.717   2.969   0.430  0.5701  0.2899  0.7077
 4423SOL     OW24901   0.623   1.612   7.030 -0.1949 -0.0690 -0.2016
 4423SOL    HW124902   0.563   1.562   7.086 -0.6954  1.8753  0.9992
 4423SOL    HW224903   0.636   1.692   7.080 -1.7780  0.6844 -0.9841
 4424SOL     OW24904   1.570   3.644   5.598 -0.2826 -0.0223 -0.0449
 4424SOL    HW124905   1.604   3.556   5.584 -0.2896  0.5336 -3.5752
 4424SOL    HW224906   1.638   3.689   5.547  1.9482 -1.1171  1.9220
 4425SOL     OW24907   4.507   1.315   6.300 -0.9363  0.0485  0.3911
 4425SOL    HW124908   4.470   1.269   6.376 -0.6345  1.6664  1.5088
 4425SOL    HW224909   4.457   1.277   6.228 -0.5750 -2.1594  1.2989
 4426SOL     OW24910   4.199   1.747   0.324 -0.2115  0.4790  0.0961
 4426SOL    HW124911   4.264   1.743   0.253  1.2915 -0.3273  1.5207
 4426SOL    HW224912   4.151   1.825   0.295  0.8659  1.1021  0.0014
 4427SOL     OW24913   4.689   1.677   1.909 -0.1160 -0.4214 -0.9170
 4427SOL    HW124914   4.714   1.673   2.001 -0.7989  2.8476 -0.5775
 4427SOL    HW224915   4.596   1.660   1.925  0.5832 -3.1049  0.3417
 4428SOL     OW24916   4.564   2.077   7.249 -0.0647 -0.3401 -0.0851
 4428SOL    HW124917   4.476   2.042   7.233 -1.1542  2.1910  0.4040
 4428SOL    HW224918   4.619   2.019   7.196 -1.2810 -1.1743 -0.4280
 4429SOL     OW24919   2.980   0.983   1.955 -0.5188 -1.2340 -0.4616
 4429SOL    HW124920   2.914   1.035   1.909  1.9696  2.3686  0.0734
 4429SOL    HW224921   3.054   1.042   1.963 -0.7032 -1.1461  0.5662
 4430SOL     OW24922   4.071   1.940   4.723  0.4688 -0.3861  0.2581
 4430SOL    HW124923   4.027   1.857   4.744  0.5045  0.1667  2.5888
 4430SOL    HW224924   4.057   1.968   4.633  1.5273 -0.8144 -0.0288
 4431SOL     OW24925   4.614   2.979  10.181 -0.1003 -0.2708 -0.3173
 4431SOL    HW124926   4.544   2.971  10.116 -1.2691  2.4346  0.5939
 4431SOL    HW224927   4.562   3.004  10.257 -0.5754 -3.3134  0.3743
 4432SOL     OW24928   1.465   3.900   2.323  0.2884  0.2605  0.2925
 4432SOL    HW124929   1.493   3.838   2.256  1.3317 -0.4167  1.3378
 4432SOL    HW224930   1.421   3.974   2.280  1.6024  1.6490  1.3423
 4433SOL     OW24931   2.908   3.012   1.733 -0.1887 -0.4262  0.1766
 4433SOL    HW124932   2.847   3.070   1.689  1.8414 -0.3447 -2.5351
 4433SOL    HW224933   2.924   2.949   1.663 -0.9890 -1.4726  0.9303
 4434SOL     OW24934   0.030   0.716  12.580 -0.2824 -0.3417 -0.4910
 4434SOL    HW124935   0.066   0.737  12.494 -1.4927  2.1948 -0.3743
 4434SOL    HW224936   4.672   0.704  12.571 -0.3296 -0.0626 -0.3617
 4435SOL     OW24937   3.775   3.013   6.956 -0.5103 -0.2458 -0.0522
 4435SOL    HW124938   3.773   3.094   6.906 -0.6301  0.5962  1.3022
 4435SOL    HW224939   3.727   3.041   7.034  0.3398  1.9014 -0.3041
 4436SOL     OW24940   3.552   3.461   4.183 -0.1222 -0.3614 -0.0201
 4436SOL    HW124941   3.532   3.495   4.270  0.9525  3.4462 -1.2404
 4436SOL    HW224942   3.583   3.377   4.216 -1.4214 -1.1986 -0.8959
 4437SOL     OW24943   2.283   1.407   7.432 -0.9976 -0.2199 -0.6456
 4437SOL    HW124944   2.209   1.349   7.413 -0.3879 -0.8573 -1.0416
 4437SOL    HW224945   2.301   1.445   7.346 -0.4706  1.7288  0.3458
 4438SOL     OW24946   1.042   4.215   6.107  0.7572 -0.3659  0.3850
 4438SOL    HW124947   1.134   4.189   6.116  0.4781 -1.5795 -0.4131
 4438SOL    HW224948   1.046   4.304   6.144 -0.2915  0.5153 -1.6381
 4439SOL     OW24949   4.674   3.520   7.054 -0.1959 -0.0410  0.1304
 4439SOL    HW124950   4.651   3.545   7.143  0.1732  3.7346 -0.8265
 4439SOL    HW224951   4.589   3.483   7.029 -0.4850  2.3118 -2.4258
 4440SOL     OW24952   0.216   3.230  12.016 -0.6619 -0.0015  0.1921
 4440SOL    HW124953   0.211   3.178  11.936 -1.6917  3.2405 -1.8577
 4440SOL    HW224954   0.298   3.277  12.004  0.0085 -0.9958  0.9030
 4441SOL     OW24955   2.819   0.382   0.859  0.6104 -0.0626  0.0951
 4441SOL    HW124956   2.897   0.363   0.911 -0.3693 -0.8576  1.2677
 4441SOL    HW224957   2.795   0.294   0.832 -1.0881  1.2605 -2.7644
 4442SOL     OW24958   1.984   3.821   3.378 -0.1494  0.3311  0.1838
 4442SOL    HW124959   1.899   3.862   3.393 -0.9974 -1.0164 -0.9044
 4442SOL    HW224960   1.955   3.731   3.385  0.5666  0.1351  0.6327
 4443SOL     OW24961   1.504   2.274   9.218 -0.1552 -0.1893 -0.7465
 4443SOL    HW124962   1.564   2.209   9.254  0.2899  0.7247  0.1248
 4443SOL    HW224963   1.455   2.312   9.290 -3.0429 -0.3863 -2.5962
 4444SOL     OW24964   3.524   2.060   2.593 -0.2212 -0.0769  0.2050
 4444SOL    HW124965   3.603   2.040   2.543  0.7622 -0.6677  1.9968
 4444SOL    HW224966   3.552   2.151   2.607  0.2508 -0.1059 -0.5530
 4445SOL     OW24967   0.340   3.675   6.403 -0.3676 -0.6160  0.1515
 4445SOL    HW124968   0.341   3.660   6.309 -1.2085  0.1568  0.0209
 4445SOL    HW224969   0.426   3.640   6.426 -0.7136 -1.0300  0.8241
 4446SOL     OW24970   1.729   0.010   5.330  0.1146 -0.1949 -0.3282
 4446SOL    HW124971   1.701   0.098   5.306 -1.2754 -0.4610  0.3067
 4446SOL    HW224972   1.655   4.724   5.387  1.1410 -0.5264  0.8670
 4447SOL     OW24973   3.637   2.326   4.464 -0.2027 -0.5239  0.2196
 4447SOL    HW124974   3.609   2.402   4.414  0.4603  0.2157  0.9774
 4447SOL    HW224975   3.730   2.316   4.442  0.4216  1.8415  1.8699
 4448SOL     OW24976   0.392   1.710   7.355  0.1500 -0.7030 -0.0919
 4448SOL    HW124977   0.447   1.774   7.310 -1.1345 -0.3831 -1.2181
 4448SOL    HW224978   0.330   1.768   7.400 -1.9062 -0.8716 -2.6405
 4449SOL     OW24979   0.081   0.829   2.145 -0.3803  0.6570  0.4800
 4449SOL    HW124980   0.035   0.859   2.224 -1.2540 -0.5359  0.4404
 4449SOL    HW224981   0.126   0.750   2.174 -0.3238  0.5229  0.0242
 4450SOL     OW24982   3.493   1.693   1.472 -0.3403 -0.5207 -0.3672
 4450SOL    HW124983   3.404   1.670   1.499 -0.1242  0.8446  1.4447
 4450SOL    HW224984   3.492   1.669   1.379  0.0580  0.3178 -0.5915
 4451SOL     OW24985   2.219   3.615   5.543 -0.5015  0.5677  0.2909
 4451SOL    HW124986   2.160   3.564   5.599 -0.6297 -1.0375 -1.2939
 4451SOL    HW224987   2.279   3.542   5.527 -0.9232  0.4024 -0.5243
 4452SOL     OW24988   2.982   3.063  10.421  0.3156 -0.3085  0.0102
 4452SOL    HW124989   2.974   2.979  10.467 -1.5584 -0.5107 -0.6729
 4452SOL    HW224990   2.912   3.046  10.358  1.3708  0.0548 -1.2684
 4453SOL     OW24991   1.655   0.172  13.503 -0.8541  0.5509 -0.4455
 4453SOL    HW124992   1.596   0.153  13.576  0.1450 -1.9230 -0.3125
 4453SOL    HW224993   1.620   0.255  13.471 -0.7112  1.2209  1.1098
 4454SOL     OW24994   0.981   4.065   5.349  0.4035  0.4344  0.3035
 4454SOL    HW124995   1.044   4.062   5.421  1.3856 -1.3723 -0.6208
 4454SOL    HW224996   1.011   4.131   5.286  1.1064  0.5604  0.7728
 4455SOL     OW24997   1.716   2.012   7.841  0.1812  0.0727 -0.2838
 4455SOL    HW124998   1.676   2.061   7.769 -1.1134 -1.3708 -0.5522
 4455SOL    HW224999   1.693   2.073   7.911 -1.4475 -0.6336 -0.2178
 4456SOL     OW25000   2.284   2.585   8.253 -0.0274  0.0093 -0.0688
 4456SOL    HW125001   2.269   2.540   8.170 -1.2058  0.8906 -0.3360
 4456SOL    HW225002   2.220   2.656   8.258 -1.2863 -1.0209 -1.4566
 4457SOL     OW25003   2.124   4.278   7.104  0.0254  0.0088  0.7860
 4457SOL    HW125004   2.069   4.256   7.029  1.6195 -2.8640  0.4576
 4457SOL    HW225005   2.079   4.250   7.184 -0.2825  1.3499  1.0691
 4458SOL     OW25006   3.639   2.929  15.042 -0.0362 -0.1604 -0.7954
 4458SOL    HW125007   3.552   2.920  15.079 -0.3040  1.1844 -1.0814
 4458SOL    HW225008   3.640   3.023  15.025 -1.3267  0.5025  2.8836
 4459SOL     OW25009   3.887   4.647  13.951 -0.2845  0.3639 -0.2553
 4459SOL    HW125010   3.916   4.659  14.041  2.3519  0.6975 -1.1225
 4459SOL    HW225011   3.921   4.559  13.935 -1.3498 -0.7334  3.5165
 4460SOL     OW25012   3.396   3.956   6.030  0.1005  0.1890  0.0293
 4460SOL    HW125013   3.349   4.036   6.007 -2.1769 -1.4528 -1.0907
 4460SOL    HW225014   3.337   3.894   5.986 -0.0771  0.9642 -0.8218
 4461SOL     OW25015   1.606   0.683   9.465  0.3780  0.4725  0.5791
 4461SOL    HW125016   1.544   0.756   9.474 -0.1869  0.4588 -3.0342
 4461SOL    HW225017   1.552   0.604   9.462 -1.3162  1.6664 -0.4914
 4462SOL     OW25018   0.051   3.218   1.048  0.0559 -0.2018 -0.2520
 4462SOL    HW125019   0.051   3.314   1.052  2.0525 -0.1863 -1.0771
 4462SOL    HW225020   0.117   3.204   0.981 -0.4597  0.3149 -0.8658
 4463SOL     OW25021   1.297   0.686   6.752  0.4994  0.3894  0.2248
 4463SOL    HW125022   1.279   0.755   6.815 -0.2712  2.0259 -1.7677
 4463SOL    HW225023   1.220   0.629   6.757  1.4463 -1.0447 -1.4953
 4464SOL     OW25024   2.749   0.569   8.568 -0.0016  0.7524  0.3707
 4464SOL    HW125025   2.655   0.579   8.558  0.2003 -0.7241 -2.8529
 4464SOL    HW225026   2.741   0.508   8.641  2.5877  0.9292  0.8106
 4465SOL     OW25027   2.639   4.154   3.578 -0.7425 -0.2145  0.1150
 4465SOL    HW125028   2.615   4.231   3.629 -1.2910 -0.0466 -0.3994
 4465SOL    HW225029   2.728   4.182   3.556 -1.7828  2.1870 -1.0310
 4466SOL     OW25030   3.827   3.697   5.142  0.3709 -0.4535 -0.0553
 4466SOL    HW125031   3.897   3.663   5.198  1.8892  1.3366 -0.8719
 4466SOL    HW225032   3.755   3.711   5.204  0.6153 -1.4215  0.4524
 4467SOL     OW25033   2.174   2.207   4.679 -0.1138  0.1164 -0.0972
 4467SOL    HW125034   2.172   2.301   4.699  0.6236 -0.4764  2.6335
 4467SOL    HW225035   2.082   2.184   4.692 -0.8625  3.7463  0.9616
 4468SOL     OW25036   2.144   0.851  13.218  0.1654  0.4891 -0.2962
 4468SOL    HW125037   2.078   0.794  13.256  1.5911 -0.0763  1.3268
 4468SOL    HW225038   2.109   0.845  13.129 -1.1905  2.3338  0.1115
 4469SOL     OW25039   3.279   3.813   3.584 -0.2926  0.3136  0.8458
 4469SOL    HW125040   3.186   3.796   3.600 -0.3774 -0.9330 -1.0261
 4469SOL    HW225041   3.303   3.724   3.556  2.9877  0.6634  2.4989
 4470SOL     OW25042   0.484   0.431   5.356  0.4517  0.5281  0.1824
 4470SOL    HW125043   0.503   0.431   5.450  0.2988 -1.3693  0.2210
 4470SOL    HW225044   0.390   0.419   5.366  0.6446 -1.2667 -0.0887
 4471SOL     OW25045   1.704   3.170  16.477 -0.1783 -0.2239 -0.1740
 4471SOL    HW125046   1.619   3.195  16.439  0.4294 -0.2704 -1.5762
 4471SOL    HW225047   1.723   3.259  16.506 -1.9968 -0.2265  0.9977
 4472SOL     OW25048   3.578   0.840   0.144  0.3736 -0.1285 -0.2835
 4472SOL    HW125049   3.638   0.830   0.070  1.5811 -1.1634  0.8512
 4472SOL    HW225050   3.496   0.852   0.096  0.5659 -0.0659 -0.5984
 4473SOL     OW25051   0.495   1.243  14.863  0.0146  0.3712  0.2152
 4473SOL    HW125052   0.406   1.256  14.897 -0.4884 -1.6190 -0.3300
 4473SOL    HW225053   0.484   1.301  14.788 -1.3928 -0.9004 -0.5773
 4474SOL     OW25054   2.042   3.925   5.283  0.2897 -0.5514 -0.2391
 4474SOL    HW125055   2.135   3.944   5.274  0.1600  0.0967 -0.2044
 4474SOL    HW225056   2.007   4.010   5.255  1.3680  0.4603  1.4982
 4475SOL     OW25057   3.045   4.287   9.091  0.5396  0.1589  0.2619
 4475SOL    HW125058   2.978   4.289   9.022  0.9074  0.2041 -0.0957
 4475SOL    HW225059   3.106   4.354   9.059 -0.8607  0.5561 -1.5814
 4476SOL     OW25060   2.382   0.572   1.133 -0.0250  0.4349  0.8231
 4476SOL    HW125061   2.427   0.573   1.048 -0.7812  1.8479  0.4372
 4476SOL    HW225062   2.443   0.525   1.190 -0.3271  0.8174  1.4614
 4477SOL     OW25063   2.461   1.051   6.436 -0.1223  0.1199 -0.2001
 4477SOL    HW125064   2.390   1.049   6.501  1.0721  1.3150  1.1410
 4477SOL    HW225065   2.415   1.080   6.357  1.4028  1.6768 -0.5141
 4478SOL     OW25066   2.788   1.886  17.348  0.2231 -0.1036  0.2022
 4478SOL    HW125067   2.835   1.966  17.370 -0.0692  0.1773 -0.2095
 4478SOL    HW225068   2.859   1.836  17.307  0.1158 -0.6507  0.6733
 4479SOL     OW25069   0.326   2.568   4.178 -0.2914  0.2205 -0.0002
 4479SOL    HW125070   0.258   2.636   4.179  1.0459  1.5380  0.6027
 4479SOL    HW225071   0.349   2.582   4.086  2.5772  3.0307  1.1426
 4480SOL     OW25072   2.101   2.469   6.404  0.0672  0.2577  0.5413
 4480SOL    HW125073   2.102   2.539   6.470  1.5341  0.2585  0.5207
 4480SOL    HW225074   2.112   2.396   6.465  1.4215 -0.1164 -0.1706
 4481SOL     OW25075   3.313   4.286   4.454  0.1645 -0.2588 -0.3804
 4481SOL    HW125076   3.223   4.255   4.467 -0.1897  0.7474 -0.4007
 4481SOL    HW225077   3.365   4.232   4.395 -2.4514 -0.3512 -2.6034
 4482SOL     OW25078   0.929   0.915   2.916  0.5734 -0.1006 -0.0819
 4482SOL    HW125079   1.016   0.914   2.955  0.3664 -0.9237  0.3628
 4482SOL    HW225080   0.940   0.963   2.834 -2.6720  0.3617 -0.2646
 4483SOL     OW25081   0.700   4.373  15.278 -0.5832  0.2650  0.4316
 4483SOL    HW125082   0.719   4.308  15.210 -1.6271 -0.3520  0.7232
 4483SOL    HW225083   0.754   4.448  15.252 -0.2044 -0.3799 -0.6535
 4484SOL     OW25084   2.830   2.833   3.904 -0.1030 -0.0438  0.1860
 4484SOL    HW125085   2.881   2.889   3.846 -0.5461 -0.5351 -0.6633
 4484SOL    HW225086   2.766   2.892   3.945 -0.6096  1.1347 -2.3264
 4485SOL     OW25087   2.659   3.482   3.816 -0.0871 -0.0449  0.4524
 4485SOL    HW125088   2.684   3.561   3.862  0.2410 -1.1732  2.2231
 4485SOL    HW225089   2.601   3.500   3.742 -1.6316  0.6616  1.8349
 4486SOL     OW25090   0.006   3.714   7.863  0.0845  0.0187 -0.1723
 4486SOL    HW125091   0.100   3.694   7.868 -0.1527 -0.7203  1.6145
 4486SOL    HW225092   4.700   3.634   7.833  2.1297 -0.8307 -0.8005
 4487SOL     OW25093   0.757   4.375   8.895 -0.1036 -0.2301 -0.6078
 4487SOL    HW125094   0.702   4.336   8.963 -0.2580 -0.3710 -0.8154
 4487SOL    HW225095   0.696   4.434   8.852 -1.8288  0.7466  3.1871
 4488SOL     OW25096   4.007   0.951   9.925 -0.3695 -0.3741 -0.0539
 4488SOL    HW125097   4.023   0.940   9.831  0.0246  1.6115 -0.2220
 4488SOL    HW225098   3.920   0.912   9.923  0.4174 -2.1026 -0.6696
 4489SOL     OW25099   2.157   1.608   4.237  0.0842  0.5026  0.3647
 4489SOL    HW125100   2.248   1.622   4.264 -0.1375  4.3789 -0.9176
 4489SOL    HW225101   2.166   1.550   4.161 -2.8388  0.3751  0.1226
 4490SOL     OW25102   1.281   1.461   5.720  0.1409 -0.6398  0.3126
 4490SOL    HW125103   1.227   1.444   5.797 -1.5756 -1.1792 -1.0235
 4490SOL    HW225104   1.237   1.533   5.674 -1.3461 -2.3968 -0.9819
 4491SOL     OW25105   3.990   1.467   2.467 -0.6069 -0.2523  0.6643
 4491SOL    HW125106   3.918   1.404   2.473 -1.0045  0.0673 -0.8678
 4491SOL    HW225107   3.957   1.540   2.414 -2.4301 -1.7716 -0.2823
 4492SOL     OW25108   0.136   1.326   7.284 -0.0749  0.4460  0.2519
 4492SOL    HW125109   0.135   1.247   7.339 -1.0744  1.6546  1.9738
 4492SOL    HW225110   0.190   1.378   7.343 -0.2357  1.4317 -0.4771
 4493SOL     OW25111   3.040   1.230  11.254  0.4675  0.0479  0.3304
 4493SOL    HW125112   2.951   1.246  11.284  0.6819 -1.8737  1.9731
 4493SOL    HW225113   3.079   1.318  11.256 -3.5935  1.8328  0.1375
 4494SOL     OW25114   4.664   2.154   4.842 -0.7484 -0.2861  0.1721
 4494SOL    HW125115   4.607   2.126   4.913 -0.6869 -0.0845  0.3007
 4494SOL    HW225116   0.001   2.185   4.895  0.6850 -0.7375 -1.5458
 4495SOL     OW25117   4.578   0.619   8.188  0.4417  0.6321  0.3292
 4495SOL    HW125118   4.626   0.581   8.115 -2.3538 -1.9651 -0.1637
 4495SOL    HW225119   4.628   0.700   8.189  1.4016  0.0405  1.0163
 4496SOL     OW25120   3.249   1.504   4.836  1.1831 -0.1796  0.3472
 4496SOL    HW125121   3.335   1.524   4.799  0.6570  0.6654 -0.4341
 4496SOL    HW225122   3.258   1.456   4.918 -1.0620 -1.8144 -0.3734
 4497SOL     OW25123   3.934   0.973   3.066  0.8558 -0.1529  0.3453
 4497SOL    HW125124   4.026   0.989   3.087  1.1358  1.6491 -2.3122
 4497SOL    HW225125   3.903   0.945   3.152  0.9355 -0.8865  0.1368
 4498SOL     OW25126   3.277   0.093   8.468  0.1674 -0.2039 -0.3456
 4498SOL    HW125127   3.357   0.124   8.509 -0.0015 -0.2450  0.0155
 4498SOL    HW225128   3.276   0.001   8.496  0.8179  0.2192  1.0387
 4499SOL     OW25129   4.291   1.673  11.764  0.0110  0.0646  0.0234
 4499SOL    HW125130   4.365   1.665  11.705  0.8022 -0.1243  1.0386
 4499SOL    HW225131   4.304   1.764  11.791  1.8291 -0.5554  1.1711
 4500SOL     OW25132   3.116   3.531   0.889 -0.1303  0.0278 -0.0141
 4500SOL    HW125133   3.200   3.568   0.916  0.3313  0.7557 -2.4440
 4500SOL    HW225134   3.057   3.560   0.958 -0.5145  0.4634 -0.5255
 4501SOL     OW25135   0.235   0.021   8.076  0.3717 -0.0415  0.3576
 4501SOL    HW125136   0.238   0.063   7.990  0.6544  1.1957  0.9585
 4501SOL    HW225137   0.160   4.702   8.057  0.3968  0.3025 -0.7428
 4502SOL     OW25138   3.815   1.792   6.359 -0.2388  0.4852 -0.1104
 4502SOL    HW125139   3.737   1.837   6.327  0.0235  1.2518  0.3188
 4502SOL    HW225140   3.827   1.842   6.440  1.0194 -0.2168  0.1317
 4503SOL     OW25141   1.879   2.682   3.623 -0.2503  0.1869  0.2848
 4503SOL    HW125142   1.837   2.602   3.591  1.3842  0.0124 -1.4503
 4503SOL    HW225143   1.827   2.715   3.696 -0.3760  0.6834 -0.0264
 4504SOL     OW25144   2.708   3.788   2.737  0.0200 -0.8068 -0.1425
 4504SOL    HW125145   2.731   3.748   2.821 -1.3947 -0.4535  0.4139
 4504SOL    HW225146   2.666   3.867   2.771  1.0563 -0.5514  0.5324
 4505SOL     OW25147   4.532   4.304  11.980 -0.9103 -1.0114 -0.2370
 4505SOL    HW125148   4.563   4.256  11.903  1.7784  2.7044 -1.4359
 4505SOL    HW225149   4.582   4.385  11.980  1.1432 -2.2607  3.4279
 4506SOL     OW25150   4.451   3.561  17.330  0.2584 -0.0990  0.4780
 4506SOL    HW125151   4.361   3.540  17.355 -0.7604  2.6779 -0.7910
 4506SOL    HW225152   4.474   3.508  17.254 -1.6119  0.9651 -0.8484
 4507SOL     OW25153   2.696   2.067  15.060  0.5818  0.1923 -0.7322
 4507SOL    HW125154   2.699   2.154  15.019  3.8652 -0.5918 -2.1705
 4507SOL    HW225155   2.743   2.084  15.142 -3.0867 -0.3998  1.5130
 4508SOL     OW25156   4.602   4.005   6.527  0.5345 -0.2544 -0.3845
 4508SOL    HW125157   4.512   4.040   6.529  1.1959  1.4480 -0.2473
 4508SOL    HW225158   4.656   4.082   6.541  0.3332 -0.2678  0.4574
 4509SOL     OW25159   1.824   4.300  12.729  0.2357  0.4962 -0.3216
 4509SOL    HW125160   1.866   4.264  12.807 -0.2691  0.6844  0.0371
 4509SOL    HW225161   1.835   4.394  12.740  0.0548  0.4284  0.4613
 4510SOL     OW25162   1.112   1.263  16.856  0.2650 -0.4480  0.2436
 4510SOL    HW125163   1.140   1.218  16.936  0.6516 -0.9059 -0.1483
 4510SOL    HW225164   1.159   1.346  16.865  3.1053 -1.9489 -0.4970
 4511SOL     OW25165   1.814   3.717   9.921  0.5380  0.0690 -0.0356
 4511SOL    HW125166   1.885   3.766   9.880  0.2011 -1.0868 -2.0046
 4511SOL    HW225167   1.854   3.630   9.917 -1.5133 -0.8872 -0.3003
 4512SOL     OW25168   0.443   0.476   7.633  0.3144  0.4503  0.5052
 4512SOL    HW125169   0.448   0.398   7.689  1.5427  0.7629  0.8429
 4512SOL    HW225170   0.533   0.467   7.602 -0.6464 -0.2552 -2.0663
 4513SOL     OW25171   0.375   0.388   8.404 -0.0797  0.3700  0.4839
 4513SOL    HW125172   0.420   0.450   8.460 -0.0795  1.0173 -0.2255
 4513SOL    HW225173   0.382   0.311   8.460  3.1628 -0.0664 -0.5362
 4514SOL     OW25174   2.113   4.345   6.344 -0.5172 -0.3361 -0.1491
 4514SOL    HW125175   2.183   4.380   6.288 -1.5852  0.0520 -1.2425
 4514SOL    HW225176   2.146   4.259   6.369  1.2478  0.3970  0.0338
 4515SOL     OW25177   0.522   2.548  11.066  0.2744  0.1124  0.5765
 4515SOL    HW125178   0.555   2.616  11.007 -2.3927  1.0167  0.1143
 4515SOL    HW225179   0.450   2.518  11.010  1.5519  0.9960 -1.5504
 4516SOL     OW25180   1.056   2.161   4.954 -0.5723 -0.3856 -0.0907
 4516SOL    HW125181   1.105   2.237   4.924  0.0468 -1.1765 -1.0455
 4516SOL    HW225182   1.025   2.199   5.037 -2.9069 -0.3476 -0.9802
 4517SOL     OW25183   0.357   4.056   2.721  0.5064  0.0759  0.3921
 4517SOL    HW125184   0.341   3.984   2.661  0.0777  1.2447 -0.8895
 4517SOL    HW225185   0.366   4.011   2.805  0.6694 -0.3233  0.1606
 4518SOL     OW25186   3.633   0.538   4.309  0.2062  0.3669 -0.8370
 4518SOL    HW125187   3.554   0.587   4.336  0.5780  0.9284 -0.7631
 4518SOL    HW225188   3.699   0.582   4.362 -2.1131  1.1632  1.4241
 4519SOL     OW25189   4.703   3.137  16.782  0.1332 -0.1903  0.4663
 4519SOL    HW125190   0.039   3.182  16.739  2.0986 -2.4227  1.3893
 4519SOL    HW225191   4.627   3.184  16.749  0.8516  1.9429  1.8806
 4520SOL     OW25192   4.030   4.660   3.584 -0.1260  0.1606  0.0869
 4520SOL    HW125193   3.988   4.621   3.507 -1.2547  0.6983  0.4285
 4520SOL    HW225194   4.053   4.588   3.642 -0.4924 -0.9566 -1.1570
 4521SOL     OW25195   1.300   2.092   4.628 -0.0366  0.5825 -0.3961
 4521SOL    HW125196   1.348   2.155   4.682 -3.6763  1.6991  1.5276
 4521SOL    HW225197   1.271   2.156   4.564 -0.5552  0.3639 -0.3843
 4522SOL     OW25198   1.215   1.329  14.006  0.6389 -0.0552  0.5017
 4522SOL    HW125199   1.215   1.361  14.096  2.2615 -2.8126  1.4796
 4522SOL    HW225200   1.135   1.371  13.972  0.2067 -0.0520  1.5276
 4523SOL     OW25201   2.407   2.321   5.697  0.1883  0.3143 -0.4935
 4523SOL    HW125202   2.336   2.293   5.755 -0.4807  2.7313 -0.1247
 4523SOL    HW225203   2.454   2.385   5.751  0.6748  0.0725 -0.6422
 4524SOL     OW25204   4.682   1.917   7.004  0.1462  0.4592  0.0071
 4524SOL    HW125205   4.673   1.849   7.071  0.2660 -0.9545 -1.4181
 4524SOL    HW225206   0.029   1.964   7.018  0.4180 -0.7213  2.4370
 4525SOL     OW25207   1.447   0.378   0.640 -0.1568 -0.2304 -0.3688
 4525SOL    HW125208   1.471   0.332   0.721 -0.3634  0.6034  0.1688
 4525SOL    HW225209   1.512   0.447   0.631  0.1068 -0.2001  1.7056
 4526SOL     OW25210   0.092   1.226   9.686  0.4615 -0.0309  0.1742
 4526SOL    HW125211   0.076   1.281   9.762 -1.4196  0.6523 -0.6945
 4526SOL    HW225212   0.132   1.286   9.623  0.0492  0.5222  0.4390
 4527SOL     OW25213   3.098   1.230   7.653 -0.2882  0.4694 -0.4052
 4527SOL    HW125214   3.139   1.282   7.584  0.3165  0.1276 -0.3000
 4527SOL    HW225215   3.025   1.180   7.614 -1.1017  2.3666 -1.3337
 4528SOL     OW25216   0.626   1.298  15.148  0.8036 -0.0207 -0.2740
 4528SOL    HW125217   0.553   1.315  15.207  1.0783  2.6207 -0.6657
 4528SOL    HW225218   0.598   1.316  15.058 -2.5354  0.2877  0.8354
 4529SOL     OW25219   1.798   1.210  12.548  0.0142  0.7317  0.2490
 4529SOL    HW125220   1.819   1.146  12.616  0.6516  1.7042  0.9586
 4529SOL    HW225221   1.744   1.154  12.493  1.2383 -2.0973  1.9235
 4530SOL     OW25222   3.125   1.247   3.134  0.2817 -0.2000 -0.5494
 4530SOL    HW125223   3.029   1.246   3.127  0.2737  1.3951 -0.6318
 4530SOL    HW225224   3.130   1.305   3.210 -1.5363 -2.2194  1.1113
 4531SOL     OW25225   3.613   3.448  13.304  0.1722  0.0228  0.0995
 4531SOL    HW125226   3.532   3.403  13.280  0.0380  0.0165  0.5578
 4531SOL    HW225227   3.651   3.435  13.217 -0.7969 -3.8448  0.2625
 4532SOL     OW25228   1.656   2.580  10.609 -0.1372 -0.0170 -0.0131
 4532SOL    HW125229   1.714   2.534  10.549  0.0914  0.2671 -0.0119
 4532SOL    HW225230   1.702   2.662  10.627 -1.1738  1.2531 -3.1840
 4533SOL     OW25231   1.549   3.193   5.375 -0.1843 -0.6699 -0.7338
 4533SOL    HW125232   1.530   3.206   5.282  1.7969  0.6197 -0.9735
 4533SOL    HW225233   1.590   3.107   5.380 -0.3508 -0.6588  1.0408
 4534SOL     OW25234   3.174   3.411   2.334  0.3980 -0.2559 -0.3558
 4534SOL    HW125235   3.137   3.494   2.304  0.6420  0.1401  0.4341
 4534SOL    HW225236   3.091   3.378   2.367  0.1708 -0.3824 -1.0565
 4535SOL     OW25237   1.315   3.647   5.711 -0.1675 -0.3325  0.0342
 4535SOL    HW125238   1.352   3.569   5.752  0.3432  0.4660  1.0937
 4535SOL    HW225239   1.390   3.680   5.662  0.2157  1.9325  2.1480
 4536SOL     OW25240   0.385   3.252   2.323  0.2045 -0.1802 -0.2864
 4536SOL    HW125241   0.448   3.210   2.382  2.0085  2.4951 -0.3036
 4536SOL    HW225242   0.452   3.284   2.262 -2.0467  3.0872 -1.0434
 4537SOL     OW25243   3.544   4.473   3.859 -0.0382 -0.1629 -0.1896
 4537SOL    HW125244   3.557   4.561   3.894 -0.8609 -0.7558  1.6307
 4537SOL    HW225245   3.636   4.446   3.860 -0.0255 -0.1880 -1.5671
 4538SOL     OW25246   3.402   0.415   6.681  0.1778  0.2936 -0.4000
 4538SOL    HW125247   3.392   0.500   6.723 -0.4291 -0.6645  1.3768
 4538SOL    HW225248   3.313   0.409   6.646  0.0351  0.1100 -0.0084
 4539SOL     OW25249   3.341   0.233   2.685  0.1737  0.2902 -0.0993
 4539SOL    HW125250   3.294   0.204   2.606 -1.2963  0.6600  0.6500
 4539SOL    HW225251   3.277   0.211   2.752 -0.4358  0.7584 -0.5251
 4540SOL     OW25252   2.908   0.766   3.386 -0.2325  0.3839 -0.4337
 4540SOL    HW125253   2.900   0.737   3.477  0.7923 -0.2017 -0.5317
 4540SOL    HW225254   3.003   0.764   3.378 -0.4234  1.6940 -2.9312
 4541SOL     OW25255   0.340   2.623   1.750  0.4008  0.1249 -0.3409
 4541SOL    HW125256   0.365   2.697   1.695 -0.6530  0.1394 -0.7954
 4541SOL    HW225257   0.388   2.552   1.707 -0.6118 -1.4239  1.1107
 4542SOL     OW25258   1.291   2.065   7.903  0.0652 -0.2082  0.1149
 4542SOL    HW125259   1.235   2.131   7.863  0.8680  0.4619  0.1043
 4542SOL    HW225260   1.317   2.015   7.824 -1.1649  0.2522 -0.5761
 4543SOL     OW25261   1.043   2.959   8.443 -0.1105  0.3810 -0.2181
 4543SOL    HW125262   1.031   3.046   8.405  0.8321  2.0147  3.2413
 4543SOL    HW225263   0.981   2.969   8.514 -1.8237 -0.5872 -1.5790
 4544SOL     OW25264   1.624   4.588   5.137  0.3349 -0.2572 -0.5673
 4544SOL    HW125265   1.661   4.647   5.202  1.3160  0.3861 -1.6897
 4544SOL    HW225266   1.579   4.645   5.075 -0.6557 -1.0837 -0.6160
 4545SOL     OW25267   4.294   3.713   3.867 -0.2777  0.7148 -0.6412
 4545SOL    HW125268   4.222   3.693   3.806 -0.4594 -1.0821  0.1452
 4545SOL    HW225269   4.278   3.661   3.945  0.0529 -0.3769 -1.2948
 4546SOL     OW25270   3.580   3.266   5.418 -0.1855 -0.8269  0.1466
 4546SOL    HW125271   3.589   3.225   5.504  0.8979  1.5263  1.1249
 4546SOL    HW225272   3.636   3.211   5.363  1.7914  2.3040 -0.9794
 4547SOL     OW25273   4.640   1.973   3.003 -0.1394 -0.3716  0.1685
 4547SOL    HW125274   4.645   1.890   2.956  2.9841  0.7235 -1.4331
 4547SOL    HW225275   4.724   2.014   2.980 -0.3796  0.2373  0.3636
 4548SOL     OW25276   4.527   4.486  16.658  0.5479  0.9359 -0.3350
 4548SOL    HW125277   4.455   4.452  16.606  1.8431 -1.3415 -0.6387
 4548SOL    HW225278   4.580   4.519  16.586  2.0565  0.6974  0.6549
 4549SOL     OW25279   4.306   0.523   2.395 -0.5623 -0.2418 -0.5927
 4549SOL    HW125280   4.361   0.517   2.317  1.3351  1.0408  0.6549
 4549SOL    HW225281   4.228   0.570   2.365  0.1911  1.7527  0.5572
 4550SOL     OW25282   3.947   0.118   6.082  1.0403 -0.2883  0.3025
 4550SOL    HW125283   4.026   0.066   6.099  0.0594 -2.4523 -1.6302
 4550SOL    HW225284   3.904   0.098   6.165  0.5233 -1.1859 -0.1754
 4551SOL     OW25285   1.652   4.211   9.230  0.0542 -0.2369 -0.5939
 4551SOL    HW125286   1.563   4.190   9.258  0.0161 -0.6574 -1.0316
 4551SOL    HW225287   1.637   4.209   9.136  1.4752 -0.5046 -0.8127
 4552SOL     OW25288   1.009   0.945  16.497  0.0651  0.1021 -0.6258
 4552SOL    HW125289   0.949   0.871  16.508  2.1200 -1.8058 -2.3586
 4552SOL    HW225290   0.969   1.007  16.559  0.9092  0.2402 -0.2257
 4553SOL     OW25291   3.067   3.415  17.414  0.1384  0.2455 -0.5825
 4553SOL    HW125292   3.040   3.357  17.343 -1.8070  2.7475 -1.8924
 4553SOL    HW225293   2.989   3.410  17.470  1.0505 -2.0791  0.4603
 4554SOL     OW25294   1.268   0.446  12.873  0.1246  0.3503 -0.3546
 4554SOL    HW125295   1.344   0.488  12.913 -0.2722  1.1378 -0.4194
 4554SOL    HW225296   1.318   0.384  12.819 -0.6608  1.8662 -2.8337
 4555SOL     OW25297   4.058   0.873  14.850  0.1234 -0.1378  0.0595
 4555SOL    HW125298   4.035   0.872  14.757  2.5305  2.0788 -0.5480
 4555SOL    HW225299   4.136   0.818  14.856  0.2609  0.1326  0.6431
 4556SOL     OW25300   2.499   2.301   6.599  0.2968 -0.3558 -0.2816
 4556SOL    HW125301   2.457   2.230   6.551  0.2954 -0.4862 -0.0875
 4556SOL    HW225302   2.422   2.356   6.615  1.5160  0.9654  1.1146
 4557SOL     OW25303   3.388   1.803   2.542 -0.8773  0.2754 -0.3650
 4557SOL    HW125304   3.458   1.745   2.573 -0.7029  0.7201  0.0853
 4557SOL    HW225305   3.440   1.882   2.528  2.2705 -1.0880  3.2201
 4558SOL     OW25306   1.188   1.292   4.090 -0.4502 -0.3130 -0.3537
 4558SOL    HW125307   1.127   1.224   4.120 -2.9928  0.9987 -2.5501
 4558SOL    HW225308   1.224   1.323   4.173 -0.0569 -0.7099 -0.3778
 4559SOL     OW25309   3.240   2.950   4.133 -0.4593 -0.2890 -0.3127
 4559SOL    HW125310   3.166   2.951   4.193 -0.3340 -0.3139 -0.1575
 4559SOL    HW225311   3.278   3.038   4.138 -0.0523 -0.4435 -0.6562
 4560SOL     OW25312   0.917   4.594   6.593 -0.4461 -0.2156  0.1709
 4560SOL    HW125313   0.843   4.648   6.566 -0.3664 -0.1034  0.1761
 4560SOL    HW225314   0.987   4.619   6.532 -0.0427 -0.8506  0.3708
 4561SOL     OW25315   1.922   3.012   4.825  0.3805 -0.5562  0.2811
 4561SOL    HW125316   2.000   3.038   4.777 -0.2485  1.7187  0.4822
 4561SOL    HW225317   1.966   3.016   4.910  0.8850  0.1830 -0.0140
 4562SOL     OW25318   2.591   2.977  10.534 -0.2158 -0.4212  0.7316
 4562SOL    HW125319   2.599   2.967  10.439  0.6588  2.1405  0.5180
 4562SOL    HW225320   2.507   3.021  10.547 -0.3130 -0.8586  1.5273
 4563SOL     OW25321   1.355   3.420   8.403 -0.3896  0.4157  0.3894
 4563SOL    HW125322   1.357   3.511   8.373 -1.7765 -0.2982 -1.9292
 4563SOL    HW225323   1.429   3.395   8.348  1.4171  0.5129  2.7900
 4564SOL     OW25324   2.098   2.685   0.627  0.8062  0.2880  0.0067
 4564SOL    HW125325   2.102   2.736   0.708  0.2721  1.1730 -0.5252
 4564SOL    HW225326   2.065   2.604   0.665  0.9038 -0.0191 -0.5650
 4565SOL     OW25327   0.780   0.902   2.388  0.3371 -0.1943  0.3109
 4565SOL    HW125328   0.699   0.850   2.390  0.3241 -0.3593 -4.1039
 4565SOL    HW225329   0.796   0.911   2.294 -1.6587  1.0015  0.0853
 4566SOL     OW25330   2.689   1.492   1.348 -0.4608 -0.4949  0.0735
 4566SOL    HW125331   2.630   1.431   1.303 -1.0713  0.5441 -0.5522
 4566SOL    HW225332   2.687   1.570   1.292 -1.3995 -0.3663  0.2763
 4567SOL     OW25333   0.051   1.344   9.963  0.4750  0.5980  0.0948
 4567SOL    HW125334   0.021   1.293  10.038 -2.1427 -0.5852 -1.7759
 4567SOL    HW225335   4.711   1.397   9.940 -0.0030 -0.2474 -0.2557
 4568SOL     OW25336   1.045   2.236   5.232 -0.1599 -0.8804  0.2596
 4568SOL    HW125337   1.057   2.260   5.324  1.4752  1.0795 -0.4583
 4568SOL    HW225338   0.964   2.286   5.221  0.6880 -0.1062 -2.4728
 4569SOL     OW25339   2.667   4.189   1.848  0.0355 -0.8535 -0.0665
 4569SOL    HW125340   2.615   4.269   1.851 -0.0439 -0.8818 -0.8473
 4569SOL    HW225341   2.648   4.144   1.931  1.7833 -1.3047  0.0911
 4570SOL     OW25342   2.205   0.072   9.769 -0.0505 -0.2109  0.4220
 4570SOL    HW125343   2.289   0.096   9.807  0.3937  0.5916 -1.0837
 4570SOL    HW225344   2.148   0.040   9.840  3.7292 -2.8770  2.2291
 4571SOL     OW25345   3.452   2.369   1.604 -0.1807 -0.2569  0.6099
 4571SOL    HW125346   3.414   2.283   1.625  0.1511 -1.0302 -1.9304
 4571SOL    HW225347   3.544   2.344   1.601  0.0225  0.4775  0.7099
 4572SOL     OW25348   2.591   4.527  12.132  0.2308  0.2859 -0.7253
 4572SOL    HW125349   2.561   4.438  12.115 -0.8735 -0.1243  3.3214
 4572SOL    HW225350   2.639   4.511  12.214 -1.6535  0.1994  0.3640
 4573SOL     OW25351   0.817   4.398   5.237 -0.5765  0.0618 -0.0932
 4573SOL    HW125352   0.859   4.327   5.284 -0.5816 -0.3264 -0.6673
 4573SOL    HW225353   0.848   4.471   5.291  0.9364 -1.4897  1.0916
 4574SOL     OW25354   0.787   0.120  15.786 -0.4679 -0.2497 -0.2252
 4574SOL    HW125355   0.750   0.197  15.830 -0.1943 -0.2452 -0.0062
 4574SOL    HW225356   0.877   0.153  15.785 -0.3721 -0.5438 -1.3550
 4575SOL     OW25357   3.861   2.282   6.378 -0.0909 -0.4130 -0.3540
 4575SOL    HW125358   3.857   2.209   6.317 -0.5575 -0.5999 -0.0991
 4575SOL    HW225359   3.896   2.249   6.461  0.2398  1.0613  0.1108
 4576SOL     OW25360   2.592   1.068   8.793 -0.5039 -0.2199  0.0918
 4576SOL    HW125361   2.591   1.157   8.828 -1.1503  0.2059 -0.9945
 4576SOL    HW225362   2.521   1.067   8.729  2.7635 -0.6512 -3.5375
 4577SOL     OW25363   2.988   1.960   3.429  0.0210 -0.4433  0.5916
 4577SOL    HW125364   3.011   2.003   3.347  0.8855  0.4171  1.2827
 4577SOL    HW225365   3.065   1.972   3.485  0.2692  1.8279 -0.2577
 4578SOL     OW25366   1.255   0.935   1.630 -0.2850 -0.8511 -0.3458
 4578SOL    HW125367   1.285   0.852   1.592  0.6391 -0.6597 -0.0099
 4578SOL    HW225368   1.225   0.988   1.557 -1.9385  1.5086  2.0432
 4579SOL     OW25369   1.319   0.870   7.746 -0.1851 -0.6744 -0.3274
 4579SOL    HW125370   1.308   0.908   7.834  0.7348 -1.3762  0.0991
 4579SOL    HW225371   1.242   0.896   7.697 -1.4048 -1.5366  1.1307
 4580SOL     OW25372   0.659   1.017   4.523 -0.1250 -0.4407  0.2803
 4580SOL    HW125373   0.603   1.053   4.454 -0.1714  0.9208  1.0354
 4580SOL    HW225374   0.627   0.929   4.544 -1.0059 -0.1616  0.1090
 4581SOL     OW25375   1.365   2.332   3.637 -0.3954 -0.3965  0.1024
 4581SOL    HW125376   1.395   2.262   3.695  1.3947  0.1990 -0.0917
 4581SOL    HW225377   1.292   2.288   3.594 -0.5902 -2.3725  2.4686
 4582SOL     OW25378   4.411   0.133  17.433  0.7026 -0.2449  0.1782
 4582SOL    HW125379   4.363   0.214  17.414 -2.9082 -2.7801 -1.5159
 4582SOL    HW225380   4.492   0.173  17.465  1.8512 -0.7711 -2.0801
 4583SOL     OW25381   2.593   2.374   5.484  0.1574 -0.3674  0.1203
 4583SOL    HW125382   2.535   2.368   5.559 -0.1895  1.0904 -0.0210
 4583SOL    HW225383   2.667   2.426   5.516  0.1921  1.9162 -3.5748
 4584SOL     OW25384   3.309   1.835   2.853  0.7379  0.3447  0.0943
 4584SOL    HW125385   3.304   1.772   2.781  5.2061 -1.3384  1.2382
 4584SOL    HW225386   3.292   1.777   2.927  0.2236 -1.1433 -1.1768
 4585SOL     OW25387   2.468   0.580   2.224 -0.0201  0.0624  0.0778
 4585SOL    HW125388   2.400   0.531   2.178  0.9342 -0.9382 -0.2706
 4585SOL    HW225389   2.452   0.545   2.312  1.4134  0.7975  0.6362
 4586SOL     OW25390   3.184   2.072   5.829 -0.0632  0.3391  0.0229
 4586SOL    HW125391   3.123   2.020   5.776 -1.1677 -0.6454  2.2741
 4586SOL    HW225392   3.124   2.101   5.897 -0.4579 -0.4475  0.0157
 4587SOL     OW25393   4.148   4.673   6.150 -0.5963  0.1538 -0.6444
 4587SOL    HW125394   4.229   4.687   6.102  0.6191 -2.9828  0.4808
 4587SOL    HW225395   4.163   4.696   6.242  0.9655 -1.4618 -0.5040
 4588SOL     OW25396   2.259   2.796   3.922 -0.5493  0.4663  0.1577
 4588SOL    HW125397   2.228   2.886   3.907  4.0813  2.0010 -0.1929
 4588SOL    HW225398   2.347   2.789   3.884 -0.6794  1.1029 -0.2709
 4589SOL     OW25399   1.194   0.459   0.121 -0.0301 -0.2232  0.1039
 4589SOL    HW125400   1.247   0.487   0.195 -2.1299  0.1191  1.4645
 4589SOL    HW225401   1.177   0.534   0.064  1.4561 -2.1160 -2.8881
 4590SOL     OW25402   1.242   2.467   6.931 -0.2952 -0.2437 -0.1724
 4590SOL    HW125403   1.200   2.510   7.006 -3.3254 -1.2336 -1.2660
 4590SOL    HW225404   1.171   2.431   6.877  0.7541 -3.2917  0.4708
 4591SOL     OW25405   0.586   3.107   8.363  0.1280  0.5642  0.5964
 4591SOL    HW125406   0.587   3.021   8.405  1.0734 -0.1554 -0.9031
 4591SOL    HW225407   0.581   3.075   8.272 -0.1309  2.3539 -0.0191
 4592SOL     OW25408   2.645   4.076   1.286  0.0921 -0.5975 -0.4989
 4592SOL    HW125409   2.731   4.113   1.310 -1.6441  1.5992  2.3363
 4592SOL    HW225410   2.626   4.011   1.353  1.9512 -1.5271 -0.8767
 4593SOL     OW25411   1.432   4.527   1.453  0.3821  0.0241 -0.2228
 4593SOL    HW125412   1.491   4.579   1.398  0.9537  1.5760  1.8424
 4593SOL    HW225413   1.487   4.518   1.531 -2.1105 -1.5471  1.3317
 4594SOL     OW25414   0.484   1.942   3.966  0.7723 -0.6725 -0.4999
 4594SOL    HW125415   0.403   1.891   3.970 -0.8570  2.1001  1.5358
 4594SOL    HW225416   0.489   1.969   4.058 -0.3203 -0.8726 -0.3835
 4595SOL     OW25417   2.033   3.134   4.114  0.3596  0.0235  0.2348
 4595SOL    HW125418   1.968   3.068   4.138 -1.5478  0.9321 -2.4484
 4595SOL    HW225419   2.069   3.090   4.037 -0.7785 -3.1965  1.5094
 4596SOL     OW25420   3.612   3.269  11.506  0.1681 -0.1238  0.1779
 4596SOL    HW125421   3.646   3.336  11.446  0.5005 -1.2986 -0.9439
 4596SOL    HW225422   3.597   3.322  11.584  0.0124 -0.1592  0.1722
 4597SOL     OW25423   2.609   0.349   2.420 -0.2422 -0.1657 -0.4126
 4597SOL    HW125424   2.545   0.279   2.409 -2.1828  1.5710 -0.1832
 4597SOL    HW225425   2.550   0.422   2.437 -2.9270 -1.9356 -2.0777
 4598SOL     OW25426   1.414   0.558   5.347 -0.1079 -0.6621  0.1976
 4598SOL    HW125427   1.437   0.546   5.439  1.5524 -1.7393 -0.3486
 4598SOL    HW225428   1.468   0.634   5.328 -2.9457  0.7190 -2.4625
 4599SOL     OW25429   2.922   1.009   1.079 -0.0353 -0.0448 -0.1499
 4599SOL    HW125430   2.846   1.016   1.021  0.8911 -1.4588 -1.5356
 4599SOL    HW225431   2.890   1.068   1.147 -0.4024  1.7485 -1.8926
 4600SOL     OW25432   2.950   2.870   0.166 -0.4401  0.4691 -0.3399
 4600SOL    HW125433   2.923   2.859   0.257  0.8900 -0.3486 -0.0342
 4600SOL    HW225434   3.045   2.860   0.175 -0.6003  0.9906  2.0486
 4601SOL     OW25435   3.225   0.329   3.512 -0.0764  0.1819  0.0699
 4601SOL    HW125436   3.225   0.425   3.512 -2.1321  0.2021 -1.0322
 4601SOL    HW225437   3.138   0.310   3.475  0.1397 -0.6652 -0.0040
 4602SOL     OW25438   1.392   3.972   8.561  0.4331  0.5018 -0.0734
 4602SOL    HW125439   1.325   4.035   8.588  0.4286 -0.2089  1.5810
 4602SOL    HW225440   1.473   4.022   8.554  1.4701 -1.1489  0.2710
 4603SOL     OW25441   1.772   4.703   5.871  0.0401  0.5419 -0.0224
 4603SOL    HW125442   1.679   4.684   5.856  0.0524 -0.6795  1.3640
 4603SOL    HW225443   1.776   0.062   5.865 -0.9631  0.6555  1.2224
 4604SOL     OW25444   0.388   0.640  13.700 -0.0153 -0.6421 -0.2529
 4604SOL    HW125445   0.357   0.704  13.635 -0.4962 -1.2919 -0.6658
 4604SOL    HW225446   0.409   0.705  13.767  1.3407 -1.9126  0.5620
 4605SOL     OW25447   3.913   2.924   6.701 -0.0758 -0.0824 -0.0397
 4605SOL    HW125448   3.844   2.985   6.728 -0.1547 -0.7206  1.1466
 4605SOL    HW225449   3.944   2.966   6.620 -0.4548  1.5630  0.6573
 4606SOL     OW25450   1.783   1.334  13.853 -0.4592 -0.1885 -0.4218
 4606SOL    HW125451   1.836   1.317  13.775  0.1814  0.4916 -0.1313
 4606SOL    HW225452   1.823   1.418  13.876 -1.4769  0.7181 -1.9315
 4607SOL     OW25453   1.459   0.777  17.073 -0.1199 -0.4943  0.1183
 4607SOL    HW125454   1.403   0.848  17.040 -2.0879 -2.9306 -1.7266
 4607SOL    HW225455   1.541   0.777  17.025 -0.8466  3.1136 -1.1834
 4608SOL     OW25456   1.098   2.505  15.192 -0.3064 -0.0740 -0.1523
 4608SOL    HW125457   1.048   2.573  15.237  1.5178  0.0169  1.7500
 4608SOL    HW225458   1.030   2.438  15.185 -1.1180  0.6557  0.6720
 4609SOL     OW25459   4.179   0.022   9.686 -0.1794 -0.2820  0.3593
 4609SOL    HW125460   4.224   4.674   9.690  1.1555  0.5499  2.5482
 4609SOL    HW225461   4.234   0.080   9.739  0.2090 -0.0832 -0.2519
 4610SOL     OW25462   4.357   3.891   4.192  0.1570 -0.1639  0.0259
 4610SOL    HW125463   4.392   3.912   4.106  0.4252 -0.8643 -0.0392
 4610SOL    HW225464   4.434   3.863   4.241 -1.1971 -1.2246  1.5536
 4611SOL     OW25465   4.125   4.250  12.264 -0.8811  0.9464  0.3928
 4611SOL    HW125466   4.100   4.165  12.299 -2.1359  0.3496 -1.9381
 4611SOL    HW225467   4.201   4.232  12.208 -2.3033 -0.7159 -0.9692
 4612SOL     OW25468   4.140   0.695   3.062  0.0552  0.0777 -0.1325
 4612SOL    HW125469   4.172   0.771   3.013  0.4432 -1.5543 -2.3722
 4612SOL    HW225470   4.130   0.627   2.996 -0.2606  1.8119 -1.8668
 4613SOL     OW25471   4.103   2.811   2.579 -0.3059 -0.6861  0.1547
 4613SOL    HW125472   4.088   2.731   2.530 -0.5194 -0.0852 -0.7446
 4613SOL    HW225473   4.117   2.869   2.505 -0.7045 -0.8195 -0.0239
 4614SOL     OW25474   3.849   1.196   2.731 -0.3384  0.0825  0.0498
 4614SOL    HW125475   3.825   1.228   2.645 -0.8684  1.8763  0.8720
 4614SOL    HW225476   3.918   1.131   2.712 -0.5393  0.2847 -1.3057
 4615SOL     OW25477   4.558   1.451  15.039  0.3062  0.0736  0.0076
 4615SOL    HW125478   4.578   1.492  14.955  1.3970  0.1088  0.2902
 4615SOL    HW225479   4.468   1.475  15.060  0.6862  3.1218 -1.8446
 4616SOL     OW25480   3.127   2.254  17.357  0.0366 -0.5138  0.2633
 4616SOL    HW125481   3.119   2.192  17.285  1.2533  0.5499 -0.7822
 4616SOL    HW225482   3.084   2.332  17.323 -0.1318 -1.7660 -2.3927
 4617SOL     OW25483   3.059   0.158   8.744 -0.5946  0.3186  0.4953
 4617SOL    HW125484   3.018   0.191   8.825 -1.2643  0.3867  0.1285
 4617SOL    HW225485   3.150   0.164   8.773 -0.8990  2.0831  1.1223
 4618SOL     OW25486   2.523   4.203   3.287  0.4315 -0.2864 -0.4430
 4618SOL    HW125487   2.429   4.201   3.269  0.2986  0.9551  0.1620
 4618SOL    HW225488   2.531   4.188   3.381 -0.9182  0.0003 -0.2797
 4619SOL     OW25489   3.014   3.688  12.478  0.3865 -0.2836 -0.3450
 4619SOL    HW125490   3.009   3.593  12.481 -0.3178 -0.3969 -4.1085
 4619SOL    HW225491   2.982   3.721  12.393  0.0361 -0.3259 -0.2324
 4620SOL     OW25492   1.154   4.357   8.183  0.0749 -0.1098 -0.2754
 4620SOL    HW125493   1.143   4.452   8.185  0.2731 -0.0451 -2.5302
 4620SOL    HW225494   1.069   4.338   8.143 -0.8759  2.8748  0.3530
 4621SOL     OW25495   1.592   1.128   5.606 -0.1633  0.3324  0.8501
 4621SOL    HW125496   1.583   1.132   5.701 -4.6065 -2.2507  0.5446
 4621SOL    HW225497   1.552   1.211   5.581  1.6349  0.9540  0.0204
 4622SOL     OW25498   3.610   0.209   5.943  0.0352  0.1539 -0.0897
 4622SOL    HW125499   3.602   0.271   6.015 -0.5669  0.8717 -0.7775
 4622SOL    HW225500   3.702   0.186   5.926 -0.1219  1.1629 -2.2483
 4623SOL     OW25501   3.410   4.678   9.044 -0.0768  0.1275  0.1206
 4623SOL    HW125502   3.351   4.711   9.113 -0.9098  0.4386 -0.7412
 4623SOL    HW225503   3.490   4.725   9.068 -0.5106  1.1566 -0.4235
 4624SOL     OW25504   1.956   3.940   6.963 -0.5339  0.1839  0.1040
 4624SOL    HW125505   1.909   3.869   6.919  0.4860 -1.3907  1.5691
 4624SOL    HW225506   1.897   4.013   6.939 -0.0493  1.8086  3.8449
 4625SOL     OW25507   3.044   2.311   8.057 -0.1207  0.3507 -0.4366
 4625SOL    HW125508   2.987   2.387   8.065 -2.2274 -1.3452  0.7478
 4625SOL    HW225509   2.995   2.271   7.985  1.4179 -1.3469 -0.5506
 4626SOL     OW25510   0.723   2.435   7.032  0.3210  0.0861 -0.6184
 4626SOL    HW125511   0.648   2.486   7.061 -0.2246  0.7085 -3.1386
 4626SOL    HW225512   0.779   2.503   6.994  1.6953  0.0303  1.2570
 4627SOL     OW25513   1.131   3.406   4.378 -0.0493  0.3989  0.7909
 4627SOL    HW125514   1.096   3.331   4.330 -1.3302  0.7444  1.1854
 4627SOL    HW225515   1.092   3.484   4.339 -0.5025 -0.9225 -1.3974
 4628SOL     OW25516   2.857   3.402   6.251 -0.1268 -0.3139 -0.0129
 4628SOL    HW125517   2.842   3.495   6.272 -1.3450  0.0780 -2.6044
 4628SOL    HW225518   2.800   3.344   6.302  0.2673  0.0701  0.8672
 4629SOL     OW25519   4.585   4.096  17.542 -1.3786  0.3832 -0.0424
 4629SOL    HW125520   4.587   4.027  17.475 -1.3728  0.3118  0.0311
 4629SOL    HW225521   4.672   4.129  17.520 -0.3808 -2.0844  0.2045
 4630SOL     OW25522   0.799   2.986   1.775  0.1064  0.0450 -0.2974
 4630SOL    HW125523   0.825   3.072   1.807 -0.1403 -0.3258  0.8912
 4630SOL    HW225524   0.876   2.938   1.806  0.1076 -1.6973 -2.9045
 4631SOL     OW25525   3.953   1.026  16.627 -0.2306  0.1384 -0.0838
 4631SOL    HW125526   3.995   1.025  16.713 -1.3179 -1.2981  0.4357
 4631SOL    HW225527   3.990   0.949  16.582  0.2558  0.3201  0.0023
 4632SOL     OW25528   4.365   0.994   4.028  0.1734  0.3855 -0.2760
 4632SOL    HW125529   4.281   0.969   3.990 -0.5033 -0.8692  2.0325
 4632SOL    HW225530   4.335   1.019   4.115 -0.3393 -3.5478  0.6894
 4633SOL     OW25531   4.100   4.713   8.221 -0.3202 -0.4129 -0.4745
 4633SOL    HW125532   4.185   0.002   8.255 -0.9481 -0.4623  1.1120
 4633SOL    HW225533   4.040   0.027   8.276  0.4346  1.6286 -1.5214
 4634SOL     OW25534   2.121   4.269   9.261 -0.3876  0.7996 -0.0318
 4634SOL    HW125535   2.097   4.245   9.171  1.0062  0.4578 -0.3021
 4634SOL    HW225536   2.034   4.283   9.299 -0.6770 -0.8489 -0.0606
 4635SOL     OW25537   4.583   3.579   5.794  0.0570  0.4467  0.4260
 4635SOL    HW125538   4.597   3.544   5.882  1.0700 -1.3038 -0.4509
 4635SOL    HW225539   4.630   3.512   5.746 -1.3457 -0.6317  0.5481
 4636SOL     OW25540   0.720   0.894  13.076  0.2699 -0.1897 -0.0792
 4636SOL    HW125541   0.791   0.957  13.093  0.2482  0.0364 -0.8093
 4636SOL    HW225542   0.732   0.877  12.983 -0.6097  0.8681 -0.3897
 4637SOL     OW25543   4.411   2.588   2.677 -0.2246  0.1960 -0.0358
 4637SOL    HW125544   4.419   2.683   2.685  0.6672  0.1502 -0.3652
 4637SOL    HW225545   4.495   2.551   2.705  0.9017  1.6923 -1.4588
 4638SOL     OW25546   3.332   1.053   7.466  0.0288  0.1445 -0.0570
 4638SOL    HW125547   3.266   1.112   7.504 -0.2588  0.5897 -1.2436
 4638SOL    HW225548   3.282   1.036   7.386  0.8705  0.3783 -0.6350
 4639SOL     OW25549   4.109   4.556  17.192 -0.3064 -0.0373 -0.3951
 4639SOL    HW125550   4.194   4.582  17.158 -0.2244  0.3774  0.1360
 4639SOL    HW225551   4.070   4.543  17.105 -3.0449 -0.5787  0.9013
 4640SOL     OW25552   2.129   3.824   8.551 -0.2148 -0.0232 -0.0488
 4640SOL    HW125553   2.062   3.781   8.605 -0.5795 -0.1895 -0.6436
 4640SOL    HW225554   2.074   3.842   8.476  0.5572 -1.5737 -0.9739
 4641SOL     OW25555   3.050   3.185   7.523  0.7026  0.1534 -0.2556
 4641SOL    HW125556   2.973   3.234   7.554  1.1388  0.4882  0.2980
 4641SOL    HW225557   3.099   3.170   7.603 -0.4204  0.2332  0.4521
 4642SOL     OW25558   0.303   3.811   7.750  0.3310  0.0883 -0.0660
 4642SOL    HW125559   0.301   3.805   7.654  1.0521 -2.1914  0.0561
 4642SOL    HW225560   0.326   3.720   7.772 -1.1232 -0.0903  0.7056
 4643SOL     OW25561   3.596   1.143   3.328  0.0555  0.3724  0.1064
 4643SOL    HW125562   3.571   1.208   3.262 -0.9554 -1.1978 -1.0760
 4643SOL    HW225563   3.516   1.091   3.324  0.0198  0.4510 -0.2814
 4644SOL     OW25564   4.163   1.899  16.081  0.2705  0.1777 -0.0764
 4644SOL    HW125565   4.119   1.956  16.144  0.2064  0.0478 -0.0047
 4644SOL    HW225566   4.123   1.821  16.119 -2.3200  1.6553  0.2449
 4645SOL     OW25567   1.874   3.979   2.449  0.5576  0.0679 -0.3726
 4645SOL    HW125568   1.782   3.996   2.468  0.6309  0.1429 -0.0841
 4645SOL    HW225569   1.925   4.011   2.523  1.2846 -2.0476  0.0299
 4646SOL     OW25570   4.285   1.073  12.281  0.1527 -0.2281 -0.1701
 4646SOL    HW125571   4.251   0.985  12.267  1.3565 -0.9752  1.5043
 4646SOL    HW225572   4.364   1.058  12.333 -0.8809  0.6608  1.6810
 4647SOL     OW25573   1.154   1.952   4.849 -0.3415  0.7160 -0.6081
 4647SOL    HW125574   1.182   1.969   4.759  0.2056  0.2786 -0.5145
 4647SOL    HW225575   1.138   2.038   4.890 -0.9804  1.3869 -2.2793
 4648SOL     OW25576   0.941   3.601   7.148 -0.0548 -0.4652 -0.3007
 4648SOL    HW125577   0.998   3.525   7.157 -0.4414 -0.6985  0.1885
 4648SOL    HW225578   0.935   3.629   7.239 -0.2494  0.1254 -0.4943
 4649SOL     OW25579   2.657   0.817   1.241  0.0561  0.1435  0.3908
 4649SOL    HW125580   2.722   0.859   1.297  1.0351 -1.4719  0.4548
 4649SOL    HW225581   2.695   0.729   1.233  0.1931  0.3751 -1.6491
 4650SOL     OW25582   1.840   4.729   1.586  0.1879 -0.2403  0.2463
 4650SOL    HW125583   1.911   0.001   1.649 -0.9001  1.8595  1.1857
 4650SOL    HW225584   1.844   0.080   1.545 -1.1182 -0.0951  0.4489
 4651SOL     OW25585   1.153   4.112  11.874 -0.3631 -0.0130 -0.7158
 4651SOL    HW125586   1.102   4.103  11.954  1.1420  0.1964  0.2624
 4651SOL    HW225587   1.180   4.204  11.882  0.0983 -0.0220 -2.1281
 4652SOL     OW25588   4.419   2.259   8.228  0.5068 -0.5948  0.6309
 4652SOL    HW125589   4.446   2.173   8.197  0.7798  0.8309 -3.0941
 4652SOL    HW225590   4.374   2.284   8.147  0.9159  1.3390  0.9839
 4653SOL     OW25591   4.532   0.780   5.804 -0.0246 -0.8358 -0.2420
 4653SOL    HW125592   4.512   0.768   5.711  0.1488 -1.8658 -0.1436
 4653SOL    HW225593   4.552   0.689   5.826  2.5714 -1.0274 -3.4134
 4654SOL     OW25594   3.052   0.783   3.901 -0.0578 -0.3407 -0.0611
 4654SOL    HW125595   3.065   0.831   3.983  0.8349  1.5184 -1.2932
 4654SOL    HW225596   2.959   0.792   3.882  0.1056  0.7045 -0.3757
 4655SOL     OW25597   2.430   1.473  12.630 -0.0229 -0.2305 -0.4617
 4655SOL    HW125598   2.341   1.505  12.644 -0.0008 -0.6747  0.6754
 4655SOL    HW225599   2.407   1.385  12.600 -0.3287 -0.7396  1.3042
 4656SOL     OW25600   0.940   0.839   7.062  0.3234 -0.5493  0.4347
 4656SOL    HW125601   0.965   0.865   6.973 -1.1628  0.0965  0.2041
 4656SOL    HW225602   0.852   0.876   7.066  0.7282  0.5117 -0.4176
 4657SOL     OW25603   3.714   3.820   2.688 -0.2494  0.1494  0.0243
 4657SOL    HW125604   3.657   3.745   2.706  0.2523 -0.2889 -0.1886
 4657SOL    HW225605   3.645   3.882   2.712 -0.9559 -1.2327  1.5951
 4658SOL     OW25606   1.941   0.940   9.858 -0.1732 -0.1778  0.0234
 4658SOL    HW125607   1.901   1.021   9.888 -2.9125 -0.8357 -1.8375
 4658SOL    HW225608   2.031   0.970   9.845 -0.6726  2.0564  1.8069
 4659SOL     OW25609   0.181   3.140   8.421 -0.0751  1.1129 -0.1917
 4659SOL    HW125610   0.217   3.215   8.374  0.9859 -0.5053 -1.9792
 4659SOL    HW225611   0.181   3.183   8.506  0.6871  1.3814 -0.3273
 4660SOL     OW25612   3.418   0.114   5.454 -0.1836  1.1257 -0.7264
 4660SOL    HW125613   3.431   0.132   5.547  1.6537  3.0943 -1.3487
 4660SOL    HW225614   3.376   0.028   5.458  2.2730 -0.0242  0.3303
 4661SOL     OW25615   2.568   3.470  13.166 -0.5268  0.1527  0.2852
 4661SOL    HW125616   2.509   3.481  13.092 -0.5679  0.9248  0.4371
 4661SOL    HW225617   2.643   3.524  13.144 -1.2721  0.6794 -0.9640
 4662SOL     OW25618   2.269   1.688  13.218  0.2313 -0.1324 -0.7499
 4662SOL    HW125619   2.287   1.619  13.153 -1.4891 -0.1998 -1.1595
 4662SOL    HW225620   2.301   1.767  13.175  2.2144  0.1337  1.2160
 4663SOL     OW25621   2.876   3.764   1.798 -0.2113  0.3077  0.4149
 4663SOL    HW125622   2.839   3.846   1.766  0.8243  0.9624  0.9056
 4663SOL    HW225623   2.970   3.774   1.781  0.1205  1.2291  2.7868
 4664SOL     OW25624   2.010   1.314   6.381  0.3114  0.2414  0.3866
 4664SOL    HW125625   1.921   1.286   6.361  0.8963 -0.1502 -1.6991
 4664SOL    HW225626   2.014   1.385   6.318  0.0125  0.4639  0.6195
 4665SOL     OW25627   1.213   3.687  10.268 -0.7110  0.1321 -0.2893
 4665SOL    HW125628   1.195   3.774  10.306 -1.2686 -0.0140 -0.2155
 4665SOL    HW225629   1.126   3.647  10.273 -0.8893  0.1876 -2.8962
 4666SOL     OW25630   0.028   0.927   6.178 -0.3406 -0.5382 -0.1650
 4666SOL    HW125631   0.075   1.003   6.212 -1.7936  0.6548 -0.8494
 4666SOL    HW225632   0.020   0.942   6.084 -0.3762  1.5296  0.1791
 4667SOL     OW25633   1.010   3.384   3.275 -0.2160  0.0736 -0.0059
 4667SOL    HW125634   0.931   3.407   3.226 -0.9218  0.5713  1.3770
 4667SOL    HW225635   0.976   3.409   3.361  2.0099 -0.0101  0.9007
 4668SOL     OW25636   4.315   1.339   4.487 -0.2316 -0.0172  0.0125
 4668SOL    HW125637   4.392   1.309   4.438 -0.2166  0.7778 -0.4576
 4668SOL    HW225638   4.358   1.314   4.569 -1.3275  1.4270  1.0180
 4669SOL     OW25639   2.624   0.886   9.588  0.3187  0.6043  0.8504
 4669SOL    HW125640   2.564   0.829   9.635  1.0479 -0.3948  0.5773
 4669SOL    HW225641   2.706   0.860   9.631  1.6136 -2.2251 -3.3762
 4670SOL     OW25642   3.165   1.404   5.207  0.4885 -0.0739  0.5368
 4670SOL    HW125643   3.188   1.354   5.129  2.9157  0.4086  0.9264
 4670SOL    HW225644   3.249   1.443   5.233  1.5508 -1.5821 -0.6115
 4671SOL     OW25645   0.570   2.759   5.469 -0.3045 -0.3676  0.2386
 4671SOL    HW125646   0.620   2.829   5.428 -0.7624 -1.1195 -1.6018
 4671SOL    HW225647   0.501   2.756   5.403 -0.5119 -0.7445  0.4726
 4672SOL     OW25648   1.991   0.537   1.504 -0.5141  0.4987  0.4755
 4672SOL    HW125649   1.909   0.551   1.456 -0.5701 -1.7710 -0.0762
 4672SOL    HW225650   2.031   0.478   1.441 -0.5321  1.1817 -0.1834
 4673SOL     OW25651   2.607   4.168  17.056  0.4489 -0.4165 -0.0078
 4673SOL    HW125652   2.514   4.185  17.067  0.6817  0.6858  0.3053
 4673SOL    HW225653   2.608   4.074  17.068  1.8373 -0.0829  2.3635
 4674SOL     OW25654   3.357   4.140   9.594 -0.0342  0.3873  0.3758
 4674SOL    HW125655   3.381   4.208   9.656 -0.5069 -0.2069  1.2053
 4674SOL    HW225656   3.270   4.122   9.629 -2.2294  2.9545 -3.7053
 4675SOL     OW25657   2.647   2.021   7.193  0.0752 -0.1112 -0.0580
 4675SOL    HW125658   2.679   1.986   7.276  0.8015 -0.8635 -0.6552
 4675SOL    HW225659   2.699   1.982   7.123  0.3209 -0.0292  0.0787
 4676SOL     OW25660   2.883   3.200   3.057 -0.1367 -0.0924  0.2703
 4676SOL    HW125661   2.892   3.117   3.103  1.5886 -0.8086 -1.3796
 4676SOL    HW225662   2.946   3.192   2.986 -0.1413 -0.6649  0.3332
 4677SOL     OW25663   4.148   2.707   4.679  0.5180 -0.3289  0.2971
 4677SOL    HW125664   4.189   2.713   4.765  1.2140  0.1286 -0.0688
 4677SOL    HW225665   4.221   2.692   4.619 -0.3350  2.3876 -1.4502
 4678SOL     OW25666   4.349   3.659   7.971 -0.5920  0.6827  0.1446
 4678SOL    HW125667   4.259   3.634   7.992  0.2207 -0.2179  2.5357
 4678SOL    HW225668   4.389   3.582   7.932 -0.0429  1.4621 -0.8312
 4679SOL     OW25669   3.716   4.317   5.211 -0.0772  0.0561 -0.2328
 4679SOL    HW125670   3.696   4.388   5.272 -0.6984  0.2505 -0.6643
 4679SOL    HW225671   3.649   4.325   5.143  0.7160 -1.0390 -1.1399
 4680SOL     OW25672   3.854   1.765  12.705 -0.1529  0.0108 -0.7099
 4680SOL    HW125673   3.915   1.731  12.639  0.3651 -0.5441  0.0605
 4680SOL    HW225674   3.895   1.852  12.709  1.2276 -0.7037  0.7524
 4681SOL     OW25675   0.223   0.412   5.404  0.3179  0.2246  0.0607
 4681SOL    HW125676   0.232   0.345   5.336  2.3249  1.0967 -0.5176
 4681SOL    HW225677   0.137   0.404   5.446 -0.6738 -1.3084 -2.2232
 4682SOL     OW25678   1.181   2.539  14.905 -0.1948 -0.6016 -0.4464
 4682SOL    HW125679   1.132   2.536  14.987 -0.0778 -1.4383 -0.4056
 4682SOL    HW225680   1.255   2.594  14.930  1.0203 -1.9204 -1.1040
 4683SOL     OW25681   2.285   3.380  15.447  0.0197  0.3708 -0.2295
 4683SOL    HW125682   2.256   3.471  15.441 -0.6059  0.2493  0.8758
 4683SOL    HW225683   2.304   3.353  15.357 -0.4774 -1.6314  0.2607
 4684SOL     OW25684   0.548   1.781   4.771  0.5733  0.1324 -0.3987
 4684SOL    HW125685   0.472   1.839   4.775 -0.9475 -1.9455  0.8911
 4684SOL    HW225686   0.506   1.709   4.819  0.1308  2.4104  2.6515
 4685SOL     OW25687   3.048   2.860   4.900  0.2286 -0.0001 -0.4556
 4685SOL    HW125688   3.104   2.897   4.969 -0.8969 -0.1837  0.5594
 4685SOL    HW225689   3.053   2.771   4.936 -0.3682  0.5178  0.9163
 4686SOL     OW25690   0.867   4.237   2.348 -0.0333 -0.3806  0.3138
 4686SOL    HW125691   0.856   4.254   2.254 -0.0297 -0.6430  0.2670
 4686SOL    HW225692   0.906   4.319   2.380  0.0209  0.4140 -1.7538
 4687SOL     OW25693   4.365   1.852   5.996  0.1836 -0.6122  0.0620
 4687SOL    HW125694   4.379   1.790   5.925  2.1152 -0.3991  0.2767
 4687SOL    HW225695   4.297   1.907   5.956  1.6970  1.5114  0.3790
 4688SOL     OW25696   2.759   2.944   8.716 -0.0548 -0.3797 -1.0127
 4688SOL    HW125697   2.676   2.949   8.669 -0.6058  2.5923  0.3051
 4688SOL    HW225698   2.728   2.931   8.805 -1.9289  0.1563 -1.5779
 4689SOL     OW25699   2.280   2.511   7.776  0.0885 -0.7107  0.0789
 4689SOL    HW125700   2.229   2.432   7.795 -1.2771 -0.3771 -2.2531
 4689SOL    HW225701   2.278   2.568   7.853 -1.6724  0.9094 -1.1719
 4690SOL     OW25702   0.446   0.728   8.993  0.2807 -0.3640 -0.0525
 4690SOL    HW125703   0.435   0.814   9.033  1.0605 -0.7467  1.0157
 4690SOL    HW225704   0.449   0.739   8.898  1.2794  0.4417  0.0756
 4691SOL     OW25705   2.976   4.290   2.157  1.1133  0.2222 -0.8326
 4691SOL    HW125706   2.952   4.313   2.067  2.2275 -2.6490 -1.8755
 4691SOL    HW225707   3.054   4.237   2.143  1.1245  0.6462 -2.4120
 4692SOL     OW25708   1.524   0.552   8.390  0.0192 -0.0700 -0.6485
 4692SOL    HW125709   1.548   0.466   8.424 -1.8176 -0.6050 -0.6977
 4692SOL    HW225710   1.564   0.599   8.462  1.7759  0.1294 -1.7443
 4693SOL     OW25711   3.081   4.603   6.777  0.0245  0.6097 -0.1938
 4693SOL    HW125712   3.114   4.513   6.776 -0.3576  0.4726 -0.4366
 4693SOL    HW225713   2.993   4.588   6.810  1.0016  1.8409  2.9346
 4694SOL     OW25714   4.678   0.627  16.096 -0.0489 -0.8584 -0.3589
 4694SOL    HW125715   0.017   0.626  16.037 -0.0608 -0.7693 -0.3759
 4694SOL    HW225716   4.657   0.542  16.135 -1.8364 -0.7408 -1.0879
 4695SOL     OW25717   4.725   2.444  14.409  0.0450 -0.4217 -0.6713
 4695SOL    HW125718   0.070   2.490  14.385  0.9444 -2.3442 -1.2967
 4695SOL    HW225719   4.679   2.502  14.470  2.0599  0.3279  0.1515
 4696SOL     OW25720   4.534   0.747  12.981  0.1526 -0.0924 -0.6505
 4696SOL    HW125721   4.549   0.831  13.024  1.0742 -0.0842 -1.0070
 4696SOL    HW225722   4.462   0.776  12.924 -0.5426 -0.0205  0.2704
 4697SOL     OW25723   0.663   2.895   3.769  0.4392 -0.0477 -0.1167
 4697SOL    HW125724   0.654   2.809   3.728 -1.2660  0.4293 -0.7608
 4697SOL    HW225725   0.754   2.873   3.786 -0.3554 -2.9084  0.4912
 4698SOL     OW25726   2.010   3.638   9.032  0.2435 -0.3175  0.0061
 4698SOL    HW125727   1.943   3.661   9.095 -0.6332 -1.7229 -0.4056
 4698SOL    HW225728   1.976   3.684   8.955 -1.2820  1.9948  2.0819
 4699SOL     OW25729   3.250   2.492   6.321  0.1035  0.5513  0.0884
 4699SOL    HW125730   3.215   2.535   6.399 -1.2198  1.5269 -1.0279
 4699SOL    HW225731   3.329   2.546   6.316  1.8503 -1.9145  1.2381
 4700SOL     OW25732   3.437   4.276  15.698 -0.0897  0.1140  0.0833
 4700SOL    HW125733   3.387   4.217  15.643 -1.1842  1.9562 -0.8725
 4700SOL    HW225734   3.417   4.362  15.662  2.2898  0.4178 -0.5059
 4701SOL     OW25735   3.370   0.039  10.095 -0.6725  0.1654  0.4149
 4701SOL    HW125736   3.386   0.133  10.089  0.0093 -0.0638 -1.4056
 4701SOL    HW225737   3.414   0.021  10.178  0.3223  0.3285 -0.0737
 4702SOL     OW25738   4.078   2.330  13.088 -0.3959 -0.5899 -0.8356
 4702SOL    HW125739   4.041   2.294  13.169  1.1150  0.6606  0.4133
 4702SOL    HW225740   4.007   2.315  13.026 -0.8599 -1.4676 -0.1002
 4703SOL     OW25741   1.693   4.394   8.209  0.5211  0.3396  0.2387
 4703SOL    HW125742   1.709   4.437   8.125  0.2562  0.6724  0.3594
 4703SOL    HW225743   1.740   4.312   8.196 -0.1053  0.1157 -0.6647
 4704SOL     OW25744   2.184   4.011  11.681 -0.5162 -0.3321 -0.2468
 4704SOL    HW125745   2.151   4.101  11.680 -1.1799 -0.5569  1.0113
 4704SOL    HW225746   2.156   3.982  11.594  1.4603  2.6492 -1.8666
 4705SOL     OW25747   1.346   3.510  17.742 -0.4438  0.4100 -0.7910
 4705SOL    HW125748   1.254   3.510  17.714 -0.5235 -2.0389 -0.5361
 4705SOL    HW225749   1.349   3.448   0.071  0.0548  0.8872 -0.4079
 4706SOL     OW25750   2.677   2.152   4.274  0.4910  0.3830 -0.5708
 4706SOL    HW125751   2.620   2.075   4.274  2.9428 -1.4235  1.9557
 4706SOL    HW225752   2.618   2.225   4.295 -1.2077 -1.5907  1.5075
 4707SOL     OW25753   0.901   0.741   4.472  0.1632 -0.8938 -0.7797
 4707SOL    HW125754   0.813   0.759   4.506  1.5606  2.5565  0.9200
 4707SOL    HW225755   0.937   0.695   4.548 -1.5520  0.1289  0.6515
 4708SOL     OW25756   1.241   0.153   0.098  0.0917 -0.2072  0.3681
 4708SOL    HW125757   1.223   0.243   0.124 -0.5153  0.0881 -1.0444
 4708SOL    HW225758   1.178   0.103   0.150  2.1787 -2.1823  0.9803
 4709SOL     OW25759   3.083   3.608  13.150 -0.4688  0.3925  0.6720
 4709SOL    HW125760   3.089   3.562  13.234 -2.0191 -0.9392  0.0536
 4709SOL    HW225761   3.029   3.550  13.097  0.2389  0.6315 -0.3051
 4710SOL     OW25762   2.819   4.274   7.724  0.5868 -0.2609 -0.1533
 4710SOL    HW125763   2.779   4.291   7.809 -0.2512 -0.4395 -0.5097
 4710SOL    HW225764   2.766   4.339   7.678 -0.9093  0.0282  1.9502
 4711SOL     OW25765   0.163   1.272   5.223 -0.0836  0.0923 -0.2337
 4711SOL    HW125766   0.116   1.259   5.140  0.3178 -0.3676 -0.3888
 4711SOL    HW225767   0.213   1.191   5.224 -0.3570 -0.0967 -1.1468
 4712SOL     OW25768   3.328   4.467   3.226  0.0098 -0.2661 -0.2356
 4712SOL    HW125769   3.276   4.531   3.177 -0.4137 -0.7832 -0.4602
 4712SOL    HW225770   3.347   4.522   3.303  0.0374  1.2032 -1.2879
 4713SOL     OW25771   0.327   1.975   2.895 -0.0388 -0.1104  0.0163
 4713SOL    HW125772   0.311   1.900   2.953 -1.7378 -0.2866 -0.6772
 4713SOL    HW225773   0.369   1.954   2.812 -1.4949 -0.1877 -0.7000
 4714SOL     OW25774   3.772   3.421   9.979  0.2460  0.3336  0.0328
 4714SOL    HW125775   3.785   3.348  10.039 -3.5372  0.2291  0.7694
 4714SOL    HW225776   3.677   3.433   9.976  0.3366  1.5483  1.6457
 4715SOL     OW25777   3.794   1.361  16.946  0.5409  0.7943  0.1702
 4715SOL    HW125778   3.887   1.340  16.946  0.7090  1.4971 -1.5084
 4715SOL    HW225779   3.760   1.275  16.920  1.7923 -0.2695  2.0563
 4716SOL     OW25780   0.086   2.447   8.257 -0.0516  0.0984 -0.4036
 4716SOL    HW125781   0.015   2.435   8.320  0.8278 -0.8269  0.3954
 4716SOL    HW225782   0.137   2.368   8.272  2.2570  1.4116 -1.3446
 4717SOL     OW25783   4.200   2.203   4.484 -0.4636 -0.2052  0.3512
 4717SOL    HW125784   4.215   2.253   4.404 -0.7021 -1.8975 -0.7519
 4717SOL    HW225785   4.176   2.271   4.547 -1.6138 -1.1590  0.9484
 4718SOL     OW25786   1.498   1.064  11.802  0.2630  0.3899  0.5264
 4718SOL    HW125787   1.418   1.106  11.833 -0.0390 -0.3659  0.7568
 4718SOL    HW225788   1.481   0.981  11.758  0.8569  1.1541 -1.1773
 4719SOL     OW25789   3.019   4.472  17.277 -0.4226  0.0416  0.1524
 4719SOL    HW125790   3.038   4.540  17.342 -0.3653 -1.9310  2.2203
 4719SOL    HW225791   3.078   4.501  17.207  2.2910 -2.3369  1.4269
 4720SOL     OW25792   1.904   2.346  11.158  0.3054  0.0064 -0.2214
 4720SOL    HW125793   1.975   2.366  11.098  0.3866  0.0118 -0.1245
 4720SOL    HW225794   1.880   2.435  11.184 -0.0851 -0.6893  1.8061
 4721SOL     OW25795   3.829   3.904   5.698  0.4431  0.0739 -0.2903
 4721SOL    HW125796   3.805   3.882   5.608 -2.0460 -0.3237  0.4664
 4721SOL    HW225797   3.760   3.856   5.743  0.7702 -0.8236 -0.7502
 4722SOL     OW25798   3.818   0.976   7.921  0.0812 -0.0448  0.9295
 4722SOL    HW125799   3.871   0.920   7.976  2.6558 -0.3318 -1.8467
 4722SOL    HW225800   3.744   0.917   7.905 -1.3478  2.1390 -0.5605
 4723SOL     OW25801   2.947   3.236   7.117  0.1905 -0.2671  0.5776
 4723SOL    HW125802   3.008   3.307   7.138 -0.2727  0.3003  0.0171
 4723SOL    HW225803   2.977   3.164   7.172  0.7806 -0.6065 -0.1873
 4724SOL     OW25804   4.418   2.366   2.967  0.0334  0.3945 -0.2948
 4724SOL    HW125805   4.417   2.338   3.059 -0.8590 -2.0933 -1.0682
 4724SOL    HW225806   4.481   2.438   2.970  0.2729  0.2097 -1.0689
 4725SOL     OW25807   3.686   1.011  11.399 -0.4533  0.2355  0.6536
 4725SOL    HW125808   3.766   0.960  11.402 -1.0969 -0.8901 -1.7780
 4725SOL    HW225809   3.642   0.983  11.319  0.6805 -1.2720  0.5864
 4726SOL     OW25810   0.989   0.982   6.535 -0.4132 -0.1293  0.1686
 4726SOL    HW125811   1.002   0.922   6.608  0.3212 -0.5053 -0.2710
 4726SOL    HW225812   0.894   0.992   6.544 -0.1759 -0.1037  2.5385
 4727SOL     OW25813   1.213   3.073   4.899  0.6314  0.5113 -0.3109
 4727SOL    HW125814   1.292   3.049   4.949  0.6081  0.8424 -0.1159
 4727SOL    HW225815   1.142   3.038   4.952 -0.1788  1.7418 -0.5868
 4728SOL     OW25816   2.263   2.081   2.601  0.1436 -0.0705 -0.2705
 4728SOL    HW125817   2.326   2.084   2.673 -0.8304 -2.2256  0.6670
 4728SOL    HW225818   2.312   2.038   2.530 -0.1140  1.4647 -1.3884
 4729SOL     OW25819   2.770   3.682  15.853 -0.5821 -0.0033  0.3876
 4729SOL    HW125820   2.785   3.737  15.776 -0.4340  0.0129  0.4284
 4729SOL    HW225821   2.680   3.706  15.873 -1.0401 -0.0897 -1.5305
 4730SOL     OW25822   3.079   3.529   9.878  0.2631  0.1595  0.3684
 4730SOL    HW125823   3.091   3.540   9.973 -1.8467 -1.0603  0.7589
 4730SOL    HW225824   3.152   3.584   9.846  0.7197 -0.4150  0.4208
 4731SOL     OW25825   3.849   4.504   6.338  0.3466 -0.4029  0.0422
 4731SOL    HW125826   3.776   4.469   6.389  0.8485 -3.0079 -1.0107
 4731SOL    HW225827   3.805   4.574   6.290  0.8792 -0.8684 -1.1384
 4732SOL     OW25828   2.359   1.788   3.479 -0.1210 -0.4406 -0.1645
 4732SOL    HW125829   2.282   1.784   3.423  0.4316  0.5648 -1.0109
 4732SOL    HW225830   2.392   1.699   3.470  0.1718 -0.3650  0.1570
 4733SOL     OW25831   1.473   3.518  14.145  0.8141 -0.1724 -0.2669
 4733SOL    HW125832   1.496   3.425  14.145 -0.1568 -0.4206 -0.9503
 4733SOL    HW225833   1.416   3.522  14.068 -2.0203  0.0367  1.8208
 4734SOL     OW25834   1.925   2.894  16.397 -0.5741  0.2728 -0.0180
 4734SOL    HW125835   1.858   2.830  16.373  1.4942 -1.9071  0.0639
 4734SOL    HW225836   1.878   2.978  16.401 -1.8608 -0.4293 -0.5498
 4735SOL     OW25837   4.256   1.344  15.061  0.1416  0.4049 -0.5398
 4735SOL    HW125838   4.263   1.250  15.044  0.2796  0.0635  1.4600
 4735SOL    HW225839   4.211   1.351  15.145  2.2834  0.4045  0.5974
 4736SOL     OW25840   3.328   4.173  17.237  0.3973 -0.3213  0.3542
 4736SOL    HW125841   3.247   4.141  17.277  0.1941  0.2861  0.4372
 4736SOL    HW225842   3.328   4.126  17.154 -1.8325  2.5787 -1.2977
 4737SOL     OW25843   3.488   4.263   7.049  0.1120 -0.2313 -0.7474
 4737SOL    HW125844   3.428   4.222   6.987 -0.1947 -2.1054  0.7795
 4737SOL    HW225845   3.417   4.309   7.094  1.3534  1.1947 -0.2346
 4738SOL     OW25846   3.092   2.429  13.301  0.1209 -0.4213 -0.3771
 4738SOL    HW125847   3.041   2.402  13.377 -0.0793  1.1799  0.0676
 4738SOL    HW225848   3.171   2.385  13.332 -1.2516 -2.1470  0.6571
 4739SOL     OW25849   0.380   3.409   5.050 -0.1429 -0.8711  0.4649
 4739SOL    HW125850   0.310   3.457   5.095  2.9234  3.3412  0.7650
 4739SOL    HW225851   0.448   3.476   5.048 -1.1408  0.2061  2.0261
 4740SOL     OW25852   1.370   0.407   9.776  0.2050 -0.1496 -0.4870
 4740SOL    HW125853   1.407   0.332   9.823  1.1567 -1.1068 -2.7802
 4740SOL    HW225854   1.279   0.375   9.775  0.6948 -1.6408  1.5051
 4741SOL     OW25855   2.721   0.085   4.750 -0.1503 -0.4400 -0.0595
 4741SOL    HW125856   2.777   0.014   4.717  0.1281  0.2020 -1.0005
 4741SOL    HW225857   2.729   0.082   4.845  0.0282 -1.8199 -0.1056
 4742SOL     OW25858   3.780   1.901   4.570  0.4060  0.0218  0.5606
 4742SOL    HW125859   3.851   1.953   4.533 -0.6769  0.0084 -1.4840
 4742SOL    HW225860   3.726   1.894   4.492 -1.3086 -0.0844  1.7403
 4743SOL     OW25861   1.931   0.951   7.911 -0.3047  0.0025 -0.4380
 4743SOL    HW125862   2.000   0.895   7.947  2.0140  1.9138 -1.9069
 4743SOL    HW225863   1.866   0.882   7.904  0.2028 -0.6816  1.4720
 4744SOL     OW25864   1.107   3.724   8.152  0.3553 -0.4959  0.6145
 4744SOL    HW125865   1.034   3.694   8.205  0.3619  0.8859  1.3961
 4744SOL    HW225866   1.167   3.772   8.209  0.4048 -1.3201  1.2621
 4745SOL     OW25867   0.435   0.235   8.177  0.9266 -0.6304 -0.1063
 4745SOL    HW125868   0.403   0.289   8.250 -1.0161 -0.4620 -1.0780
 4745SOL    HW225869   0.431   0.151   8.223 -0.5751 -0.1550  0.6306
 4746SOL     OW25870   0.094   2.079  10.151  0.5779 -0.8067  0.0839
 4746SOL    HW125871   0.107   2.172  10.129 -0.2287 -0.5470  0.6915
 4746SOL    HW225872   0.007   2.090  10.189  0.4911 -1.3059  0.0312
 4747SOL     OW25873   1.357   1.174   3.131 -0.2619  0.1627  0.2753
 4747SOL    HW125874   1.365   1.130   3.215  1.7642 -2.1450 -1.1090
 4747SOL    HW225875   1.337   1.104   3.069  0.4448 -2.0160  2.5500
 4748SOL     OW25876   0.870   1.060   9.936  0.2091 -0.4234 -0.0719
 4748SOL    HW125877   0.837   0.971   9.922  1.1425 -1.0692  1.7536
 4748SOL    HW225878   0.816   1.102   9.870 -0.8115  0.7750  1.5319
 4749SOL     OW25879   3.048   1.667   7.909  0.1082  0.0923 -0.1487
 4749SOL    HW125880   3.049   1.670   8.005  0.7167  1.8863 -0.2133
 4749SOL    HW225881   3.080   1.578   7.897 -0.7422  0.0946 -2.3329
 4750SOL     OW25882   4.726   0.120  15.160 -0.2426 -0.8907  0.3733
 4750SOL    HW125883   4.731   0.025  15.162 -1.9426 -1.0152 -0.9123
 4750SOL    HW225884   0.067   0.136  15.105 -0.4933  1.2539  0.6504
 4751SOL     OW25885   2.009   2.951  12.115 -0.0845 -0.4463 -0.1741
 4751SOL    HW125886   2.103   2.959  12.103  0.2300 -1.4896  1.5522
 4751SOL    HW225887   1.992   2.899  12.036  1.5661  0.4571 -1.1205
 4752SOL     OW25888   1.475   0.156   2.268 -0.1899  0.6856 -0.0863
 4752SOL    HW125889   1.449   0.245   2.290  0.6168  0.6427  1.0457
 4752SOL    HW225890   1.530   0.140   2.345 -1.3314  0.2921  0.6379
 4753SOL     OW25891   3.621   0.923   6.585  0.0491 -0.4014  0.5857
 4753SOL    HW125892   3.528   0.903   6.599  0.0633 -1.3310 -0.5362
 4753SOL    HW225893   3.668   0.875   6.653  0.9569 -0.2310  0.0809
 4754SOL     OW25894   2.999   4.508   4.356 -0.1854 -0.1722  0.5999
 4754SOL    HW125895   2.985   4.438   4.421 -3.6471 -0.7887 -0.8432
 4754SOL    HW225896   2.976   4.462   4.275 -0.8873  0.2374  0.5692
 4755SOL     OW25897   0.362   4.040   4.087 -0.2106  0.0477  0.1873
 4755SOL    HW125898   0.339   4.133   4.087  1.1391  0.3865  0.0256
 4755SOL    HW225899   0.332   4.015   4.174  0.8114  0.0385  0.5345
 4756SOL     OW25900   1.132   4.375   5.337 -0.1975  0.5114 -0.8351
 4756SOL    HW125901   1.061   4.436   5.359 -1.6206 -0.2002 -3.4205
 4756SOL    HW225902   1.209   4.424   5.368 -0.6378  0.8525 -0.2905
 4757SOL     OW25903   1.621   0.126   2.492  0.4797  0.1768  0.1100
 4757SOL    HW125904   1.662   0.046   2.458 -1.4635 -0.9434  0.3434
 4757SOL    HW225905   1.623   0.101   2.584 -2.0484  0.1569  0.1603
 4758SOL     OW25906   2.813   2.137  15.281 -0.1772 -0.4922 -0.2494
 4758SOL    HW125907   2.886   2.200  15.285 -1.0048  0.3408  1.7661
 4758SOL    HW225908   2.774   2.137  15.368 -1.1945 -2.5499 -0.7161
 4759SOL     OW25909   2.061   3.365   8.303 -0.1094  0.7528  0.2825
 4759SOL    HW125910   2.080   3.342   8.394  3.0195  0.5370 -0.4444
 4759SOL    HW225911   2.052   3.276   8.269  1.4501  0.9541 -0.6243
 4760SOL     OW25912   2.568   4.028   4.591 -0.2267  0.8437  0.1186
 4760SOL    HW125913   2.545   4.072   4.509  2.3073  1.2227 -0.3807
 4760SOL    HW225914   2.663   4.033   4.585 -0.2011 -2.1898 -1.6604
 4761SOL     OW25915   3.887   0.067  15.771  0.2843 -0.0885  0.3101
 4761SOL    HW125916   3.832   0.080  15.849 -0.6886 -0.6218 -0.2880
 4761SOL    HW225917   3.971   0.034  15.803 -0.6870 -0.4061  2.5176
 4762SOL     OW25918   1.557   3.593  17.597 -0.6293 -0.3170  0.6974
 4762SOL    HW125919   1.612   3.516  17.581  0.3479  0.6157 -0.4194
 4762SOL    HW225920   1.482   3.548  17.635 -0.5409 -0.2281  0.9785
 4763SOL     OW25921   0.636   4.714   4.199 -0.2580 -0.1992 -0.1409
 4763SOL    HW125922   0.593   0.002   4.116 -1.0402  1.8072  0.8519
 4763SOL    HW225923   0.597   4.628   4.213 -1.3252  0.6419  1.9716
 4764SOL     OW25924   1.257   1.411   4.368 -0.5953  0.3294  0.0168
 4764SOL    HW125925   1.317   1.485   4.381  0.0190 -0.1158 -0.2690
 4764SOL    HW225926   1.222   1.407   4.457 -1.1344  0.4705 -0.1915
 4765SOL     OW25927   0.555   4.472   1.975  0.4397 -0.7272  0.3874
 4765SOL    HW125928   0.476   4.513   2.010  0.6397  0.0037 -0.0186
 4765SOL    HW225929   0.594   4.542   1.922 -0.1324 -1.3032 -0.7992
 4766SOL     OW25930   3.777   0.193  12.299  0.1574 -0.0982 -0.1542
 4766SOL    HW125931   3.870   0.208  12.313 -0.2720 -0.3386  2.9577
 4766SOL    HW225932   3.748   0.212  12.388 -2.0975 -0.5701 -0.7789
 4767SOL     OW25933   2.701   0.888   4.925 -0.0036  0.1463 -0.4218
 4767SOL    HW125934   2.754   0.962   4.895 -2.6289  1.3348 -2.1312
 4767SOL    HW225935   2.620   0.920   4.965  0.6134  0.8101  0.2955
 4768SOL     OW25936   4.023   1.369   7.426  0.1899  0.1787 -0.3276
 4768SOL    HW125937   4.087   1.311   7.386  0.9726  0.9472 -0.1767
 4768SOL    HW225938   3.937   1.330   7.410 -0.5790  1.4056  0.7771
 4769SOL     OW25939   0.373   3.837  13.019  0.1362  0.7801  0.2199
 4769SOL    HW125940   0.436   3.858  13.088  1.2733  0.0142 -0.5824
 4769SOL    HW225941   0.316   3.764  13.040 -1.8736  1.9531 -1.1223
 4770SOL     OW25942   4.065   0.387  16.458  0.7936  0.0013  0.1042
 4770SOL    HW125943   4.067   0.303  16.504 -2.7046  0.5221  1.1607
 4770SOL    HW225944   4.148   0.385  16.410  0.7707 -0.6580  0.0909
 4771SOL     OW25945   2.812   3.820   1.283 -0.4884 -0.3550 -0.2806
 4771SOL    HW125946   2.721   3.832   1.254 -0.8920 -0.7702  0.8091
 4771SOL    HW225947   2.835   3.911   1.300  0.4834 -0.4664 -1.0059
 4772SOL     OW25948   3.024   1.412   7.317 -0.1593  0.1557 -0.0442
 4772SOL    HW125949   3.090   1.479   7.303  0.7952 -0.7966 -0.1176
 4772SOL    HW225950   2.940   1.458   7.317 -0.3346 -0.1597  0.0493
 4773SOL     OW25951   1.779   1.231   4.187 -0.2094 -0.6095 -0.1466
 4773SOL    HW125952   1.838   1.275   4.248  1.6894 -1.9235 -1.0274
 4773SOL    HW225953   1.838   1.234   4.112  0.6978 -0.1416  0.5866
 4774SOL     OW25954   4.212   3.417  10.180  0.4016 -0.1498  0.4209
 4774SOL    HW125955   4.263   3.483  10.133  2.0414  1.3680  4.3857
 4774SOL    HW225956   4.123   3.449  10.168  1.4357  2.5228 -0.1840
 4775SOL     OW25957   4.307   4.402   3.097 -0.2297  0.0116 -0.1881
 4775SOL    HW125958   4.288   4.309   3.085  0.2935 -0.1927  0.5469
 4775SOL    HW225959   4.271   4.424   3.182  0.5323  1.1673 -0.1579
 4776SOL     OW25960   2.769   1.941   4.668 -0.2524 -0.0158  0.2035
 4776SOL    HW125961   2.837   1.999   4.703 -0.3345 -1.2102  2.3893
 4776SOL    HW225962   2.692   1.977   4.712 -0.5908  1.9649 -2.0609
 4777SOL     OW25963   2.829   4.647   9.462  0.1465 -0.3449  0.0086
 4777SOL    HW125964   2.915   4.683   9.485  0.2798 -0.1102 -0.8521
 4777SOL    HW225965   2.858   4.566   9.420  0.4425 -0.2452  0.0169
 4778SOL     OW25966   4.399   2.823   9.042 -0.2994  0.0770  0.1036
 4778SOL    HW125967   4.357   2.762   9.102 -0.1147  0.0654  0.2195
 4778SOL    HW225968   4.467   2.853   9.102  1.8512 -1.6286 -1.4523
 4779SOL     OW25969   3.403   2.139   1.757  0.5510  0.2886  0.2764
 4779SOL    HW125970   3.401   2.198   1.833  0.0210  0.8350 -0.1665
 4779SOL    HW225971   3.472   2.076   1.778 -1.0034 -1.2881  0.5991
 4780SOL     OW25972   4.574   2.047  16.907  0.5615 -0.8737 -0.0728
 4780SOL    HW125973   4.491   2.093  16.924  0.8215 -0.0661 -0.9904
 4780SOL    HW225974   4.577   2.044  16.811  1.1487 -1.7554 -0.0262
 4781SOL     OW25975   0.280   1.663   2.939  0.2794  0.1233 -0.4167
 4781SOL    HW125976   0.308   1.572   2.924 -1.8947 -0.5627 -0.4189
 4781SOL    HW225977   0.190   1.644   2.965 -0.1613 -0.0337 -2.0504
 4782SOL     OW25978   3.761   4.195   7.291 -0.9058 -0.2786  0.0944
 4782SOL    HW125979   3.784   4.141   7.367  0.8313  0.9361  0.4419
 4782SOL    HW225980   3.763   4.127   7.224 -1.0859  0.2339 -0.4224
 4783SOL     OW25981   3.557   1.874  10.313 -0.3495 -0.1566 -0.1811
 4783SOL    HW125982   3.469   1.855  10.280  0.4025 -2.0637 -1.0775
 4783SOL    HW225983   3.605   1.826  10.246  0.7898  1.1142 -0.2827
 4784SOL     OW25984   2.322   3.062  10.550 -0.4535 -0.1553 -0.2617
 4784SOL    HW125985   2.311   3.072  10.455 -1.7488 -1.7293 -0.2667
 4784SOL    HW225986   2.249   3.117  10.581  1.4950  1.0028  2.2401
 4785SOL     OW25987   3.504   2.854  13.542  0.3183  0.6785  0.2524
 4785SOL    HW125988   3.552   2.786  13.495 -0.6298 -0.2704  0.6586
 4785SOL    HW225989   3.558   2.852  13.621  2.3051  1.9199 -1.0826
 4786SOL     OW25990   1.371   0.386   6.276 -0.4932  0.0337  0.1617
 4786SOL    HW125991   1.376   0.372   6.371  0.6004 -0.3255  0.0597
 4786SOL    HW225992   1.280   0.405   6.255  0.1698  4.7306  1.5008
 4787SOL     OW25993   3.568   3.412   2.748 -0.4603  0.4541 -0.1468
 4787SOL    HW125994   3.658   3.383   2.735 -0.6309 -0.0349 -0.2763
 4787SOL    HW225995   3.530   3.329   2.777 -0.5563  0.7256  0.5068
 4788SOL     OW25996   4.335   3.121   0.559  0.6398  0.0399 -0.4526
 4788SOL    HW125997   4.290   3.176   0.494  0.9775 -0.0226 -0.7338
 4788SOL    HW225998   4.302   3.161   0.640  0.4411 -2.2764  0.5957
 4789SOL     OW25999   4.059   4.187  15.574  0.3635  0.2792 -0.2742
 4789SOL    HW126000   4.033   4.248  15.505 -0.7480  2.4256  2.0334
 4789SOL    HW226001   4.054   4.241  15.653  0.3491 -0.7680  0.4479
 4790SOL     OW26002   0.540   4.387   2.366 -0.1798 -0.1026  0.5467
 4790SOL    HW126003   0.462   4.332   2.378 -0.8674  0.3271 -2.0959
 4790SOL    HW226004   0.613   4.327   2.380  0.1836 -0.0016 -0.9533
 4791SOL     OW26005   3.495   3.365   0.023  0.3810  0.4630 -0.1737
 4791SOL    HW126006   3.490   3.452   0.063 -1.8881  0.3455 -0.2094
 4791SOL    HW226007   3.410   3.363  17.722  0.7895  0.6206 -0.9830
 4792SOL     OW26008   2.305   4.718   8.954 -0.2124 -0.1035 -0.4581
 4792SOL    HW126009   2.347   4.655   9.014  0.5804 -0.8758 -1.8326
 4792SOL    HW226010   2.383   0.002   8.903 -0.1534 -2.3434 -1.2607
 4793SOL     OW26011   4.307   3.341   5.595  0.2968  0.4157 -0.2854
 4793SOL    HW126012   4.384   3.324   5.540  1.3778  2.7494  0.4846
 4793SOL    HW226013   4.307   3.260   5.647  1.8525  1.2755  1.0442
 4794SOL     OW26014   1.724   3.153   6.136 -0.5925 -0.1082  0.3207
 4794SOL    HW126015   1.702   3.134   6.227 -2.4702 -3.0449 -0.7639
 4794SOL    HW226016   1.650   3.105   6.100 -1.2150  0.9799  0.1377
 4795SOL     OW26017   4.117   2.937   1.382 -0.4002 -0.2714  0.8469
 4795SOL    HW126018   4.207   2.911   1.364  0.1875  0.4930  2.8058
 4795SOL    HW226019   4.089   2.968   1.296  1.0701 -0.8520  0.1597
 4796SOL     OW26020   3.095   3.907   4.436 -0.0720  0.5913  0.4614
 4796SOL    HW126021   3.159   3.871   4.496  0.4339  1.4649  0.4392
 4796SOL    HW226022   3.138   3.909   4.350 -0.1364 -1.4680  0.3832
 4797SOL     OW26023   1.768   3.223   8.984 -0.0684  0.2803  0.2278
 4797SOL    HW126024   1.732   3.300   9.027 -1.1242  0.2240 -0.5561
 4797SOL    HW226025   1.861   3.230   9.004 -0.0602  0.7047  0.0483
 4798SOL     OW26026   0.979   1.009   3.890  0.2335  0.0774  0.2051
 4798SOL    HW126027   1.007   1.027   3.979  2.7675  0.0580 -0.5948
 4798SOL    HW226028   1.049   0.954   3.857 -0.7645 -0.4330 -1.0799
 4799SOL     OW26029   2.335   3.873  11.087 -0.0323 -0.1273 -0.1832
 4799SOL    HW126030   2.364   3.919  11.009  0.8936 -1.1648 -0.4364
 4799SOL    HW226031   2.252   3.830  11.067  0.8569 -0.9556 -2.0654
 4800SOL     OW26032   0.211   1.277   8.236 -0.0634  0.5214  0.3819
 4800SOL    HW126033   0.276   1.347   8.244  0.3269  0.4230 -1.9239
 4800SOL    HW226034   0.158   1.279   8.316 -0.7522  0.0088 -0.0680
 4801SOL     OW26035   4.565   2.644   3.330 -0.3641 -0.9027 -0.3675
 4801SOL    HW126036   4.501   2.626   3.399 -0.1787  3.4467  0.9598
 4801SOL    HW226037   4.578   2.736   3.356 -4.2576 -0.1205 -1.2328
 4802SOL     OW26038   3.164   0.438  17.464 -0.0648 -0.0443 -0.5991
 4802SOL    HW126039   3.251   0.399  17.471 -0.3697 -1.1434 -2.7485
 4802SOL    HW226040   3.100   0.369  17.478 -0.6124  0.8734  1.3784
 4803SOL     OW26041   3.558   1.183   6.621 -0.0384  0.1506 -0.1516
 4803SOL    HW126042   3.597   1.100   6.594 -1.0390 -0.5721  0.5641
 4803SOL    HW226043   3.476   1.171   6.573 -0.2638  0.4157  0.1631
 4804SOL     OW26044   4.096   2.084   5.350 -0.1817  0.1549 -0.1833
 4804SOL    HW126045   4.137   2.069   5.265 -0.6010  4.0078 -1.0711
 4804SOL    HW226046   4.010   2.120   5.328  0.4187  1.5358 -0.2736
 4805SOL     OW26047   2.594   2.645   6.810 -0.3824  0.1908  0.3500
 4805SOL    HW126048   2.526   2.712   6.819 -2.2528 -1.8944  1.6340
 4805SOL    HW226049   2.572   2.608   6.725 -2.2762 -1.0356  1.3642
 4806SOL     OW26050   2.164   4.606   6.468 -0.0005 -0.3139 -0.0880
 4806SOL    HW126051   2.121   4.534   6.423  1.9680 -1.4281 -0.1811
 4806SOL    HW226052   2.232   4.551   6.507  0.0470 -0.0687  0.1758
 4807SOL     OW26053   0.466   0.058   7.050 -0.5738 -0.1016  0.1090
 4807SOL    HW126054   0.380   0.052   7.008 -0.1519 -0.6587 -0.6593
 4807SOL    HW226055   0.497   4.708   7.023 -2.2882 -0.7990  0.3661
 4808SOL     OW26056   2.607   3.226   2.750 -0.1583  1.0450 -0.1005
 4808SOL    HW126057   2.641   3.311   2.723  0.1716  1.2040  0.8078
 4808SOL    HW226058   2.671   3.172   2.705 -1.1613  0.1698 -0.4775
 4809SOL     OW26059   1.817   0.079  11.516 -0.1747 -0.1427 -0.3177
 4809SOL    HW126060   1.770   0.090  11.434  0.1188 -0.5583 -0.5430
 4809SOL    HW226061   1.748   0.052  11.577 -0.5253 -2.5195 -1.7480
 4810SOL     OW26062   3.985   3.619  17.739  0.1029 -0.2788 -0.6790
 4810SOL    HW126063   3.909   3.673  17.716  0.3878  0.9449  1.2083
 4810SOL    HW226064   3.961   3.548  17.680 -0.8684 -1.5479  1.2592
 4811SOL     OW26065   2.832   2.529   2.746 -0.3832  0.0031 -0.0819
 4811SOL    HW126066   2.786   2.445   2.738 -0.0588 -0.1010 -0.8845
 4811SOL    HW226067   2.840   2.550   2.653  0.7416  0.4420  0.1081
 4812SOL     OW26068   2.105   2.833   1.219 -0.5440 -0.2566  0.0945
 4812SOL    HW126069   2.120   2.739   1.235 -0.5877 -0.8099 -3.1643
 4812SOL    HW226070   2.182   2.868   1.265 -1.6421  3.2060 -0.7765
 4813SOL     OW26071   1.930   1.705   6.313  0.9162 -0.2027 -0.2129
 4813SOL    HW126072   2.013   1.691   6.359  1.6164 -0.7184 -1.6330
 4813SOL    HW226073   1.948   1.672   6.225  2.4221  2.1233 -0.7736
 4814SOL     OW26074   4.262   4.086   0.749  0.0860 -0.1097  0.3060
 4814SOL    HW126075   4.311   4.158   0.711 -0.0030 -0.4117 -0.3879
 4814SOL    HW226076   4.326   4.016   0.737  1.6375  1.0960  1.5981
 4815SOL     OW26077   0.982   4.706  10.037  0.4298  0.1741 -0.3904
 4815SOL    HW126078   0.902   4.681   9.991  0.6076  1.9383 -1.6534
 4815SOL    HW226079   0.957   0.053  10.079  0.0931  1.2124 -2.6561
 4816SOL     OW26080   3.388   4.485  12.219  0.0509  0.3363 -0.3553
 4816SOL    HW126081   3.375   4.392  12.199 -2.2529  1.2206 -3.1049
 4816SOL    HW226082   3.379   4.487  12.314  1.0730 -0.6455 -0.2328
 4817SOL     OW26083   1.613   1.062   5.124  0.0911  0.6025  0.1851
 4817SOL    HW126084   1.519   1.061   5.107 -0.0012  2.3817  0.5883
 4817SOL    HW226085   1.636   0.969   5.127  0.8429  0.7842  0.1026
 4818SOL     OW26086   2.819   2.251   7.905 -0.2853  0.2828 -0.1163
 4818SOL    HW126087   2.740   2.222   7.859 -0.6990 -0.4541  1.0432
 4818SOL    HW226088   2.802   2.343   7.924  1.6827  0.2622  1.7036
 4819SOL     OW26089   4.458   1.377   1.658  0.2045 -0.0102  0.1143
 4819SOL    HW126090   4.509   1.310   1.612  0.3356  0.9787 -1.1987
 4819SOL    HW226091   4.518   1.451   1.646 -0.0798  0.0819 -0.7343
 4820SOL     OW26092   1.915   1.913   4.968 -0.8392 -0.8294 -0.3738
 4820SOL    HW126093   1.901   1.820   4.950 -0.1349 -1.4649  2.3340
 4820SOL    HW226094   1.992   1.921   5.025 -1.0694  0.9222 -0.3104
 4821SOL     OW26095   4.039   0.114   5.758 -0.2499 -0.3168 -0.0343
 4821SOL    HW126096   3.945   0.107   5.744 -0.1820 -2.2524  0.3871
 4821SOL    HW226097   4.035   0.176   5.831  0.5313  0.3602 -0.5671
 4822SOL     OW26098   1.470   2.767   4.690  0.5101  0.1762 -0.1636
 4822SOL    HW126099   1.426   2.851   4.680 -0.0733 -0.2839 -1.4863
 4822SOL    HW226100   1.554   2.793   4.652  2.1010 -2.5859  1.4824
 4823SOL     OW26101   2.772   3.467   8.076 -0.0212 -0.7591 -0.3586
 4823SOL    HW126102   2.832   3.541   8.086 -0.1404 -0.9566  1.8554
 4823SOL    HW226103   2.711   3.470   8.150 -1.2093  0.9163 -1.4133
 4824SOL     OW26104   4.577   4.216   5.295  0.0391 -0.3818 -0.0154
 4824SOL    HW126105   4.626   4.201   5.214 -1.8219 -0.4023 -1.1530
 4824SOL    HW226106   4.630   4.166   5.357  0.2861 -2.0607 -1.6023
 4825SOL     OW26107   0.053   0.128   0.360 -0.2363  0.1615 -0.0369
 4825SOL    HW126108   0.136   0.138   0.406  0.3217  1.4809 -1.3132
 4825SOL    HW226109   0.065   0.040   0.324  0.7569 -0.0693  0.8597
 4826SOL     OW26110   1.960   3.801   4.005  0.8884 -0.1104  0.0516
 4826SOL    HW126111   1.998   3.716   3.985  3.1793  1.0202 -0.4667
 4826SOL    HW226112   2.009   3.815   4.086 -0.0314 -3.3865  1.1470
 4827SOL     OW26113   3.476   1.885  16.132  0.1319  0.0950  0.0661
 4827SOL    HW126114   3.384   1.897  16.155  0.6987  2.7763  0.9365
 4827SOL    HW226115   3.522   1.896  16.215 -0.5103  0.9585  0.3059
 4828SOL     OW26116   2.500   2.568  11.336 -0.4802  0.0600 -0.2296
 4828SOL    HW126117   2.560   2.615  11.395 -3.0537  3.4139 -0.2785
 4828SOL    HW226118   2.562   2.505  11.300  0.4762 -0.6460  2.6253
 4829SOL     OW26119   2.275   4.301   3.931  0.1571  0.0100 -0.0464
 4829SOL    HW126120   2.266   4.396   3.934  1.1754  0.1793 -2.6445
 4829SOL    HW226121   2.232   4.277   3.849 -1.1801  1.0957  0.3424
 4830SOL     OW26122   3.952   1.937  13.696 -0.0737 -0.0171 -0.5754
 4830SOL    HW126123   4.017   2.007  13.689 -0.9784  0.8652 -0.2084
 4830SOL    HW226124   4.004   1.869  13.739 -0.7776  1.1590  2.1153
 4831SOL     OW26125   4.252   3.526   5.965 -0.7334 -0.0975 -0.6340
 4831SOL    HW126126   4.282   3.607   6.004 -2.7467 -0.1868  1.0429
 4831SOL    HW226127   4.200   3.554   5.889 -1.0114  3.6004  0.9623
 4832SOL     OW26128   2.327   2.084  14.019 -0.5695 -0.5683  0.1090
 4832SOL    HW126129   2.413   2.123  13.999 -1.2062  2.0382  2.4399
 4832SOL    HW226130   2.271   2.153  13.983  2.9355  2.1807 -0.1522
 4833SOL     OW26131   1.265   1.334   2.432 -0.0144 -0.1032  0.3621
 4833SOL    HW126132   1.243   1.424   2.456  1.5687  0.1948  0.7135
 4833SOL    HW226133   1.350   1.313   2.471  0.7456  1.4338 -0.4429
 4834SOL     OW26134   1.071   4.314   9.382 -0.2613 -0.6216 -0.3372
 4834SOL    HW126135   1.140   4.379   9.367 -0.6593  0.0443  0.7192
 4834SOL    HW226136   1.002   4.365   9.425 -0.5565  0.1572 -1.7194
 4835SOL     OW26137   1.404   3.225   5.097  0.2421  0.2314 -0.2677
 4835SOL    HW126138   1.443   3.269   5.022  1.0368 -0.4988 -0.2907
 4835SOL    HW226139   1.444   3.138   5.107 -1.3987 -0.4932 -0.0089
 4836SOL     OW26140   0.999   1.756   9.512  0.1354 -0.2012  0.3790
 4836SOL    HW126141   0.989   1.807   9.431  0.4181 -0.7845 -0.0256
 4836SOL    HW226142   0.951   1.676   9.490 -1.0951 -0.4604  4.0000
 4837SOL     OW26143   3.096   0.778   2.670  0.2217 -0.2812  0.2052
 4837SOL    HW126144   3.132   0.739   2.749  3.0922  0.2071 -0.8325
 4837SOL    HW226145   3.152   0.743   2.600  1.0102 -0.4927  0.9478
 4838SOL     OW26146   2.167   3.677   2.237  0.7251  0.0525  0.5039
 4838SOL    HW126147   2.204   3.674   2.325  0.9631 -0.0117  0.4023
 4838SOL    HW226148   2.104   3.605   2.233  0.3619  0.4233 -0.4455
 4839SOL     OW26149   0.043   2.750   3.935 -0.0979 -0.4448  0.2378
 4839SOL    HW126150   0.019   2.674   3.990  0.1629 -0.1798  0.7162
 4839SOL    HW226151   4.700   2.762   3.883  0.6183 -0.1760 -0.7768
 4840SOL     OW26152   2.897   0.846   9.668  0.3399 -0.2580  0.2226
 4840SOL    HW126153   2.914   0.904   9.742  1.6080  1.3146 -1.3236
 4840SOL    HW226154   2.982   0.821   9.631  1.5293  1.4918  1.7770
 4841SOL     OW26155   2.425   1.331   9.106  0.2507  0.2280  0.1795
 4841SOL    HW126156   2.337   1.295   9.107  0.9187 -1.3775  2.0613
 4841SOL    HW226157   2.435   1.366   9.195 -2.2343 -3.7231  1.9866
 4842SOL     OW26158   1.352   0.776   3.280  0.0604  0.2267 -0.5122
 4842SOL    HW126159   1.444   0.766   3.258  0.4223 -2.6353  2.2742
 4842SOL    HW226160   1.356   0.734   3.366 -2.3597 -0.0260 -0.5109
 4843SOL     OW26161   2.269   1.895  12.864 -0.3656 -0.0871 -0.3791
 4843SOL    HW126162   2.329   1.948  12.812  0.9506 -0.4298  0.7792
 4843SOL    HW226163   2.288   1.916  12.956  0.5272 -3.5711  0.2374
 4844SOL     OW26164   2.768   3.662   6.346  0.3926  0.2630 -0.4536
 4844SOL    HW126165   2.720   3.712   6.412 -0.1170 -1.7284  0.6710
 4844SOL    HW226166   2.823   3.726   6.301 -2.2489  0.6468 -3.1965
 4845SOL     OW26167   0.253   2.044   6.799  0.2013 -0.1858 -0.7017
 4845SOL    HW126168   0.231   2.104   6.728  0.5264  0.1219 -0.5443
 4845SOL    HW226169   0.310   1.985   6.750  0.1674  1.8879 -3.2649
 4846SOL     OW26170   4.123   0.512  10.180 -0.0689 -0.1366  0.2920
 4846SOL    HW126171   4.124   0.589  10.237  1.9460  1.2586 -1.6518
 4846SOL    HW226172   4.060   0.537  10.113  2.2990  2.7834 -0.8275
 4847SOL     OW26173   4.491   2.639   5.803 -0.7743 -0.6076  0.1291
 4847SOL    HW126174   4.428   2.575   5.835  0.4907 -1.1851  1.4502
 4847SOL    HW226175   4.538   2.587   5.738 -0.2372 -0.5939  0.5082
 4848SOL     OW26176   0.129   3.347  16.680  0.2612  0.2775  0.4496
 4848SOL    HW126177   0.174   3.354  16.596 -0.4627  0.4137  0.0738
 4848SOL    HW226178   0.073   3.424  16.667 -1.6306 -1.4347 -1.5395
 4849SOL     OW26179   3.932   3.943   4.180 -0.3531  0.3243 -0.3406
 4849SOL    HW126180   3.937   3.889   4.259 -0.3356 -2.0558 -1.9632
 4849SOL    HW226181   3.906   3.873   4.121  1.9351 -2.6104  2.1612
 4850SOL     OW26182   2.834   0.577   5.492 -0.3253 -0.0766 -0.4483
 4850SOL    HW126183   2.742   0.556   5.510 -0.4785 -1.6688 -3.1597
 4850SOL    HW226184   2.862   0.506   5.435 -1.8149 -1.0472  0.0200
 4851SOL     OW26185   3.430   1.187   3.086  0.3610 -0.0009 -0.4583
 4851SOL    HW126186   3.348   1.225   3.118 -0.7463 -0.8702 -2.2101
 4851SOL    HW226187   3.487   1.263   3.073 -1.8744  1.5171 -1.3660
 4852SOL     OW26188   3.082   3.572   8.135  0.3777 -0.1403  0.0224
 4852SOL    HW126189   3.118   3.542   8.218 -1.3145  1.3902  1.3119
 4852SOL    HW226190   3.153   3.632   8.112  0.6375 -0.1074  0.9060
 4853SOL     OW26191   2.675   2.754  10.661  0.0756 -0.1027 -0.5305
 4853SOL    HW126192   2.756   2.794  10.693  0.3876  0.1873 -1.6666
 4853SOL    HW226193   2.655   2.833  10.611  0.4724 -1.2587 -2.5478
 4854SOL     OW26194   3.884   2.641  15.841  0.0945 -0.3752 -0.1327
 4854SOL    HW126195   3.887   2.721  15.788  2.8422  0.6689  1.5895
 4854SOL    HW226196   3.816   2.589  15.800 -1.3113  1.1548  0.2729
 4855SOL     OW26197   0.374   2.761  10.788 -0.3157  0.6298  0.3002
 4855SOL    HW126198   0.289   2.740  10.826  0.9038 -0.6094  2.3824
 4855SOL    HW226199   0.381   2.720  10.702  1.1793 -1.4719  1.3988
 4856SOL     OW26200   2.310   2.071   5.519 -0.0283 -0.1423 -0.0705
 4856SOL    HW126201   2.316   2.156   5.562  0.2938 -0.8307  1.2628
 4856SOL    HW226202   2.349   2.008   5.580  0.9954  0.0218 -0.5597
 4857SOL     OW26203   1.555   3.029   7.005  0.0038  0.1587  0.6739
 4857SOL    HW126204   1.520   3.113   6.974 -0.2991 -0.4854 -0.7468
 4857SOL    HW226205   1.650   3.040   7.005  0.1847 -1.4665 -0.6011
 4858SOL     OW26206   1.872   0.050  12.233 -0.4777  0.0944  0.6668
 4858SOL    HW126207   1.871   0.036  12.328 -0.5905 -4.2643  0.0289
 4858SOL    HW226208   1.880   0.145  12.222  0.7719 -0.1228 -0.2754
 4859SOL     OW26209   4.546   3.700   3.054  0.4108 -0.0891  0.5443
 4859SOL    HW126210   4.570   3.611   3.080  1.5850 -0.2219 -0.9258
 4859SOL    HW226211   4.561   3.698   2.959 -1.0732 -1.5350  0.3412
 4860SOL     OW26212   1.864   1.306   5.992  0.1879  1.0754 -0.5308
 4860SOL    HW126213   1.912   1.362   6.053 -0.9194  0.8308  0.5892
 4860SOL    HW226214   1.934   1.287   5.930  1.1898  1.2628  0.5380
 4861SOL     OW26215   3.057   2.478   2.907 -0.0901  0.1192  0.3490
 4861SOL    HW126216   3.028   2.389   2.926  4.2042 -1.0559  1.4519
 4861SOL    HW226217   2.981   2.510   2.859  1.0805 -0.6436 -2.0045
 4862SOL     OW26218   3.325   1.510   3.220  0.0363  0.4961  0.2264
 4862SOL    HW126219   3.332   1.436   3.281  0.3418 -0.5823 -1.1192
 4862SOL    HW226220   3.419   1.528   3.225  0.3843 -1.2425  0.1128
 4863SOL     OW26221   2.976   4.181   6.635 -0.5718  0.2073  0.6796
 4863SOL    HW126222   3.033   4.154   6.563 -0.4313 -1.0571  1.2766
 4863SOL    HW226223   2.910   4.229   6.585  1.3880  1.2465 -0.9255
 4864SOL     OW26224   0.351   3.162   1.972 -0.4344  0.1149  0.2409
 4864SOL    HW126225   0.418   3.220   1.935 -0.5408 -0.0630 -0.2368
 4864SOL    HW226226   0.407   3.105   2.023 -0.1600  1.3502  1.3290
 4865SOL     OW26227   3.858   3.821   6.473  0.3401  0.9246 -0.2858
 4865SOL    HW126228   3.803   3.790   6.401 -0.2351  0.6136  0.2842
 4865SOL    HW226229   3.801   3.797   6.546 -1.7377  3.5746 -1.0415
 4866SOL     OW26230   2.703   3.144  11.920 -0.2949  0.1751  0.0386
 4866SOL    HW126231   2.729   3.232  11.895 -1.3693  0.7067  0.8210
 4866SOL    HW226232   2.743   3.087  11.855 -0.2392 -1.0994  1.1814
 4867SOL     OW26233   2.824   4.367   1.350  0.1156  0.0676  0.4630
 4867SOL    HW126234   2.801   4.456   1.375 -2.1431 -0.0880 -1.1018
 4867SOL    HW226235   2.761   4.323   1.407 -1.9865  1.7557 -0.5549
 4868SOL     OW26236   2.295   2.686   7.350  0.3175  0.3837  0.7337
 4868SOL    HW126237   2.229   2.681   7.281  1.0024  0.3624  0.0831
 4868SOL    HW226238   2.370   2.644   7.308  0.6237  1.3601  0.2995
 4869SOL     OW26239   1.194   0.271   3.907  0.2452  0.1585  0.1152
 4869SOL    HW126240   1.159   0.192   3.948  0.8659  1.5786  3.3817
 4869SOL    HW226241   1.208   0.313   3.992 -2.7316  1.2933  0.0383
 4870SOL     OW26242   2.122   0.955  12.512  0.1694  0.5420 -0.2724
 4870SOL    HW126243   2.143   0.927  12.423  1.3569 -0.5991  0.3738
 4870SOL    HW226244   2.086   0.875  12.548 -0.2720 -0.2358 -2.4278
 4871SOL     OW26245   2.486   1.500   4.018 -0.0082  0.3225 -0.3564
 4871SOL    HW126246   2.502   1.535   4.105 -0.0356  1.7640 -0.9295
 4871SOL    HW226247   2.390   1.501   4.019 -0.0546 -0.0757 -2.9201
 4872SOL     OW26248   1.083   2.588   4.221  0.0095 -0.6029 -0.5031
 4872SOL    HW126249   1.101   2.499   4.251  1.6323 -0.2781 -0.4957
 4872SOL    HW226250   1.050   2.622   4.304 -0.9128  0.0517 -1.1462
 4873SOL     OW26251   3.189   2.442   2.464  0.1766 -0.6887 -1.1015
 4873SOL    HW126252   3.154   2.485   2.386  0.5019  1.0623 -0.2974
 4873SOL    HW226253   3.118   2.383   2.487 -0.8205  0.9531 -0.0011
 4874SOL     OW26254   2.136   1.276   1.064  0.4141  0.4290  0.5196
 4874SOL    HW126255   2.079   1.295   0.990  0.6149 -0.1807  0.2069
 4874SOL    HW226256   2.152   1.183   1.045  1.7470  0.5005  1.2829
 4875SOL     OW26257   0.502   2.905  12.491 -0.6005 -0.5408 -0.2887
 4875SOL    HW126258   0.446   2.875  12.563  1.7526 -0.9125  1.3835
 4875SOL    HW226259   0.456   2.857  12.421 -0.6384 -0.1857 -0.5061
 4876SOL     OW26260   4.647   0.252   5.246  0.4402  0.0914 -0.4289
 4876SOL    HW126261   4.611   0.340   5.261 -2.3067 -1.3554  1.5191
 4876SOL    HW226262   4.569   0.197   5.255  0.3016  0.6509  1.8567
 4877SOL     OW26263   1.974   2.933   3.162  0.3779  0.0618  0.2111
 4877SOL    HW126264   1.971   2.839   3.181 -1.4536 -0.2513 -1.5953
 4877SOL    HW226265   2.068   2.945   3.156  0.1357  1.0252 -1.4578
 4878SOL     OW26266   1.607   4.027   5.889 -0.3375  0.3028 -0.2479
 4878SOL    HW126267   1.655   4.034   5.806  0.3077  0.5865  0.1460
 4878SOL    HW226268   1.624   3.934   5.903 -0.2712  0.3798  0.1869
 4879SOL     OW26269   2.461   0.419   3.439  0.1831  0.5545 -0.2497
 4879SOL    HW126270   2.524   0.414   3.511 -0.7104  2.1913  0.6534
 4879SOL    HW226271   2.529   0.433   3.373  1.4795 -0.4723  0.8492
 4880SOL     OW26272   4.688   2.967   0.757 -0.2339 -0.3423  0.2492
 4880SOL    HW126273   4.654   3.006   0.838 -1.2034 -1.1745  0.2525
 4880SOL    HW226274   0.013   3.030   0.720  0.6440 -1.0567  0.4982
 4881SOL     OW26275   1.107   4.586   7.134  0.2820  0.4230  0.2851
 4881SOL    HW126276   1.133   4.539   7.055  1.9507  0.6854  0.6747
 4881SOL    HW226277   1.152   4.669   7.116 -0.7899  1.0250  0.3769
 4882SOL     OW26278   4.285   3.010  10.824  0.0756  0.5890 -0.1003
 4882SOL    HW126279   4.368   2.993  10.780 -0.3889 -0.4932 -0.5315
 4882SOL    HW226280   4.300   3.080  10.888  1.0893 -0.4264  0.7708
 4883SOL     OW26281   2.656   4.680   8.245 -0.2043  0.1695 -0.3270
 4883SOL    HW126282   2.581   4.632   8.212  1.4752 -1.3251 -1.9426
 4883SOL    HW226283   2.707   4.694   8.165 -0.2179 -0.7526 -0.4987
 4884SOL     OW26284   4.252   1.221  10.371 -0.3274  0.1035 -0.1550
 4884SOL    HW126285   4.263   1.208  10.465  1.7131 -0.6730 -0.5123
 4884SOL    HW226286   4.166   1.179  10.381 -0.0955 -0.1445  0.8040
 4885SOL     OW26287   1.250   0.859  10.248 -0.5622  0.0897 -0.2840
 4885SOL    HW126288   1.283   0.927  10.189 -0.0103  0.5313  0.5292
 4885SOL    HW226289   1.332   0.821  10.279  0.1687  1.7186 -0.2405
 4886SOL     OW26290   0.042   0.795   3.941  0.4753 -0.0454 -0.1274
 4886SOL    HW126291   0.105   0.734   3.905  0.8974  0.9544 -1.0953
 4886SOL    HW226292   4.731   0.834   3.867  1.2460  1.2622  0.0694
 4887SOL     OW26293   0.198   2.753  12.502 -0.8263  0.4545  0.4771
 4887SOL    HW126294   0.175   2.691  12.572  1.7449  1.2716  2.0617
 4887SOL    HW226295   0.216   2.838  12.543 -2.9089  1.2253 -0.2187
 4888SOL     OW26296   2.278   0.393   6.053  0.4079 -0.0411 -0.2518
 4888SOL    HW126297   2.338   0.331   6.094 -0.1015 -0.0093  0.5475
 4888SOL    HW226298   2.216   0.334   6.010 -1.5497  1.6065  0.2710
 4889SOL     OW26299   4.663   4.436   6.628  0.0011  0.9531 -0.2665
 4889SOL    HW126300   4.656   4.343   6.606 -0.2471  0.8163  0.3923
 4889SOL    HW226301   4.602   4.442   6.701  0.0140  0.9562 -0.2560
 4890SOL     OW26302   3.845   4.056   3.087  0.1120 -0.5563 -0.4550
 4890SOL    HW126303   3.768   4.111   3.106  0.0384 -0.3907 -1.2693
 4890SOL    HW226304   3.833   4.042   2.993 -1.4127 -2.1194 -0.0365
 4891SOL     OW26305   1.418   3.883   3.094  0.3190  0.2782 -0.7285
 4891SOL    HW126306   1.402   3.971   3.061 -0.5262  1.0387  1.6912
 4891SOL    HW226307   1.422   3.900   3.188  0.0945 -1.3905 -0.4075
 4892SOL     OW26308   2.405   2.379   4.244  0.0177 -0.3042  0.6264
 4892SOL    HW126309   2.381   2.343   4.330 -0.7486 -0.3848  0.3784
 4892SOL    HW226310   2.327   2.431   4.229  2.3639  2.7492 -0.9231
 4893SOL     OW26311   1.973   4.317   7.343 -0.2553 -0.4413  0.5596
 4893SOL    HW126312   1.919   4.345   7.416 -0.4006  0.8087 -0.0373
 4893SOL    HW226313   2.055   4.352   7.378 -1.5987  2.8829  0.2810
 4894SOL     OW26314   3.795   1.856   7.277  0.0917 -0.0046 -0.0599
 4894SOL    HW126315   3.712   1.850   7.323 -0.5369  1.0575 -1.0338
 4894SOL    HW226316   3.844   1.779   7.304 -1.5410 -0.5527  1.2725
 4895SOL     OW26317   2.119   1.325   5.871 -0.2664 -0.1401  0.0820
 4895SOL    HW126318   2.112   1.325   5.775 -1.2879  0.5965  0.1458
 4895SOL    HW226319   2.145   1.417   5.881 -0.1948 -0.1165 -0.3066
 4896SOL     OW26320   3.830   0.900   4.759  0.6361 -0.0897  0.3168
 4896SOL    HW126321   3.789   0.859   4.683  1.6082 -1.2819  0.4182
 4896SOL    HW226322   3.813   0.987   4.724 -0.2617 -0.7247 -0.8328
 4897SOL     OW26323   4.427   0.188  14.494 -0.5016  0.1836  0.8013
 4897SOL    HW126324   4.415   0.208  14.401  0.6543 -0.4858  0.5128
 4897SOL    HW226325   4.346   0.229  14.527 -1.5601 -1.1494 -0.1319
 4898SOL     OW26326   0.743   2.303   3.436  0.5807 -0.0858  0.4376
 4898SOL    HW126327   0.834   2.308   3.405  0.6449 -0.6002  0.5456
 4898SOL    HW226328   0.689   2.318   3.359  2.1961 -1.0955 -0.8971
 4899SOL     OW26329   2.045   2.899   7.753  0.2043 -0.0119  0.4120
 4899SOL    HW126330   2.042   2.877   7.846  0.3017  0.9165  0.6338
 4899SOL    HW226331   2.076   2.818   7.711 -1.3784  0.1478 -1.0775
 4900SOL     OW26332   4.147   3.536   6.702 -0.1866  0.5299  0.1714
 4900SOL    HW126333   4.242   3.551   6.704  0.0923 -1.0995 -0.6579
 4900SOL    HW226334   4.121   3.576   6.619 -1.6631  0.2932  0.5212
 4901SOL     OW26335   3.539   2.600  17.324 -0.0489 -0.2773 -0.4305
 4901SOL    HW126336   3.561   2.520  17.275 -1.0816 -0.0652 -1.2542
 4901SOL    HW226337   3.491   2.642  17.252 -1.8150  1.1699  1.6225
 4902SOL     OW26338   2.673   1.427   8.114  0.4898  0.0135 -0.1301
 4902SOL    HW126339   2.639   1.480   8.186 -0.3867  2.2578 -2.1964
 4902SOL    HW226340   2.761   1.465   8.114  0.0405  1.0557 -3.8270
 4903SOL     OW26341   1.353   4.337   9.019  0.0559 -0.0285  0.2701
 4903SOL    HW126342   1.263   4.307   9.014 -0.0613  0.4271 -0.4222
 4903SOL    HW226343   1.339   4.432   9.018  0.4158  0.0145 -0.8580
 4904SOL     OW26344   3.269   3.060   8.015  0.0025 -0.3262 -0.9591
 4904SOL    HW126345   3.179   3.028   8.022  0.1332 -0.8461 -1.7411
 4904SOL    HW226346   3.248   3.137   7.964 -0.0588 -0.4426 -1.1086
 4905SOL     OW26347   1.085   0.630   7.187 -0.4566  0.0755 -0.7249
 4905SOL    HW126348   1.062   0.709   7.136 -3.2775 -1.7711 -2.3105
 4905SOL    HW226349   1.015   0.570   7.163 -1.8084  1.9496 -1.5456
 4906SOL     OW26350   2.937   1.218   8.225  0.0262  0.1275 -0.1119
 4906SOL    HW126351   2.871   1.253   8.285  1.5865  0.6596  1.2935
 4906SOL    HW226352   2.969   1.148   8.281  1.0376 -0.6465 -1.6516
 4907SOL     OW26353   3.974   4.016   4.589 -0.1504 -0.9029 -0.1353
 4907SOL    HW126354   3.937   4.100   4.561 -0.0888 -1.2370 -1.2249
 4907SOL    HW226355   4.035   4.043   4.658 -0.9533  1.0480 -0.1839
 4908SOL     OW26356   0.260   0.546   3.602  0.4287 -0.4774  0.1485
 4908SOL    HW126357   0.173   0.519   3.630  0.0582  0.4895 -0.0652
 4908SOL    HW226358   0.238   0.639   3.600 -0.1274 -0.5457  2.7661
 4909SOL     OW26359   3.415   0.976   6.323  0.0536  0.0510 -0.4307
 4909SOL    HW126360   3.483   0.981   6.255  0.8874 -0.1477  0.3868
 4909SOL    HW226361   3.452   0.895   6.359 -0.8601 -0.0645  0.2376
 4910SOL     OW26362   4.168   1.100   3.447 -0.2858  0.1213 -1.1356
 4910SOL    HW126363   4.196   1.165   3.511  2.5545  0.9067 -3.1542
 4910SOL    HW226364   4.090   1.145   3.417 -0.5319  0.6713  0.3488
 4911SOL     OW26365   3.922   2.244   8.472  0.1583  0.2456 -0.1792
 4911SOL    HW126366   3.962   2.322   8.433 -1.1115  1.7029  1.4756
 4911SOL    HW226367   3.952   2.172   8.416  0.9418  1.3969 -1.2589
 4912SOL     OW26368   0.881   4.189   8.727 -0.4807  0.4470  0.0187
 4912SOL    HW126369   0.796   4.165   8.689 -1.4548  0.8156  1.9436
 4912SOL    HW226370   0.848   4.269   8.766 -0.0830  0.2241  0.8136
 4913SOL     OW26371   3.693   3.189  15.720  0.0072  0.4949  0.2450
 4913SOL    HW126372   3.767   3.170  15.662 -1.0916  2.2746 -1.7547
 4913SOL    HW226373   3.705   3.284  15.729 -1.0432  0.8587 -2.0567
 4914SOL     OW26374   3.287   1.726  15.907  0.2055 -0.2669  0.1751
 4914SOL    HW126375   3.380   1.709  15.887 -0.1003 -2.5945  0.6947
 4914SOL    HW226376   3.271   1.785  15.833 -4.1222 -2.1647 -0.3979
 4915SOL     OW26377   1.799   1.657   3.387 -0.0018  0.7562 -0.0946
 4915SOL    HW126378   1.739   1.682   3.317 -1.0717 -0.5567  0.3552
 4915SOL    HW226379   1.809   1.741   3.431  1.0960 -0.1338  1.3992
 4916SOL     OW26380   0.584   0.567   1.991 -0.0207 -0.0212  0.2887
 4916SOL    HW126381   0.512   0.511   1.961 -0.1739 -0.7212  1.9695
 4916SOL    HW226382   0.657   0.544   1.934 -0.5079  1.4659 -0.9447
 4917SOL     OW26383   3.788   1.599   9.115 -0.1850 -0.4451  0.5903
 4917SOL    HW126384   3.720   1.533   9.129  0.0246 -0.6838  0.4750
 4917SOL    HW226385   3.763   1.644   9.196  0.3050  0.5871  0.1710
 4918SOL     OW26386   2.394   3.548   5.960  0.1951 -0.4764  0.0436
 4918SOL    HW126387   2.330   3.478   5.950 -0.6721  0.3817 -0.4263
 4918SOL    HW226388   2.412   3.549   6.054 -0.2776 -1.2961  0.1420
 4919SOL     OW26389   2.471   3.546   1.778 -0.2644  0.4441 -0.5540
 4919SOL    HW126390   2.495   3.455   1.796 -1.6101  0.6273  2.1991
 4919SOL    HW226391   2.555   3.591   1.780 -0.4665  0.8966 -2.3833
 4920SOL     OW26392   1.065   1.810  17.231  0.2362  0.6593 -0.4407
 4920SOL    HW126393   1.029   1.879  17.176 -0.3431  1.1130  0.5116
 4920SOL    HW226394   1.089   1.861  17.308 -0.5968 -1.1581  1.0261
 4921SOL     OW26395   0.259   1.343   9.532  0.2160 -0.0446 -0.3654
 4921SOL    HW126396   0.327   1.404   9.562 -1.5721  1.1584  1.1854
 4921SOL    HW226397   0.203   1.393   9.473  0.8599  1.3044  0.1705
 4922SOL     OW26398   4.393   0.019  17.186  0.3342  0.0334 -0.0576
 4922SOL    HW126399   4.305   0.040  17.154  0.4748 -0.6284 -0.8708
 4922SOL    HW226400   4.395   0.068  17.268  0.3550  4.1694 -2.5520
 4923SOL     OW26401   4.439   2.251  16.998 -0.1328  0.3703  0.0669
 4923SOL    HW126402   4.344   2.264  17.003 -0.2188 -0.8844  1.7595
 4923SOL    HW226403   4.477   2.294  17.075 -2.1078 -0.3846  1.4890
 4924SOL     OW26404   3.406   3.693   1.714 -0.4684 -0.7215 -0.0337
 4924SOL    HW126405   3.454   3.775   1.724 -0.4296 -0.4546 -2.5030
 4924SOL    HW226406   3.473   3.632   1.684  1.5931 -0.0035  3.1404
 4925SOL     OW26407   4.073   3.771   1.534 -0.1676 -0.1344 -0.0574
 4925SOL    HW126408   3.986   3.743   1.563 -0.5539  1.7070  0.5502
 4925SOL    HW226409   4.112   3.684   1.521  0.9181  0.6153 -1.8882
 4926SOL     OW26410   3.607   1.221  17.275 -0.0956 -0.6579 -0.6635
 4926SOL    HW126411   3.687   1.171  17.259  1.9560  2.7148 -1.0047
 4926SOL    HW226412   3.539   1.171  17.230 -1.0685 -0.3656  0.4922
 4927SOL     OW26413   3.145   3.174   6.848  0.3836 -0.1283 -0.4361
 4927SOL    HW126414   3.117   3.118   6.920  2.8422 -0.2759  0.4009
 4927SOL    HW226415   3.228   3.137   6.817 -0.1439 -0.1393 -1.8442
 4928SOL     OW26416   0.016   2.067   8.166 -0.6041  0.2343  0.5678
 4928SOL    HW126417   0.086   2.132   8.161 -0.7312  0.3303  0.0842
 4928SOL    HW226418   4.701   2.094   8.090  1.9956 -2.1120 -2.0181
 4929SOL     OW26419   3.545   3.130   6.595  0.4399  0.1099  0.2581
 4929SOL    HW126420   3.560   3.086   6.678 -1.3297 -1.0045 -0.0095
 4929SOL    HW226421   3.566   3.062   6.531 -4.0815  0.0988 -1.2488
 4930SOL     OW26422   4.555   3.049   8.950 -0.0191 -0.5562  0.1062
 4930SOL    HW126423   4.541   3.131   8.997  1.5912  0.3046 -0.9108
 4930SOL    HW226424   4.487   2.992   8.986  1.5418 -2.4831 -0.0130
 4931SOL     OW26425   0.210   2.335   2.634  0.4933 -0.1796 -0.0775
 4931SOL    HW126426   0.229   2.351   2.542 -1.8636 -0.2325 -0.5626
 4931SOL    HW226427   0.130   2.283   2.628  0.7114 -0.6531  1.0467
 4932SOL     OW26428   2.917   2.624  17.195  0.1579 -0.1361  0.0467
 4932SOL    HW126429   2.975   2.699  17.179  0.7003 -0.5229  0.1932
 4932SOL    HW226430   2.835   2.672  17.199 -1.4243 -2.9456  0.9467
 4933SOL     OW26431   1.617   3.193  12.023 -0.2790  0.6851 -0.3815
 4933SOL    HW126432   1.582   3.104  12.016 -1.6587  1.1569  0.6519
 4933SOL    HW226433   1.575   3.224  12.103 -0.7533 -0.7470 -0.0794
 4934SOL     OW26434   4.549   2.133  12.205 -0.6644 -0.5267  0.1031
 4934SOL    HW126435   4.561   2.195  12.276 -0.4971  0.6265 -0.9330
 4934SOL    HW226436   4.518   2.191  12.135  0.2588  0.4843  0.5366
 4935SOL     OW26437   0.814   0.071   8.132 -0.3571 -0.0314 -0.1947
 4935SOL    HW126438   0.776   0.159   8.141 -0.7373 -0.3299  1.2144
 4935SOL    HW226439   0.799   0.041   8.042  2.0569 -2.2403  0.1722
 4936SOL     OW26440   1.182   3.426  14.072  0.1687 -0.1710  0.5294
 4936SOL    HW126441   1.094   3.420  14.111 -0.8930 -0.6640 -1.9353
 4936SOL    HW226442   1.181   3.375  13.991  0.2787 -0.3014  0.6097
 4937SOL     OW26443   2.937   2.652   7.479  0.0001  0.1234 -0.5167
 4937SOL    HW126444   2.931   2.557   7.471 -0.4688  0.1327 -0.2637
 4937SOL    HW226445   2.882   2.674   7.404  1.3540  1.6518 -1.0779
 4938SOL     OW26446   2.541   2.096  12.856 -0.3981 -0.5177  0.2688
 4938SOL    HW126447   2.488   2.175  12.839 -0.3680 -0.7456 -0.8821
 4938SOL    HW226448   2.585   2.074  12.774  1.7537 -0.1812  1.3507
 4939SOL     OW26449   3.255   2.942   9.344 -0.9615 -0.4757 -0.5819
 4939SOL    HW126450   3.167   2.954   9.381 -0.5600  0.7631 -0.0303
 4939SOL    HW226451   3.265   3.016   9.285  2.1375 -1.3059 -1.0690
 4940SOL     OW26452   2.808   2.922   6.530  0.2464  0.0642  0.3241
 4940SOL    HW126453   2.814   2.844   6.475  0.3169  0.8748 -0.8196
 4940SOL    HW226454   2.735   2.899   6.587 -0.2089 -1.4210 -0.8753
 4941SOL     OW26455   1.727   2.324   7.027 -0.3488 -0.1391 -0.1797
 4941SOL    HW126456   1.727   2.373   7.110  0.9279 -0.8151  0.2142
 4941SOL    HW226457   1.637   2.302   7.006 -0.4423 -0.2870  0.3800
 4942SOL     OW26458   3.617   4.691  12.457 -0.5668 -0.3011  0.1239
 4942SOL    HW126459   3.675   4.721  12.387 -2.3030 -0.2718 -1.2951
 4942SOL    HW226460   3.654   0.005  12.530  2.1545 -1.2876 -0.5704
 4943SOL     OW26461   2.016   1.006   3.534  0.7660 -0.0031 -0.0818
 4943SOL    HW126462   1.965   0.962   3.466 -0.6617  3.4991 -1.2563
 4943SOL    HW226463   2.076   0.932   3.547  0.1191 -0.6296 -0.6582
 4944SOL     OW26464   3.015   1.872   7.086  0.2536  0.3890 -0.0189
 4944SOL    HW126465   3.020   1.894   6.993 -1.2758 -0.4711 -0.3067
 4944SOL    HW226466   2.950   1.803   7.076  0.9702 -0.2131 -0.4944
 4945SOL     OW26467   4.362   0.918  10.191 -0.0651  0.0790  0.3207
 4945SOL    HW126468   4.298   0.867  10.241 -1.8220  0.5576 -1.4577
 4945SOL    HW226469   4.438   0.861  10.195 -0.3914 -0.2960  1.1096
 4946SOL     OW26470   2.369   2.420   0.327  0.0294 -0.2494  0.4120
 4946SOL    HW126471   2.398   2.458   0.245 -0.2751 -1.0857 -0.0873
 4946SOL    HW226472   2.303   2.480   0.362  1.4055  0.1560  2.3147
 4947SOL     OW26473   0.191   4.394   5.771 -0.3089  0.7589  0.0009
 4947SOL    HW126474   0.177   4.415   5.863 -1.8530  1.5325 -0.4135
 4947SOL    HW226475   0.168   4.476   5.727 -0.1107  0.9047  0.1669
 4948SOL     OW26476   4.472   3.613  12.351  0.1116 -0.5178 -0.5477
 4948SOL    HW126477   4.527   3.639  12.425  0.1941 -0.3454 -0.6696
 4948SOL    HW226478   4.523   3.636  12.274  0.8995 -0.2532  0.0529
 4949SOL     OW26479   1.471   3.807   4.953 -0.6512 -0.0285  0.4791
 4949SOL    HW126480   1.408   3.750   4.996  1.5479 -1.6180  1.6435
 4949SOL    HW226481   1.460   3.895   4.989  1.4171  0.7795 -0.8341
 4950SOL     OW26482   0.928   3.825   7.656 -0.3525 -0.2078 -0.1289
 4950SOL    HW126483   0.965   3.913   7.647  1.1844 -0.8860 -0.3887
 4950SOL    HW226484   0.969   3.808   7.741  2.9403 -1.8067 -2.0380
 4951SOL     OW26485   3.528   4.711   1.338  0.2827 -0.7211 -0.5385
 4951SOL    HW126486   3.526   4.733   1.431  0.8289  0.3023 -0.7627
 4951SOL    HW226487   3.440   0.004   1.312  0.8437  2.7491  1.3779
 4952SOL     OW26488   3.666   0.355   5.615 -0.0232  0.0253  1.0073
 4952SOL    HW126489   3.576   0.343   5.586  0.7994 -1.1418 -1.1382
 4952SOL    HW226490   3.665   0.451   5.618 -1.4065  0.0695 -0.5562
 4953SOL     OW26491   2.583   4.111   9.226 -0.4072  0.3124  0.0973
 4953SOL    HW126492   2.565   4.203   9.208 -2.4578  0.2267  1.7316
 4953SOL    HW226493   2.671   4.124   9.260 -0.3062 -0.6893  0.2233
 4954SOL     OW26494   4.130   3.381   4.690  0.0016  0.3392  0.2023
 4954SOL    HW126495   4.130   3.475   4.671  0.9415  0.7520  2.3087
 4954SOL    HW226496   4.065   3.343   4.630 -0.3718  0.1763  0.7133
 4955SOL     OW26497   4.420   3.420   0.559 -0.7341  0.2173  0.0519
 4955SOL    HW126498   4.439   3.327   0.571  1.3132  0.7910  1.2015
 4955SOL    HW226499   4.491   3.447   0.500 -0.0959 -0.6816  0.4097
 4956SOL     OW26500   1.914   4.208  10.784 -0.0512 -0.0091 -0.2245
 4956SOL    HW126501   1.934   4.300  10.800  2.7393 -0.8947  1.3106
 4956SOL    HW226502   1.824   4.206  10.817  0.2507 -2.2132  0.4433
 4957SOL     OW26503   2.767   2.056   2.946  0.4084 -0.1061  0.0586
 4957SOL    HW126504   2.681   2.020   2.970 -0.9205  2.4173 -0.8207
 4957SOL    HW226505   2.779   2.018   2.859  0.7679 -0.5776  0.3170
 4958SOL     OW26506   1.344   3.276  15.862 -0.7516  0.1286  0.1460
 4958SOL    HW126507   1.277   3.308  15.800 -0.9292  1.8337  1.2324
 4958SOL    HW226508   1.371   3.203  15.806  0.9918  0.6150  0.3568
 4959SOL     OW26509   4.023   4.148   6.932  0.1403  0.0685 -0.6405
 4959SOL    HW126510   4.024   4.179   6.842 -0.1413  2.1715  0.0784
 4959SOL    HW226511   3.955   4.081   6.930  0.2210 -0.0501  0.3701
 4960SOL     OW26512   0.052   0.678   7.095  0.4488  0.0003 -0.1903
 4960SOL    HW126513   0.082   0.597   7.054  0.4658 -0.1356  0.0909
 4960SOL    HW226514   0.143   0.705   7.111  0.6152 -0.8037  0.2450
 4961SOL     OW26515   4.376   3.155   0.205 -0.3102 -0.1940  0.3264
 4961SOL    HW126516   4.415   3.123   0.124  0.1729  2.8264 -0.6442
 4961SOL    HW226517   4.455   3.193   0.242  0.1790 -0.1750 -0.7376
 4962SOL     OW26518   1.067   4.425   7.825 -0.2155 -0.0633 -0.8603
 4962SOL    HW126519   1.010   4.393   7.895 -0.6589  2.0629 -0.2736
 4962SOL    HW226520   1.022   4.385   7.750 -0.8708  0.4280 -0.7320
 4963SOL     OW26521   3.272   3.863   2.410  0.0853  0.1249 -0.1717
 4963SOL    HW126522   3.336   3.902   2.470  0.9435 -0.4136 -0.7460
 4963SOL    HW226523   3.318   3.856   2.327  0.7978  2.4509  0.0416
 4964SOL     OW26524   2.593   4.078  14.801 -0.2048 -0.8904  0.0174
 4964SOL    HW126525   2.677   4.058  14.762  0.4821  1.0755  0.4985
 4964SOL    HW226526   2.590   4.173  14.811  2.5397 -0.7835 -0.2289
 4965SOL     OW26527   4.036   2.854   8.560  0.6280  0.7764  0.0878
 4965SOL    HW126528   4.114   2.810   8.526 -0.7511  0.0446 -2.1774
 4965SOL    HW226529   4.021   2.801   8.638 -0.9625 -0.9281 -1.3587
 4966SOL     OW26530   0.047   3.532  15.142  0.0152  0.5343 -0.1029
 4966SOL    HW126531   0.135   3.563  15.120  0.3282 -0.6925 -0.5834
 4966SOL    HW226532   0.053   3.437  15.127  1.0754  1.1288 -3.5725
 4967SOL     OW26533   1.101   0.750  14.260  0.5336  0.2657  0.3053
 4967SOL    HW126534   1.085   0.835  14.301 -3.4591 -0.4268  0.1914
 4967SOL    HW226535   1.049   0.700  14.323  1.1334 -2.1272 -1.1141
 4968SOL     OW26536   1.410   1.470   6.882  0.2287 -0.1062  0.0818
 4968SOL    HW126537   1.401   1.444   6.974  0.7667  0.3723  0.2720
 4968SOL    HW226538   1.321   1.451   6.852 -0.6518  0.2714  2.3877
 4969SOL     OW26539   2.938   0.839  15.762  0.0356 -0.4992  0.4543
 4969SOL    HW126540   2.987   0.893  15.823  3.0223  0.7010 -3.0120
 4969SOL    HW226541   2.995   0.762  15.762  1.6627  0.7005 -3.0673
 4970SOL     OW26542   3.735   0.623   2.623 -0.1847  0.0480  0.6081
 4970SOL    HW126543   3.657   0.584   2.584 -0.6205  1.4285  0.0912
 4970SOL    HW226544   3.700   0.710   2.647  1.6576  1.4673 -1.9124
 4971SOL     OW26545   3.871   2.198   4.225  0.5228 -0.1400 -0.1134
 4971SOL    HW126546   3.945   2.162   4.176  0.6801  1.5088 -1.1090
 4971SOL    HW226547   3.807   2.132   4.200  0.7348 -0.3193 -0.1879
 4972SOL     OW26548   3.122   3.214  13.638 -0.0236 -0.0545  0.0038
 4972SOL    HW126549   3.054   3.185  13.578 -0.2681 -0.8856  0.6781
 4972SOL    HW226550   3.116   3.310  13.638 -0.7174 -0.1173 -2.8800
 4973SOL     OW26551   4.056   4.055   6.446 -0.7535 -0.0143  0.0838
 4973SOL    HW126552   4.034   4.148   6.447 -3.0796 -0.5654  1.3338
 4973SOL    HW226553   3.973   4.030   6.487  0.4961  0.4630  2.8936
 4974SOL     OW26554   2.170   1.663   3.732  0.6674  0.6207  0.2019
 4974SOL    HW126555   2.185   1.592   3.670 -1.2971  0.7950 -0.4801
 4974SOL    HW226556   2.136   1.735   3.679 -0.2313 -1.5173 -2.1470
 4975SOL     OW26557   2.081   3.146   9.668 -0.3654 -0.0992  0.1106
 4975SOL    HW126558   2.175   3.130   9.670 -0.1562  1.0565 -0.6714
 4975SOL    HW226559   2.080   3.238   9.644  0.7378 -0.1314 -0.0213
 4976SOL     OW26560   3.739   2.774   2.444 -0.3175  0.2479 -0.4890
 4976SOL    HW126561   3.753   2.700   2.385 -0.0767 -0.5177  0.5193
 4976SOL    HW226562   3.829   2.804   2.454  0.0668 -1.8182  2.2624
 4977SOL     OW26563   0.681   3.480  12.720  0.0358 -0.8431 -0.7136
 4977SOL    HW126564   0.640   3.532  12.790  0.5361 -0.9219 -0.3619
 4977SOL    HW226565   0.609   3.441  12.670  0.4367 -0.6265 -1.4532
 4978SOL     OW26566   1.238   3.624   2.256 -0.0835  0.4768 -0.0493
 4978SOL    HW126567   1.288   3.581   2.326  0.1527 -0.8049 -0.9936
 4978SOL    HW226568   1.151   3.629   2.295  1.3279 -0.2228  3.2552
 4979SOL     OW26569   3.007   4.648   5.797  0.1660  0.3543  0.7095
 4979SOL    HW126570   2.999   4.577   5.861 -0.1702 -0.0990  0.1719
 4979SOL    HW226571   3.061   4.707   5.850  1.3627  0.2829 -0.4270
 4980SOL     OW26572   1.095   2.243   8.870 -0.9922 -0.1000  0.2197
 4980SOL    HW126573   1.018   2.187   8.877 -1.4629  0.5390  0.2086
 4980SOL    HW226574   1.121   2.245   8.962 -1.3733 -1.4972  0.3486
 4981SOL     OW26575   4.162   0.807   8.517  0.2936 -0.1391 -0.0767
 4981SOL    HW126576   4.251   0.817   8.484  0.8926  0.8102  1.8768
 4981SOL    HW226577   4.138   0.738   8.454  2.0984 -1.0099  0.1938
 4982SOL     OW26578   2.361   0.749   4.579  0.0516 -0.2513  0.7650
 4982SOL    HW126579   2.438   0.694   4.591  1.1943  1.2039  0.1703
 4982SOL    HW226580   2.294   0.683   4.565 -0.4991  0.3357  0.6404
 4983SOL     OW26581   2.013   1.017   6.379 -0.3467 -0.0828 -0.4785
 4983SOL    HW126582   1.970   1.000   6.295  0.2041  0.7511 -0.9356
 4983SOL    HW226583   2.107   1.013   6.359 -0.0417  3.3648  0.3518
 4984SOL     OW26584   4.158   0.976   7.874 -0.0949 -0.1860  0.6332
 4984SOL    HW126585   4.242   0.990   7.831 -1.2612 -0.3012 -1.6846
 4984SOL    HW226586   4.146   1.055   7.927  0.6859  0.6928 -0.5118
 4985SOL     OW26587   4.247   1.926   7.846 -0.0491  0.1199 -0.4679
 4985SOL    HW126588   4.191   1.952   7.772 -0.6050 -1.6242 -0.6614
 4985SOL    HW226589   4.332   1.913   7.804 -0.2999 -0.9557 -0.6482
 4986SOL     OW26590   3.339   0.872   7.013 -0.2149 -0.3217 -0.3038
 4986SOL    HW126591   3.285   0.900   7.087 -1.9060 -1.9968 -0.9252
 4986SOL    HW226592   3.418   0.840   7.057 -0.5648  1.6113  1.7445
 4987SOL     OW26593   2.025   2.254   2.369  0.2626  0.3940  0.1776
 4987SOL    HW126594   2.014   2.311   2.446  2.4992 -0.4438  1.1076
 4987SOL    HW226595   1.944   2.284   2.328  0.1392 -1.9101 -1.2640
 4988SOL     OW26596   2.186   0.495   5.625 -0.4099 -0.3161 -0.0965
 4988SOL    HW126597   2.266   0.487   5.574 -0.4996 -1.5002 -0.0570
 4988SOL    HW226598   2.176   0.590   5.628  0.6608 -0.1909 -0.5750
 4989SOL     OW26599   1.533   0.915   3.645  0.2697  0.1684 -0.0255
 4989SOL    HW126600   1.563   0.961   3.723 -0.9148 -0.6959  0.9531
 4989SOL    HW226601   1.582   0.964   3.579  1.2681 -0.6718  0.0998
 4990SOL     OW26602   3.022   2.687   1.642  0.3962 -0.3744 -0.1216
 4990SOL    HW126603   3.023   2.617   1.577 -0.2882 -0.2584 -0.2549
 4990SOL    HW226604   2.934   2.717   1.624  1.0385  2.4337  1.4491
 4991SOL     OW26605   2.984   1.033   4.309  0.3036  0.1933  0.5104
 4991SOL    HW126606   2.973   1.056   4.401  0.6490  1.5621  0.2171
 4991SOL    HW226607   3.080   1.036   4.310  0.2585  2.1165 -0.4326
 4992SOL     OW26608   0.432   0.946   9.258 -0.1783  0.0092 -0.4827
 4992SOL    HW126609   0.390   0.996   9.328  0.4958 -0.9071  0.5725
 4992SOL    HW226610   0.362   0.882   9.247  0.1484 -1.2023  4.2402
 4993SOL     OW26611   2.001   3.640   5.832 -0.6226 -0.4099 -0.4638
 4993SOL    HW126612   2.075   3.698   5.852 -0.5184  0.5656 -3.8298
 4993SOL    HW226613   1.966   3.674   5.751 -0.5095  1.2906  0.2050
 4994SOL     OW26614   4.441   1.526   1.894  0.4821 -0.0820  0.4217
 4994SOL    HW126615   4.410   1.512   1.983 -0.7688 -2.2552 -0.3619
 4994SOL    HW226616   4.483   1.444   1.869  0.4496 -0.2832  1.0308
 4995SOL     OW26617   2.909   1.955  12.170 -0.0832 -0.4117 -0.1495
 4995SOL    HW126618   2.919   2.050  12.157 -2.7433  0.1403  1.7980
 4995SOL    HW226619   2.959   1.942  12.251 -2.2203  0.9025  1.4052
 4996SOL     OW26620   2.958   2.913   3.225 -0.5973 -0.2291 -0.2735
 4996SOL    HW126621   3.012   2.849   3.179  1.6868  0.8624  0.9095
 4996SOL    HW226622   2.873   2.870   3.238 -0.3840 -0.5486  0.0766
 4997SOL     OW26623   1.722   1.434   2.551  0.5688 -0.9870 -0.4302
 4997SOL    HW126624   1.657   1.496   2.583  1.3883 -0.9574  1.1644
 4997SOL    HW226625   1.737   1.374   2.625 -0.5578 -0.8834 -0.1179
 4998SOL     OW26626   0.084   4.625   9.855 -0.6666 -0.0471  0.4434
 4998SOL    HW126627   0.116   4.579   9.933  1.2908  1.0657  0.2691
 4998SOL    HW226628   4.725   4.614   9.861 -1.0498  3.0115 -0.0703
 4999SOL     OW26629   1.129   4.481   4.164 -0.5176 -0.2197 -0.2710
 4999SOL    HW126630   1.217   4.510   4.188 -2.2804  2.7488  2.4737
 4999SOL    HW226631   1.144   4.473   4.070  0.6558  1.2362 -0.2037
 5000SOL     OW26632   1.667   4.441   2.995  0.2732  0.4308 -0.1129
 5000SOL    HW126633   1.628   4.520   3.032  2.5703  0.9172  1.2650
 5000SOL    HW226634   1.761   4.459   2.985 -0.0702  1.5785 -1.3519
 5001SOL     OW26635   3.545   1.114   2.762  0.5370  0.5189  0.1140
 5001SOL    HW126636   3.457   1.138   2.789  1.7151  3.9642  0.8896
 5001SOL    HW226637   3.570   1.198   2.725  0.1047  0.9612  0.8239
 5002SOL     OW26638   2.804   4.180   3.893 -0.0080 -0.1945  0.4330
 5002SOL    HW126639   2.817   4.231   3.813  0.2069  0.4582  0.8891
 5002SOL    HW226640   2.744   4.243   3.933 -0.7437  0.1666 -1.2176
 5003SOL     OW26641   3.482   2.939   5.887 -0.7981 -0.3572 -0.6414
 5003SOL    HW126642   3.445   2.944   5.975  1.1421  0.8559  0.1111
 5003SOL    HW226643   3.404   2.951   5.832 -1.1362 -1.5399 -0.4112
 5004SOL     OW26644   1.426   4.183   2.463 -0.4229  0.2541 -0.5028
 5004SOL    HW126645   1.466   4.102   2.494 -0.3626  0.6818  0.5478
 5004SOL    HW226646   1.367   4.152   2.395  1.1047 -0.4206 -1.5333
 5005SOL     OW26647   1.458   1.361   5.550 -0.5902 -0.2865 -0.2690
 5005SOL    HW126648   1.389   1.412   5.592 -0.9690 -2.5439  1.8639
 5005SOL    HW226649   1.410   1.319   5.479  0.2306 -1.6588 -0.0114
 5006SOL     OW26650   0.796   3.036   7.571 -0.3759 -0.0808 -0.2806
 5006SOL    HW126651   0.731   3.089   7.617  0.7993  0.9446  0.1942
 5006SOL    HW226652   0.806   3.094   7.496  1.8628 -0.4351 -0.2811
 5007SOL     OW26653   2.805   1.575  12.756 -0.3783 -0.0212  0.5657
 5007SOL    HW126654   2.743   1.502  12.763 -1.9306  1.2505  0.0855
 5007SOL    HW226655   2.885   1.533  12.785 -0.7774 -0.3478  1.1953
 5008SOL     OW26656   2.122   2.744   5.420 -0.1536  0.4211 -0.3071
 5008SOL    HW126657   2.131   2.706   5.507  1.6502 -0.4990 -0.8877
 5008SOL    HW226658   2.210   2.738   5.382 -0.1050 -1.3243  0.0643
 5009SOL     OW26659   1.410   4.290   8.129  0.2198 -0.4231 -0.1547
 5009SOL    HW126660   1.393   4.300   8.036  3.0471 -0.2798 -0.6353
 5009SOL    HW226661   1.317   4.279   8.149  0.7045 -1.5357  1.5075
 5010SOL     OW26662   1.649   4.356   0.511 -0.0274 -0.0627 -0.3916
 5010SOL    HW126663   1.667   4.275   0.463  2.4931  0.6969 -0.7340
 5010SOL    HW226664   1.553   4.361   0.506  0.0280  1.9430  0.7858
 5011SOL     OW26665   2.672   3.241   7.963  0.3708  0.3912  0.1936
 5011SOL    HW126666   2.729   3.214   7.891 -0.6631 -1.5991  0.1102
 5011SOL    HW226667   2.729   3.311   7.993 -0.7117  1.1128  0.5710
 5012SOL     OW26668   1.925   0.039  16.732 -0.6195  0.2495  0.2373
 5012SOL    HW126669   2.003   4.730  16.761 -0.0316  1.6140  0.7686
 5012SOL    HW226670   1.970   0.078  16.657  1.4498  0.4469  1.6066
 5013SOL     OW26671   3.658   2.964   3.754  0.0288 -0.7182 -0.1607
 5013SOL    HW126672   3.586   2.967   3.817 -0.0218  0.9402 -0.2853
 5013SOL    HW226673   3.659   2.870   3.738  1.1115 -1.0266  1.6929
 5014SOL     OW26674   1.884   1.612   2.936  0.4865  0.2047  0.1925
 5014SOL    HW126675   1.805   1.641   2.889  1.2041  1.2100 -0.3898
 5014SOL    HW226676   1.946   1.652   2.875  0.8988  2.2803  1.9826
 5015SOL     OW26677   3.113   1.485   4.282  0.1845 -0.4830  0.0871
 5015SOL    HW126678   3.049   1.555   4.296 -0.7108 -1.0126 -1.3674
 5015SOL    HW226679   3.069   1.444   4.208 -2.6366 -1.8170  2.4906
 5016SOL     OW26680   1.458   3.074   0.761  0.5948  0.4964  0.6213
 5016SOL    HW126681   1.551   3.076   0.784  0.0528  2.1934  2.6799
 5016SOL    HW226682   1.469   3.046   0.671 -0.8311 -0.0698  0.6275
 5017SOL     OW26683   1.552   2.369   3.438 -0.3570 -0.1211 -0.4784
 5017SOL    HW126684   1.506   2.396   3.359 -0.6888 -0.5752 -0.4413
 5017SOL    HW226685   1.483   2.356   3.503 -1.1377 -0.5421 -1.3943
 5018SOL     OW26686   0.182   4.481   6.754  0.1210 -0.5503  0.1328
 5018SOL    HW126687   0.246   4.421   6.716  2.1728  1.9301 -0.3008
 5018SOL    HW226688   0.114   4.453   6.692 -0.2623 -0.7261  0.6278
 5019SOL     OW26689   3.794   2.634   6.619  0.0167 -0.3372  0.0979
 5019SOL    HW126690   3.889   2.633   6.629  0.0615  0.3224 -0.2256
 5019SOL    HW226691   3.797   2.689   6.540  0.6600 -0.3829  0.0904
 5020SOL     OW26692   0.165   4.653   7.505 -0.1814  0.0637  0.8796
 5020SOL    HW126693   0.221   4.720   7.466 -0.0797 -0.7845 -0.4245
 5020SOL    HW226694   0.101   4.645   7.435  1.4458  1.2401 -0.7349
 5021SOL     OW26695   0.432   3.513  16.812  0.2750  0.5112  0.1003
 5021SOL    HW126696   0.371   3.583  16.835 -1.1945 -0.0731 -2.0094
 5021SOL    HW226697   0.441   3.523  16.717 -0.1601 -1.4940 -0.1442
 5022SOL     OW26698   0.446   3.949   6.917 -0.4566 -0.0016 -0.6367
 5022SOL    HW126699   0.389   3.957   6.841  1.4793 -0.9601 -2.2051
 5022SOL    HW226700   0.451   4.043   6.935 -1.7794 -0.3682  1.5835
 5023SOL     OW26701   1.695   2.762   2.293  0.0076 -0.1218  0.0379
 5023SOL    HW126702   1.761   2.732   2.229 -0.7686  1.7958 -1.6604
 5023SOL    HW226703   1.729   2.716   2.370  0.4018  1.0895  0.5802
 5024SOL     OW26704   1.264   3.333  11.304 -0.0006 -0.3225  0.1838
 5024SOL    HW126705   1.275   3.400  11.372  1.3817  0.1420 -0.5000
 5024SOL    HW226706   1.270   3.248  11.347  2.7583 -1.2102 -1.9329
 5025SOL     OW26707   4.366   2.981   3.290  0.1390 -0.3353 -0.6279
 5025SOL    HW126708   4.457   2.953   3.287  0.4000  0.5603 -0.9266
 5025SOL    HW226709   4.369   3.074   3.313  1.1634  0.0285 -2.2687
 5026SOL     OW26710   2.537   3.925   6.223  0.1590  0.4088 -0.3100
 5026SOL    HW126711   2.448   3.956   6.206  0.1420  0.2125 -0.5894
 5026SOL    HW226712   2.575   3.949   6.138  0.7596  1.7166  0.3358
 5027SOL     OW26713   3.301   1.241  12.874  0.4392  0.4262  0.4698
 5027SOL    HW126714   3.348   1.186  12.937  0.0630  1.4705  1.6651
 5027SOL    HW226715   3.216   1.258  12.915  0.9047  2.6960  0.4740
 5028SOL     OW26716   1.298   2.673   3.341  0.7552 -0.2800  0.2374
 5028SOL    HW126717   1.304   2.673   3.437 -0.2555 -0.4302  0.3031
 5028SOL    HW226718   1.251   2.593   3.318  2.4718 -0.7595 -1.5600
 5029SOL     OW26719   2.255   3.988   1.927  0.2684 -0.7166  0.2950
 5029SOL    HW126720   2.290   3.919   1.983 -1.6971 -0.9018  1.3121
 5029SOL    HW226721   2.257   3.955   1.837 -0.2323 -0.9085  0.3549
 5030SOL     OW26722   1.227   0.192   7.659  0.0858 -0.6967  0.2595
 5030SOL    HW126723   1.176   0.118   7.626  0.3319 -0.0340 -1.5803
 5030SOL    HW226724   1.203   0.205   7.751  0.1917  0.1450  0.1703
 5031SOL     OW26725   3.464   3.671   9.248  0.0776  0.5188 -0.5504
 5031SOL    HW126726   3.552   3.675   9.211  0.4187  0.0976  0.2211
 5031SOL    HW226727   3.482   3.640   9.337  0.0323 -2.1911 -1.4891
 5032SOL     OW26728   3.741   0.648   6.495  0.6032  0.1963 -0.0048
 5032SOL    HW126729   3.735   0.734   6.453 -0.5911  1.2204  2.2512
 5032SOL    HW226730   3.836   0.638   6.500  0.6681  1.1669  0.7819
 5033SOL     OW26731   4.414   0.216   7.990  0.0258  0.2020  0.1107
 5033SOL    HW126732   4.370   0.282   7.937 -0.3771  0.1159  0.3378
 5033SOL    HW226733   4.428   0.142   7.931  0.5394 -1.0858  1.8352
 5034SOL     OW26734   4.154   0.794   8.806 -0.5218  0.4036 -0.0024
 5034SOL    HW126735   4.212   0.868   8.787  1.3109 -0.3458  2.6754
 5034SOL    HW226736   4.142   0.766   8.716 -1.9501  1.1903 -0.0665
 5035SOL     OW26737   0.409   3.159   7.996 -0.4242 -0.0223  0.0995
 5035SOL    HW126738   0.453   3.088   8.043 -2.1403 -1.2022 -0.0421
 5035SOL    HW226739   0.456   3.229   8.042  1.6919 -2.9223  2.3706
 5036SOL     OW26740   3.201   2.487   5.429 -0.0918 -0.2215  0.4489
 5036SOL    HW126741   3.251   2.483   5.511 -1.0699 -1.5750  0.9913
 5036SOL    HW226742   3.157   2.403   5.415 -1.4043  0.3757  0.9915
 5037SOL     OW26743   1.716   1.594   7.622  0.2677 -0.3322  0.6046
 5037SOL    HW126744   1.710   1.650   7.700 -0.1757  0.4569  0.0042
 5037SOL    HW226745   1.748   1.517   7.669 -1.8846 -1.4788  0.1755
 5038SOL     OW26746   3.525   3.964   2.472  0.5033  0.3163  0.4483
 5038SOL    HW126747   3.551   4.031   2.409 -0.3615  1.7803  1.6716
 5038SOL    HW226748   3.609   3.920   2.479 -0.0339 -1.2900 -2.9735
 5039SOL     OW26749   3.051   1.011  13.150 -0.2139  0.4183  0.2284
 5039SOL    HW126750   3.090   0.953  13.215 -0.9569  2.2716  2.3344
 5039SOL    HW226751   3.034   1.086  13.207 -0.9294  2.2859 -2.4767
 5040SOL     OW26752   3.087   2.781   7.027 -0.0015 -0.0176  0.9339
 5040SOL    HW126753   3.002   2.774   6.983  0.5142  2.6174 -0.4985
 5040SOL    HW226754   3.110   2.688   7.021 -2.2201 -0.4448 -0.9606
 5041SOL     OW26755   3.202   1.581  13.084 -0.2279 -0.6238  0.3272
 5041SOL    HW126756   3.205   1.662  13.034  1.1617 -1.2635 -0.6198
 5041SOL    HW226757   3.175   1.518  13.017 -3.4305  1.2322 -0.1216
 5042SOL     OW26758   4.600   2.728  11.987  0.2025  0.3313 -0.0287
 5042SOL    HW126759   4.523   2.754  11.936 -0.4222  2.3444  1.9633
 5042SOL    HW226760   4.658   2.797  11.953 -0.6911  1.0508 -0.0987
 5043SOL     OW26761   2.603   0.852   4.126  0.2328  0.4652  0.1940
 5043SOL    HW126762   2.594   0.873   4.219 -0.5485  0.5472  0.0967
 5043SOL    HW226763   2.688   0.893   4.112 -1.3211  3.4112 -0.6620
 5044SOL     OW26764   2.777   1.899  15.509  0.4841 -0.3615 -0.1441
 5044SOL    HW126765   2.699   1.869  15.556 -0.4026  2.2403  0.0457
 5044SOL    HW226766   2.814   1.812  15.492  0.6430 -0.4182  0.4919
 5045SOL     OW26767   2.576   2.457   4.483 -0.1010 -0.2613 -0.1748
 5045SOL    HW126768   2.619   2.440   4.566  0.7447 -1.3336 -0.8355
 5045SOL    HW226769   2.497   2.403   4.476 -0.7033  0.8240 -1.9917
 5046SOL     OW26770   2.018   2.678   3.231 -0.1079 -0.0968 -0.4415
 5046SOL    HW126771   2.083   2.608   3.219  0.4051 -0.1506  2.6270
 5046SOL    HW226772   2.047   2.704   3.319  1.1186 -0.0350 -0.8602
 5047SOL     OW26773   4.038   1.078   8.301  0.2597  0.3814 -0.0788
 5047SOL    HW126774   4.029   1.085   8.396  0.4404  0.5014 -0.0687
 5047SOL    HW226775   4.041   0.983   8.290 -1.7852  0.2167  0.7309
 5048SOL     OW26776   3.341   4.129   1.718 -0.6648  0.2717  0.6933
 5048SOL    HW126777   3.373   4.075   1.646  0.7564  0.9462  0.8239
 5048SOL    HW226778   3.318   4.211   1.675  0.0536  0.9480  1.5835
 5049SOL     OW26779   4.384   4.518   8.079  0.1721 -0.0344  0.2072
 5049SOL    HW126780   4.447   4.548   8.144  0.5769  0.6613 -0.5086
 5049SOL    HW226781   4.444   4.507   8.005  0.6699  1.3835  0.4063
 5050SOL     OW26782   1.484   2.491   8.851  0.4761 -0.1413  0.1269
 5050SOL    HW126783   1.518   2.525   8.933  4.3834  1.5935 -2.1915
 5050SOL    HW226784   1.472   2.397   8.867  3.5494 -0.1575  2.1981
 5051SOL     OW26785   0.298   3.294   0.898 -0.5267  0.9919 -0.4169
 5051SOL    HW126786   0.345   3.372   0.868  1.2823 -0.4242 -1.2621
 5051SOL    HW226787   0.360   3.264   0.964  0.0896  1.4898 -0.7716
 5052SOL     OW26788   2.362   3.453   7.713 -0.0532 -0.3970  0.1396
 5052SOL    HW126789   2.294   3.456   7.780  0.3124 -2.1873  0.5811
 5052SOL    HW226790   2.442   3.462   7.766 -0.1536  0.3382  0.1643
 5053SOL     OW26791   1.376   4.392   2.648  0.0813  0.2106 -0.6687
 5053SOL    HW126792   1.425   4.344   2.715 -1.4103  0.8579  0.8720
 5053SOL    HW226793   1.389   4.335   2.573  1.1673  0.5300 -0.7222
 5054SOL     OW26794   3.742   1.603   2.982  0.0683  0.2399 -0.2494
 5054SOL    HW126795   3.730   1.697   2.971 -2.6071  0.0372  0.8009
 5054SOL    HW226796   3.810   1.589   2.917 -0.8887  0.1474 -1.2398
 5055SOL     OW26797   2.889   2.367   0.999 -0.2462  0.0014  0.1348
 5055SOL    HW126798   2.933   2.433   1.052  1.5085  0.9233 -2.4514
 5055SOL    HW226799   2.799   2.393   1.016 -1.2589 -3.2951 -0.0743
 5056SOL     OW26800   2.962   4.163  12.539  0.0855  0.2616 -0.0184
 5056SOL    HW126801   2.929   4.251  12.518 -1.9763 -0.1467  1.4898
 5056SOL    HW226802   2.936   4.105  12.467 -1.3414 -1.7467  2.1219
 5057SOL     OW26803   3.342   1.703  11.860  0.0994  0.5672  0.0256
 5057SOL    HW126804   3.358   1.685  11.767 -0.1797  0.9138 -0.0897
 5057SOL    HW226805   3.429   1.683  11.894  1.0007  2.8940 -0.8296
 5058SOL     OW26806   1.385   3.885   6.213  0.1271  0.4569 -0.0746
 5058SOL    HW126807   1.434   3.813   6.254 -0.4727  1.3088  2.1370
 5058SOL    HW226808   1.360   3.843   6.131 -3.2553 -0.3065  1.3296
 5059SOL     OW26809   0.887   1.378   5.783  0.1598 -0.3309 -0.4573
 5059SOL    HW126810   0.918   1.469   5.789 -0.4418 -0.1766  0.2151
 5059SOL    HW226811   0.970   1.333   5.799  1.2538  1.3412 -1.4019
 5060SOL     OW26812   3.254   1.835   8.420  0.2749 -1.1419  0.2200
 5060SOL    HW126813   3.198   1.912   8.425  1.8559  0.0188 -0.1135
 5060SOL    HW226814   3.307   1.870   8.349  1.6534 -0.9397  1.3539
 5061SOL     OW26815   0.442   3.255   9.250 -0.0581 -0.6949 -0.2607
 5061SOL    HW126816   0.402   3.178   9.209 -1.3492 -0.2840  0.2630
 5061SOL    HW226817   0.532   3.247   9.218  0.4566 -1.3738  1.3828
 5062SOL     OW26818   0.977   3.926   2.124 -0.0894  0.2739 -0.2139
 5062SOL    HW126819   0.947   4.005   2.080  1.5511  1.8373  1.4960
 5062SOL    HW226820   0.951   3.939   2.215  1.1860 -0.0800  0.1956
 5063SOL     OW26821   2.520   3.632   6.203 -0.1356 -0.5124  0.4768
 5063SOL    HW126822   2.526   3.724   6.176 -1.7927 -0.2459  0.9669
 5063SOL    HW226823   2.609   3.611   6.229 -0.7617 -0.3700  2.7869
 5064SOL     OW26824   3.530   2.761   1.852 -0.3948 -0.1825 -0.3705
 5064SOL    HW126825   3.522   2.675   1.811  2.6465 -0.3761 -0.5849
 5064SOL    HW226826   3.445   2.785   1.889 -0.3217 -0.0673 -0.2751
 5065SOL     OW26827   3.473   2.929   6.205 -0.0123  0.2679 -0.4773
 5065SOL    HW126828   3.390   2.975   6.216  0.8071  1.3410  1.2457
 5065SOL    HW226829   3.528   3.001   6.176  0.0696  0.3779 -0.0548
 5066SOL     OW26830   2.204   3.049   7.163 -0.3240 -0.2139  0.3988
 5066SOL    HW126831   2.165   3.035   7.077  0.8785 -0.6865 -0.0794
 5066SOL    HW226832   2.255   3.130   7.158 -0.1533 -0.2007  2.1706
 5067SOL     OW26833   2.721   0.207   3.818 -0.3305  0.4754  0.2157
 5067SOL    HW126834   2.773   0.217   3.898 -2.1024 -2.1822  1.7323
 5067SOL    HW226835   2.681   0.121   3.836  0.1110 -0.0170 -1.2239
 5068SOL     OW26836   0.598   0.416   3.261 -0.5803  0.0755  0.3994
 5068SOL    HW126837   0.503   0.431   3.257 -0.6323 -0.2741  0.3405
 5068SOL    HW226838   0.628   0.487   3.205  1.0308  0.1532  1.3405
 5069SOL     OW26839   4.489   0.185   7.213 -0.0735  0.4130 -0.1460
 5069SOL    HW126840   4.447   0.104   7.183  0.3324 -0.1310  0.7711
 5069SOL    HW226841   4.429   0.259   7.202  0.0100  0.7529  1.6457
 5070SOL     OW26842   4.459   3.388   6.362 -0.8391 -0.0254 -0.5675
 5070SOL    HW126843   4.390   3.419   6.303 -2.0788  2.0832  1.9776
 5070SOL    HW226844   4.477   3.467   6.414  3.2254 -1.8914  0.8617
 5071SOL     OW26845   1.092   1.684   9.207  0.0930  0.1496 -0.7117
 5071SOL    HW126846   1.185   1.671   9.188  0.1927  1.9713 -1.5256
 5071SOL    HW226847   1.051   1.598   9.216 -0.6129  0.7230  1.6810
 5072SOL     OW26848   1.687   3.991   7.742 -0.1744 -0.1968 -0.2232
 5072SOL    HW126849   1.686   4.086   7.728 -0.2547 -0.0796  0.6064
 5072SOL    HW226850   1.781   3.973   7.741 -0.1085  0.1679 -0.9282
 5073SOL     OW26851   1.321   4.491   5.663  0.2754  0.6440  0.6324
 5073SOL    HW126852   1.314   4.397   5.648  1.4574  1.0777 -2.5517
 5073SOL    HW226853   1.298   4.520   5.575 -3.1894  2.3376  2.1305
 5074SOL     OW26854   4.600   0.444   2.788  0.2639  0.2576 -0.2410
 5074SOL    HW126855   4.659   0.370   2.802 -0.7300 -0.5810 -0.4756
 5074SOL    HW226856   4.660   0.503   2.743  0.1092  1.0504  0.5862
 5075SOL     OW26857   4.058   3.278   2.477  0.6965  0.4261  0.0424
 5075SOL    HW126858   4.068   3.217   2.550  1.4675 -0.4915 -0.8409
 5075SOL    HW226859   4.128   3.257   2.416 -1.9967 -0.2684 -2.8658
 5076SOL     OW26860   1.758   0.861   5.835 -0.2832 -0.2929 -0.6363
 5076SOL    HW126861   1.675   0.890   5.872  1.1720  0.2571  2.2392
 5076SOL    HW226862   1.753   0.887   5.743 -1.5573 -1.9538 -1.0308
 5077SOL     OW26863   0.736   1.657   5.809  0.3626  0.2409 -0.1822
 5077SOL    HW126864   0.821   1.672   5.767 -0.4818  0.8237 -1.6829
 5077SOL    HW226865   0.696   1.744   5.808  1.1330  0.6032  1.0218
 5078SOL     OW26866   4.205   3.658   3.536  0.1200  0.3721  0.3628
 5078SOL    HW126867   4.262   3.665   3.459 -0.1979 -0.4621  0.0481
 5078SOL    HW226868   4.198   3.747   3.570 -0.5426  0.2791  0.4666
 5079SOL     OW26869   2.617   3.065   7.049  0.5606  0.3808  0.0932
 5079SOL    HW126870   2.649   3.155   7.043  0.6329  0.2919 -0.7335
 5079SOL    HW226871   2.668   3.037   7.126  1.7042 -1.2832 -1.2761
 5080SOL     OW26872   3.737   0.990  10.454 -0.0114  0.2784  0.7450
 5080SOL    HW126873   3.777   1.031  10.531 -2.5075 -1.4516  2.9544
 5080SOL    HW226874   3.727   1.072  10.406 -0.0005 -0.3296 -0.2896
 5081SOL     OW26875   2.618   1.205   0.621  0.6060  0.5046  0.4281
 5081SOL    HW126876   2.613   1.301   0.614 -0.4543  0.4839  0.8344
 5081SOL    HW226877   2.567   1.194   0.701  1.8189  0.4009  1.1882
 5082SOL     OW26878   3.120   3.609   0.620  0.2000 -0.3448  0.5221
 5082SOL    HW126879   3.138   3.625   0.712  3.6539  0.3433 -0.2805
 5082SOL    HW226880   3.156   3.522   0.603  1.2371  0.4030 -1.1378
 5083SOL     OW26881   3.050   0.919   6.659  0.0211 -0.0065  0.1874
 5083SOL    HW126882   3.116   0.985   6.680  0.3677 -1.2335  2.8923
 5083SOL    HW226883   2.990   0.981   6.617  0.5350  0.9683  0.9071
 5084SOL     OW26884   0.780   2.067  16.624 -0.1718  0.4245 -0.0774
 5084SOL    HW126885   0.766   2.000  16.557 -0.1529 -0.0926  0.4374
 5084SOL    HW226886   0.697   2.075  16.671 -1.2395 -0.2996 -1.8398
 5085SOL     OW26887   2.502   1.242   3.902 -0.2008  0.4261  0.5158
 5085SOL    HW126888   2.504   1.332   3.932  0.1216  0.7646 -0.5124
 5085SOL    HW226889   2.426   1.210   3.952 -0.1084 -0.9147 -0.1813
 5086SOL     OW26890   4.292   1.113  10.902  0.0295  0.0735 -0.3246
 5086SOL    HW126891   4.379   1.154  10.896  0.9219 -1.6526  0.6766
 5086SOL    HW226892   4.242   1.183  10.945  1.8434  0.5383  1.0547
 5087SOL     OW26893   3.465   2.583   9.095 -0.2250  0.5095  0.5276
 5087SOL    HW126894   3.389   2.637   9.118 -1.8091 -1.1399 -0.7459
 5087SOL    HW226895   3.425   2.496   9.100  1.1482 -0.2541 -1.7700
 5088SOL     OW26896   1.849   2.535   4.445  0.4208 -0.3600  0.2016
 5088SOL    HW126897   1.900   2.616   4.449 -1.4798  0.8037  1.0400
 5088SOL    HW226898   1.780   2.543   4.511 -0.1638 -1.3427 -0.2867
 5089SOL     OW26899   1.709   0.715  16.267 -0.3210 -0.2870 -0.2639
 5089SOL    HW126900   1.789   0.686  16.222  0.1717  0.3559  0.1885
 5089SOL    HW226901   1.722   0.810  16.276 -0.8156 -0.3460  1.0250
 5090SOL     OW26902   3.202   1.468   1.815 -0.1231  0.4473  0.3797
 5090SOL    HW126903   3.174   1.464   1.724 -1.1497  0.8721  0.6683
 5090SOL    HW226904   3.192   1.561   1.836 -1.7719  0.7012 -1.5589
 5091SOL     OW26905   2.861   2.290   2.010 -0.2283  0.4017 -0.0777
 5091SOL    HW126906   2.842   2.377   1.976 -1.6251 -0.5557 -1.7270
 5091SOL    HW226907   2.956   2.280   2.003 -0.2504  1.2598 -1.4700
 5092SOL     OW26908   1.140   1.825   8.193 -0.0100  0.0023  0.2904
 5092SOL    HW126909   1.155   1.874   8.273 -2.3158  1.0459  0.0955
 5092SOL    HW226910   1.109   1.736   8.211  0.2505  0.0760  1.0632
 5093SOL     OW26911   1.363   3.315  16.136  0.1944  0.4061 -0.4984
 5093SOL    HW126912   1.354   3.312  16.040 -0.8732  2.5641 -0.4769
 5093SOL    HW226913   1.279   3.356  16.156 -0.4465 -0.8889 -0.5301
 5094SOL     OW26914   4.621   3.209   6.785 -0.0509  0.1096  0.5221
 5094SOL    HW126915   4.548   3.176   6.836 -2.1511  1.5789 -1.5563
 5094SOL    HW226916   4.578   3.230   6.702 -0.5777  1.5518  1.1569
 5095SOL     OW26917   2.157   1.748   7.072  0.2710 -0.8228  0.2811
 5095SOL    HW126918   2.062   1.750   7.078  0.3610 -1.0927  1.7863
 5095SOL    HW226919   2.173   1.838   7.100 -1.0162 -0.1979 -1.0054
 5096SOL     OW26920   2.084   4.465  13.113  0.6325  0.5220  0.3732
 5096SOL    HW126921   2.106   4.556  13.094 -0.1186  0.7412  0.5332
 5096SOL    HW226922   2.053   4.479  13.203 -0.8683 -1.1486  0.1154
 5097SOL     OW26923   0.908   1.203  12.234  0.6176  0.0697  0.0249
 5097SOL    HW126924   0.837   1.253  12.192  0.6732  1.5140  1.6448
 5097SOL    HW226925   0.950   1.274  12.281  1.0793  0.1602 -0.5323
 5098SOL     OW26926   1.857   2.992   6.764 -0.2771 -0.3872 -0.0732
 5098SOL    HW126927   1.785   3.010   6.704 -1.4077 -1.9210  0.8257
 5098SOL    HW226928   1.826   2.915   6.812 -1.2843 -0.3173 -0.6098
 5099SOL     OW26929   3.866   2.705   7.510  1.0558 -0.2270  0.1043
 5099SOL    HW126930   3.790   2.683   7.455  1.5022 -0.4511 -0.4274
 5099SOL    HW226931   3.926   2.745   7.447  0.6901 -1.5895 -1.1380
 5100SOL     OW26932   0.261   2.731   0.291  0.1495  0.5259  0.3581
 5100SOL    HW126933   0.260   2.827   0.283 -0.4118  0.5859  1.1050
 5100SOL    HW226934   0.199   2.728   0.364 -0.3900  0.5203 -0.0987
 5101SOL     OW26935   2.641   0.398   8.095  0.3628  0.4401 -0.4033
 5101SOL    HW126936   2.584   0.332   8.057  0.9519  1.1143 -2.4536
 5101SOL    HW226937   2.700   0.347   8.152 -1.4643  0.2888  1.3469
 5102SOL     OW26938   2.391   3.557   6.825 -0.2048 -0.3460 -0.2681
 5102SOL    HW126939   2.342   3.575   6.905 -2.7964  0.2320 -1.9590
 5102SOL    HW226940   2.364   3.638   6.781 -1.2389 -0.1836  0.6611
 5103SOL     OW26941   2.426   0.573   8.219 -0.5729 -0.1990  0.1035
 5103SOL    HW126942   2.427   0.664   8.188  0.2408  0.0027  0.7226
 5103SOL    HW226943   2.492   0.527   8.168 -1.3976 -2.4371  1.0849
 5104SOL     OW26944   2.793   2.444   4.684  0.2327 -0.6787  0.2314
 5104SOL    HW126945   2.810   2.376   4.749 -0.0098 -1.8785 -0.9422
 5104SOL    HW226946   2.878   2.458   4.642 -1.5391  1.4253 -2.6841
 5105SOL     OW26947   3.117   0.630   1.254 -0.1289 -0.0712 -0.1028
 5105SOL    HW126948   3.088   0.665   1.338  1.4938  2.3778 -0.5917
 5105SOL    HW226949   3.177   0.562   1.285 -1.3779 -0.3768  1.6891
 5106SOL     OW26950   0.194   0.616   6.369  0.4571 -0.1633 -0.4053
 5106SOL    HW126951   0.248   0.580   6.439 -0.2274 -0.9307 -0.2594
 5106SOL    HW226952   0.130   0.544   6.366 -0.1199  0.4111 -1.8815
 5107SOL     OW26953   0.821   1.350   8.693 -0.3242 -0.0324 -0.5369
 5107SOL    HW126954   0.776   1.382   8.771 -0.6450 -1.4355 -0.1528
 5107SOL    HW226955   0.893   1.304   8.735 -0.1610 -0.3371 -1.1536
 5108SOL     OW26956   1.605   1.071   7.024 -0.6261 -0.6241 -0.3781
 5108SOL    HW126957   1.513   1.047   7.015 -0.7051 -0.3972 -0.1660
 5108SOL    HW226958   1.640   1.048   6.938 -2.0832 -0.7761 -0.9264
 5109SOL     OW26959   3.219   1.600   2.982  0.2724 -0.0623  0.1216
 5109SOL    HW126960   3.229   1.548   2.901  0.3022 -0.4522  0.3747
 5109SOL    HW226961   3.279   1.550   3.038 -1.4947 -2.6873 -0.2960
 5110SOL     OW26962   0.728   0.740   3.423  0.0408  0.0058  0.5873
 5110SOL    HW126963   0.746   0.787   3.341 -2.7485 -1.1870 -0.7090
 5110SOL    HW226964   0.775   0.790   3.490  0.7818 -0.1100  0.1606
 5111SOL     OW26965   1.921   3.636   6.117 -0.4073  0.0518 -0.4428
 5111SOL    HW126966   1.853   3.569   6.130 -0.4450  0.2148  0.1783
 5111SOL    HW226967   1.941   3.641   6.024  1.5072 -0.1570 -0.0470
 5112SOL     OW26968   0.469   4.695   7.715 -0.0572 -0.4747  0.5018
 5112SOL    HW126969   0.374   4.705   7.723 -0.4124 -2.5610 -0.8664
 5112SOL    HW226970   0.505   4.733   7.795 -0.6294 -0.1611  0.6121
 5113SOL     OW26971   1.367   0.879   9.544 -0.5514 -0.1951 -0.7549
 5113SOL    HW126972   1.344   0.842   9.629 -0.8250 -1.9511 -1.5929
 5113SOL    HW226973   1.291   0.853   9.491 -0.5183  0.6702 -1.2181
 5114SOL     OW26974   4.537   3.960  12.657  0.0817  0.1637 -0.0955
 5114SOL    HW126975   4.481   4.027  12.618 -1.8782 -0.6560  1.3012
 5114SOL    HW226976   4.613   3.964  12.599 -0.3661 -1.1281 -0.7777
 5115SOL     OW26977   4.016   2.657  15.552 -0.0218 -0.7039  0.4309
 5115SOL    HW126978   3.983   2.731  15.501  1.2414  0.9266  1.9886
 5115SOL    HW226979   3.940   2.604  15.576 -0.1921  0.0217  1.4837
 5116SOL     OW26980   1.972   1.783   7.545  0.2213  0.6035 -0.2885
 5116SOL    HW126981   1.999   1.715   7.607 -1.8039 -0.3403 -0.4485
 5116SOL    HW226982   2.037   1.775   7.475 -2.0255  0.0478 -2.3181
 5117SOL     OW26983   3.076   3.864   4.145 -0.0691 -0.2941  0.1342
 5117SOL    HW126984   3.012   3.892   4.079  0.1570  0.8679  0.3995
 5117SOL    HW226985   3.146   3.815   4.103 -1.5078 -0.6379 -1.8907
 5118SOL     OW26986   0.472   0.243  13.473 -0.4791  0.3329 -0.5599
 5118SOL    HW126987   0.455   0.166  13.527 -1.7433  0.6317 -0.5281
 5118SOL    HW226988   0.423   0.310  13.521 -1.2918 -1.3502  0.9951
 5119SOL     OW26989   0.614   0.029   0.512 -0.7890  0.3537 -0.0867
 5119SOL    HW126990   0.537   0.021   0.568 -1.4531 -5.5824 -1.9297
 5119SOL    HW226991   0.596   4.723   0.428  0.7523 -0.0919 -0.2007
 5120SOL     OW26992   0.422   2.919   6.629 -0.4253  0.4306  0.0120
 5120SOL    HW126993   0.357   2.946   6.564  0.3241  0.1620 -0.8449
 5120SOL    HW226994   0.451   2.997   6.676  4.7422 -1.2730 -0.4044
 5121SOL     OW26995   3.278   3.113   6.264 -0.3574  0.3915 -0.4397
 5121SOL    HW126996   3.249   3.199   6.233 -0.7789  0.3434 -0.1671
 5121SOL    HW226997   3.225   3.097   6.342  1.4814 -0.9532  0.5479
 5122SOL     OW26998   0.626   1.087   7.433  0.4994  0.0565 -0.3325
 5122SOL    HW126999   0.721   1.078   7.439  0.2799  0.9297  4.2118
 5122SOL    HW227000   0.605   1.126   7.518 -0.7438 -2.9851  0.7483
 5123SOL     OW27001   0.337   1.793   2.659  0.2609 -0.2009  0.3133
 5123SOL    HW127002   0.266   1.790   2.594 -0.0197 -2.7247  0.7422
 5123SOL    HW227003   0.326   1.711   2.707 -0.1682  0.5058  1.3982
 5124SOL     OW27004   2.925   4.300   5.202  0.6582 -0.2937 -0.3248
 5124SOL    HW127005   2.940   4.351   5.122 -0.3352  1.1724  0.4460
 5124SOL    HW227006   2.906   4.211   5.172  1.9825  0.0975 -2.3594
 5125SOL     OW27007   3.044   0.079   9.732  0.4122 -0.1713  0.3828
 5125SOL    HW127008   3.082   0.077   9.644  3.4056 -1.2594  1.7048
 5125SOL    HW227009   3.072   0.167   9.758  1.0555 -0.6706  1.3524
 5126SOL     OW27010   0.099   1.139   7.016 -0.4206 -0.6116 -0.0333
 5126SOL    HW127011   0.056   1.194   7.081 -0.2297 -1.7610  1.0867
 5126SOL    HW227012   0.115   1.204   6.948 -1.6257 -0.0716  0.1985
 5127SOL     OW27013   4.040   2.626   5.677 -0.3759  0.6357 -0.2212
 5127SOL    HW127014   4.046   2.713   5.717  0.6576 -1.3864  3.9871
 5127SOL    HW227015   4.024   2.658   5.588  0.3738  0.1872 -0.5152
 5128SOL     OW27016   4.559   2.133   7.910 -0.3601 -0.1434 -0.0143
 5128SOL    HW127017   4.630   2.093   7.859  0.6841 -0.0652  1.3746
 5128SOL    HW227018   4.592   2.221   7.929  0.8025 -0.0395 -2.4910
 5129SOL     OW27019   1.138   0.758  15.027 -0.0124 -0.3969  0.2744
 5129SOL    HW127020   1.155   0.802  14.944  3.0178  0.7061  1.4576
 5129SOL    HW227021   1.064   0.797  15.072  0.2501 -1.9427  2.0242
 5130SOL     OW27022   2.963   2.033   4.408 -0.4954  0.3936  0.0875
 5130SOL    HW127023   2.881   2.009   4.365 -0.4516  0.8669 -0.2548
 5130SOL    HW227024   3.031   2.014   4.344 -1.5136  0.1730 -0.9180
 5131SOL     OW27025   2.086   2.211   6.517  0.3964 -0.1498  0.1807
 5131SOL    HW127026   2.076   2.256   6.601 -0.4937  0.2088 -0.1156
 5131SOL    HW227027   2.006   2.158   6.510  0.2079 -0.0154  1.2878
 5132SOL     OW27028   3.822   0.655  12.826 -0.1617 -0.4695  0.5367
 5132SOL    HW127029   3.784   0.575  12.789  0.9994  0.4687 -2.6768
 5132SOL    HW227030   3.811   0.647  12.920 -1.9025 -1.5521  0.2475
 5133SOL     OW27031   0.833   2.148   8.928  0.0816 -0.1521 -0.4231
 5133SOL    HW127032   0.813   2.224   8.982 -1.7933 -0.3207 -0.9119
 5133SOL    HW227033   0.764   2.095   8.968 -0.5138  0.0141 -1.2350
 5134SOL     OW27034   0.476   0.397   3.608 -0.7779 -0.3967  0.4378
 5134SOL    HW127035   0.464   0.311   3.569 -0.3345 -0.6748  0.9068
 5134SOL    HW227036   0.388   0.433   3.615 -0.9105 -0.5894 -0.2369
 5135SOL     OW27037   3.864   0.698   4.457 -0.0647  0.3196  0.1007
 5135SOL    HW127038   3.784   0.746   4.436  0.1696  0.1417 -1.1767
 5135SOL    HW227039   3.833   0.650   4.533  0.6040 -1.0373 -0.4940
 5136SOL     OW27040   0.912   0.390   5.629 -0.6121 -0.0530  0.4179
 5136SOL    HW127041   0.972   0.457   5.596  1.4126 -1.9075  0.3019
 5136SOL    HW227042   0.877   0.419   5.713 -1.0302  2.6008 -0.6833
 5137SOL     OW27043   4.604   4.465   7.123  0.2543 -0.1579  0.1089
 5137SOL    HW127044   4.614   4.515   7.042 -0.5878  0.7943  0.5937
 5137SOL    HW227045   4.667   4.394   7.111 -0.2216 -0.6016  0.2114
 5138SOL     OW27046   4.035   3.884   1.941 -0.0459  0.2168 -0.8998
 5138SOL    HW127047   3.978   3.947   1.899  0.1690  1.1999  0.2761
 5138SOL    HW227048   4.095   3.941   1.989 -0.4168 -0.9331  0.9394
 5139SOL     OW27049   3.004   3.212  10.668  0.4509  0.2287  0.4329
 5139SOL    HW127050   2.949   3.135  10.660  2.2201 -0.7307 -2.3422
 5139SOL    HW227051   3.001   3.241  10.577 -0.9995 -2.5178 -0.3882
 5140SOL     OW27052   3.558   0.132   3.819 -0.4100  0.4790 -0.3736
 5140SOL    HW127053   3.549   0.071   3.892 -1.4226  1.2893  0.1667
 5140SOL    HW227054   3.484   0.188   3.840  0.1194  0.7218  0.8153
 5141SOL     OW27055   3.292   0.342   8.198 -0.4874  0.0012  0.0309
 5141SOL    HW127056   3.222   0.400   8.228 -0.3193  1.1761 -1.8481
 5141SOL    HW227057   3.370   0.392   8.218 -0.4364  0.1309 -0.4967
 5142SOL     OW27058   0.079   0.797   2.469  0.6143  0.1281  0.5229
 5142SOL    HW127059   4.729   0.814   2.430  0.8258  0.8074  0.3525
 5142SOL    HW227060   0.094   0.882   2.510  0.9855  0.4510 -0.2690
 5143SOL     OW27061   1.408   1.555  15.655 -0.1732  0.1997 -0.1736
 5143SOL    HW127062   1.391   1.466  15.627  0.4358  0.5197 -1.5459
 5143SOL    HW227063   1.460   1.591  15.584  1.5878 -0.5358  0.7557
 5144SOL     OW27064   1.509   1.756   0.603  0.2009 -0.4745  0.0754
 5144SOL    HW127065   1.519   1.703   0.682 -2.3440 -2.2240 -0.7840
 5144SOL    HW227066   1.444   1.696   0.567 -0.1087 -0.7105  1.0085
 5145SOL     OW27067   2.116   3.951  10.412 -0.3525  0.2196 -0.1122
 5145SOL    HW127068   2.208   3.950  10.385 -0.2013 -3.4559  0.4321
 5145SOL    HW227069   2.083   3.888  10.347  2.3261 -0.0749 -1.1937
 5146SOL     OW27070   0.469   3.930   1.033 -0.1788  0.1284 -0.2396
 5146SOL    HW127071   0.488   3.981   1.112  1.7731 -1.6192  0.4052
 5146SOL    HW227072   0.505   3.847   1.065 -0.6458  0.2999  0.7279
 5147SOL     OW27073   2.576   0.607   4.607  0.4932 -0.1417  0.0037
 5147SOL    HW127074   2.623   0.553   4.670  0.0581 -0.0308  0.4235
 5147SOL    HW227075   2.583   0.559   4.524 -1.2461 -1.5875  0.6941
 5148SOL     OW27076   2.160   3.966   6.756 -0.1175 -0.6774 -0.2899
 5148SOL    HW127077   2.193   4.049   6.790  0.3482 -0.9812  0.0126
 5148SOL    HW227078   2.095   3.956   6.825  1.1176  1.2034  1.1488
 5149SOL     OW27079   1.733   3.152  14.222 -0.1362 -0.0122 -0.0672
 5149SOL    HW127080   1.787   3.223  14.256 -1.1359  0.1711  1.1315
 5149SOL    HW227081   1.791   3.133  14.148  1.2415 -2.8838  1.7287
 5150SOL     OW27082   4.003   4.027  17.123 -0.0410  0.2238  0.0468
 5150SOL    HW127083   4.018   4.023  17.029  0.2095 -0.4616  0.1136
 5150SOL    HW227084   4.046   3.945  17.148  2.6878  1.3243 -1.0088
 5151SOL     OW27085   3.488   4.714  10.327 -0.1607 -0.0543 -0.0041
 5151SOL    HW127086   3.535   4.709  10.410  1.1840 -0.4098 -0.7757
 5151SOL    HW227087   3.397   4.719  10.356  0.1291  1.0878  0.6979
 5152SOL     OW27088   2.337   4.364  13.069 -0.2153 -0.2676  0.1115
 5152SOL    HW127089   2.399   4.436  13.055 -0.1526  0.0225  1.8543
 5152SOL    HW227090   2.256   4.414  13.075  0.4641  0.7519  0.8239
 5153SOL     OW27091   3.927   3.212   5.535 -0.1873  0.2135 -0.2091
 5153SOL    HW127092   3.977   3.151   5.589  0.5183 -0.3316 -1.4878
 5153SOL    HW227093   3.868   3.155   5.486 -0.5194  3.0856 -3.1771
 5154SOL     OW27094   2.756   0.589   7.165 -0.0052 -0.2632 -0.4680
 5154SOL    HW127095   2.724   0.571   7.253 -0.1580  1.7918 -0.1019
 5154SOL    HW227096   2.680   0.633   7.128 -0.4448 -1.1410 -0.6136
 5155SOL     OW27097   2.043   3.407   8.884 -0.0960  0.0750 -0.1166
 5155SOL    HW127098   1.957   3.436   8.854 -0.1682 -0.3993 -0.3796
 5155SOL    HW227099   2.069   3.481   8.939 -0.1473  0.1623 -0.2105
 5156SOL     OW27100   4.013   1.755   5.765 -0.2531 -0.2033  0.0504
 5156SOL    HW127101   4.096   1.710   5.750  0.0793  0.0054  1.2168
 5156SOL    HW227102   4.050   1.843   5.761 -0.6056 -0.0418  0.3022
 5157SOL     OW27103   3.881   0.287  12.055 -0.2844  0.1969  0.0088
 5157SOL    HW127104   3.848   0.255  12.138 -0.2873  2.6819  0.9695
 5157SOL    HW227105   3.895   0.380  12.076  0.1750  0.5700 -1.9058
 5158SOL     OW27106   0.213   4.098   6.331 -0.2508 -0.4751  0.2163
 5158SOL    HW127107   0.127   4.083   6.371 -1.5841  2.0223 -1.7241
 5158SOL    HW227108   0.265   4.041   6.387  1.4729  1.3242  0.4611
 5159SOL     OW27109   2.987   1.141   4.591  0.0506 -0.0615 -0.2647
 5159SOL    HW127110   2.963   1.082   4.663  1.6736 -0.2088  0.1551
 5159SOL    HW227111   3.037   1.210   4.634 -0.7838  0.7131 -0.5440
 5160SOL     OW27112   0.671   0.183   3.407 -0.5291  0.2981 -0.0595
 5160SOL    HW127113   0.668   0.265   3.359  0.7885  0.8224  0.7373
 5160SOL    HW227114   0.578   0.173   3.425 -0.7745 -0.2843 -1.6502
 5161SOL     OW27115   1.255   1.391   3.851 -0.9385  0.0051  0.4877
 5161SOL    HW127116   1.346   1.421   3.854 -1.2620  1.1060 -0.9234
 5161SOL    HW227117   1.243   1.356   3.939  0.5619  1.9214  1.4660
 5162SOL     OW27118   2.971   1.912   3.721  0.3906 -0.5365 -0.1510
 5162SOL    HW127119   2.893   1.946   3.766  1.0870 -1.0573  1.4496
 5162SOL    HW227120   2.965   1.822   3.751 -2.6033 -0.8895 -1.8257
 5163SOL     OW27121   4.626   2.866   9.182 -0.0091  0.3272  0.0274
 5163SOL    HW127122   4.687   2.793   9.192 -0.9076 -0.3175  0.8157
 5163SOL    HW227123   4.688   2.931   9.215 -0.2483  1.7956 -2.3937
 5164SOL     OW27124   4.215   2.317   4.252  0.0014  0.1499 -0.0379
 5164SOL    HW127125   4.174   2.396   4.217 -2.3471 -0.9112  0.2714
 5164SOL    HW227126   4.272   2.286   4.182  2.6241  0.3845  2.0145
 5165SOL     OW27127   3.525   2.425   4.074 -0.0606 -0.4771  0.0288
 5165SOL    HW127128   3.440   2.435   4.031 -0.4389 -1.8534  0.4637
 5165SOL    HW227129   3.581   2.386   4.007 -2.8642 -0.5021 -2.2927
 5166SOL     OW27130   1.293   0.662   9.707  0.4542 -0.1823 -0.1420
 5166SOL    HW127131   1.342   0.590   9.746 -0.6073 -2.1009 -2.3109
 5166SOL    HW227132   1.249   0.614   9.636 -0.4670 -1.7526  1.4654
 5167SOL     OW27133   0.109   1.070  11.488 -0.3630 -0.1831 -0.2021
 5167SOL    HW127134   0.105   1.136  11.557 -0.5630  1.8513 -2.1493
 5167SOL    HW227135   0.052   1.114  11.424  1.1610  0.8632 -0.8308
 5168SOL     OW27136   0.245   1.867   5.619 -0.0686 -0.2168  0.1377
 5168SOL    HW127137   0.165   1.876   5.567 -0.0254  0.0169  0.1137
 5168SOL    HW227138   0.292   1.809   5.559 -1.4618 -2.1616  0.9101
 5169SOL     OW27139   3.373   0.860   6.657 -0.3351 -0.1382  0.1987
 5169SOL    HW127140   3.397   0.782   6.707 -1.6986 -1.7299 -1.6031
 5169SOL    HW227141   3.309   0.829   6.593 -0.0664  0.8124 -0.5157
 5170SOL     OW27142   3.733   1.146   5.074 -0.0138 -0.3476 -0.1084
 5170SOL    HW127143   3.722   1.108   5.161 -1.6944  1.6158  0.5300
 5170SOL    HW227144   3.828   1.157   5.078 -0.4990  2.4646  3.1076
 5171SOL     OW27145   0.195   0.753   5.942  0.1573 -0.1055  0.0572
 5171SOL    HW127146   0.171   0.756   5.850 -1.6158 -1.3288  0.4725
 5171SOL    HW227147   0.180   0.843   5.971 -1.4750 -0.9608  1.9228
 5172SOL     OW27148   2.858   0.835  11.915 -0.3905  0.1056 -0.4298
 5172SOL    HW127149   2.795   0.784  11.967 -1.0356  0.7587 -0.5739
 5172SOL    HW227150   2.942   0.810  11.954 -0.7572  0.8163  0.8064
 5173SOL     OW27151   1.016   3.702   7.427 -0.1491 -0.3028  0.4060
 5173SOL    HW127152   1.100   3.718   7.469 -0.5751  0.0763  1.1165
 5173SOL    HW227153   0.955   3.721   7.498  1.3179  2.0634  1.0277
 5174SOL     OW27154   4.103   1.538   2.096  0.0015 -0.0706  0.3170
 5174SOL    HW127155   4.016   1.576   2.079  0.5572  1.4189  0.8072
 5174SOL    HW227156   4.156   1.618   2.092 -0.9033  0.6376  2.1354
 5175SOL     OW27157   1.175   4.693   2.244 -0.2988  0.4733  0.2560
 5175SOL    HW127158   1.184   0.026   2.310  0.9892  0.6452 -0.1050
 5175SOL    HW227159   1.079   4.688   2.247 -0.2779  0.0457  0.1807
 5176SOL     OW27160   4.143   4.559   4.342 -0.0498 -0.4314  0.6074
 5176SOL    HW127161   4.114   4.504   4.416  2.6512 -0.3262  1.7748
 5176SOL    HW227162   4.204   4.612   4.394  0.9444  0.2992 -1.3208
 5177SOL     OW27163   2.757   1.962   5.578  0.4709 -0.1542 -0.3267
 5177SOL    HW127164   2.722   2.022   5.512 -1.6722 -0.6259  0.3677
 5177SOL    HW227165   2.731   1.873   5.556  2.0832 -0.9361  0.8995
 5178SOL     OW27166   3.817   3.217   6.741  0.5194  0.4676  0.3594
 5178SOL    HW127167   3.792   3.301   6.702 -1.4727  0.5596  1.8354
 5178SOL    HW227168   3.910   3.221   6.721  0.8526 -0.2650  1.7629
 5179SOL     OW27169   2.798   3.949  16.887 -0.0686  0.1052  0.0004
 5179SOL    HW127170   2.889   3.959  16.915 -0.6055 -0.9420  2.0736
 5179SOL    HW227171   2.785   4.026  16.831  2.2815  0.9397  0.5968
 5180SOL     OW27172   3.968   2.366   0.694 -0.1600  0.2847  0.5649
 5180SOL    HW127173   3.893   2.395   0.643  2.1386  2.0308 -1.8065
 5180SOL    HW227174   3.998   2.447   0.735 -0.7174  0.5412  0.4716
 5181SOL     OW27175   1.288   1.700  11.754 -0.4337  0.2315 -0.1785
 5181SOL    HW127176   1.305   1.724  11.663 -0.6229  0.7124 -0.0847
 5181SOL    HW227177   1.369   1.729  11.795  0.4323  1.6617 -2.9209
 5182SOL     OW27178   1.964   4.037   4.894  0.4250  0.3957  0.0333
 5182SOL    HW127179   1.899   4.012   4.960  1.2578  0.8436  1.0151
 5182SOL    HW227180   1.940   3.972   4.827  3.3447 -1.6470  0.9477
 5183SOL     OW27181   4.299   1.617  15.022  0.0437 -0.2952 -0.6588
 5183SOL    HW127182   4.317   1.614  14.928 -0.0106 -0.2973 -0.6694
 5183SOL    HW227183   4.268   1.527  15.033  1.2064 -0.5157  0.7786
 5184SOL     OW27184   2.621   1.329   2.678  0.3381  0.1118  0.0899
 5184SOL    HW127185   2.710   1.353   2.652  0.2178  1.0522  0.5285
 5184SOL    HW227186   2.571   1.341   2.597  0.8298 -2.1402 -0.5356
 5185SOL     OW27187   4.283   4.282   1.015 -0.2823  0.1714  0.3443
 5185SOL    HW127188   4.349   4.212   1.010 -0.5611 -0.1057  0.5729
 5185SOL    HW227189   4.335   4.361   1.001 -0.2227 -0.2571 -1.9030
 5186SOL     OW27190   3.053   0.513   9.022  0.2932 -0.0850  0.1314
 5186SOL    HW127191   3.047   0.418   9.032  1.6197 -0.2385 -0.4937
 5186SOL    HW227192   2.961   0.533   9.006 -0.6617 -4.0907  0.5710
 5187SOL     OW27193   1.237   0.484   1.617  0.1097  0.1537 -0.3134
 5187SOL    HW127194   1.155   0.502   1.663  0.8142 -1.5659  1.6348
 5187SOL    HW227195   1.246   0.390   1.634 -1.3038 -0.1458 -1.2397
 5188SOL     OW27196   2.139   0.597   6.610  0.4429 -0.5734 -0.1683
 5188SOL    HW127197   2.189   0.641   6.541  1.3580 -0.1868  0.7418
 5188SOL    HW227198   2.102   0.526   6.558 -0.7788 -0.2678  0.2850
 5189SOL     OW27199   1.967   1.107   3.263  0.5537  0.0973  0.3154
 5189SOL    HW127200   2.019   1.115   3.344  1.7146  0.4239 -0.4544
 5189SOL    HW227201   2.032   1.143   3.202 -0.3775 -2.1394 -1.9635
 5190SOL     OW27202   3.691   1.406   4.068 -0.1349  0.4668 -0.0467
 5190SOL    HW127203   3.754   1.333   4.066 -1.1189 -0.3950  0.3123
 5190SOL    HW227204   3.747   1.480   4.088  0.9555 -0.2912 -0.2580
 5191SOL     OW27205   3.896   1.540   7.619 -0.2957  0.2827 -0.4943
 5191SOL    HW127206   3.957   1.509   7.551 -1.9340  1.2024 -2.3927
 5191SOL    HW227207   3.941   1.623   7.637  1.1119 -0.5951  0.0694
 5192SOL     OW27208   2.170   1.709   3.303 -0.2777  0.4141  0.5596
 5192SOL    HW127209   2.110   1.644   3.266  1.0454 -1.4663  1.7486
 5192SOL    HW227210   2.186   1.774   3.235  1.2275 -0.9248 -0.3398
 5193SOL     OW27211   2.390   1.740   2.116  0.1510  0.0032  0.1966
 5193SOL    HW127212   2.297   1.738   2.092  0.6486  1.6742 -1.8639
 5193SOL    HW227213   2.415   1.654   2.084 -1.4909 -0.8010  1.0677
 5194SOL     OW27214   3.167   1.064   1.418 -0.4968 -0.0091  0.2175
 5194SOL    HW127215   3.110   1.004   1.466 -0.3816 -0.8083 -0.6695
 5194SOL    HW227216   3.213   0.999   1.366 -0.1112 -0.3051  0.9354
 5195SOL     OW27217   4.208   4.357   7.489 -0.4392  0.0942 -0.8821
 5195SOL    HW127218   4.271   4.419   7.453  3.0125 -3.7625 -1.4667
 5195SOL    HW227219   4.252   4.273   7.477  1.6589  1.2034 -0.9178
 5196SOL     OW27220   1.424   4.628   8.117 -0.1195 -0.5033  0.3146
 5196SOL    HW127221   1.465   4.541   8.116  1.0618  0.0651 -0.9121
 5196SOL    HW227222   1.427   4.638   8.212  0.9318  1.8472  0.0279
 5197SOL     OW27223   2.156   2.008   3.719  0.1768 -0.5927  0.1085
 5197SOL    HW127224   2.221   1.957   3.767  0.1931 -1.4302 -0.8049
 5197SOL    HW227225   2.146   1.946   3.646 -0.1075 -1.5843  0.9908
 5198SOL     OW27226   4.247   4.512   3.370  0.0987 -0.1984  0.1918
 5198SOL    HW127227   4.239   4.499   3.465  0.2794  0.1674  0.2605
 5198SOL    HW227228   4.319   4.575   3.382 -1.3271  1.4261  0.1710
 5199SOL     OW27229   3.012   2.572   1.146 -0.3063  0.4818  0.1832
 5199SOL    HW127230   3.075   2.639   1.119  0.0938 -0.6799 -1.7272
 5199SOL    HW227231   3.001   2.587   1.240 -0.8234  2.0526 -0.1220
 5200SOL     OW27232   3.666   2.467   6.364 -0.1357 -0.2990 -0.4818
 5200SOL    HW127233   3.715   2.549   6.370  0.0109 -0.4854  0.8613
 5200SOL    HW227234   3.729   2.396   6.372 -0.3368 -0.3628  0.6740
 5201SOL     OW27235   1.808   0.588   0.116  0.3255 -0.3977  0.1179
 5201SOL    HW127236   1.738   0.631   0.067  1.9589  2.5577  0.3884
 5201SOL    HW227237   1.876   0.568   0.052 -1.3070  0.8348 -2.0031
 5202SOL     OW27238   1.011   1.748   2.823 -0.0873  0.5304  0.1216
 5202SOL    HW127239   1.003   1.714   2.912  2.2205  0.2720  0.2160
 5202SOL    HW227240   0.960   1.689   2.767  1.5304 -0.1624 -0.6290
 5203SOL     OW27241   2.828   4.062   9.582 -0.8268 -0.2534 -0.2959
 5203SOL    HW127242   2.766   4.107   9.638  1.0711  1.9042  0.0731
 5203SOL    HW227243   2.790   4.098   9.502  0.6379  0.5793 -0.6186
 5204SOL     OW27244   4.164   2.801   7.908  0.2946  0.2526 -0.0223
 5204SOL    HW127245   4.078   2.825   7.874  0.0542  0.5485  0.7721
 5204SOL    HW227246   4.125   2.761   7.986 -1.2870 -0.4605 -1.1991
 5205SOL     OW27247   4.206   2.912   0.476 -0.4559  0.2183  0.9142
 5205SOL    HW127248   4.169   2.878   0.558 -2.0972 -2.0927 -0.7450
 5205SOL    HW227249   4.251   2.992   0.500  0.9746 -1.0167  2.3690
 5206SOL     OW27250   4.570   0.737   6.249  0.4065 -0.3769 -0.3286
 5206SOL    HW127251   4.643   0.788   6.213 -0.0014 -0.2746 -0.9885
 5206SOL    HW227252   4.587   0.650   6.213 -1.8863 -1.9660  2.4409
 5207SOL     OW27253   2.920   0.553   6.924  0.0651 -0.3579 -0.5170
 5207SOL    HW127254   2.927   0.462   6.896 -0.6523 -1.1928  2.0484
 5207SOL    HW227255   2.843   0.548   6.979  0.6280  0.7324  0.3597
 5208SOL     OW27256   1.096   0.889   8.402  0.5149 -0.0296 -0.2098
 5208SOL    HW127257   1.029   0.873   8.336  1.0064  0.5215 -0.8353
 5208SOL    HW227258   1.103   0.806   8.450 -2.5613 -0.2695 -0.1343
 5209SOL     OW27259   2.640   3.038   9.930 -0.5473  0.0925  0.2599
 5209SOL    HW127260   2.547   3.014   9.929 -0.2853 -0.9756  2.3819
 5209SOL    HW227261   2.680   2.966   9.979  1.5178  1.3035  0.3694
 5210SOL     OW27262   2.544   2.163   3.203 -0.1151 -0.2260 -0.2091
 5210SOL    HW127263   2.567   2.084   3.154  0.9786  0.4260 -0.7608
 5210SOL    HW227264   2.592   2.134   3.280  0.6544 -0.5120 -0.7915
 5211SOL     OW27265   3.724   0.924   8.192 -0.2097  0.3668  0.0833
 5211SOL    HW127266   3.816   0.913   8.167 -0.8178 -0.0206 -1.9396
 5211SOL    HW227267   3.678   0.882   8.119  1.2380 -1.0482 -0.0223
 5212SOL     OW27268   0.864   4.602   7.605 -0.0528  0.2925 -0.4037
 5212SOL    HW127269   0.874   4.571   7.515 -2.2551 -3.8251  0.8082
 5212SOL    HW227270   0.835   4.526   7.656  0.2716 -0.7762 -1.8211
 5213SOL     OW27271   3.078   1.223   8.965  0.0682 -0.1864  0.5032
 5213SOL    HW127272   3.058   1.286   8.895 -3.1867 -0.8497  0.8436
 5213SOL    HW227273   3.058   1.138   8.927 -2.6055  0.1096  1.2128
 5214SOL     OW27274   1.213   3.647  11.076 -0.1736 -0.5786 -0.0641
 5214SOL    HW127275   1.277   3.577  11.090 -0.1875 -0.3694  1.0855
 5214SOL    HW227276   1.142   3.589  11.048 -0.2045 -0.4827 -0.1806
 5215SOL     OW27277   0.144   0.170   3.557  0.2976  0.2331  0.1992
 5215SOL    HW127278   0.104   0.093   3.517  0.4836 -0.2645  0.9523
 5215SOL    HW227279   0.076   0.204   3.616 -0.0234 -2.0001  1.1409
 5216SOL     OW27280   2.875   1.037   7.582  0.0759  0.0941 -0.2287
 5216SOL    HW127281   2.780   1.042   7.588  0.0212 -2.2049  1.0123
 5216SOL    HW227282   2.891   0.979   7.507 -1.9138 -0.3397 -0.3146
 5217SOL     OW27283   4.453   4.475   7.403  0.1931  0.2078  0.0849
 5217SOL    HW127284   4.485   4.561   7.428  1.2078 -0.1517  0.0224
 5217SOL    HW227285   4.484   4.460   7.314  2.4738 -1.4711  1.1375
 5218SOL     OW27286   3.430   0.328   9.146 -0.1353 -0.0015  0.1202
 5218SOL    HW127287   3.425   0.395   9.078  1.0753 -2.1678 -2.1147
 5218SOL    HW227288   3.524   0.329   9.167  0.3047 -0.9151 -1.7131
 5219SOL     OW27289   2.519   2.636   3.376  0.2986 -0.2377  0.0102
 5219SOL    HW127290   2.437   2.588   3.370 -0.1717  0.5195  0.3586
 5219SOL    HW227291   2.564   2.569   3.326 -0.2838 -0.5776 -0.0552
 5220SOL     OW27292   3.448   2.853   3.122 -0.2173 -0.2296 -0.0746
 5220SOL    HW127293   3.403   2.838   3.039 -1.9558 -0.2934  0.8905
 5220SOL    HW227294   3.409   2.935   3.150 -1.8306 -0.5346 -1.4395
 5221SOL     OW27295   1.657   4.209   4.822  0.3602  0.3936  0.1235
 5221SOL    HW127296   1.727   4.241   4.766  2.2965  1.0477  2.9677
 5221SOL    HW227297   1.599   4.184   4.750  3.0732  0.2631 -1.9790
 5222SOL     OW27298   0.862   1.826   7.311 -0.0161  0.4515  0.3044
 5222SOL    HW127299   0.946   1.866   7.288 -0.0951  1.7657  2.3535
 5222SOL    HW227300   0.885   1.754   7.370  1.7526  0.0780 -0.8439
 5223SOL     OW27301   2.658   2.727   9.416  0.2117  0.5543 -0.6836
 5223SOL    HW127302   2.752   2.736   9.396  0.3334  1.6874  0.4687
 5223SOL    HW227303   2.630   2.818   9.406 -1.7202  0.1382  1.1166
 5224SOL     OW27304   2.835   4.056  12.795  0.0099  0.0665 -0.3041
 5224SOL    HW127305   2.897   4.113  12.748 -1.1247  0.4404 -1.3394
 5224SOL    HW227306   2.777   4.043  12.721  1.4034  1.5836 -1.6724
 5225SOL     OW27307   4.060   0.111   6.919  0.0264 -1.1028  0.3241
 5225SOL    HW127308   4.083   0.180   6.981 -1.6487 -0.8784  0.6753
 5225SOL    HW227309   4.130   0.048   6.938  1.2086  0.7838  2.1626
 5226SOL     OW27310   0.393   2.304  15.888 -0.0252 -0.0523  0.3634
 5226SOL    HW127311   0.371   2.247  15.814 -0.9376 -0.8870  1.2731
 5226SOL    HW227312   0.472   2.346  15.853 -1.3921  1.2108 -1.2439
 5227SOL     OW27313   1.038   2.995   7.696 -0.7670  0.2245 -0.0892
 5227SOL    HW127314   0.957   3.040   7.670  1.4047  3.4969 -1.0836
 5227SOL    HW227315   1.015   2.905   7.676  2.5869 -1.5045  3.7358
 5228SOL     OW27316   1.808   2.435   3.534 -0.1513  0.8801 -0.5703
 5228SOL    HW127317   1.844   2.367   3.477 -0.5270  2.6061 -2.8603
 5228SOL    HW227318   1.728   2.466   3.492 -2.7923 -0.8582  3.1653
 5229SOL     OW27319   0.731   2.955   0.041 -0.2307 -0.4253  0.0874
 5229SOL    HW127320   0.796   2.998  17.729 -0.8299  0.6344  0.2085
 5229SOL    HW227321   0.745   3.010   0.119 -0.5170 -1.2025  0.6876
 5230SOL     OW27322   1.846   0.654  10.716  0.7394 -0.1340 -0.7791
 5230SOL    HW127323   1.901   0.729  10.739 -2.1040  1.4865  0.7413
 5230SOL    HW227324   1.901   0.620  10.646  1.2093 -1.4078  0.2248
 5231SOL     OW27325   0.168   2.666   3.094  0.3294  0.0072 -0.2423
 5231SOL    HW127326   0.227   2.698   3.162  0.2577 -0.0273 -0.1634
 5231SOL    HW227327   0.208   2.581   3.077  0.9083  0.2138  0.1035
 5232SOL     OW27328   3.132   3.245   1.463 -0.0676 -0.4672 -0.5706
 5232SOL    HW127329   3.131   3.341   1.468 -0.0940 -0.5123  0.3464
 5232SOL    HW227330   3.185   3.227   1.540 -0.7250  1.0465  0.2471
 5233SOL     OW27331   4.114   4.169   4.752  0.3740 -0.1079 -0.6910
 5233SOL    HW127332   4.117   4.135   4.842 -0.6166  2.7496  0.4298
 5233SOL    HW227333   4.133   4.262   4.764 -0.7034 -0.2135  1.8265
 5234SOL     OW27334   3.703   1.997  14.878  0.0102 -0.0355  0.4918
 5234SOL    HW127335   3.772   1.991  14.812 -1.3698 -3.0078 -0.6789
 5234SOL    HW227336   3.674   1.906  14.874  0.8169 -0.2378 -0.6594
 5235SOL     OW27337   3.848   0.946  16.181  0.1791 -0.3199 -0.3658
 5235SOL    HW127338   3.786   0.950  16.254  1.4083  1.8594  0.5705
 5235SOL    HW227339   3.929   0.903  16.208  0.1131  0.6219  1.3757
 5236SOL     OW27340   0.574   3.812  14.975  0.3692 -0.6171 -0.1632
 5236SOL    HW127341   0.494   3.846  14.934  1.2481  0.1489 -1.2590
 5236SOL    HW227342   0.627   3.892  14.972 -3.0295  1.6267 -0.4739
 5237SOL     OW27343   0.614   3.412   7.669  0.0617 -0.0224  0.0511
 5237SOL    HW127344   0.614   3.471   7.744  2.4600 -1.0863  0.9081
 5237SOL    HW227345   0.606   3.325   7.708  2.4479 -0.0634  0.4503
 5238SOL     OW27346   3.638   0.087   6.883  0.1316  0.1508  0.8543
 5238SOL    HW127347   3.683   0.022   6.938  0.3591 -0.3851  0.0318
 5238SOL    HW227348   3.717   0.104   6.833 -0.8926 -0.7558 -1.0521
 5239SOL     OW27349   3.879   4.655   1.834 -0.1240 -0.4036 -0.1601
 5239SOL    HW127350   3.865   4.623   1.744 -1.4955 -0.6280  0.1388
 5239SOL    HW227351   3.859   0.012   1.826 -0.5577 -0.4695  0.1804
 5240SOL     OW27352   1.277   1.411   9.963  0.2600 -0.0334  0.2615
 5240SOL    HW127353   1.369   1.403   9.939  0.0739 -2.0063  0.1855
 5240SOL    HW227354   1.273   1.364  10.047  0.4930 -1.7532 -0.6996
 5241SOL     OW27355   4.037   1.536   5.043  0.5453  0.3085 -0.3798
 5241SOL    HW127356   3.981   1.523   5.119  2.8130 -1.1653  1.0692
 5241SOL    HW227357   4.050   1.630   5.056 -2.5886  0.5850  0.7447
 5242SOL     OW27358   1.657   0.539   2.169 -0.3522  0.2269  0.1706
 5242SOL    HW127359   1.602   0.484   2.114 -2.8774  0.4375  2.5001
 5242SOL    HW227360   1.602   0.594   2.224  0.9011  0.9542  0.7095
 5243SOL     OW27361   0.351   3.677   3.200  0.0216 -0.0321  0.4036
 5243SOL    HW127362   0.376   3.768   3.217 -0.0448  0.0690 -0.0406
 5243SOL    HW227363   0.256   3.687   3.200 -0.0767 -1.0000  0.0257
 5244SOL     OW27364   1.164   1.480   6.671 -0.4274  0.2594 -0.1778
 5244SOL    HW127365   1.155   1.396   6.628  1.7961 -0.2844  0.4120
 5244SOL    HW227366   1.197   1.524   6.593 -0.2306  0.6435  0.1221
 5245SOL     OW27367   2.680   1.557   4.947 -0.8108  0.3999  0.6302
 5245SOL    HW127368   2.598   1.606   4.959 -0.7429  1.1788 -2.1688
 5245SOL    HW227369   2.739   1.633   4.937  0.1371 -0.1606  1.9175
 5246SOL     OW27370   0.316   4.193   3.395 -0.6129 -0.0226  0.1641
 5246SOL    HW127371   0.255   4.240   3.451  0.3144 -1.6186  2.5241
 5246SOL    HW227372   0.276   4.210   3.310 -0.6406  0.2149  0.2249
 5247SOL     OW27373   4.307   2.720   2.144  0.4686  0.2847  0.5166
 5247SOL    HW127374   4.329   2.637   2.102  0.9086  1.0165 -0.6914
 5247SOL    HW227375   4.211   2.723   2.141  0.5782  1.7566 -1.2669
 5248SOL     OW27376   3.517   3.704   0.626  0.3702  0.3987  0.1501
 5248SOL    HW127377   3.592   3.704   0.567  0.2709 -0.7378  0.0159
 5248SOL    HW227378   3.558   3.698   0.712  2.8468  0.0206 -1.0306
 5249SOL     OW27379   4.274   1.749   3.633  0.5173 -0.1228 -0.4565
 5249SOL    HW127380   4.278   1.698   3.714  3.1653  1.1360  0.1996
 5249SOL    HW227381   4.339   1.701   3.581  0.0132 -0.7195 -0.5328
 5250SOL     OW27382   3.697   4.584   1.597  0.5671  0.3422  0.0436
 5250SOL    HW127383   3.649   4.666   1.592  3.0287  1.9264  2.5239
 5250SOL    HW227384   3.750   4.601   1.519 -1.0514  1.0412 -0.9084
 5251SOL     OW27385   0.039   3.084   9.249 -0.0906  0.1198  0.0634
 5251SOL    HW127386   0.085   3.099   9.332  0.5951 -0.4730 -0.2007
 5251SOL    HW227387   4.734   3.168   9.231  1.2208  0.3649 -1.7947
 5252SOL     OW27388   1.709   3.974   0.114  0.3804  0.5633 -0.4769
 5252SOL    HW127389   1.790   3.986   0.064  1.4268 -0.4004  0.9779
 5252SOL    HW227390   1.675   3.901   0.063 -1.2542  0.2747  1.0167
 5253SOL     OW27391   3.110   2.140   1.343  0.5883 -0.2908 -0.3171
 5253SOL    HW127392   3.014   2.138   1.350  0.4289  1.0162 -2.3355
 5253SOL    HW227393   3.126   2.088   1.265  1.7801 -2.2699  1.2458
 5254SOL     OW27394   4.060   3.995   7.247 -0.2165 -0.1467 -0.4583
 5254SOL    HW127395   3.970   4.024   7.233  0.2917  1.4906 -0.3637
 5254SOL    HW227396   4.050   3.992   7.342 -1.1441 -0.9617 -0.5929
 5255SOL     OW27397   0.905   4.160   1.489 -0.4324  0.4725 -0.1752
 5255SOL    HW127398   0.988   4.111   1.486  0.3479  1.7610  0.1266
 5255SOL    HW227399   0.844   4.090   1.510 -0.1379  0.6481  1.3107
 5256SOL     OW27400   1.584   4.642   3.147 -0.0979  0.7372 -0.2527
 5256SOL    HW127401   1.563   4.733   3.166 -0.1433  0.4193  1.2108
 5256SOL    HW227402   1.549   4.614   3.231  0.4016 -0.9131 -0.5855
 5257SOL     OW27403   1.064   2.303   3.195 -0.1064 -0.5311 -0.1685
 5257SOL    HW127404   1.000   2.333   3.130  3.4174  0.9266 -2.9608
 5257SOL    HW227405   1.074   2.377   3.256  0.7290 -0.8917  0.1371
 5258SOL     OW27406   0.339   3.164  12.405 -0.6662 -0.2816  0.2242
 5258SOL    HW127407   0.371   3.107  12.475 -0.2214  2.0879  1.9519
 5258SOL    HW227408   0.342   3.102  12.332  1.0703  1.2160 -0.9699
 5259SOL     OW27409   4.476   3.245   7.971 -0.4002  0.2389 -0.1093
 5259SOL    HW127410   4.418   3.191   7.916  0.9907 -0.9194 -0.4240
 5259SOL    HW227411   4.481   3.190   8.049  0.9422 -1.2538 -1.2514
 5260SOL     OW27412   4.717   3.539   0.012  0.0394  0.4127 -0.3358
 5260SOL    HW127413   4.635   3.569   0.052 -1.2091 -2.1228 -0.9937
 5260SOL    HW227414   4.701   3.564  17.665  0.6487 -1.5315 -0.9687
 5261SOL     OW27415   3.243   2.326   8.225 -0.0198  0.3518  0.1135
 5261SOL    HW127416   3.185   2.322   8.149  0.4774 -4.1613 -0.0424
 5261SOL    HW227417   3.186   2.373   8.287  1.1549 -0.2420  1.6441
 5262SOL     OW27418   1.882   1.779   8.892  0.0878  0.8659  0.3516
 5262SOL    HW127419   1.925   1.740   8.969  0.7957  1.1288  0.0932
 5262SOL    HW227420   1.955   1.825   8.849  1.4834 -0.7637  0.9640
 5263SOL     OW27421   4.014   2.464   6.915  0.1798  0.0635  0.5184
 5263SOL    HW127422   4.009   2.461   6.819 -1.1223  0.0953  0.5827
 5263SOL    HW227423   4.037   2.557   6.922 -0.9486  0.5270 -1.8469
 5264SOL     OW27424   4.601   0.771   2.756 -0.7561 -0.2019 -0.4307
 5264SOL    HW127425   4.628   0.827   2.828  0.2850 -0.0580 -0.9397
 5264SOL    HW227426   4.664   0.700   2.761  0.4123  0.7070 -2.0971
 5265SOL     OW27427   1.315   1.400   5.190 -0.6631 -0.2909 -0.9371
 5265SOL    HW127428   1.246   1.336   5.174 -1.1779  0.2508 -0.8718
 5265SOL    HW227429   1.248   1.465   5.171 -0.3020  0.2680 -0.3142
 5266SOL     OW27430   2.549   0.415   9.766  0.0818  0.4651 -0.1116
 5266SOL    HW127431   2.570   0.461   9.685 -0.7210  1.1360  0.0649
 5266SOL    HW227432   2.637   0.425   9.803  0.4159  2.7151 -1.5257
 5267SOL     OW27433   3.522   2.733   4.453 -0.0037 -0.0881  0.1554
 5267SOL    HW127434   3.572   2.652   4.463  1.5461  0.7189 -1.1643
 5267SOL    HW227435   3.489   2.729   4.364 -2.6058  1.1118  1.0648
 5268SOL     OW27436   4.111   4.508  14.878 -0.0606 -0.4857  0.4083
 5268SOL    HW127437   4.116   4.460  14.795 -0.4205 -3.3729  2.0223
 5268SOL    HW227438   4.167   4.578  14.847 -2.1768  0.2206 -1.7497
 5269SOL     OW27439   4.658   1.272   5.417 -0.1011  0.0139  0.4949
 5269SOL    HW127440   4.727   1.268   5.350  0.1193 -0.3873  0.7497
 5269SOL    HW227441   4.581   1.226   5.383  0.1128 -1.4021  1.9367
 5270SOL     OW27442   0.846   0.350  16.836  0.0320 -0.3626 -0.2667
 5270SOL    HW127443   0.911   0.372  16.768 -0.7640  1.3154 -0.4770
 5270SOL    HW227444   0.769   0.404  16.817  0.8233  0.6518 -0.6034
 5271SOL     OW27445   2.481   2.502   1.845  0.3641  0.3488 -0.6411
 5271SOL    HW127446   2.554   2.503   1.783 -1.1426  0.2244 -2.4450
 5271SOL    HW227447   2.485   2.414   1.883  1.1412  0.5165 -0.3343
 5272SOL     OW27448   0.411   4.624   7.325  0.1677 -0.3390 -0.8159
 5272SOL    HW127449   0.390   4.717   7.322 -1.0249 -0.5026  2.5303
 5272SOL    HW227450   0.358   4.589   7.253  0.8716  0.0744 -1.5317
 5273SOL     OW27451   2.251   1.852   2.335 -0.3310 -0.0953 -0.1135
 5273SOL    HW127452   2.167   1.896   2.341 -1.0199 -1.5295  0.8376
 5273SOL    HW227453   2.230   1.778   2.278 -2.0591  2.5450 -2.8514
 5274SOL     OW27454   3.323   4.142   5.714  0.0302  0.0467  0.5301
 5274SOL    HW127455   3.344   4.203   5.643  3.0947 -1.7274 -0.0935
 5274SOL    HW227456   3.402   4.158   5.765 -0.5890 -1.0404  1.8327
 5275SOL     OW27457   2.178   1.954   8.389 -0.1521 -0.9591 -0.1310
 5275SOL    HW127458   2.156   1.861   8.380  0.8280 -1.2883  0.8745
 5275SOL    HW227459   2.225   1.946   8.472 -0.9442  0.4723  0.4549
 5276SOL     OW27460   0.130   4.150   8.560  0.1648 -0.2139 -0.4182
 5276SOL    HW127461   0.095   4.066   8.589  1.2962 -0.0332  1.5258
 5276SOL    HW227462   0.071   4.168   8.488 -1.3077 -1.6932  0.4253
 5277SOL     OW27463   4.127   1.269  11.017 -0.0583  0.2829  0.1500
 5277SOL    HW127464   4.092   1.356  10.996  0.1587  0.3100 -0.1053
 5277SOL    HW227465   4.087   1.248  11.101 -1.5705  3.5211  0.2442
 5278SOL     OW27466   3.728   4.330   4.196 -0.2150  0.3674 -0.1143
 5278SOL    HW127467   3.774   4.330   4.112 -0.7138 -0.3276 -0.3957
 5278SOL    HW227468   3.741   4.239   4.223  1.2474  0.0018 -2.0158
 5279SOL     OW27469   0.071   3.055   8.083 -0.1091 -0.3039 -0.1167
 5279SOL    HW127470   0.093   2.998   8.157 -0.8216  1.1281  1.1822
 5279SOL    HW227471   0.075   3.139   8.128 -3.7180 -0.2123  0.0397
 5280SOL     OW27472   3.557   0.083   1.569  0.0157  0.1215 -0.1003
 5280SOL    HW127473   3.565   0.171   1.533  0.1652  0.9919  2.0124
 5280SOL    HW227474   3.502   0.101   1.646 -1.2620  1.6152 -1.3766
 5281SOL     OW27475   4.727   1.515   4.510  0.0482 -0.0674 -0.1059
 5281SOL    HW127476   0.081   1.546   4.518 -0.7569  1.7938  1.7005
 5281SOL    HW227477   4.686   1.601   4.501  1.7828  0.8797  1.0641
 5282SOL     OW27478   0.408   2.720  16.242 -0.0718  0.3507  0.4201
 5282SOL    HW127479   0.498   2.740  16.216  0.9138 -0.7384  3.0153
 5282SOL    HW227480   0.400   2.627  16.218  0.7665  0.0753  1.2136
 5283SOL     OW27481   3.836   1.617   2.027 -0.0843  0.0195 -0.0646
 5283SOL    HW127482   3.764   1.584   2.082  0.0399  1.4763  0.9703
 5283SOL    HW227483   3.799   1.700   1.999 -0.1219  0.6562  1.8943
 5284SOL     OW27484   1.141   2.750   2.065 -0.2487 -0.2260  0.2977
 5284SOL    HW127485   1.233   2.724   2.057 -0.6523 -1.0992 -1.5078
 5284SOL    HW227486   1.151   2.801   2.146 -0.1246 -0.2468  0.2961
 5285SOL     OW27487   1.153   4.007   7.087  0.4361  0.2366  0.3580
 5285SOL    HW127488   1.159   3.991   7.181  0.9754  3.3116  0.8305
 5285SOL    HW227489   1.101   3.934   7.054 -0.0727 -1.0989  4.1079
 5286SOL     OW27490   0.990   3.821   6.962  0.1636  0.4492  0.1051
 5286SOL    HW127491   0.906   3.867   6.954 -1.3092 -1.6768  3.2949
 5286SOL    HW227492   0.973   3.735   7.000  2.5563 -0.0792 -0.0174
 5287SOL     OW27493   0.420   4.570  13.277 -0.2444  0.1925  0.1019
 5287SOL    HW127494   0.464   4.582  13.361  0.6955 -0.3138 -0.3171
 5287SOL    HW227495   0.477   4.611  13.211  0.2256 -0.1400  0.3031
 5288SOL     OW27496   1.708   4.637  13.878 -0.1072 -0.0467  0.4370
 5288SOL    HW127497   1.745   4.607  13.961 -2.1115  0.0029  1.3464
 5288SOL    HW227498   1.661   4.564  13.838  1.3797 -0.9855  0.3895
 5289SOL     OW27499   1.216   3.077   1.833  0.1810 -0.0257 -0.3734
 5289SOL    HW127500   1.142   3.016   1.832 -0.3207  0.5396  1.3490
 5289SOL    HW227501   1.287   3.031   1.877 -1.0687  0.8878  2.6398
 5290SOL     OW27502   4.087   4.215   7.813 -0.2054 -0.0510 -0.4244
 5290SOL    HW127503   4.068   4.129   7.851  1.3429 -0.3561 -0.3472
 5290SOL    HW227504   4.181   4.219   7.794 -0.4089 -2.0745 -1.8116
 5291SOL     OW27505   4.079   0.214  17.392  0.4884 -0.0636  0.2730
 5291SOL    HW127506   4.101   0.226  17.299  1.6550  0.0086  0.5552
 5291SOL    HW227507   3.983   0.213  17.389  0.4875 -2.6846  1.9252
 5292SOL     OW27508   4.352   4.538   2.033 -0.5574  0.1442 -0.0569
 5292SOL    HW127509   4.256   4.545   2.037 -0.3787  3.2359 -1.1375
 5292SOL    HW227510   4.353   4.464   1.972  2.1249 -1.8095  2.3316
 5293SOL     OW27511   2.644   2.733   5.599  0.3281 -0.0061 -0.6550
 5293SOL    HW127512   2.553   2.704   5.605  1.0236 -2.0342  0.2212
 5293SOL    HW227513   2.661   2.726   5.505  2.3338 -1.6099 -0.1643
 5294SOL     OW27514   4.003   1.254   5.667  0.2543  0.6078 -0.3388
 5294SOL    HW127515   4.014   1.212   5.582 -1.0899  0.3793 -0.3962
 5294SOL    HW227516   4.022   1.190   5.736 -0.4878  1.1217  0.3408
 5295SOL     OW27517   1.151   3.584   8.814 -0.2958  0.3331 -0.0218
 5295SOL    HW127518   1.215   3.556   8.880  0.3722  4.0924  0.9215
 5295SOL    HW227519   1.087   3.631   8.867 -0.0879 -0.9044  1.3502
 5296SOL     OW27520   4.710   0.817  14.944  0.3172 -0.1841 -0.3997
 5296SOL    HW127521   0.017   0.816  15.029  1.1570 -0.8867 -0.8311
 5296SOL    HW227522   4.625   0.853  14.971  0.5193  0.6537 -0.8838
 5297SOL     OW27523   2.733   4.386   7.355  0.9315 -0.1036 -0.0448
 5297SOL    HW127524   2.758   4.448   7.286  0.6024  1.5294  1.3227
 5297SOL    HW227525   2.738   4.437   7.435  2.1493 -0.1161 -0.1124
 5298SOL     OW27526   3.754   4.371  10.316  0.4023 -0.0459  0.0766
 5298SOL    HW127527   3.808   4.292  10.317  0.0708 -0.2879 -1.7686
 5298SOL    HW227528   3.774   4.411  10.231 -0.0932  0.2998  0.1224
 5299SOL     OW27529   4.268   3.287  12.012 -0.0424 -0.1487 -0.1487
 5299SOL    HW127530   4.282   3.316  12.102 -0.2894 -1.0362  0.1837
 5299SOL    HW227531   4.188   3.236  12.026 -0.0986  0.3235  1.2179
 5300SOL     OW27532   2.352   3.224   6.245  0.5164  0.4529  0.7863
 5300SOL    HW127533   2.382   3.296   6.301  0.1105  0.6176  0.7924
 5300SOL    HW227534   2.316   3.261   6.164 -2.5602  2.2846  2.9900
 5301SOL     OW27535   4.328   4.335   5.728 -0.0876  0.0023 -0.5859
 5301SOL    HW127536   4.328   4.316   5.821 -1.0078  2.1108 -0.1531
 5301SOL    HW227537   4.410   4.382   5.717 -0.4205  0.9961  1.2819
 5302SOL     OW27538   2.829   1.959   0.376  0.2115 -0.4811  0.3157
 5302SOL    HW127539   2.842   1.984   0.467  1.0876 -0.8311  0.2925
 5302SOL    HW227540   2.916   1.936   0.342 -0.1677 -1.2386 -0.1619
 5303SOL     OW27541   4.167   1.084   2.340 -0.0648 -0.1748  0.1635
 5303SOL    HW127542   4.178   1.174   2.307  1.3293 -0.4426 -0.1095
 5303SOL    HW227543   4.074   1.069   2.324 -0.5177  2.8939 -0.0833
 5304SOL     OW27544   3.831   1.494  11.384 -0.2621 -0.4473 -0.3594
 5304SOL    HW127545   3.738   1.487  11.365 -0.2775 -0.8613 -0.1326
 5304SOL    HW227546   3.837   1.590  11.385  0.4944 -0.4959 -0.1297
 5305SOL     OW27547   2.860   0.381   4.519 -0.4521 -0.1599 -0.4147
 5305SOL    HW127548   2.923   0.392   4.447  0.4877  3.3390  0.9252
 5305SOL    HW227549   2.792   0.330   4.475  0.3680 -1.4348 -0.1915
 5306SOL     OW27550   3.335   4.063   7.872  0.4042 -0.0666 -0.1272
 5306SOL    HW127551   3.268   4.045   7.806 -0.8897 -1.0942  1.4795
 5306SOL    HW227552   3.374   4.144   7.841 -0.8529  1.2880  1.8587
 5307SOL     OW27553   1.710   0.524   0.360 -0.0795 -0.0538  0.8875
 5307SOL    HW127554   1.759   0.549   0.282  0.1383  2.0245  1.6817
 5307SOL    HW227555   1.663   0.447   0.328 -0.7709  1.0609 -0.7946
 5308SOL     OW27556   4.580   1.136   3.910 -0.0403  0.5582 -0.2466
 5308SOL    HW127557   4.616   1.204   3.968 -2.2271  0.6389  1.0188
 5308SOL    HW227558   4.510   1.102   3.966 -0.6176  0.9279 -0.7454
 5309SOL     OW27559   2.875   0.922   4.090  0.2805  0.4567 -0.5397
 5309SOL    HW127560   2.919   0.953   4.169  1.4147  1.3563 -1.5340
 5309SOL    HW227561   2.882   0.997   4.032  1.9809  0.7130  0.0103
 5310SOL     OW27562   0.746   2.457  13.612 -0.1743 -0.1456  0.2355
 5310SOL    HW127563   0.756   2.436  13.519  1.3038  0.8025  0.1928
 5310SOL    HW227564   0.781   2.546  13.607 -0.6500 -0.1698 -3.2299
 5311SOL     OW27565   0.085   4.581   1.859 -0.4737  1.1306 -0.2400
 5311SOL    HW127566   0.103   4.551   1.770  0.1603  0.4371  0.1183
 5311SOL    HW227567   0.097   4.501   1.910  0.9209 -0.7482 -3.5226
 5312SOL     OW27568   4.128   1.976   7.603 -0.0875  0.0412  0.1570
 5312SOL    HW127569   4.080   2.039   7.551  1.8602  0.2746 -1.3782
 5312SOL    HW227570   4.186   1.936   7.537 -0.4053 -1.6873  0.9107
 5313SOL     OW27571   1.835   4.504  16.651  0.3385  0.4232 -0.2960
 5313SOL    HW127572   1.877   4.589  16.655 -0.6071  0.6556  4.5481
 5313SOL    HW227573   1.797   4.499  16.738  2.2311  0.3272  0.5443
 5314SOL     OW27574   1.302   1.256  10.183 -0.6159  0.5009  0.2885
 5314SOL    HW127575   1.226   1.218  10.227  1.4998 -1.0117  2.5924
 5314SOL    HW227576   1.339   1.176  10.146  3.2574  2.7916 -0.8885
 5315SOL     OW27577   1.663   1.483   8.396  0.1738 -0.2708 -0.6791
 5315SOL    HW127578   1.588   1.466   8.339  0.0874 -0.1171 -0.6136
 5315SOL    HW227579   1.639   1.451   8.483  0.8232 -1.9464 -1.1106
 5316SOL     OW27580   4.002   1.528   5.543  0.7508 -0.2009 -0.0591
 5316SOL    HW127581   4.010   1.588   5.617  1.1895  1.7547 -1.7006
 5316SOL    HW227582   4.009   1.448   5.596 -0.1133 -0.9334 -1.0494
 5317SOL     OW27583   3.839   3.674  16.607 -0.4658 -0.1245 -0.1476
 5317SOL    HW127584   3.866   3.746  16.551  0.1851 -2.0175 -2.2679
 5317SOL    HW227585   3.849   3.601  16.546  1.0531  0.5096 -0.6570
 5318SOL     OW27586   2.776   3.567   4.177  0.0750 -0.1033  0.0894
 5318SOL    HW127587   2.739   3.618   4.105  3.2422 -0.8665 -2.0875
 5318SOL    HW227588   2.855   3.537   4.132  1.2921  0.0152  2.1604
 5319SOL     OW27589   1.123   3.826   3.181 -0.9658 -0.1901  0.0492
 5319SOL    HW127590   1.172   3.745   3.164  3.2276  2.6762 -1.5850
 5319SOL    HW227591   1.168   3.885   3.121 -0.4850 -1.0528 -0.4454
 5320SOL     OW27592   3.025   0.222   6.826 -0.3520  0.1220  0.7750
 5320SOL    HW127593   3.066   0.183   6.903  0.9237 -1.2617 -0.5939
 5320SOL    HW227594   3.100   0.218   6.766  0.2571 -1.0417  1.6231
 5321SOL     OW27595   2.789   3.585   3.487  0.0009 -1.0701  0.4348
 5321SOL    HW127596   2.774   3.496   3.455  0.3268 -0.5621 -1.1297
 5321SOL    HW227597   2.698   3.594   3.513  0.4184  0.3260  1.3782
 5322SOL     OW27598   3.855   2.808  17.181 -0.3952  0.2277 -0.4828
 5322SOL    HW127599   3.907   2.873  17.133  1.0268 -2.5837 -2.7468
 5322SOL    HW227600   3.786   2.790  17.117 -0.3844  2.1828 -1.0459
 5323SOL     OW27601   4.209   0.886   3.636  0.0333 -0.4940 -0.0575
 5323SOL    HW127602   4.208   0.951   3.566  1.6586  1.7112  2.0045
 5323SOL    HW227603   4.274   0.820   3.610  1.0984  0.6179 -0.2319
 5324SOL     OW27604   2.313   3.261   1.626 -0.2266 -0.3754  0.3199
 5324SOL    HW127605   2.246   3.329   1.630  0.5735  0.5787 -2.4349
 5324SOL    HW227606   2.352   3.261   1.713  1.3791 -1.3098 -0.4047
 5325SOL     OW27607   0.859   0.870   9.496  0.2570  0.0711  0.8796
 5325SOL    HW127608   0.907   0.873   9.578 -0.7234  1.4362  1.3984
 5325SOL    HW227609   0.867   0.777   9.476  0.9051  0.5192 -0.9639
 5326SOL     OW27610   3.763   2.745   2.811 -0.4908 -0.4715 -0.3819
 5326SOL    HW127611   3.787   2.748   2.904  0.0961  0.9816 -0.5883
 5326SOL    HW227612   3.829   2.806   2.779  1.8700 -1.4015  2.7542
 5327SOL     OW27613   0.530   4.307   6.468  0.0123 -0.1490 -0.2755
 5327SOL    HW127614   0.598   4.242   6.452 -1.6651 -2.7755  3.1259
 5327SOL    HW227615   0.492   4.321   6.381 -1.6508 -1.2666  0.2642
 5328SOL     OW27616   4.265   2.869   2.852 -0.2016 -0.2284 -0.2438
 5328SOL    HW127617   4.356   2.866   2.823 -0.1880  1.5842 -0.3833
 5328SOL    HW227618   4.227   2.797   2.802 -3.2600  2.1234 -1.2765
 5329SOL     OW27619   2.544   0.587   7.351 -0.3112  0.3387  0.7077
 5329SOL    HW127620   2.478   0.520   7.371 -0.6849  0.4111 -0.2868
 5329SOL    HW227621   2.497   0.664   7.383 -1.1404  0.0846  0.1069
 5330SOL     OW27622   3.243   0.080   8.153 -0.3816 -0.7331 -0.1108
 5330SOL    HW127623   3.281   0.050   8.236 -0.8954 -1.9779 -0.3298
 5330SOL    HW227624   3.255   0.173   8.171  0.5334 -0.9177  0.2321
 5331SOL     OW27625   1.747   4.090   3.271 -0.0357  0.0072  0.1259
 5331SOL    HW127626   1.836   4.122   3.262 -0.7315  1.4172 -1.7340
 5331SOL    HW227627   1.756   4.003   3.311 -3.6522 -1.3261 -1.8903
 5332SOL     OW27628   0.741   0.586   0.927  0.1837 -0.0269  0.5734
 5332SOL    HW127629   0.783   0.654   0.874 -0.1881  0.3385  0.7564
 5332SOL    HW227630   0.783   0.503   0.903 -1.1626  0.4196 -3.2957
 5333SOL     OW27631   2.549   1.422   9.338 -0.7251  0.1638 -0.3400
 5333SOL    HW127632   2.641   1.396   9.345 -1.1171 -0.1146  3.4715
 5333SOL    HW227633   2.552   1.516   9.319 -1.1603 -0.0075 -1.2620
 5334SOL     OW27634   2.931   3.875   0.744  0.3845  0.3251  0.1626
 5334SOL    HW127635   2.924   3.951   0.802  2.1124  1.3829 -0.9982
 5334SOL    HW227636   2.875   3.811   0.787 -0.2453 -0.3806 -1.6837
 5335SOL     OW27637   3.484   3.453   9.975 -0.5057  0.3189  0.1261
 5335SOL    HW127638   3.404   3.402   9.960 -0.2224 -0.6724  2.0396
 5335SOL    HW227639   3.454   3.529   9.925 -3.3258 -1.5272 -1.0306
 5336SOL     OW27640   1.622   1.853   7.401  0.1045 -0.6378 -0.2640
 5336SOL    HW127641   1.643   1.759   7.403 -0.4076 -0.7761 -1.6516
 5336SOL    HW227642   1.693   1.891   7.453 -1.7481  2.7220 -0.2091
 5337SOL     OW27643   0.757   4.613   8.305 -0.1981 -0.1145  0.5582
 5337SOL    HW127644   0.683   4.585   8.251 -0.1393  0.2270  0.2996
 5337SOL    HW227645   0.782   4.688   8.251 -0.4717 -0.9625 -0.7611
 5338SOL     OW27646   2.089   0.312   2.139 -0.1117 -0.4512 -0.1474
 5338SOL    HW127647   2.008   0.360   2.158 -0.1405 -0.9623  1.0277
 5338SOL    HW227648   2.079   0.243   2.204 -1.0275  0.3019  0.5218
 5339SOL     OW27649   2.770   4.116   4.281  0.3003 -0.3663  0.5204
 5339SOL    HW127650   2.843   4.130   4.342 -0.7731  0.8640  1.5513
 5339SOL    HW227651   2.781   4.022   4.267 -0.9749 -0.4966  0.4024
 5340SOL     OW27652   0.261   0.153   7.356  0.4316 -0.3325 -1.2974
 5340SOL    HW127653   0.175   0.170   7.318  0.3289  1.9430 -0.0826
 5340SOL    HW227654   0.305   0.222   7.306  0.0689  0.1745 -0.9152
 5341SOL     OW27655   2.074   0.977   7.284 -0.5429  0.1063  0.1908
 5341SOL    HW127656   2.008   1.042   7.309  0.3649  1.1218 -0.0192
 5341SOL    HW227657   2.084   0.924   7.363  0.0136 -0.5803 -0.3368
 5342SOL     OW27658   4.497   1.158  14.345 -0.0431  0.5572  0.2335
 5342SOL    HW127659   4.441   1.205  14.407  0.6431  0.7063  0.7429
 5342SOL    HW227660   4.540   1.094  14.402 -1.3579 -0.3563  0.2014
 5343SOL     OW27661   1.496   4.654   5.830 -0.1874  0.0013 -0.0538
 5343SOL    HW127662   1.426   4.623   5.773 -0.7008 -3.3362  2.3551
 5343SOL    HW227663   1.452   4.648   5.915  2.3965  2.8377  1.4864
 5344SOL     OW27664   2.217   2.070  16.734  0.1512 -0.1290  0.2424
 5344SOL    HW127665   2.197   2.095  16.643 -1.2889 -2.1441  0.0194
 5344SOL    HW227666   2.299   2.029  16.709 -1.2933 -3.0628  0.4017
 5345SOL     OW27667   3.650   1.641   2.621 -0.3246  0.4879 -0.3180
 5345SOL    HW127668   3.670   1.720   2.671  1.1440  0.4891 -0.9194
 5345SOL    HW227669   3.694   1.667   2.540  0.9477 -1.4515 -0.2432
 5346SOL     OW27670   2.852   0.848   8.915 -0.1172  0.8500 -0.6259
 5346SOL    HW127671   2.859   0.939   8.887 -2.2078  1.2882  0.3206
 5346SOL    HW227672   2.764   0.819   8.889  0.4364  0.9329 -2.6084
 5347SOL     OW27673   3.852   4.360  14.956 -0.0379  0.2902  0.0314
 5347SOL    HW127674   3.947   4.351  14.966  0.3873  1.2138 -3.0660
 5347SOL    HW227675   3.842   4.309  14.875  0.6589 -0.3248  0.3333
 5348SOL     OW27676   1.643   4.709   1.909 -0.2257  0.2268  0.3072
 5348SOL    HW127677   1.650   0.068   1.923  1.7694 -0.1678  1.8775
 5348SOL    HW227678   1.731   4.690   1.940  0.0528 -1.4547 -1.5718
 5349SOL     OW27679   1.365   2.546   5.081  0.1571  0.4405  0.3496
 5349SOL    HW127680   1.445   2.500   5.108  1.0910  1.3798 -0.7820
 5349SOL    HW227681   1.323   2.478   5.028  0.9535  0.7190 -0.6386
 5350SOL     OW27682   0.600   3.641   4.656 -0.6920  0.1131  0.4627
 5350SOL    HW127683   0.591   3.705   4.586 -3.4093 -0.1080  0.6045
 5350SOL    HW227684   0.511   3.613   4.676 -1.4373  1.1640 -1.3747
 5351SOL     OW27685   3.869   2.425   6.136 -0.5540 -0.3657 -0.4293
 5351SOL    HW127686   3.834   2.337   6.120  1.0322 -0.9491 -0.6212
 5351SOL    HW227687   3.852   2.419   6.230 -0.1556 -0.0135 -0.3353
 5352SOL     OW27688   3.811   1.887   3.289  0.4715 -0.2813 -0.3043
 5352SOL    HW127689   3.794   1.823   3.358  1.9541  3.3445  3.3947
 5352SOL    HW227690   3.903   1.876   3.266  0.5606  1.1072 -0.5967
 5353SOL     OW27691   2.164   2.440   5.891 -0.1007 -1.0491  0.3713
 5353SOL    HW127692   2.155   2.429   5.985 -3.5868  0.0066  0.1529
 5353SOL    HW227693   2.147   2.351   5.860  0.3136 -0.3438 -1.9014
 5354SOL     OW27694   2.871   0.359   8.740  0.5970  0.1173  0.1250
 5354SOL    HW127695   2.893   0.389   8.828 -3.3226  1.5432  0.6479
 5354SOL    HW227696   2.921   0.280   8.721  2.1654  0.8123  1.4151
 5355SOL     OW27697   3.769   4.106  10.018  0.1037 -0.4087 -0.5600
 5355SOL    HW127698   3.774   4.081   9.926 -3.0736 -1.0351 -0.5655
 5355SOL    HW227699   3.777   4.202  10.018  1.1397 -0.4805  0.7634
 5356SOL     OW27700   0.021   2.440  17.364  0.5474  0.0345  0.4614
 5356SOL    HW127701   0.028   2.447  17.459 -0.4419 -0.3283  0.5606
 5356SOL    HW227702   0.076   2.511  17.330  0.5905 -1.0916 -1.7977
 5357SOL     OW27703   3.774   1.730  15.746  0.6006 -0.1491 -0.2387
 5357SOL    HW127704   3.751   1.810  15.700  2.6519 -0.8142 -2.4510
 5357SOL    HW227705   3.697   1.675  15.758  1.3262 -0.6617  2.1482
 5358SOL     OW27706   4.558   1.574   5.251 -0.2937  0.0791  0.2664
 5358SOL    HW127707   4.510   1.630   5.189 -2.2063 -0.7139  1.0457
 5358SOL    HW227708   4.648   1.606   5.245  0.6939 -2.5875  1.1757
 5359SOL     OW27709   0.969   1.270   0.587 -0.5377  0.2594  0.1619
 5359SOL    HW127710   0.948   1.178   0.572 -1.5867  0.3842  0.8669
 5359SOL    HW227711   0.885   1.310   0.565 -0.4966  0.3485  0.1671
 5360SOL     OW27712   2.339   0.776   7.067  0.3044 -0.2880  0.1123
 5360SOL    HW127713   2.246   0.795   7.082  0.2730 -0.2969 -0.0803
 5360SOL    HW227714   2.335   0.682   7.049 -0.4125  0.2066 -2.2717
 5361SOL     OW27715   0.152   4.371   2.305  0.6072 -0.1958  0.0370
 5361SOL    HW127716   0.238   4.340   2.333  0.6369 -0.8678 -0.7909
 5361SOL    HW227717   0.109   4.355   2.389  0.1184  1.2496  0.0542
 5362SOL     OW27718   0.960   0.326   5.243 -0.2671  0.9015 -0.0258
 5362SOL    HW127719   1.047   0.363   5.229 -0.1842  0.7422  0.0670
 5362SOL    HW227720   0.908   0.405   5.258 -1.1208  0.1624  0.9634
 5363SOL     OW27721   0.048   0.938   4.399  0.4342  0.1042  0.5978
 5363SOL    HW127722   4.709   0.951   4.457  1.0085  2.2041  0.8466
 5363SOL    HW227723   0.005   0.914   4.316 -0.2807 -0.1223  1.0323
 5364SOL     OW27724   0.569   4.681   3.748  0.1198 -0.0322 -0.4400
 5364SOL    HW127725   0.490   4.676   3.695  1.0159  1.9946 -1.9666
 5364SOL    HW227726   0.603   4.593   3.763  0.9308  0.1745 -1.0858
 5365SOL     OW27727   1.225   1.026   6.408 -0.5666 -0.1952  0.2564
 5365SOL    HW127728   1.154   0.986   6.458  1.4419 -0.7702  2.6770
 5365SOL    HW227729   1.302   0.998   6.458 -1.2866 -0.1618  1.4025
 5366SOL     OW27730   2.896   1.165   2.431 -0.3413 -0.3880 -0.4834
 5366SOL    HW127731   2.960   1.151   2.501 -1.4555 -2.8562  0.0394
 5366SOL    HW227732   2.923   1.102   2.364 -0.1824  1.7506 -2.4527
 5367SOL     OW27733   1.758   0.725   7.930  0.1349  0.4490  0.1271
 5367SOL    HW127734   1.729   0.702   8.018 -0.8733  0.5532 -0.1767
 5367SOL    HW227735   1.708   0.665   7.875 -1.5674  0.6592  1.4188
 5368SOL     OW27736   3.628   2.531   4.289  0.2784 -0.1940  0.3110
 5368SOL    HW127737   3.579   2.511   4.209 -2.0696  2.0801  1.1785
 5368SOL    HW227738   3.718   2.521   4.258 -0.0457 -0.8198 -0.4170
 5369SOL     OW27739   3.418   0.937   2.999  0.1503 -0.2476 -0.0434
 5369SOL    HW127740   3.465   0.978   2.926 -1.0032 -0.8142 -1.0909
 5369SOL    HW227741   3.420   1.014   3.057 -0.5617  0.1061 -0.4887
 5370SOL     OW27742   2.479   0.901   3.369 -0.1301 -0.2089 -0.0817
 5370SOL    HW127743   2.409   0.871   3.311 -0.8439 -0.3757  0.8761
 5370SOL    HW227744   2.552   0.861   3.321  0.6858 -0.2729  1.1983
 5371SOL     OW27745   4.486   1.217   3.299  0.6231  0.2718  0.2214
 5371SOL    HW127746   4.566   1.262   3.326  1.8811 -2.4157  1.0834
 5371SOL    HW227747   4.498   1.156   3.225 -1.6156  0.5113 -0.3424
 5372SOL     OW27748   2.960   2.414  13.063  0.1726  0.1419 -0.8470
 5372SOL    HW127749   2.906   2.357  13.117 -0.1354 -0.7503 -2.1086
 5372SOL    HW227750   3.032   2.412  13.127 -1.6435 -0.1010  1.1759
 5373SOL     OW27751   4.460   1.352  16.628  0.6968 -0.4421 -0.1010
 5373SOL    HW127752   4.473   1.359  16.723  1.7385  0.3155 -0.3000
 5373SOL    HW227753   4.542   1.309  16.604  0.4136 -1.0073 -0.0591
 5374SOL     OW27754   2.624   3.417  16.650 -0.4639 -0.1578 -0.2394
 5374SOL    HW127755   2.539   3.396  16.611  0.1300 -2.5338 -0.2260
 5374SOL    HW227756   2.622   3.511  16.631 -1.7636 -0.5680 -2.1732
 5375SOL     OW27757   2.429   2.123   1.140  0.1148  0.4417 -0.1393
 5375SOL    HW127758   2.509   2.097   1.095 -0.2806  3.0630 -2.3930
 5375SOL    HW227759   2.443   2.218   1.141  1.7736  0.1984 -0.4535
 5376SOL     OW27760   1.513   1.171   4.145  0.1103 -0.4389 -0.1460
 5376SOL    HW127761   1.599   1.196   4.180 -1.1195 -0.7221  3.1126
 5376SOL    HW227762   1.485   1.257   4.115  2.4060  0.5332  0.4573
 5377SOL     OW27763   4.472   3.629   6.474  0.2154  0.2524 -0.0357
 5377SOL    HW127764   4.465   3.610   6.567 -0.8289  1.0867  0.0632
 5377SOL    HW227765   4.563   3.656   6.476  0.3375  0.0085 -1.8276
 5378SOL     OW27766   3.789   4.046  17.530  0.1374  0.6483  0.1560
 5378SOL    HW127767   3.774   3.953  17.543  0.2218  0.6830  0.4987
 5378SOL    HW227768   3.883   4.043  17.548 -0.1009 -2.0767  0.9189
 5379SOL     OW27769   1.871   4.420  10.545 -0.4913  0.0496 -0.3724
 5379SOL    HW127770   1.847   4.376  10.626 -1.1757  0.9466 -0.0878
 5379SOL    HW227771   1.941   4.371  10.501 -1.4681 -1.4247 -0.2982
 5380SOL     OW27772   2.218   2.629   0.395 -0.2995  0.1643  0.8175
 5380SOL    HW127773   2.177   2.650   0.479 -0.4734  0.3920  0.6742
 5380SOL    HW227774   2.293   2.688   0.399  0.2857 -0.4920 -0.2795
 5381SOL     OW27775   3.862   0.394   6.202 -0.4705  0.1155  0.1561
 5381SOL    HW127776   3.853   0.414   6.109  0.8234 -1.3843 -0.2855
 5381SOL    HW227777   3.800   0.324   6.218 -1.0141  0.8185  1.1257
 5382SOL     OW27778   1.570   3.619   6.000 -0.2930  0.4637 -0.0968
 5382SOL    HW127779   1.638   3.649   5.940 -0.8755  1.1400 -0.4265
 5382SOL    HW227780   1.615   3.557   6.057 -0.0425 -1.5078 -2.4509
 5383SOL     OW27781   1.056   0.127   8.237 -0.0087 -0.5012 -0.5684
 5383SOL    HW127782   0.988   0.094   8.178 -1.4271  2.6499 -0.6887
 5383SOL    HW227783   1.086   0.049   8.284  0.1652 -0.5573 -0.7686
 5384SOL     OW27784   3.535   4.212  17.566 -0.1981 -0.5582  0.0680
 5384SOL    HW127785   3.558   4.198  17.658 -2.2624  1.5222  0.9094
 5384SOL    HW227786   3.473   4.139  17.563 -1.2439  0.2458  1.9208
 5385SOL     OW27787   0.106   4.553   0.284  0.1900  0.0800 -0.2783
 5385SOL    HW127788   0.175   4.525   0.343  1.8516  0.2862 -2.1033
 5385SOL    HW227789   0.035   4.521   0.339  2.8836 -1.7876  2.0783
 5386SOL     OW27790   3.267   3.589   2.959  0.5937  0.7277 -0.0314
 5386SOL    HW127791   3.304   3.650   3.023  2.2031  0.7035 -0.9387
 5386SOL    HW227792   3.270   3.508   3.010  4.0010 -0.0403 -1.4428
 5387SOL     OW27793   4.262   1.004   9.199 -0.4492  0.2841 -0.2361
 5387SOL    HW127794   4.219   1.033   9.118 -0.0093 -1.6205 -1.1500
 5387SOL    HW227795   4.306   0.924   9.171 -0.9554  1.1879 -3.7373
 5388SOL     OW27796   0.085   2.688   9.236 -0.0095 -0.2066  0.0648
 5388SOL    HW127797   0.088   2.595   9.256  1.1297 -0.3895 -0.9612
 5388SOL    HW227798   0.179   2.702   9.243 -0.0945  0.2011  0.3978
 5389SOL     OW27799   0.063   3.473  16.413 -0.7904  0.4600 -0.2034
 5389SOL    HW127800   0.006   3.515  16.478  0.5701  0.3105  1.0830
 5389SOL    HW227801   0.026   3.387  16.395 -2.4950  1.5203 -1.8079
 5390SOL     OW27802   0.992   4.638   3.867  0.5133  0.3633 -0.1080
 5390SOL    HW127803   0.933   4.704   3.830 -1.9384 -1.3027  0.8805
 5390SOL    HW227804   1.049   4.695   3.918  1.1751  1.2493 -1.8179
 5391SOL     OW27805   0.855   4.385   4.012  0.1630  0.2156 -0.4350
 5391SOL    HW127806   0.949   4.372   4.018 -0.2988 -2.3264  1.0017
 5391SOL    HW227807   0.830   4.393   4.104 -1.6479 -2.6784 -0.6609
 5392SOL     OW27808   2.819   1.699   6.352  0.6113 -0.4830 -0.3561
 5392SOL    HW127809   2.843   1.628   6.412  0.9847  0.1371  0.2305
 5392SOL    HW227810   2.879   1.688   6.278 -0.2653  0.6827 -1.2265
 5393SOL     OW27811   3.167   4.170  10.152 -0.2526  0.7409 -0.2577
 5393SOL    HW127812   3.171   4.079  10.120 -1.4367 -0.6363  3.4669
 5393SOL    HW227813   3.170   4.224  10.074  1.9002  2.2640  0.8839
 5394SOL     OW27814   0.057   0.639   8.018  0.0747 -0.1194 -0.4485
 5394SOL    HW127815   0.140   0.592   8.009 -0.2331 -0.8137  0.4699
 5394SOL    HW227816   0.067   0.687   7.935 -0.5013  0.2252 -0.3177
 5395SOL     OW27817   1.782   1.138  14.321  0.1771  0.0037 -0.4303
 5395SOL    HW127818   1.689   1.147  14.342  0.7265  0.4836  1.8526
 5395SOL    HW227819   1.834   1.135  14.402  1.3818 -1.4769 -1.2616
 5396SOL     OW27820   2.016   0.719   3.646 -0.0740  0.1490 -0.3255
 5396SOL    HW127821   1.949   0.749   3.585 -1.2546 -1.1551  0.3240
 5396SOL    HW227822   2.077   0.668   3.592  0.4795 -0.7041  1.1018
 5397SOL     OW27823   0.621   1.860   7.216 -0.2171  0.5369  0.1507
 5397SOL    HW127824   0.655   1.929   7.159  1.1639 -1.0797 -0.9689
 5397SOL    HW227825   0.706   1.844   7.257 -0.2588 -2.2891 -0.8760
 5398SOL     OW27826   0.005   1.321   4.681  0.8045 -0.4286 -0.2621
 5398SOL    HW127827   0.074   1.273   4.635  1.6287  0.0045  0.5436
 5398SOL    HW227828   4.731   1.400   4.628 -0.1918  2.2395  3.9803
 5399SOL     OW27829   1.376   1.875   1.292  0.1309 -0.1176 -0.1989
 5399SOL    HW127830   1.367   1.840   1.380  0.3983 -2.6886 -1.1872
 5399SOL    HW227831   1.422   1.958   1.307 -0.6826  0.3093 -0.0926
 5400SOL     OW27832   0.263   3.384   8.302 -0.6956  0.3403 -0.4197
 5400SOL    HW127833   0.341   3.333   8.280 -0.1756  2.2305 -2.9335
 5400SOL    HW227834   0.282   3.473   8.271  0.0384 -0.0962 -1.2124
 5401SOL     OW27835   4.246   0.703   1.526  0.2174 -0.0361  0.6762
 5401SOL    HW127836   4.274   0.753   1.603 -0.7440  0.2025  0.8623
 5401SOL    HW227837   4.197   0.774   1.483  0.3395 -0.4018 -0.0678
 5402SOL     OW27838   2.729   4.111   7.414  0.1156  0.0190  0.1553
 5402SOL    HW127839   2.771   4.082   7.332  0.6249 -1.7056  1.0290
 5402SOL    HW227840   2.720   4.205   7.399  1.1213  0.1847  0.5608
 5403SOL     OW27841   4.596   2.796   8.159 -0.0131 -0.8016 -0.0944
 5403SOL    HW127842   4.657   2.770   8.089  1.7053  0.9695  0.7368
 5403SOL    HW227843   4.654   2.835   8.225  1.9545  1.8079 -3.3796
 5404SOL     OW27844   4.425   2.409   4.699  0.5628  0.2952  0.0493
 5404SOL    HW127845   4.387   2.473   4.639  0.4068  0.8575  0.7446
 5404SOL    HW227846   4.477   2.357   4.637 -1.0710 -0.1142 -0.9620
 5405SOL     OW27847   1.525   1.332  11.665  0.2768 -0.2964  0.0208
 5405SOL    HW127848   1.521   1.256  11.723 -1.3478 -1.4507 -1.5901
 5405SOL    HW227849   1.563   1.289  11.587 -1.5675  0.7575 -1.4531
 5406SOL     OW27850   2.650   3.220   8.833  0.5283 -0.2325 -0.5831
 5406SOL    HW127851   2.634   3.257   8.920  1.6843 -1.8418  0.3112
 5406SOL    HW227852   2.591   3.269   8.775 -1.0164 -2.3172 -0.7617
 5407SOL     OW27853   3.364   4.360   2.980  0.3218  0.2522  0.4274
 5407SOL    HW127854   3.345   4.385   3.071  0.1904  0.0822  0.4478
 5407SOL    HW227855   3.372   4.445   2.937  1.4947 -1.1245 -2.0184
 5408SOL     OW27856   0.030   4.416   4.760  0.7252  0.3574 -0.4573
 5408SOL    HW127857   0.086   4.367   4.820 -2.2671 -0.2307  1.8678
 5408SOL    HW227858   0.034   4.370   4.676 -0.2577 -2.1916  0.8986
 5409SOL     OW27859   2.173   1.336  13.373  0.8485  0.8120  0.3382
 5409SOL    HW127860   2.132   1.311  13.290  0.3269 -0.0615  0.8623
 5409SOL    HW227861   2.241   1.269  13.378 -0.6739 -0.7087  0.7304
 5410SOL     OW27862   3.992   2.514  17.543 -0.3320 -0.2036  0.2141
 5410SOL    HW127863   4.031   2.524  17.630  2.1728  1.3479 -1.0783
 5410SOL    HW227864   3.902   2.490  17.561 -0.8507  1.9893  0.6021
 5411SOL     OW27865   1.041   2.329   8.083  0.2540  0.1814  0.3162
 5411SOL    HW127866   1.076   2.242   8.063 -1.4700 -0.9181  2.0513
 5411SOL    HW227867   0.955   2.319   8.043  0.3079 -1.9063  0.7277
 5412SOL     OW27868   0.514   1.451   9.632 -0.1841 -0.3911 -0.1440
 5412SOL    HW127869   0.550   1.364   9.613 -0.7045 -0.5547 -0.3527
 5412SOL    HW227870   0.586   1.491   9.682  0.1591 -0.3033 -0.7058
 5413SOL     OW27871   4.102   3.875   5.556 -0.4185 -0.2980 -0.3370
 5413SOL    HW127872   4.029   3.889   5.616  0.6829  3.1675  0.1512
 5413SOL    HW227873   4.165   3.943   5.581  1.3121 -2.2541  0.6490
 5414SOL     OW27874   0.134   2.396   3.409  0.0010  0.4474  0.3926
 5414SOL    HW127875   0.100   2.462   3.469 -0.0380  1.6990 -0.9936
 5414SOL    HW227876   0.215   2.376   3.455 -0.5565 -0.7704  0.8431
 5415SOL     OW27877   3.455   0.575   5.477  0.0135  0.2044 -0.1440
 5415SOL    HW127878   3.439   0.633   5.403 -0.3775  1.4117  0.8878
 5415SOL    HW227879   3.429   0.495   5.431 -2.4399  0.2502  1.1483
 5416SOL     OW27880   4.180   3.721   5.121  0.1132 -0.2878 -0.5106
 5416SOL    HW127881   4.121   3.740   5.048  0.4308  0.7644 -0.4919
 5416SOL    HW227882   4.121   3.689   5.190  1.1407 -0.1432  0.4453
 5417SOL     OW27883   3.482   3.345   7.176 -0.2717 -0.1571 -0.2350
 5417SOL    HW127884   3.558   3.313   7.224  0.7372  0.1807 -1.6037
 5417SOL    HW227885   3.407   3.337   7.235 -1.3183  1.0925 -1.3793
 5418SOL     OW27886   4.347   2.537   1.958 -0.3351 -0.4390  0.9828
 5418SOL    HW127887   4.285   2.481   1.911  0.0265  0.7849 -0.9486
 5418SOL    HW227888   4.362   2.608   1.896 -0.0028 -1.4841 -0.1266
 5419SOL     OW27889   1.301   3.800   2.528  0.0031 -0.2744  0.1772
 5419SOL    HW127890   1.268   3.714   2.502  1.2194 -0.0888 -1.9942
 5419SOL    HW227891   1.368   3.826   2.466 -0.5754 -1.8702 -1.1164
 5420SOL     OW27892   1.604   2.318   6.665 -0.0945  0.1105 -0.1750
 5420SOL    HW127893   1.553   2.249   6.707 -1.0786  2.3101  2.2501
 5420SOL    HW227894   1.583   2.384   6.732 -1.0212 -2.5224  2.1093
 5421SOL     OW27895   2.136   2.681   7.608 -0.0612  0.1027 -0.2922
 5421SOL    HW127896   2.186   2.605   7.639  1.4743  1.7005  1.1706
 5421SOL    HW227897   2.197   2.713   7.542 -0.7860  2.0249 -0.0207
 5422SOL     OW27898   1.240   3.508   5.031 -0.1513  0.2182  0.0112
 5422SOL    HW127899   1.288   3.553   5.101  0.5543  0.7618 -0.8223
 5422SOL    HW227900   1.312   3.477   4.976  2.0183  0.0339  2.9257
 5423SOL     OW27901   1.412   0.794   9.905  0.6835  0.0843  0.0639
 5423SOL    HW127902   1.345   0.779   9.839  1.5659 -1.1378 -0.5524
 5423SOL    HW227903   1.492   0.764   9.860  0.4314  0.1092 -0.4024
 5424SOL     OW27904   3.091   0.662   4.987 -0.0644  0.4251  0.3848
 5424SOL    HW127905   3.106   0.581   5.035  1.6198 -0.5231 -1.7508
 5424SOL    HW227906   3.098   0.637   4.895 -3.4681  0.9397 -0.0203
 5425SOL     OW27907   0.901   2.338   2.751  0.0070 -0.3276  0.8086
 5425SOL    HW127908   0.994   2.331   2.772  0.1194 -2.8785 -0.6327
 5425SOL    HW227909   0.906   2.323   2.657  0.0436 -1.7383  1.0398
 5426SOL     OW27910   4.271   1.619   4.653  0.0366 -0.0476  0.8145
 5426SOL    HW127911   4.338   1.558   4.684 -0.5961 -0.9450  0.4132
 5426SOL    HW227912   4.312   1.656   4.574 -0.8056 -0.4729  0.1786
 5427SOL     OW27913   1.827   0.498  10.936 -1.1141 -0.0858 -0.6932
 5427SOL    HW127914   1.855   0.561  11.002 -1.4059 -0.7803  0.1047
 5427SOL    HW227915   1.781   0.556  10.876  0.3489  1.4723 -0.2938
 5428SOL     OW27916   3.788   0.709   5.643  0.6805 -0.6492 -0.5100
 5428SOL    HW127917   3.853   0.639   5.631  0.6085 -1.1502  2.1455
 5428SOL    HW227918   3.741   0.684   5.723 -0.1802  2.0669 -0.1930
 5429SOL     OW27919   3.567   1.905   7.406 -0.1743 -0.2402  0.3505
 5429SOL    HW127920   3.525   1.833   7.453  1.3842 -1.0205  0.5339
 5429SOL    HW227921   3.487   1.949   7.376 -0.3807 -0.7120  0.2091
 5430SOL     OW27922   0.354   1.634   9.211 -0.1178  0.2321  0.0427
 5430SOL    HW127923   0.351   1.542   9.187 -1.2924 -0.1576  1.6855
 5430SOL    HW227924   0.292   1.633   9.284 -0.3391 -1.0215 -0.1726
 5431SOL     OW27925   3.291   3.733   6.634  0.5759  0.2872 -0.1144
 5431SOL    HW127926   3.296   3.644   6.668 -1.8444  0.1669 -0.0422
 5431SOL    HW227927   3.240   3.774   6.704  0.5951 -0.2813  0.2382
 5432SOL     OW27928   3.036   3.027   3.816  0.1839  0.0851  0.0418
 5432SOL    HW127929   3.095   2.954   3.836  1.9207  2.0594  2.2435
 5432SOL    HW227930   3.066   3.066   3.734 -0.1328 -2.8815 -1.4892
 5433SOL     OW27931   0.271   4.601   2.967  0.3332  0.0738  0.1333
 5433SOL    HW127932   0.321   4.536   3.017 -1.8406 -1.8435 -0.1902
 5433SOL    HW227933   0.338   4.655   2.924  0.6283 -1.1717 -1.0061
 5434SOL     OW27934   3.658   2.600   6.067 -0.7983  0.4520 -0.6863
 5434SOL    HW127935   3.598   2.551   6.011  1.1396 -2.0689 -0.5190
 5434SOL    HW227936   3.733   2.543   6.085 -3.1786 -3.1575 -2.2044
 5435SOL     OW27937   2.491   2.778   4.258  0.0449  0.4184  0.1275
 5435SOL    HW127938   2.522   2.834   4.187 -1.6272  2.2975  0.8632
 5435SOL    HW227939   2.519   2.698   4.215  0.8716  1.5680 -1.4802
 5436SOL     OW27940   2.904   0.124   6.253 -0.7859  0.0205  1.0473
 5436SOL    HW127941   2.814   0.103   6.277 -1.1942  0.0949 -0.3884
 5436SOL    HW227942   2.873   0.194   6.195 -0.1392 -0.4759  0.0844
 5437SOL     OW27943   4.389   3.257   3.379 -0.2379  0.1088  0.1721
 5437SOL    HW127944   4.311   3.276   3.431  0.1005  0.2929  0.6220
 5437SOL    HW227945   4.456   3.301   3.431 -1.4372  1.5425  0.4971
 5438SOL     OW27946   1.823   3.974  17.392  0.3173 -0.0155 -0.0066
 5438SOL    HW127947   1.736   3.936  17.380 -0.4833  1.4776  1.0652
 5438SOL    HW227948   1.819   4.018  17.477 -0.6040 -0.8698  0.4052
 5439SOL     OW27949   1.337   4.566   4.365  0.1217  0.3964  0.2738
 5439SOL    HW127950   1.354   4.636   4.302  1.6450 -0.3271 -0.1105
 5439SOL    HW227951   1.253   4.592   4.405 -0.6308  0.3353 -1.2726
 5440SOL     OW27952   2.489   4.382   3.693  0.3796 -0.0180 -0.1382
 5440SOL    HW127953   2.404   4.337   3.691 -0.3607  1.2714  1.6387
 5440SOL    HW227954   2.497   4.439   3.617  2.8042  0.6377  0.6153
 5441SOL     OW27955   2.408   4.584   1.323  0.4071  0.0842 -0.1746
 5441SOL    HW127956   2.416   4.493   1.350  3.4960  0.2133 -0.7133
 5441SOL    HW227957   2.410   4.623   1.411  0.3979 -4.2551  1.7404
 5442SOL     OW27958   2.660   3.871   4.981 -0.0212 -0.0198 -0.6178
 5442SOL    HW127959   2.597   3.845   4.914 -2.0433  1.3308  0.7421
 5442SOL    HW227960   2.603   3.897   5.053 -1.1903 -3.6456 -0.2192
 5443SOL     OW27961   4.433   4.637   4.240  0.4735 -0.4241 -0.0464
 5443SOL    HW127962   4.433   4.543   4.256 -0.3811 -0.3402  0.4517
 5443SOL    HW227963   4.524   4.660   4.226  0.2346  1.7291  1.9078
 5444SOL     OW27964   4.332   1.384   2.911 -0.1968  0.3448  0.0308
 5444SOL    HW127965   4.264   1.329   2.950  1.0445 -0.7770  0.5974
 5444SOL    HW227966   4.375   1.429   2.984 -1.7172 -0.1984  1.2668
 5445SOL     OW27967   4.518   2.044  13.961 -0.3846  0.2243 -0.4424
 5445SOL    HW127968   4.510   2.128  14.006  0.6046 -0.5612  1.1565
 5445SOL    HW227969   4.588   2.000  14.008 -0.9749  1.9875  2.0361
 5446SOL     OW27970   1.009   1.144  10.331  0.5649  0.1283 -0.3123
 5446SOL    HW127971   0.932   1.100  10.366 -0.7658  1.9608 -0.9378
 5446SOL    HW227972   1.050   1.175  10.412  0.4890 -0.0792 -0.1945
 5447SOL     OW27973   2.312   1.763   8.096  0.2189  0.1383  0.1363
 5447SOL    HW127974   2.217   1.756   8.104  0.0917  0.9241 -0.6907
 5447SOL    HW227975   2.311   1.784   8.003 -2.5771 -4.2464 -0.8099
 5448SOL     OW27976   2.080   3.413   4.113 -0.2242 -0.2578 -0.2569
 5448SOL    HW127977   2.057   3.320   4.116  0.3678 -0.4708 -2.2373
 5448SOL    HW227978   2.070   3.435   4.021  0.5359 -0.5080 -0.4053
 5449SOL     OW27979   0.913   1.720   4.215  0.1211 -0.3037 -0.6036
 5449SOL    HW127980   0.986   1.765   4.259 -1.3659  1.1113  0.4184
 5449SOL    HW227981   0.959   1.655   4.162 -1.3084 -1.8860  0.1153
 5450SOL     OW27982   3.373   4.623  16.533 -0.1062  0.8854 -1.0115
 5450SOL    HW127983   3.358   4.535  16.498 -0.6413  0.5197  0.1502
 5450SOL    HW227984   3.368   4.615  16.628 -0.8520  2.6463 -0.9043
 5451SOL     OW27985   0.259   3.105  10.851 -0.0563 -0.0726  0.5482
 5451SOL    HW127986   0.188   3.054  10.810 -0.7549  0.8474  0.6211
 5451SOL    HW227987   0.207   3.178  10.883  0.7419  0.8841 -0.3411
 5452SOL     OW27988   2.613   3.148   0.064  0.2017  0.2688  0.4699
 5452SOL    HW127989   2.566   3.076   0.021 -1.4161  2.1138 -0.8381
 5452SOL    HW227990   2.679   3.153  17.738  1.5370 -0.0938  1.7331
 5453SOL     OW27991   0.618   1.610   0.223  0.3839  0.2718 -0.3683
 5453SOL    HW127992   0.525   1.588   0.228  1.2806 -3.2902  0.8565
 5453SOL    HW227993   0.618   1.695   0.179 -1.7759 -0.8232 -2.4747
 5454SOL     OW27994   2.380   0.923   8.686  0.1600  0.6337 -0.3346
 5454SOL    HW127995   2.371   0.853   8.750  0.2797  0.9584  0.0363
 5454SOL    HW227996   2.305   0.978   8.707  0.4337  0.5383  0.8950
 5455SOL     OW27997   3.836   0.178   1.794 -0.0166 -0.4070  1.0474
 5455SOL    HW127998   3.820   0.270   1.815  4.3088  0.4751  0.6249
 5455SOL    HW227999   3.856   0.197   1.702  1.1247  1.7538  1.7447
 5456SOL     OW28000   1.763   0.705  15.460 -0.5529 -0.3157 -0.0632
 5456SOL    HW128001   1.705   0.639  15.497 -0.2718 -0.7505 -0.3963
 5456SOL    HW228002   1.846   0.666  15.490 -0.2557  0.7638  0.5202
 5457SOL     OW28003   1.799   0.553   4.183 -0.0378  0.1120 -0.1009
 5457SOL    HW128004   1.718   0.509   4.211  1.4119 -2.0759  0.6825
 5457SOL    HW228005   1.782   0.566   4.090  2.7491  2.9043 -0.2182
 5458SOL     OW28006   0.994   2.718   7.955  0.3715 -0.1475  0.1758
 5458SOL    HW128007   0.970   2.717   8.048 -1.2516 -0.5692 -0.2469
 5458SOL    HW228008   1.068   2.658   7.962  0.1035 -0.3925  0.9283
 5459SOL     OW28009   3.930   3.432   0.469  0.0255  0.4389 -0.9549
 5459SOL    HW128010   3.936   3.523   0.499 -0.2994 -0.2415  1.1400
 5459SOL    HW228011   3.952   3.448   0.377  1.5203  1.6902 -0.3922
 5460SOL     OW28012   2.592   4.450   5.056 -0.2014 -0.6540  0.4094
 5460SOL    HW128013   2.664   4.396   5.090  0.4161 -0.4862 -0.6190
 5460SOL    HW228014   2.581   4.416   4.967 -0.1818 -1.0798  0.5708
 5461SOL     OW28015   2.833   0.817   7.383 -0.2031  0.0473  0.0951
 5461SOL    HW128016   2.862   0.761   7.311  4.3543  2.8030 -0.1725
 5461SOL    HW228017   2.754   0.852   7.342  1.0601  4.1298  1.1138
 5462SOL     OW28018   1.658   2.032   3.697  0.4787  0.0030 -0.3498
 5462SOL    HW128019   1.592   2.063   3.758 -1.1602  1.4494 -2.8937
 5462SOL    HW228020   1.728   2.094   3.718  0.2348  0.5661 -1.2260
 5463SOL     OW28021   2.283   3.666   3.854  0.1192 -0.1232 -0.3371
 5463SOL    HW128022   2.292   3.672   3.950  1.3789 -0.6652 -0.4237
 5463SOL    HW228023   2.208   3.724   3.839  0.8669  0.9108 -0.1258
 5464SOL     OW28024   0.432   2.823  10.511 -0.5417 -0.7037  0.2877
 5464SOL    HW128025   0.364   2.798  10.449 -1.6428  1.8538  0.4532
 5464SOL    HW228026   0.390   2.896  10.557 -1.3340 -0.9889  0.0126
 5465SOL     OW28027   2.111   2.682   3.492 -0.3901  0.5807 -0.0033
 5465SOL    HW128028   2.139   2.605   3.541 -0.9253 -0.5668 -1.5145
 5465SOL    HW228029   2.034   2.709   3.542  0.4700  1.7065  0.7350
 5466SOL     OW28030   2.465   2.783   1.094  0.0918  0.3323  0.6204
 5466SOL    HW128031   2.461   2.762   1.187  1.8040  2.0034  1.0600
 5466SOL    HW228032   2.414   2.864   1.093  2.5757  1.8376 -1.3832
 5467SOL     OW28033   4.731   1.769   7.898 -0.8094 -0.7895 -0.2830
 5467SOL    HW128034   0.000   1.774   7.803  2.0537 -2.3434 -0.1926
 5467SOL    HW228035   4.661   1.705   7.914  0.3547 -1.6719  1.2791
 5468SOL     OW28036   3.347   1.075   3.343 -0.7018 -0.3851  0.6074
 5468SOL    HW128037   3.352   1.008   3.411 -2.7195  0.0991  1.2541
 5468SOL    HW228038   3.271   1.051   3.290 -1.6541 -1.3318  2.4127
 5469SOL     OW28039   0.077   1.792   6.772 -0.6194 -0.0582 -0.4177
 5469SOL    HW128040   0.104   1.828   6.688  0.0817  1.0492  0.2707
 5469SOL    HW228041   0.042   1.866   6.822 -0.2541 -1.3856  1.8232
 5470SOL     OW28042   2.329   3.228   5.022  0.3512 -0.3352  0.0671
 5470SOL    HW128043   2.300   3.313   4.991  0.2837 -0.3175  0.1798
 5470SOL    HW228044   2.285   3.221   5.106 -0.3881  1.7155 -0.1683
 5471SOL     OW28045   3.799   1.942   5.214 -0.4125 -0.1024  0.0622
 5471SOL    HW128046   3.798   2.038   5.221  0.3257 -0.0817 -0.1221
 5471SOL    HW228047   3.818   1.908   5.301 -1.6201 -2.5818 -0.6649
 5472SOL     OW28048   0.686   3.443   3.453 -0.7091 -0.3165 -0.2045
 5472SOL    HW128049   0.679   3.446   3.358 -0.3363 -0.2888 -0.2304
 5472SOL    HW228050   0.608   3.401   3.490 -0.3702 -1.0872 -0.3691
 5473SOL     OW28051   1.591   4.221   7.215 -0.3251  0.3068  0.1925
 5473SOL    HW128052   1.496   4.216   7.209 -0.1059 -1.1010 -1.7193
 5473SOL    HW228053   1.616   4.130   7.227 -1.0852 -0.3013 -3.0846
 5474SOL     OW28054   2.540   2.253   0.474 -0.2012 -0.0803 -0.0522
 5474SOL    HW128055   2.625   2.290   0.448  0.0317  2.2536  4.0755
 5474SOL    HW228056   2.476   2.318   0.443  2.3580  2.2698 -0.4544
 5475SOL     OW28057   0.894   3.390   3.628  0.0345 -0.4148 -0.2790
 5475SOL    HW128058   0.845   3.321   3.673 -0.3489  0.0553  0.0137
 5475SOL    HW228059   0.832   3.421   3.562 -1.3752 -0.3849  1.0723
 5476SOL     OW28060   2.432   2.871   8.929  0.3516  0.0930  0.6142
 5476SOL    HW128061   2.338   2.857   8.924  0.3944 -1.0381  3.1818
 5476SOL    HW228062   2.474   2.793   8.892  0.2061  0.5321 -0.4853
 5477SOL     OW28063   2.762   2.006   3.864 -0.1780 -1.0018 -0.2268
 5477SOL    HW128064   2.771   2.086   3.914  1.8216  0.0418 -2.2747
 5477SOL    HW228065   2.674   2.007   3.826 -1.1946 -2.2204  2.0919
 5478SOL     OW28066   3.952   3.208   4.226  0.0664 -0.3397  0.5103
 5478SOL    HW128067   3.976   3.180   4.137 -0.3533  2.3758 -0.4395
 5478SOL    HW228068   3.861   3.180   4.218 -0.1615  0.4734  0.2744
 5479SOL     OW28069   4.330   1.564   1.333  0.5720 -0.3611  0.3660
 5479SOL    HW128070   4.303   1.633   1.273 -1.4216 -1.5729 -0.1154
 5479SOL    HW228071   4.402   1.606   1.381  1.0014 -2.3541  1.4850
 5480SOL     OW28072   2.674   2.834   3.238  0.5312  0.0115 -0.8014
 5480SOL    HW128073   2.645   2.819   3.148  0.6578  2.2519 -1.2250
 5480SOL    HW228074   2.616   2.769   3.279  0.1944 -0.1400 -1.5201
 5481SOL     OW28075   1.213   4.395  11.855 -0.3945 -0.1399 -0.2955
 5481SOL    HW128076   1.129   4.441  11.857 -0.5487 -0.3017 -2.3547
 5481SOL    HW228077   1.263   4.449  11.794 -2.6955  2.6147  0.2796
 5482SOL     OW28078   0.102   3.947   2.945  0.1543  0.3048  0.3798
 5482SOL    HW128079   0.190   3.911   2.952 -0.7459 -2.1089 -0.6174
 5482SOL    HW228080   0.130   4.032   2.977  0.6141 -0.0509  0.9173
 5483SOL     OW28081   4.588   2.826   5.539 -0.0005 -0.2946 -0.4222
 5483SOL    HW128082   4.495   2.852   5.538  0.2709  0.6880 -0.2574
 5483SOL    HW228083   4.599   2.812   5.445  1.7886 -0.3509 -0.1884
 5484SOL     OW28084   0.607   2.282  13.790  0.2563 -0.2390  0.4859
 5484SOL    HW128085   0.555   2.266  13.712 -3.6718  0.2446  3.0008
 5484SOL    HW228086   0.640   2.370  13.774  0.6753 -0.7260 -1.3295
 5485SOL     OW28087   2.728   2.227   7.005 -0.9131  0.0324  0.6783
 5485SOL    HW128088   2.813   2.269   7.003 -0.6555 -0.4318  1.9427
 5485SOL    HW228089   2.720   2.225   7.100 -2.0908 -0.2429  0.5815
 5486SOL     OW28090   0.388   3.325   0.608 -0.4453  0.8155 -0.8982
 5486SOL    HW128091   0.350   3.349   0.693 -0.5449  0.0516 -0.7206
 5486SOL    HW228092   0.350   3.390   0.549 -1.3437 -0.7527 -2.0499
 5487SOL     OW28093   3.753   0.600   9.732 -0.4671 -0.3649 -0.0532
 5487SOL    HW128094   3.742   0.613   9.638  0.1673  1.5815  0.1380
 5487SOL    HW228095   3.785   0.510   9.733  0.6530  0.0312 -0.9809
 5488SOL     OW28096   4.518   2.357   7.245 -0.5243  0.3709 -0.1310
 5488SOL    HW128097   4.531   2.263   7.242 -0.5543  0.3666 -0.1228
 5488SOL    HW228098   4.433   2.362   7.290  0.6923 -1.7593  2.3847
 5489SOL     OW28099   1.683   0.194   7.151  0.3046 -0.3187  0.3346
 5489SOL    HW128100   1.760   0.158   7.193 -1.5471 -0.4538  3.6389
 5489SOL    HW228101   1.709   0.227   7.066 -0.8370  0.3031  0.2141
 5490SOL     OW28102   3.245   4.374   1.980  0.5893 -0.0537 -0.2501
 5490SOL    HW128103   3.202   4.406   2.059 -0.6192 -1.0574 -0.5028
 5490SOL    HW228104   3.275   4.452   1.933  0.0062  0.7896  0.8113
 5491SOL     OW28105   0.878   2.926   2.123 -0.3421  0.3430 -0.3225
 5491SOL    HW128106   0.866   2.993   2.191 -2.3460  0.9556 -1.2725
 5491SOL    HW228107   0.807   2.862   2.119  0.0130 -0.0723  0.0159
 5492SOL     OW28108   0.962   3.835   4.584  0.3690  0.5419 -0.1375
 5492SOL    HW128109   0.903   3.804   4.653  0.9905 -0.1952  0.0505
 5492SOL    HW228110   0.924   3.919   4.556  2.0222  1.7014  1.1501
 5493SOL     OW28111   0.336   1.543   5.748  0.5308  0.1887  0.0442
 5493SOL    HW128112   0.323   1.473   5.812 -1.1337 -0.7473 -1.3437
 5493SOL    HW228113   0.301   1.617   5.797 -2.5079 -1.6155  0.6050
 5494SOL     OW28114   3.381   1.883   6.445  0.2059 -0.0799  0.1813
 5494SOL    HW128115   3.383   1.790   6.421  0.2944  0.2807 -1.2234
 5494SOL    HW228116   3.455   1.913   6.392 -1.5302  2.7852 -0.6159
 5495SOL     OW28117   0.807   4.639  13.139 -0.8204 -0.6548  0.0640
 5495SOL    HW128118   0.776   4.549  13.127 -1.6713 -0.3856  0.2921
 5495SOL    HW228119   0.727   4.690  13.147 -0.4410 -0.0968  0.3465
 5496SOL     OW28120   0.442   1.896   8.614  0.2582 -0.2045 -0.2307
 5496SOL    HW128121   0.372   1.852   8.566 -0.0124  0.2272 -0.2358
 5496SOL    HW228122   0.395   1.923   8.693  2.0715  0.2715  0.6841
 5497SOL     OW28123   4.647   3.252  15.417 -0.2214 -0.1313  0.1174
 5497SOL    HW128124   4.625   3.329  15.470  0.7040  0.9326 -1.0080
 5497SOL    HW228125   4.690   3.203  15.487 -0.0364  0.5771  0.4989
 5498SOL     OW28126   0.449   0.809   8.725 -0.1888  0.1524 -0.4039
 5498SOL    HW128127   0.491   0.895   8.728  0.1053 -0.0715  1.6407
 5498SOL    HW228128   0.447   0.791   8.631  1.3252 -0.8932 -0.2448
 5499SOL     OW28129   2.054   1.763  16.507 -0.2744  0.0824 -0.0309
 5499SOL    HW128130   2.142   1.740  16.536 -1.3783 -1.8404  1.8190
 5499SOL    HW228131   2.034   1.704  16.435 -0.3657  0.2345 -0.1293
 5500SOL     OW28132   3.921   2.866  15.379 -0.3626 -0.1796  0.2664
 5500SOL    HW128133   3.944   2.903  15.294 -1.0407 -0.2393  0.0602
 5500SOL    HW228134   3.862   2.931  15.417  0.8259  1.5339 -0.8303
 5501SOL     OW28135   2.049   0.052   5.769  0.1661  0.2117  0.1072
 5501SOL    HW128136   2.107   0.128   5.761 -0.1720  0.3160 -1.3699
 5501SOL    HW228137   1.969   0.092   5.802 -1.6489 -2.9730 -0.4497
 5502SOL     OW28138   0.401   3.067   8.645  0.1560  0.4515 -0.0974
 5502SOL    HW128139   0.436   3.057   8.733 -0.4289  1.3638  0.2361
 5502SOL    HW228140   0.457   3.009   8.593  0.2447  0.9627 -0.5730
 5503SOL     OW28141   1.991   1.939   6.809  0.4741  0.5072  0.4958
 5503SOL    HW128142   1.964   1.988   6.731 -0.5879  0.3271  0.7460
 5503SOL    HW228143   1.975   2.006   6.875 -1.6634  0.1959  0.3044
 5504SOL     OW28144   1.880   1.006  12.742 -0.6563  0.1504  0.1191
 5504SOL    HW128145   1.951   1.067  12.764 -0.1823 -0.1430 -0.5828
 5504SOL    HW228146   1.909   0.921  12.774  0.5981  0.5236 -0.0053
 5505SOL     OW28147   3.913   2.504   3.791  0.0276  0.5847 -0.3739
 5505SOL    HW128148   3.930   2.537   3.703  2.6992 -0.7214 -0.3560
 5505SOL    HW228149   3.935   2.412   3.775 -0.6748  0.0762  1.6293
 5506SOL     OW28150   3.444   2.148  11.912 -0.0947 -0.0124  0.1584
 5506SOL    HW128151   3.507   2.220  11.921  1.5998 -1.3745 -0.8549
 5506SOL    HW228152   3.507   2.081  11.885 -0.4994 -0.4010  0.1861
 5507SOL     OW28153   2.636   0.420   9.477  0.4479  0.0823  0.0575
 5507SOL    HW128154   2.624   0.325   9.474 -2.4318  0.4737 -1.4246
 5507SOL    HW228155   2.679   0.442   9.395  0.5785  0.1584  0.1457
 5508SOL     OW28156   3.607   1.184  11.580  0.3863  0.3983 -0.2422
 5508SOL    HW128157   3.689   1.222  11.612 -0.0841 -1.0954  2.7501
 5508SOL    HW228158   3.648   1.122  11.519 -0.3335  0.7622 -1.0877
 5509SOL     OW28159   3.273   4.628   8.810  0.3293  0.0635 -0.3536
 5509SOL    HW128160   3.324   4.608   8.888  0.6452  2.7619  0.1191
 5509SOL    HW228161   3.267   4.723   8.806  0.9381  0.1142  0.0060
 5510SOL     OW28162   2.176   3.738   0.617 -0.0188 -0.3454 -0.3403
 5510SOL    HW128163   2.218   3.696   0.542  1.8402 -0.7670  0.9628
 5510SOL    HW228164   2.083   3.732   0.596  0.1697 -1.6214 -0.7637
 5511SOL     OW28165   4.523   4.692   3.595  0.1681  0.1474  0.1255
 5511SOL    HW128166   4.433   4.723   3.608 -0.2524 -1.3266  0.7583
 5511SOL    HW228167   4.515   4.695   3.500  0.8699  2.5855  0.1490
 5512SOL     OW28168   1.376   3.145  16.678 -0.8190 -0.2777 -0.3131
 5512SOL    HW128169   1.385   3.084  16.606 -1.4550 -0.5453 -0.1654
 5512SOL    HW228170   1.413   3.224  16.640 -1.2851 -1.3720 -2.9970
 5513SOL     OW28171   4.238   4.272  11.110  0.0654  0.9479  0.1157
 5513SOL    HW128172   4.232   4.300  11.202 -3.1883  0.3439  0.1066
 5513SOL    HW228173   4.241   4.357  11.067 -1.5360  0.7613 -0.3621
 5514SOL     OW28174   1.919   4.351   1.868  0.1568 -0.1109 -0.0334
 5514SOL    HW128175   1.961   4.284   1.922  2.4458  0.9935 -0.4529
 5514SOL    HW228176   1.903   4.296   1.791 -0.1504 -0.2795  0.1494
 5515SOL     OW28177   0.360   2.298   5.043  0.9270  0.1250 -0.5205
 5515SOL    HW128178   0.359   2.267   5.133 -0.6164 -1.5381 -1.1153
 5515SOL    HW228179   0.439   2.352   5.040 -0.5394  2.2953  0.3327
 5516SOL     OW28180   3.656   4.109   3.530 -0.3202 -0.3260  0.0611
 5516SOL    HW128181   3.728   4.118   3.467  0.1758  1.7163  0.9285
 5516SOL    HW228182   3.577   4.096   3.477 -0.8384 -1.1603  1.0502
 5517SOL     OW28183   1.065   0.771  13.752  0.0009 -0.1879  0.0579
 5517SOL    HW128184   1.030   0.782  13.840  2.1154  0.1495  0.8563
 5517SOL    HW228185   1.136   0.712  13.775 -0.1086  0.1542  1.2414
 5518SOL     OW28186   0.921   3.903   9.186  0.2461 -0.2390 -0.5251
 5518SOL    HW128187   0.964   3.988   9.180  0.5729 -0.4940 -1.8564
 5518SOL    HW228188   0.959   3.877   9.270  0.6489  1.0392 -0.3091
 5519SOL     OW28189   3.764   0.629  13.069  0.3085  0.2012 -0.2228
 5519SOL    HW128190   3.693   0.664  13.123  0.4073  0.2471 -0.1223
 5519SOL    HW228191   3.838   0.614  13.128 -0.6722 -1.4999  0.5699
 5520SOL     OW28192   0.560   1.411   7.527  0.1922 -0.0267 -0.3292
 5520SOL    HW128193   0.635   1.394   7.470  0.7462 -0.6400  0.5734
 5520SOL    HW228194   0.594   1.468   7.596 -0.9575  0.6200 -0.3000
 5521SOL     OW28195   0.793   0.281  16.417  0.3178 -0.8833 -0.7731
 5521SOL    HW128196   0.864   0.279  16.480 -0.1548 -0.3931 -0.2286
 5521SOL    HW228197   0.721   0.252  16.473  1.2073 -1.7843 -0.1043
 5522SOL     OW28198   2.313   2.241   3.530  0.6673 -0.3342 -0.2582
 5522SOL    HW128199   2.327   2.304   3.601 -1.3117 -0.5094  0.2858
 5522SOL    HW228200   2.365   2.166   3.558  0.0915 -1.2170 -1.5280
 5523SOL     OW28201   1.911   3.241   2.537 -0.2896 -0.2851  0.2123
 5523SOL    HW128202   1.930   3.206   2.624  0.9331  0.8758  0.4198
 5523SOL    HW228203   1.999   3.248   2.500 -0.3155 -1.2846 -0.0249
 5524SOL     OW28204   2.076   1.276   4.870  0.0340 -0.7648 -0.2352
 5524SOL    HW128205   2.122   1.348   4.913 -1.6776 -0.7146  1.5504
 5524SOL    HW228206   2.134   1.248   4.799 -0.9114 -2.4643 -0.3297
 5525SOL     OW28207   2.644   2.004   9.227  0.4175 -0.7246  0.2030
 5525SOL    HW128208   2.567   2.031   9.276  1.3909  1.4543  0.5146
 5525SOL    HW228209   2.644   2.050   9.143  1.3040  1.0430  1.1639
 5526SOL     OW28210   2.694   4.544  14.689  0.1952 -0.3752 -0.1863
 5526SOL    HW128211   2.773   4.504  14.652 -2.3592 -4.5773 -1.0765
 5526SOL    HW228212   2.679   4.623  14.637  0.1509 -0.0954  0.2544
 5527SOL     OW28213   0.951   0.673  13.012  0.4785 -0.3543 -0.1062
 5527SOL    HW128214   1.003   0.678  13.093  0.8482 -1.4726 -0.2763
 5527SOL    HW228215   0.905   0.756  13.023  1.0239 -0.3723  2.2855
 5528SOL     OW28216   1.524   3.718   2.138 -0.3084 -0.5983  0.1786
 5528SOL    HW128217   1.557   3.726   2.048  3.3394 -0.7814  1.5246
 5528SOL    HW228218   1.569   3.640   2.170  0.5095 -0.8187 -1.5284
 5529SOL     OW28219   2.009   4.367   8.844 -0.2107  0.5151  0.4299
 5529SOL    HW128220   2.038   4.434   8.782  0.4120 -0.4232 -0.2890
 5529SOL    HW228221   2.093   4.364   8.888  0.0829 -1.4100 -0.2546
 5530SOL     OW28222   2.445   3.447  13.615 -0.1928  0.7370 -0.0021
 5530SOL    HW128223   2.495   3.506  13.559  0.8490  1.4788  1.6890
 5530SOL    HW228224   2.378   3.416  13.555  0.1633 -1.0442  0.5155
 5531SOL     OW28225   2.537   4.219  11.400  0.0498 -0.0663 -0.1739
 5531SOL    HW128226   2.557   4.216  11.493  0.2716  0.7569 -0.1910
 5531SOL    HW228227   2.476   4.146  11.398 -1.4979  1.1895  2.1593
 5532SOL     OW28228   0.599   4.069   0.258 -0.0882 -0.0151 -0.1626
 5532SOL    HW128229   0.644   4.139   0.210  2.9722 -3.0694 -1.7919
 5532SOL    HW228230   0.648   4.058   0.340  2.5948  0.6657 -1.6488
 5533SOL     OW28231   0.892   4.011   1.218  0.6576 -0.0777 -0.2739
 5533SOL    HW128232   0.956   4.001   1.288 -0.3552  2.6233  1.0584
 5533SOL    HW228233   0.849   4.088   1.254  0.0624 -0.1189 -0.8879
 5534SOL     OW28234   0.018   0.568   4.501 -0.2139 -0.3767  0.6082
 5534SOL    HW128235   0.077   0.563   4.425 -0.9709  1.2026 -0.0848
 5534SOL    HW228236   4.669   0.578   4.458  0.2219 -0.2264 -0.2323
 5535SOL     OW28237   4.098   3.486   0.766 -0.5162  0.0601 -0.0219
 5535SOL    HW128238   4.031   3.553   0.755 -0.7642  0.3944  3.5816
 5535SOL    HW228239   4.170   3.531   0.722  0.0695 -2.1937 -1.3867
 5536SOL     OW28240   0.771   1.136   2.506  0.3676 -0.2055  0.4136
 5536SOL    HW128241   0.782   1.048   2.469 -0.3270 -0.2318  0.2786
 5536SOL    HW228242   0.771   1.184   2.424  0.8435  0.1102  0.5983
 5537SOL     OW28243   4.101   3.807  10.062 -0.0700 -0.1476  0.3300
 5537SOL    HW128244   4.177   3.750  10.054 -1.3364 -1.7148 -0.5596
 5537SOL    HW228245   4.036   3.751  10.019  1.6533 -1.8098 -0.1112
 5538SOL     OW28246   1.110   3.484  17.635 -0.4096  0.1050 -0.3682
 5538SOL    HW128247   1.017   3.478  17.611 -1.0201  0.8754  1.7086
 5538SOL    HW228248   1.150   3.490  17.549  0.4413  0.1847  0.0310
 5539SOL     OW28249   2.260   4.075   8.598  0.4935 -0.0441  0.6004
 5539SOL    HW128250   2.182   4.130   8.604 -0.3598 -1.2223  0.5140
 5539SOL    HW228251   2.213   3.992   8.610  0.2673 -0.0115 -0.0787
 5540SOL     OW28252   2.844   1.748   8.563 -0.2886 -0.1414  0.0459
 5540SOL    HW128253   2.892   1.826   8.534 -0.6931 -0.1208 -0.5787
 5540SOL    HW228254   2.869   1.723   8.652  2.7597 -0.4882 -0.9160
 5541SOL     OW28255   2.954   1.684   2.807  0.4365 -0.0500  0.2719
 5541SOL    HW128256   2.926   1.629   2.879  3.2033 -1.0555  0.5659
 5541SOL    HW228257   2.997   1.617   2.755 -0.0420 -0.0691 -0.1011
 5542SOL     OW28258   0.390   0.855   7.977 -0.0717  0.2743 -0.0902
 5542SOL    HW128259   0.366   0.770   7.940 -0.8958  0.1212  0.7978
 5542SOL    HW228260   0.319   0.912   7.947  0.6135  1.1394 -0.0842
 5543SOL     OW28261   2.441   0.815   6.019 -0.5005  0.0241  0.0393
 5543SOL    HW128262   2.520   0.803   5.967 -0.6284 -1.6700  0.2265
 5543SOL    HW228263   2.379   0.819   5.946 -0.4932  0.1335  0.0401
 5544SOL     OW28264   0.342   1.778   3.185 -0.5643  0.3681 -0.3249
 5544SOL    HW128265   0.326   1.725   3.107 -0.7975 -0.1392  0.0746
 5544SOL    HW228266   0.431   1.761   3.217  0.2503  1.3831 -2.0000
 5545SOL     OW28267   2.552   0.628  16.222  0.0943  0.2823  0.3415
 5545SOL    HW128268   2.612   0.671  16.282  0.0854 -0.1933  0.6921
 5545SOL    HW228269   2.482   0.598  16.279 -0.7787 -0.4028 -1.0935
 5546SOL     OW28270   0.549   1.754   3.741  0.5761 -0.1292  0.3313
 5546SOL    HW128271   0.534   1.811   3.816  1.1514 -0.3642  0.6270
 5546SOL    HW228272   0.555   1.817   3.670 -2.4385 -0.8978 -0.5968
 5547SOL     OW28273   2.437   0.835   8.145  0.0072  0.2788  0.4532
 5547SOL    HW128274   2.440   0.895   8.070  1.1466  0.2182  0.4508
 5547SOL    HW228275   2.410   0.892   8.217 -1.1682 -0.1493  0.3465
 5548SOL     OW28276   1.256   3.909   6.644 -0.3816  0.2786 -0.6497
 5548SOL    HW128277   1.202   3.831   6.658  1.0573 -0.9055 -1.6316
 5548SOL    HW228278   1.209   3.983   6.681 -0.9364 -0.9856  1.1411
 5549SOL     OW28279   4.319   4.448  17.531  0.1958 -0.1317  0.0906
 5549SOL    HW128280   4.237   4.435  17.483 -0.2725  1.4339  0.4764
 5549SOL    HW228281   4.282   4.479  17.614  2.8507  0.5497  0.9877
 5550SOL     OW28282   0.097   3.961  15.015  0.0670 -0.3938  0.0458
 5550SOL    HW128283   0.028   4.008  15.062  0.0589  0.4367 -0.7979
 5550SOL    HW228284   0.158   3.946  15.087  3.1956  1.5548 -2.2553
 5551SOL     OW28285   4.603   1.242  16.882  0.2172  0.2436 -0.0451
 5551SOL    HW128286   4.596   1.190  16.962 -3.0975  0.5092 -0.1622
 5551SOL    HW228287   4.640   1.327  16.905  1.3894 -0.5714  1.1271
 5552SOL     OW28288   0.966   0.442   7.397 -0.6204 -0.0589 -0.0361
 5552SOL    HW128289   1.051   0.482   7.414 -0.2325 -0.7085 -0.4617
 5552SOL    HW228290   0.976   0.355   7.435  2.1226 -0.0295 -0.6984
 5553SOL     OW28291   3.429   3.020  17.668 -0.1615  0.1795 -0.8075
 5553SOL    HW128292   3.417   3.092  17.730  2.1940  1.1108 -1.4398
 5553SOL    HW228293   3.480   2.958  17.720 -0.6721  0.2049 -0.2809
 5554SOL     OW28294   3.562   4.684   7.688  0.5875 -0.3478  0.6994
 5554SOL    HW128295   3.585   4.640   7.770  1.5050  0.0484  0.6496
 5554SOL    HW228296   3.596   4.621   7.624 -0.1688 -0.9028  0.8456
 5555SOL     OW28297   0.733   3.944   4.822  0.0086 -0.5450  0.1533
 5555SOL    HW128298   0.673   3.977   4.888  1.3884  0.3456  0.9696
 5555SOL    HW228299   0.712   3.851   4.826 -2.2481  0.0693  2.0817
 5556SOL     OW28300   0.608   1.984   6.005 -0.1600  0.4489 -0.3734
 5556SOL    HW128301   0.636   2.000   6.095 -1.4187 -1.0753  0.2853
 5556SOL    HW228302   0.521   2.023   6.005 -0.7661 -0.8785  0.2414
 5557SOL     OW28303   0.419   0.550  17.571 -0.0743  0.0786 -0.0502
 5557SOL    HW128304   0.388   0.540  17.481 -1.8209 -4.6346  1.0576
 5557SOL    HW228305   0.429   0.457  17.592  1.6955 -0.2928 -2.4812
 5558SOL     OW28306   0.961   1.416  17.124  0.0154  0.2024  0.0521
 5558SOL    HW128307   0.912   1.350  17.172 -0.8561  1.6208  1.1314
 5558SOL    HW228308   1.047   1.400  17.164 -1.0984  0.9010  2.7592
 5559SOL     OW28309   4.616   4.221   9.755  0.1673  0.8426 -0.3578
 5559SOL    HW128310   4.677   4.289   9.727  0.8513  0.3386 -0.1035
 5559SOL    HW228311   4.563   4.276   9.813  0.8750  1.1728 -0.0304
 5560SOL     OW28312   0.811   4.121   5.986  0.9170  0.2965  0.2441
 5560SOL    HW128313   0.819   4.212   5.957 -0.1459  0.4751  0.5235
 5560SOL    HW228314   0.898   4.129   6.025  0.8733  0.0506  0.3897
 5561SOL     OW28315   0.105   0.207   2.124 -0.5028  0.1827  0.4525
 5561SOL    HW128316   0.106   0.117   2.158 -1.9301  0.2406  0.6481
 5561SOL    HW228317   0.078   0.199   2.032 -1.9031  0.5486  0.8268
 5562SOL     OW28318   2.497   2.935   5.134  0.1182  0.7748  0.4330
 5562SOL    HW128319   2.464   2.977   5.055  0.2104 -1.1541 -0.6280
 5562SOL    HW228320   2.503   2.843   5.106  1.4633  0.8774  0.3840
 5563SOL     OW28321   4.069   3.186   3.020  0.1838  0.8846  0.2221
 5563SOL    HW128322   3.992   3.244   3.018 -0.2544  0.2785 -0.7201
 5563SOL    HW228323   4.057   3.127   3.095  0.9345  0.0151 -0.3559
 5564SOL     OW28324   2.683   2.040  13.105 -0.0021 -0.0977 -0.5324
 5564SOL    HW128325   2.710   1.987  13.030 -0.4134 -0.3308 -0.5147
 5564SOL    HW228326   2.618   2.095  13.063  0.0251  0.8389  0.6649
 5565SOL     OW28327   0.963   0.774  12.343 -0.2329 -0.5568  0.3143
 5565SOL    HW128328   1.024   0.705  12.317 -0.3306 -0.2268 -0.8132
 5565SOL    HW228329   0.923   0.740  12.422  0.1144  1.1366  1.2198
 5566SOL     OW28330   0.422   0.525  13.133  0.1725 -0.0142 -0.5838
 5566SOL    HW128331   0.377   0.521  13.048 -1.0697 -0.5558  0.0943
 5566SOL    HW228332   0.458   0.613  13.135  1.1895 -0.5484  3.5037
 5567SOL     OW28333   1.482   1.897   9.253  0.3587 -0.3468  0.1929
 5567SOL    HW128334   1.560   1.912   9.199 -2.1990 -1.2395 -3.8135
 5567SOL    HW228335   1.498   1.940   9.336  1.2131  2.6703 -1.5493
 5568SOL     OW28336   4.002   1.158  10.420  0.0951 -0.6976  0.1440
 5568SOL    HW128337   4.007   1.161  10.515  1.1887 -2.4866  0.1471
 5568SOL    HW228338   3.927   1.207  10.388  0.8687 -0.4642 -1.3171
 5569SOL     OW28339   2.710   0.583   9.938 -0.5804 -0.0002 -0.1209
 5569SOL    HW128340   2.723   0.582   9.843 -0.5339  0.0193 -0.1149
 5569SOL    HW228341   2.624   0.624   9.951 -1.2900 -1.1762 -1.0790
 5570SOL     OW28342   0.829   3.793  14.725 -0.5267  0.2952  0.0480
 5570SOL    HW128343   0.742   3.753  14.723 -0.9168  1.0516  1.4352
 5570SOL    HW228344   0.819   3.876  14.677 -0.8078 -0.5428 -1.3365
 5571SOL     OW28345   0.228   3.687  16.418  0.2425  0.0809  0.6796
 5571SOL    HW128346   0.212   3.746  16.345 -1.8715 -1.2410  0.0809
 5571SOL    HW228347   0.157   3.625  16.400  0.8368 -0.1843 -0.7424
 5572SOL     OW28348   1.140   0.678  12.745  0.3093  0.1011 -0.2259
 5572SOL    HW128349   1.182   0.608  12.796 -0.9431 -0.0996  0.5401
 5572SOL    HW228350   1.095   0.737  12.805  1.3943  2.5994 -1.8976
 5573SOL     OW28351   0.142   2.222  10.930 -0.2284 -0.2036  0.2227
 5573SOL    HW128352   0.207   2.170  10.978 -0.6620 -0.9876 -0.0451
 5573SOL    HW228353   0.069   2.223  10.992 -0.1400 -2.0086  0.3457
 5574SOL     OW28354   0.766   1.450   2.041 -0.1737 -0.4421 -0.3198
 5574SOL    HW128355   0.786   1.376   1.983  0.0781  0.6366 -1.6115
 5574SOL    HW228356   0.783   1.526   1.985 -0.2825 -0.9543 -1.0598
 5575SOL     OW28357   2.659   2.164   8.237  0.1454  0.5045  0.0909
 5575SOL    HW128358   2.740   2.185   8.189 -0.2729  1.4431 -0.1962
 5575SOL    HW228359   2.629   2.091   8.184 -0.1313 -0.9612  2.2687
 5576SOL     OW28360   2.221   0.365   4.182  0.0332  0.3345  0.3587
 5576SOL    HW128361   2.194   0.326   4.264 -0.4293  0.0891  0.0894
 5576SOL    HW228362   2.316   0.364   4.176 -0.0161  0.3362 -0.5435
 5577SOL     OW28363   2.492   4.162   4.354  0.2325  0.2585 -0.1889
 5577SOL    HW128364   2.582   4.135   4.332  0.1569 -2.2656  2.5855
 5577SOL    HW228365   2.465   4.161   4.262  1.3780  1.9737 -0.5524
 5578SOL     OW28366   0.051   0.872   6.636  0.3319  0.2531  0.0747
 5578SOL    HW128367   4.715   0.825   6.595  1.0392 -0.9263  0.1909
 5578SOL    HW228368   0.032   0.966   6.629  2.9359  0.9668  1.9880
 5579SOL     OW28369   3.847   1.488  11.899  0.1694 -0.1293  0.1623
 5579SOL    HW128370   3.879   1.446  11.979  3.3171  1.5195 -0.2208
 5579SOL    HW228371   3.927   1.519  11.855  0.3076 -1.3400 -0.4274
 5580SOL     OW28372   4.692   0.355   5.517 -0.1688  0.1902  0.0045
 5580SOL    HW128373   4.637   0.416   5.469  0.8516  1.4627  0.4777
 5580SOL    HW228374   4.655   0.267   5.504 -2.2392  0.9958  0.4790
 5581SOL     OW28375   1.960   3.973   7.718 -0.1759  0.4658  0.5673
 5581SOL    HW128376   1.961   3.885   7.682 -1.9089 -0.8679  3.8185
 5581SOL    HW228377   2.023   3.952   7.786  0.1450  0.2929  0.2108
 5582SOL     OW28378   2.066   3.805   4.249 -0.3483 -0.2775 -0.2659
 5582SOL    HW128379   2.075   3.719   4.291 -0.1486  0.7650  1.8385
 5582SOL    HW228380   2.022   3.845   4.324  0.5026  1.2588 -0.5911
 5583SOL     OW28381   0.396   1.458  11.264  0.5637 -0.2432 -1.0380
 5583SOL    HW128382   0.464   1.496  11.320 -0.1859 -0.7433  0.2160
 5583SOL    HW228383   0.394   1.523  11.194 -1.5780 -0.5386 -1.2541
 5584SOL     OW28384   1.579   2.060   4.448 -0.4935  0.4028 -0.3253
 5584SOL    HW128385   1.577   2.156   4.446 -1.9371  0.4098  1.4719
 5584SOL    HW228386   1.599   2.045   4.540  0.6617  0.4600 -0.5681
 5585SOL     OW28387   1.504   2.480  11.230 -0.3865  0.3856  0.2184
 5585SOL    HW128388   1.419   2.481  11.273 -0.1449  2.0694  0.6669
 5585SOL    HW228389   1.516   2.388  11.208  2.1461  0.4729  1.2148
 5586SOL     OW28390   0.999   3.092   5.829 -0.2025  0.1729 -0.1333
 5586SOL    HW128391   1.032   3.181   5.813 -1.8758  0.7319 -0.4960
 5586SOL    HW228392   1.024   3.050   5.746 -1.5958 -1.3540  0.2236
 5587SOL     OW28393   1.068   4.310  15.317 -0.0909 -0.7130  0.5557
 5587SOL    HW128394   1.010   4.315  15.392 -3.1256 -2.4494 -1.6606
 5587SOL    HW228395   1.020   4.351  15.245  2.2661  1.6234  0.3022
 5588SOL     OW28396   2.254   2.515   3.245 -0.3780  0.3563  0.0655
 5588SOL    HW128397   2.220   2.432   3.280  2.0860 -0.3544  0.7745
 5588SOL    HW228398   2.337   2.492   3.203 -1.5154 -0.9116 -1.4685
 5589SOL     OW28399   4.165   2.096  13.678  0.4594  0.0364  0.6968
 5589SOL    HW128400   4.138   2.140  13.597 -1.6939 -0.2426  1.2833
 5589SOL    HW228401   4.257   2.122  13.679  0.3060  0.5290  1.8109
 5590SOL     OW28402   4.295   3.667  11.094 -0.5120 -0.1670 -0.2252
 5590SOL    HW128403   4.242   3.637  11.020  0.8230  0.4897 -1.4422
 5590SOL    HW228404   4.221   3.695  11.147  1.5229  0.0619  2.4613
 5591SOL     OW28405   3.546   0.446   7.457  0.3095 -0.2532 -0.7273
 5591SOL    HW128406   3.511   0.393   7.528  0.2367 -0.2159 -0.7346
 5591SOL    HW228407   3.566   0.526   7.504  1.6523 -0.4556 -0.9552
 5592SOL     OW28408   2.823   2.624   7.231 -0.2754  0.0159  0.1452
 5592SOL    HW128409   2.867   2.547   7.196 -0.1171  0.3298 -0.3515
 5592SOL    HW228410   2.828   2.674   7.149  0.5607  1.2384  0.9420
 5593SOL     OW28411   4.584   2.574  10.100 -1.0023  0.0066 -0.3319
 5593SOL    HW128412   4.558   2.509  10.166 -0.1147  1.1526  1.1493
 5593SOL    HW228413   4.645   2.520  10.051 -0.4743  1.2501 -1.0209
 5594SOL     OW28414   1.077   1.039   4.174  0.1201  0.5722 -0.2467
 5594SOL    HW128415   1.143   1.015   4.240 -0.5155 -0.6332 -0.0521
 5594SOL    HW228416   0.997   1.047   4.225  1.2207  0.0261  1.5908
 5595SOL     OW28417   4.394   2.016   4.405 -0.1855 -0.0477  0.5286
 5595SOL    HW128418   4.329   2.085   4.416 -0.7683 -0.0986 -2.3925
 5595SOL    HW228419   4.464   2.042   4.465 -1.4897  1.1983  1.4774
 5596SOL     OW28420   1.680   3.446   8.531  0.5442 -0.7678  0.5514
 5596SOL    HW128421   1.681   3.456   8.626  4.2981  1.4917  0.2523
 5596SOL    HW228422   1.599   3.395   8.528 -0.3042  0.6765 -1.6044
 5597SOL     OW28423   4.550   2.006   6.373 -0.7008  0.0075 -0.0952
 5597SOL    HW128424   4.529   2.001   6.467 -2.7101  3.1445 -0.3504
 5597SOL    HW228425   4.483   1.945   6.341 -1.1053  1.1280 -1.3659
 5598SOL     OW28426   1.725   0.997   5.424  0.4236 -0.0902  0.7076
 5598SOL    HW128427   1.714   1.062   5.354 -2.4803 -0.9967  0.3054
 5598SOL    HW228428   1.667   1.028   5.493 -0.7715  0.5612 -0.5655
 5599SOL     OW28429   1.977   2.784   2.704 -0.5245  0.2184  0.2871
 5599SOL    HW128430   1.896   2.822   2.737 -1.2629 -0.1266 -1.1388
 5599SOL    HW228431   2.028   2.805   2.782 -0.7461 -3.4928  1.4074
 5600SOL     OW28432   1.879   1.302  11.644  0.2262 -0.5468  0.8648
 5600SOL    HW128433   1.910   1.317  11.555 -1.3307 -1.1974  0.1994
 5600SOL    HW228434   1.928   1.372  11.685 -0.9151 -0.9699  2.9387
 5601SOL     OW28435   2.576   2.214   7.760 -0.0405  0.0706  0.5331
 5601SOL    HW128436   2.494   2.258   7.782  0.2269  1.7267 -1.7304
 5601SOL    HW228437   2.564   2.195   7.667  2.6523 -1.8064  0.5870
 5602SOL     OW28438   4.292   1.388   6.658 -0.1572 -0.2839 -0.3700
 5602SOL    HW128439   4.361   1.349   6.604 -1.2311 -0.4860 -1.5931
 5602SOL    HW228440   4.341   1.405   6.738  3.8185 -3.4416 -2.1379
 5603SOL     OW28441   3.713   4.470   5.427 -0.7290  0.2693 -0.2626
 5603SOL    HW128442   3.620   4.454   5.441  0.1440 -2.5453  2.4581
 5603SOL    HW228443   3.748   4.441   5.512  0.0752  1.7078 -0.0844
 5604SOL     OW28444   3.617   1.861   9.038  0.5045  0.1938  0.8500
 5604SOL    HW128445   3.594   1.807   8.962 -0.2865 -0.7617  1.7750
 5604SOL    HW228446   3.672   1.797   9.083 -0.4212 -1.3736 -0.2508
 5605SOL     OW28447   3.456   3.844   2.187  0.1473 -0.0449  0.1147
 5605SOL    HW128448   3.543   3.823   2.220  0.8150 -0.9123 -2.1533
 5605SOL    HW228449   3.470   3.893   2.106 -0.1856  0.4304  0.3444
 5606SOL     OW28450   0.897   1.510   4.745  0.0286  0.1267  0.2014
 5606SOL    HW128451   0.976   1.564   4.752 -1.7023  2.9039 -1.4038
 5606SOL    HW228452   0.847   1.527   4.825  0.4263  1.6812  0.1137
 5607SOL     OW28453   0.851   0.096   8.793  0.1462 -0.4210  0.3018
 5607SOL    HW128454   0.901   0.016   8.777 -2.3430 -2.3699  2.2657
 5607SOL    HW228455   0.816   0.072   8.878  0.7213 -1.5013  0.2345
 5608SOL     OW28456   2.233   2.545  14.965 -0.0373  0.1542  0.6593
 5608SOL    HW128457   2.300   2.522  15.028 -0.0794  1.3072  1.1308
 5608SOL    HW228458   2.269   2.607  14.902  2.3406 -1.2078  0.6761
 5609SOL     OW28459   4.028   3.100   0.716 -1.0588 -0.2318  0.2102
 5609SOL    HW128460   3.992   3.019   0.754  0.1672  0.0499  1.9797
 5609SOL    HW228461   3.951   3.148   0.685  1.0551  2.8719 -0.1436
 5610SOL     OW28462   1.760   2.633  10.935  0.2477 -0.6254  0.3220
 5610SOL    HW128463   1.809   2.674  11.006 -2.2120  1.1113  1.0197
 5610SOL    HW228464   1.830   2.587  10.889 -0.3019 -2.7180  1.5654
 5611SOL     OW28465   2.489   1.132   0.126 -0.2710 -0.4151 -0.1289
 5611SOL    HW128466   2.471   1.092   0.211  0.6098 -0.3534  0.0834
 5611SOL    HW228467   2.470   1.221   0.153 -0.2076 -0.5095  0.2249
 5612SOL     OW28468   3.724   3.691   9.145  0.1725 -0.1006  0.2537
 5612SOL    HW128469   3.785   3.640   9.091 -0.6406 -0.4672 -0.3253
 5612SOL    HW228470   3.752   3.781   9.127 -0.7930 -0.1215 -1.3907
 5613SOL     OW28471   0.738   2.522  11.272 -0.1071 -0.9134  0.0616
 5613SOL    HW128472   0.702   2.445  11.314 -1.3567 -0.0741  0.5494
 5613SOL    HW228473   0.679   2.551  11.202 -0.2693 -1.4280 -0.0116
 5614SOL     OW28474   1.599   0.711  17.316 -0.5241 -0.7658  0.1451
 5614SOL    HW128475   1.557   0.744  17.236 -3.2857 -0.3393  1.7556
 5614SOL    HW228476   1.536   0.658  17.364  0.7369 -2.3310  0.0579
 5615SOL     OW28477   2.550   4.032   2.845 -0.1281  0.1619 -0.2339
 5615SOL    HW128478   2.498   3.969   2.796 -2.4277  0.0966  2.2742
 5615SOL    HW228479   2.518   4.019   2.934 -0.2257  2.0767  0.0083
 5616SOL     OW28480   2.834   0.100   9.927  0.1548 -0.1148 -0.9793
 5616SOL    HW128481   2.794   0.042   9.862 -0.8618  1.6765 -1.9333
 5616SOL    HW228482   2.916   0.110   9.879  1.1168  2.6459  1.2108
 5617SOL     OW28483   2.261   0.637   4.884 -0.0076 -0.3448  0.1856
 5617SOL    HW128484   2.301   0.562   4.840 -1.3946  0.2634 -2.0953
 5617SOL    HW228485   2.205   0.672   4.814  2.9381  0.5000 -1.7417
 5618SOL     OW28486   2.577   1.914   4.092 -0.4632 -0.2617  0.2952
 5618SOL    HW128487   2.654   1.970   4.084  0.5427 -1.8117 -0.7230
 5618SOL    HW228488   2.602   1.838   4.144 -0.9782  0.8064  2.1153
 5619SOL     OW28489   3.404   1.387   7.239 -0.0554 -0.0444 -0.0607
 5619SOL    HW128490   3.433   1.310   7.189  2.6155 -0.3926  1.9705
 5619SOL    HW228491   3.365   1.432   7.164  1.2691  1.3346  0.0834
 5620SOL     OW28492   0.806   3.655   6.376  0.0125 -0.3383  0.0262
 5620SOL    HW128493   0.885   3.662   6.429  0.5988 -0.9310 -0.7729
 5620SOL    HW228494   0.830   3.623   6.289 -1.1500 -2.6214  0.5243
 5621SOL     OW28495   2.950   2.840   6.297  0.2976 -0.2360 -0.1020
 5621SOL    HW128496   3.000   2.823   6.218 -1.2070  0.7327 -1.2728
 5621SOL    HW228497   2.931   2.753   6.333  4.1952  0.2851  3.1934
 5622SOL     OW28498   0.662   2.225   4.502 -0.1886 -0.5701  0.1364
 5622SOL    HW128499   0.683   2.150   4.558 -1.0116  0.3977  1.7576
 5622SOL    HW228500   0.584   2.262   4.545  0.2978  1.0135 -0.3704
 5623SOL     OW28501   2.342   1.541   4.711  0.2256 -0.2131 -0.1108
 5623SOL    HW128502   2.262   1.532   4.659 -0.0027 -0.4652  0.2824
 5623SOL    HW228503   2.328   1.516   4.803  2.6404 -0.6721  0.1434
 5624SOL     OW28504   0.754   1.790   9.809  0.2666  0.0271  0.3689
 5624SOL    HW128505   0.665   1.759   9.825  1.7857 -4.4967  0.1440
 5624SOL    HW228506   0.797   1.777   9.894  2.0382 -1.2528 -0.7203
 5625SOL     OW28507   3.304   4.258   6.010 -0.2878  0.2773  0.0700
 5625SOL    HW128508   3.234   4.237   6.071 -1.0369 -2.7707 -1.8529
 5625SOL    HW228509   3.333   4.347   6.030 -0.7193  0.5925 -0.7059
 5626SOL     OW28510   2.836   3.203   7.687  0.0039 -0.2357  0.8152
 5626SOL    HW128511   2.829   3.108   7.677  2.6953 -0.5081  1.5309
 5626SOL    HW228512   2.745   3.229   7.677 -0.0730  0.1828  2.6010
 5627SOL     OW28513   3.813   0.538   3.994  0.3784 -0.0093  0.3729
 5627SOL    HW128514   3.754   0.463   3.998  1.3261 -0.7412  0.6683
 5627SOL    HW228515   3.897   0.499   4.018  0.6333 -0.1196 -0.6766
 5628SOL     OW28516   2.074   0.042  15.090  0.6704 -0.1917 -0.0803
 5628SOL    HW128517   2.039   4.691  15.069 -0.9710  0.5526 -0.4762
 5628SOL    HW228518   2.032   0.095  15.022  1.1143  0.5034  0.1850
 5629SOL     OW28519   1.087   0.569   6.854  1.1567 -1.1191  0.0050
 5629SOL    HW128520   1.130   0.546   6.936  1.4886 -1.4448 -0.2596
 5629SOL    HW228521   1.055   0.483   6.827  0.6409 -0.9330  0.0140
 5630SOL     OW28522   0.307   3.295   4.774  0.4152 -0.0976 -0.3415
 5630SOL    HW128523   0.327   3.350   4.850 -3.4315 -0.9094  1.2807
 5630SOL    HW228524   0.367   3.223   4.789  0.4104 -0.4989 -2.1883
 5631SOL     OW28525   0.389   1.686  11.074 -0.5510 -0.0877  0.1430
 5631SOL    HW128526   0.305   1.728  11.094  0.9121  2.4056  1.0758
 5631SOL    HW228527   0.453   1.734  11.128 -1.5574  1.2761  0.1197
 5632SOL     OW28528   3.482   2.045  11.064 -0.4292 -0.1568  0.1936
 5632SOL    HW128529   3.449   2.037  11.153  0.4937 -2.1162  0.3633
 5632SOL    HW228530   3.501   1.951  11.058  0.8167  0.1535 -0.7030
 5633SOL     OW28531   0.198   2.928   3.822 -0.4997 -0.0860 -0.4206
 5633SOL    HW128532   0.153   2.859   3.871 -0.4907  0.8367  0.8920
 5633SOL    HW228533   0.224   2.880   3.744  0.2496  0.7333 -0.6754
 5634SOL     OW28534   3.319   0.151   5.005  0.3091  0.1363 -0.3475
 5634SOL    HW128535   3.247   0.210   4.982  0.5548  0.0876 -1.2393
 5634SOL    HW228536   3.370   0.134   4.926  2.4805  0.8665  0.9127
 5635SOL     OW28537   0.945   2.886   3.796  0.9955  0.3980  0.2598
 5635SOL    HW128538   0.997   2.843   3.865 -0.4438 -1.3106  0.2902
 5635SOL    HW228539   1.011   2.932   3.744  2.2109 -0.4727  1.0295
 5636SOL     OW28540   3.708   3.083  17.440  0.0180 -0.2852  0.3985
 5636SOL    HW128541   3.719   3.000  17.486  0.8611 -1.9330 -2.7091
 5636SOL    HW228542   3.769   3.070  17.367  2.0226  1.4544  1.7606
 5637SOL     OW28543   0.143   4.485  16.248 -0.1323  0.2357 -0.4653
 5637SOL    HW128544   0.134   4.443  16.162  0.2616  1.5394 -1.1411
 5637SOL    HW228545   0.083   4.431  16.299  0.1727  0.2068 -0.1322
 5638SOL     OW28546   3.568   2.356  10.132 -0.2746 -0.2350 -0.0877
 5638SOL    HW128547   3.632   2.285  10.138  0.8702  0.9404  1.4776
 5638SOL    HW228548   3.508   2.316  10.194  0.9283  0.0568  1.2680
 5639SOL     OW28549   4.707   3.142   4.600  0.1546  0.0369 -0.1229
 5639SOL    HW128550   4.702   3.217   4.540 -1.8047  0.9947  1.2175
 5639SOL    HW228551   4.674   3.186   4.678 -0.2231 -0.6126  0.0829
 5640SOL     OW28552   1.239   0.961   8.784  0.3308  0.0377 -0.2928
 5640SOL    HW128553   1.265   0.984   8.874  2.1843  1.2074 -1.1149
 5640SOL    HW228554   1.163   1.016   8.770 -1.4796 -2.2814  0.4774
 5641SOL     OW28555   3.413   4.538  12.506 -0.0692 -1.1808  0.2006
 5641SOL    HW128556   3.383   4.595  12.578  0.5724 -0.4674 -0.1002
 5641SOL    HW228557   3.491   4.588  12.481 -1.0796  0.9823  1.3270
 5642SOL     OW28558   2.045   3.474   5.343 -0.0521 -0.0984  0.1842
 5642SOL    HW128559   2.009   3.559   5.316 -2.8308 -1.6271 -0.8494
 5642SOL    HW228560   2.004   3.468   5.429  0.5308  1.7587  0.6008
 5643SOL     OW28561   2.610   0.188  10.091  0.6386  0.4871  0.6574
 5643SOL    HW128562   2.619   0.281  10.072  0.7651  0.1915 -0.7576
 5643SOL    HW228563   2.693   0.169  10.047 -1.0779  1.2893 -2.8617
 5644SOL     OW28564   2.081   2.457   4.731 -0.0193 -0.1502  0.4769
 5644SOL    HW128565   2.138   2.463   4.808 -1.1286  0.9910  1.2195
 5644SOL    HW228566   2.125   2.510   4.665  0.0030  1.3843  1.7110
 5645SOL     OW28567   3.760   3.216   4.883 -0.1869 -0.2976 -0.5851
 5645SOL    HW128568   3.687   3.260   4.924  1.5358  0.4365  1.7158
 5645SOL    HW228569   3.836   3.266   4.915 -0.2856 -1.0419  0.8517
 5646SOL     OW28570   2.629   0.558   7.643 -0.0919  0.4128  0.4976
 5646SOL    HW128571   2.586   0.636   7.676  2.0922  1.6517  0.4394
 5646SOL    HW228572   2.635   0.593   7.554  0.7155 -0.0631  0.3628
 5647SOL     OW28573   2.185   1.149  10.229 -0.1161  0.1513 -0.4786
 5647SOL    HW128574   2.254   1.214  10.216  0.6201 -0.3268  1.0499
 5647SOL    HW228575   2.229   1.109  10.303 -0.7607  0.9394  0.3359
 5648SOL     OW28576   0.124   2.825   8.572  0.3791 -0.3848  0.2067
 5648SOL    HW128577   0.138   2.911   8.612  0.5430 -0.0273 -0.6223
 5648SOL    HW228578   0.167   2.763   8.631  0.9846  1.1056  1.3392
 5649SOL     OW28579   4.363   2.202   6.927  0.3801  0.0282  0.4436
 5649SOL    HW128580   4.402   2.288   6.942 -0.4424  0.2105  1.4989
 5649SOL    HW228581   4.436   2.156   6.885 -0.2936 -0.3968 -0.2762
 5650SOL     OW28582   4.014   2.738  17.393 -0.0649  0.0953  0.5074
 5650SOL    HW128583   3.963   2.736  17.312  3.1529 -0.8998 -1.5156
 5650SOL    HW228584   4.004   2.652  17.435  2.3495 -0.1591  0.5697
 5651SOL     OW28585   2.309   0.107  16.485 -0.0674 -0.6874  0.0451
 5651SOL    HW128586   2.337   0.165  16.415  0.0931  1.1365  1.6197
 5651SOL    HW228587   2.216   0.126  16.492 -0.0584 -0.9495  0.9266
 5652SOL     OW28588   3.153   2.622  17.511  0.2902 -0.2316 -0.0709
 5652SOL    HW128589   3.237   2.577  17.524  1.1385  0.7648 -2.1617
 5652SOL    HW228590   3.146   2.586  17.423 -0.2992 -0.4506  0.0669
 5653SOL     OW28591   0.533   3.708   5.320 -0.1769  0.0085 -0.2834
 5653SOL    HW128592   0.548   3.802   5.310  1.1782 -0.2366 -0.5431
 5653SOL    HW228593   0.565   3.692   5.408 -1.1370 -1.1677 -0.1509
 5654SOL     OW28594   0.686   4.649   3.269  0.7384  0.0124 -0.3565
 5654SOL    HW128595   0.655   4.729   3.312 -1.1719 -0.8226 -0.1837
 5654SOL    HW228596   0.730   4.600   3.337  1.6019 -0.5395 -1.3144
 5655SOL     OW28597   3.181   0.714  17.589  0.4048 -0.0202  0.5370
 5655SOL    HW128598   3.110   0.758  17.543 -0.8841 -2.8378 -0.1908
 5655SOL    HW228599   3.162   0.622  17.570  0.6849  0.3815 -1.7444
 5656SOL     OW28600   3.728   2.541   2.272  0.2082 -0.1702 -0.5496
 5656SOL    HW128601   3.732   2.582   2.186  0.6593  1.0598  0.0547
 5656SOL    HW228602   3.730   2.448   2.249  0.5500 -0.7396  1.7345
 5657SOL     OW28603   2.123   1.534   8.695  0.2131  0.5611 -0.5033
 5657SOL    HW128604   2.112   1.533   8.790  0.8182  0.2910 -0.4340
 5657SOL    HW228605   2.078   1.614   8.670  0.6348  1.5690  1.9622
 5658SOL     OW28606   2.097   1.891   5.198 -0.2297 -0.7245  0.0365
 5658SOL    HW128607   2.096   1.890   5.293  1.9836  1.1405  0.0911
 5658SOL    HW228608   2.156   1.964   5.177 -1.0272  0.0562  0.5390
 5659SOL     OW28609   4.269   4.456   3.640  0.3114 -0.2974  0.0919
 5659SOL    HW128610   4.290   4.366   3.666  1.7338 -0.2669 -0.9904
 5659SOL    HW228611   4.279   4.515   3.714  0.2785 -0.3741  0.1577
 5660SOL     OW28612   4.165   2.070   5.099 -0.4267  0.2539  0.6074
 5660SOL    HW128613   4.204   2.139   5.045  1.2725 -2.0619 -1.1010
 5660SOL    HW228614   4.076   2.073   5.063 -0.1409  2.6672  0.0888
 5661SOL     OW28615   4.036   2.210   7.478 -0.0466 -0.3047 -0.1629
 5661SOL    HW128616   4.020   2.303   7.461  1.2947 -0.7141 -3.7288
 5661SOL    HW228617   3.951   2.174   7.453 -0.2317 -0.0358  0.0757
 5662SOL     OW28618   1.411   2.859  16.497 -0.1019 -0.0576  0.1834
 5662SOL    HW128619   1.490   2.817  16.530 -0.1170  0.0822  0.3960
 5662SOL    HW228620   1.445   2.887  16.412  0.3241 -0.8870  0.0802
 5663SOL     OW28621   4.470   0.303  10.056  0.7693 -0.6851  0.1938
 5663SOL    HW128622   4.565   0.310  10.068  0.5392 -1.6547  2.6163
 5663SOL    HW228623   4.444   0.230  10.112 -0.8846 -0.8428 -0.7852
 5664SOL     OW28624   3.870   0.231   1.547  0.5873  0.2626  0.5870
 5664SOL    HW128625   3.855   0.303   1.486 -1.1757  0.4314  1.2225
 5664SOL    HW228626   3.939   0.179   1.505 -0.2201 -0.8261  0.6038
 5665SOL     OW28627   1.102   4.170   8.914  0.3669 -0.2264  0.3264
 5665SOL    HW128628   1.019   4.179   8.867  0.8894  0.7339 -0.3931
 5665SOL    HW228629   1.163   4.159   8.842  0.6014  2.2282  0.1374
 5666SOL     OW28630   2.141   4.625  16.782  0.3813  0.1881 -0.5007
 5666SOL    HW128631   2.210   4.618  16.848 -1.5591 -1.5023  1.3939
 5666SOL    HW228632   2.182   4.585  16.706 -0.2437  0.4474 -0.9733
 5667SOL     OW28633   0.694   2.275   6.602 -0.4657  0.4611  0.0490
 5667SOL    HW128634   0.644   2.239   6.529 -1.0232 -0.7658  1.0275
 5667SOL    HW228635   0.721   2.198   6.653  2.1842  1.6849  0.4766
 5668SOL     OW28636   0.498   0.501  16.435 -0.4877  0.4993  0.0966
 5668SOL    HW128637   0.545   0.550  16.502  0.7947  0.0934 -0.5133
 5668SOL    HW228638   0.532   0.415  16.459  1.5016  0.6465 -2.1522
 5669SOL     OW28639   4.612   3.308   8.386 -0.2661 -0.2618  0.4488
 5669SOL    HW128640   4.556   3.231   8.400 -0.3778  0.2949  3.0263
 5669SOL    HW228641   4.690   3.277   8.432  0.3779  0.5809 -0.0909
 5670SOL     OW28642   3.899   4.226  14.729 -0.6377  0.3450  0.3558
 5670SOL    HW128643   3.870   4.169  14.658  0.8497 -1.7799  1.4464
 5670SOL    HW228644   3.969   4.174  14.770 -0.4030  0.5428  0.2080
 5671SOL     OW28645   1.664   0.633   9.746  0.8111  0.6359  0.1087
 5671SOL    HW128646   1.604   0.560   9.763  0.3384  0.6622 -1.4779
 5671SOL    HW228647   1.661   0.633   9.651 -1.2307 -1.8670  0.1559
 5672SOL     OW28648   0.336   3.112   6.187  0.4738  0.3377  0.0949
 5672SOL    HW128649   0.332   3.053   6.111  1.9456  1.9896 -1.2630
 5672SOL    HW228650   0.292   3.190   6.153  0.6712 -0.7169 -2.6267
 5673SOL     OW28651   3.333   3.240   2.053  0.5431 -0.2830 -0.0938
 5673SOL    HW128652   3.398   3.210   1.989 -0.4439 -0.3673 -1.0635
 5673SOL    HW228653   3.393   3.281   2.115 -1.0152  1.6260  0.1356
 5674SOL     OW28654   0.170   1.639   3.349 -0.5111  0.3603 -0.0831
 5674SOL    HW128655   0.101   1.689   3.306  0.4433  1.8287  0.1003
 5674SOL    HW228656   0.247   1.671   3.303  0.0218  1.2310  1.4026
 5675SOL     OW28657   0.778   4.700   9.373  0.5139 -0.8853 -0.7023
 5675SOL    HW128658   0.759   4.696   9.466  0.1739  0.7294 -0.7076
 5675SOL    HW228659   0.714   0.028   9.342  1.3034  1.7241  3.0912
 5676SOL     OW28660   0.743   0.670   6.919  0.1564  0.5325  0.0282
 5676SOL    HW128661   0.809   0.625   6.971  0.3961  0.9002  0.0414
 5676SOL    HW228662   0.693   0.598   6.881  0.0198  0.4452  0.3715
 5677SOL     OW28663   2.703   4.472  15.261  0.6618 -0.2143 -0.3377
 5677SOL    HW128664   2.757   4.549  15.279  0.7237  0.5153 -3.7083
 5677SOL    HW228665   2.705   4.420  15.342 -0.2819  0.0138 -0.1653
 5678SOL     OW28666   0.125   2.825   7.489 -0.1736  0.1357  0.2725
 5678SOL    HW128667   0.131   2.733   7.514 -0.6733  0.1444  0.4253
 5678SOL    HW228668   0.081   2.867   7.563 -0.0784  0.4951  0.1234
 5679SOL     OW28669   1.874   1.155   8.651 -0.0967  0.0059  0.1167
 5679SOL    HW128670   1.846   1.174   8.561  0.8863  1.8867  0.2094
 5679SOL    HW228671   1.875   1.233   8.706 -1.3239 -0.8058  1.2804
 5680SOL     OW28672   2.452   4.553   8.457  0.1689  0.5150 -0.2583
 5680SOL    HW128673   2.428   4.633   8.505 -0.5362  1.2547 -1.8310
 5680SOL    HW228674   2.537   4.539   8.497  1.0278  0.7862 -1.9580
 5681SOL     OW28675   4.626   2.513   2.823  0.1697 -0.4331  0.4657
 5681SOL    HW128676   4.712   2.516   2.783  0.6177  0.0255  1.4578
 5681SOL    HW228677   4.650   2.539   2.912  2.9648  1.8315 -0.9333
 5682SOL     OW28678   2.246   1.991   9.101 -0.3476 -0.2147 -0.2594
 5682SOL    HW128679   2.217   1.933   9.171 -0.8664  0.1162 -0.1962
 5682SOL    HW228680   2.324   2.033   9.137 -1.5729 -0.2794  2.4785
 5683SOL     OW28681   2.096   3.997  10.763 -0.3021 -0.1588  0.0492
 5683SOL    HW128682   2.029   4.062  10.779  0.4696  0.7700 -0.5317
 5683SOL    HW228683   2.166   4.025  10.822 -1.4781  1.0594  0.8622
 5684SOL     OW28684   3.413   2.954   6.959 -0.4634  0.1535  0.3819
 5684SOL    HW128685   3.467   3.033   6.950 -2.8678  1.9295  1.3957
 5684SOL    HW228686   3.424   2.913   6.873 -0.7008  1.4653 -0.2867
 5685SOL     OW28687   4.222   1.504   7.551  0.2760  0.0240 -0.4859
 5685SOL    HW128688   4.148   1.486   7.493 -0.8749 -2.6110  1.7616
 5685SOL    HW228689   4.198   1.478   7.640 -0.1405  1.9345 -0.0330
 5686SOL     OW28690   3.307   4.286  16.649  0.1926  0.4368 -0.3425
 5686SOL    HW128691   3.377   4.232  16.686 -0.9687 -1.7732 -1.4171
 5686SOL    HW228692   3.243   4.273  16.718  1.3750 -1.8154  0.3281
 5687SOL     OW28693   3.518   1.074  12.111 -0.1734 -0.0190  0.0341
 5687SOL    HW128694   3.578   1.047  12.181  0.3838 -0.1063 -0.4758
 5687SOL    HW228695   3.524   1.169  12.104 -2.6471 -0.0597 -2.5110
 5688SOL     OW28696   4.683   1.132  16.632  0.0991 -0.1211  0.2915
 5688SOL    HW128697   4.605   1.078  16.619  1.3106 -2.6093  3.2514
 5688SOL    HW228698   4.665   1.145  16.725  0.9201  1.1115  0.2783
 5689SOL     OW28699   2.007   1.501   6.149  0.1779 -0.3168  0.1046
 5689SOL    HW128700   1.966   1.560   6.086  1.1112 -1.5762 -1.6780
 5689SOL    HW228701   2.097   1.506   6.119  0.1811  1.5278  0.4200
 5690SOL     OW28702   4.735   1.344   9.187 -0.5420 -0.1074  0.5169
 5690SOL    HW128703   4.660   1.404   9.190  0.8148  1.5828  0.4126
 5690SOL    HW228704   4.685   1.267   9.215 -1.0086  0.0434  0.1182
 5691SOL     OW28705   0.159   2.168   9.313 -0.3142 -0.0035  0.0226
 5691SOL    HW128706   0.106   2.090   9.296 -0.7749  0.6578 -1.5580
 5691SOL    HW228707   0.214   2.134   9.383  1.1396 -0.6868 -1.4684
 5692SOL     OW28708   3.126   1.465   3.743 -0.7279 -0.0066  0.4712
 5692SOL    HW128709   3.202   1.505   3.786  0.6053 -0.8707 -1.0938
 5692SOL    HW228710   3.055   1.530   3.745 -0.5072  0.1970  1.7372
 5693SOL     OW28711   2.833   1.435   9.373  0.2420  0.2864  0.2949
 5693SOL    HW128712   2.868   1.369   9.313  0.0901  0.2848  0.2061
 5693SOL    HW228713   2.891   1.440   9.448 -0.3779 -1.5112  0.9030
 5694SOL     OW28714   1.236   2.838   5.763  0.2688 -0.2333 -0.0350
 5694SOL    HW128715   1.267   2.891   5.836 -0.2271  0.5035 -0.3633
 5694SOL    HW228716   1.290   2.874   5.693  3.3958  0.7212  2.8543
 5695SOL     OW28717   3.677   3.759   0.830 -0.5593  0.3951 -0.0962
 5695SOL    HW128718   3.636   3.812   0.899 -1.6756 -1.7038  0.8659
 5695SOL    HW228719   3.727   3.828   0.786  3.0326 -0.7523  2.1122
 5696SOL     OW28720   0.664   2.528   9.171 -0.4510 -0.1453 -0.4513
 5696SOL    HW128721   0.636   2.518   9.262 -0.8346 -2.0224 -0.7766
 5696SOL    HW228722   0.740   2.470   9.173 -2.0534 -2.2145  0.4009
 5697SOL     OW28723   2.521   1.137   5.160 -0.0785 -0.3003  0.3173
 5697SOL    HW128724   2.441   1.104   5.120 -0.2097 -2.3525  2.2760
 5697SOL    HW228725   2.509   1.233   5.161  0.3014 -0.2477 -0.6036
 5698SOL     OW28726   3.223   2.707   3.381 -0.1258 -0.0112 -0.1582
 5698SOL    HW128727   3.187   2.624   3.413 -0.6845  0.5882  0.7544
 5698SOL    HW228728   3.204   2.694   3.288  0.6011 -0.5806 -0.2256
 5699SOL     OW28729   3.746   3.064  13.221  0.2367 -0.1534 -0.3020
 5699SOL    HW128730   3.782   3.150  13.197  1.1973 -0.7590 -1.0352
 5699SOL    HW228731   3.695   3.088  13.298  0.2311 -0.3959 -0.2313
 5700SOL     OW28732   3.690   1.471   6.047  0.1718  0.3166 -0.2060
 5700SOL    HW128733   3.730   1.481   6.134  0.8318  0.0998 -0.4843
 5700SOL    HW228734   3.600   1.452   6.074 -0.2389  4.4107  1.2995
 5701SOL     OW28735   2.718   3.648   4.634 -0.1506  0.0038  0.0392
 5701SOL    HW128736   2.719   3.573   4.694  3.8005 -0.0769 -0.0940
 5701SOL    HW228737   2.656   3.705   4.678  0.9881  1.1683  0.1409
 5702SOL     OW28738   1.188   1.655  15.810 -0.0870 -0.2919 -0.9196
 5702SOL    HW128739   1.276   1.637  15.777  0.0325  2.2182 -1.9773
 5702SOL    HW228740   1.140   1.637  15.729 -1.2773 -0.1985 -0.2289
 5703SOL     OW28741   3.283   4.392   1.615  0.2127 -0.2381 -0.6293
 5703SOL    HW128742   3.369   4.375   1.578 -0.1785 -2.4537 -0.5541
 5703SOL    HW228743   3.289   4.484   1.642 -1.9080 -0.3592  0.2652
 5704SOL     OW28744   4.077   3.279   6.763  0.5680  0.1341 -0.4825
 5704SOL    HW128745   4.166   3.254   6.787  0.1917 -0.5857  0.1244
 5704SOL    HW228746   4.101   3.370   6.742 -0.2846  0.6079  0.5804
 5705SOL     OW28747   1.914   4.485  14.078 -0.0116  0.5127  0.0086
 5705SOL    HW128748   1.941   4.456  13.990  0.1181 -2.0761  0.9053
 5705SOL    HW228749   1.826   4.446  14.075  0.2784 -0.0868 -0.8389
 5706SOL     OW28750   4.542   1.095  12.758  0.0041 -0.1341 -0.0748
 5706SOL    HW128751   4.548   1.059  12.847  0.9246  1.9537  0.7085
 5706SOL    HW228752   4.626   1.083  12.714  1.7693  2.4224  2.5519
 5707SOL     OW28753   4.664   2.128   1.656 -0.2003  0.1902 -0.1190
 5707SOL    HW128754   4.660   2.047   1.706  1.2660 -0.2434 -0.7184
 5707SOL    HW228755   0.022   2.144   1.655  0.1535 -1.7372  1.5089
 5708SOL     OW28756   0.196   0.533   4.295 -0.1529  0.3004 -0.0973
 5708SOL    HW128757   0.286   0.502   4.298 -0.0532  0.6607  0.8149
 5708SOL    HW228758   0.223   0.615   4.254 -1.3140  1.3559  1.2415
 5709SOL     OW28759   3.745   1.647   5.607 -0.0732 -0.1861  0.3095
 5709SOL    HW128760   3.793   1.568   5.581  0.7453  0.3471  0.1861
 5709SOL    HW228761   3.714   1.614   5.691  1.4945  0.7588  1.2761
 5710SOL     OW28762   1.373   3.735  17.135 -0.0763 -0.0662  0.0488
 5710SOL    HW128763   1.453   3.749  17.186  0.2346  1.4018 -0.8299
 5710SOL    HW228764   1.329   3.667  17.186 -1.0252  0.4071 -0.1439
 5711SOL     OW28765   1.006   0.562   4.069  0.4825 -0.3401 -0.1192
 5711SOL    HW128766   0.945   0.632   4.091  1.2315  0.6113 -1.0461
 5711SOL    HW228767   0.953   0.483   4.056  1.6218 -0.8305 -1.8155
 5712SOL     OW28768   1.794   4.141  14.904 -0.1616 -0.0048 -0.6325
 5712SOL    HW128769   1.824   4.211  14.846 -1.0615 -0.5090 -1.7151
 5712SOL    HW228770   1.702   4.127  14.883 -0.5218  0.3431  0.7148
 5713SOL     OW28771   2.460   2.461   2.368  0.2400 -0.3533 -0.0675
 5713SOL    HW128772   2.477   2.489   2.278 -0.2488 -0.9326 -0.3391
 5713SOL    HW228773   2.430   2.372   2.351  2.4599 -1.7722  3.4215
 5714SOL     OW28774   4.501   4.733   3.052  0.6167  0.0719 -0.6494
 5714SOL    HW128775   4.492   4.638   3.042 -0.0168  0.1054 -0.3917
 5714SOL    HW228776   4.594   0.010   3.033  0.6538  0.9960  0.1859
 5715SOL     OW28777   1.994   2.272   5.006  0.1635 -0.0168  0.1020
 5715SOL    HW128778   1.964   2.356   5.041 -0.1087 -0.1730  0.2449
 5715SOL    HW228779   1.940   2.219   5.065  0.0764 -0.5734 -0.4692
 5716SOL     OW28780   0.499   2.083   1.642 -0.2516 -0.1792  0.3006
 5716SOL    HW128781   0.554   2.145   1.691  0.4520 -1.3903  1.0556
 5716SOL    HW228782   0.561   2.010   1.647  0.6633  0.6684  1.8569
 5717SOL     OW28783   1.693   1.480  11.852 -0.4440  0.0909  0.3199
 5717SOL    HW128784   1.643   1.560  11.835 -3.1678 -1.2901  1.9760
 5717SOL    HW228785   1.651   1.420  11.790 -0.4542  1.1509 -0.7041
 5718SOL     OW28786   3.539   3.344   2.211  0.2016 -0.2022  0.4295
 5718SOL    HW128787   3.634   3.350   2.201  0.1165  0.4335 -0.0007
 5718SOL    HW228788   3.526   3.420   2.269 -1.4469  0.8294 -1.2830
 5719SOL     OW28789   1.071   0.952  11.409  0.1800 -0.4096  0.4253
 5719SOL    HW128790   1.096   1.043  11.421 -2.2152  0.3911 -0.7510
 5719SOL    HW228791   1.099   0.917  11.494 -0.3115  0.6802  1.0297
 5720SOL     OW28792   1.195   3.823  13.379 -0.3331 -0.2096  0.1018
 5720SOL    HW128793   1.175   3.914  13.404  0.8690  0.1542 -0.2141
 5720SOL    HW228794   1.157   3.818  13.292 -1.8262 -0.2309  0.7522
 5721SOL     OW28795   3.327   3.996   5.365  0.5232  0.1725 -0.1740
 5721SOL    HW128796   3.300   3.923   5.309  1.0078 -0.2778  0.1716
 5721SOL    HW228797   3.338   3.957   5.452 -2.3886  1.2044  0.6567
 5722SOL     OW28798   1.358   4.716   1.201 -0.0619  0.2685 -0.0821
 5722SOL    HW128799   1.389   4.636   1.158 -3.3562 -1.0247 -0.0476
 5722SOL    HW228800   1.333   0.038   1.129 -0.0128  2.6913  1.8709
 5723SOL     OW28801   4.369   3.932  11.527  0.3564 -0.5417  0.2578
 5723SOL    HW128802   4.368   4.001  11.593 -1.1775  1.6312 -2.0705
 5723SOL    HW228803   4.287   3.943  11.480  0.4734 -3.1971 -0.5911
 5724SOL     OW28804   1.577   0.826   7.614  0.8670 -0.0503  0.6943
 5724SOL    HW128805   1.574   0.732   7.595  1.3430 -0.2761  1.7116
 5724SOL    HW228806   1.493   0.830   7.660 -0.6190 -1.7048 -1.8329
 5725SOL     OW28807   0.657   2.767   6.393  0.1907 -0.3512  0.2194
 5725SOL    HW128808   0.566   2.757   6.421  0.2722  0.5908  0.8373
 5725SOL    HW228809   0.644   2.846   6.340 -0.1107 -0.1098  0.6565
 5726SOL     OW28810   3.203   4.527   9.222  0.5946  0.6246  0.1208
 5726SOL    HW128811   3.205   4.454   9.284  1.4335  0.0135 -0.6114
 5726SOL    HW228812   3.252   4.596   9.267  0.5381  1.6510 -1.3936
 5727SOL     OW28813   3.531   3.537   2.394 -0.7803 -0.4255  0.4516
 5727SOL    HW128814   3.605   3.592   2.370  0.4946 -2.7665 -0.9920
 5727SOL    HW228815   3.499   3.598   2.461 -1.7356 -0.3550 -0.0733
 5728SOL     OW28816   1.415   2.643  14.977  0.2000 -0.3006 -0.0594
 5728SOL    HW128817   1.477   2.692  14.922 -0.8197  0.1664 -0.7987
 5728SOL    HW228818   1.472   2.574  15.011 -2.0032 -4.2181 -4.3610
 5729SOL     OW28819   1.619   1.283   9.699  0.1776 -0.4112  0.8081
 5729SOL    HW128820   1.607   1.378   9.707  2.2175 -0.1800  1.1977
 5729SOL    HW228821   1.532   1.247   9.689 -0.3461  0.7731  1.1113
 5730SOL     OW28822   4.176   0.900  16.811  0.5568  0.3249 -0.1741
 5730SOL    HW128823   4.207   0.990  16.820  0.2352  0.4384 -0.2270
 5730SOL    HW228824   4.201   0.869  16.898  2.5487 -0.7366 -1.1209
 5731SOL     OW28825   0.814   0.159   2.553 -0.5228  0.3296 -0.1542
 5731SOL    HW128826   0.845   0.137   2.640 -3.5350 -1.0841  0.5743
 5731SOL    HW228827   0.744   0.096   2.536 -0.8245  0.2094  1.6235
 5732SOL     OW28828   1.799   1.415   7.819  0.0660  0.3239  0.4176
 5732SOL    HW128829   1.751   1.435   7.899 -0.8900  0.1200 -0.0965
 5732SOL    HW228830   1.775   1.324   7.801  1.2255 -0.4225  2.7024
 5733SOL     OW28831   2.176   2.594   4.508  0.2935 -0.2905 -0.1832
 5733SOL    HW128832   2.177   2.673   4.454 -1.4920 -0.6771 -0.7595
 5733SOL    HW228833   2.270   2.589   4.529  0.7367 -0.4851 -2.1883
 5734SOL     OW28834   0.722   3.549   4.201  0.2991 -0.3654 -0.0377
 5734SOL    HW128835   0.697   3.569   4.111 -0.4664 -1.3205 -0.0370
 5734SOL    HW228836   0.801   3.500   4.179  0.7823 -0.4522  1.9319
 5735SOL     OW28837   3.677   4.295   8.979 -0.2204  0.0898 -0.2077
 5735SOL    HW128838   3.608   4.231   8.998 -0.6079  0.7812  0.7483
 5735SOL    HW228839   3.743   4.238   8.939 -0.5384 -0.5684  0.2036
 5736SOL     OW28840   4.437   3.257   6.583 -0.1384  0.1150  0.2249
 5736SOL    HW128841   4.379   3.202   6.530  0.9485 -2.1501  1.3866
 5736SOL    HW228842   4.467   3.316   6.514  1.2514 -2.0954 -1.0518
 5737SOL     OW28843   0.899   1.382   1.692  0.1891  0.2967  0.1330
 5737SOL    HW128844   0.854   1.340   1.765  0.3784 -1.6264 -0.8762
 5737SOL    HW228845   0.992   1.363   1.705  0.8669  1.3335 -3.1969
 5738SOL     OW28846   4.338   1.186   0.697 -0.4893 -0.4625 -1.0014
 5738SOL    HW128847   4.325   1.115   0.634 -0.8151  0.6486 -2.1776
 5738SOL    HW228848   4.425   1.176   0.734 -0.2357  3.6650 -0.4966
 5739SOL     OW28849   1.959   2.567  16.229 -0.6170  0.0398 -0.1886
 5739SOL    HW128850   2.049   2.599  16.218 -0.2343 -0.7438  0.6493
 5739SOL    HW228851   1.983   2.475  16.243  0.1636  0.2565 -0.1236
 5740SOL     OW28852   3.343   0.132   6.181 -0.0654  0.0878 -0.2845
 5740SOL    HW128853   3.313   0.155   6.269  0.4730  0.1537 -0.1154
 5740SOL    HW228854   3.322   0.213   6.135  2.9126  0.8981 -0.2224
 5741SOL     OW28855   1.746   4.386   2.696  0.0528 -0.1841  0.2256
 5741SOL    HW128856   1.812   4.407   2.630 -0.4052 -0.8247 -0.4390
 5741SOL    HW228857   1.710   4.475   2.700 -1.8622 -0.8999 -0.7493
 5742SOL     OW28858   3.142   0.006   2.820  0.0739  0.0816  0.6749
 5742SOL    HW128859   3.141   0.096   2.852 -2.2559 -0.2034  1.4245
 5742SOL    HW228860   3.054   4.706   2.834 -0.5822  1.0087 -0.9416
 5743SOL     OW28861   3.314   0.451   8.540  0.0798  0.2164  0.0397
 5743SOL    HW128862   3.259   0.425   8.466  1.4627 -1.8612 -0.2707
 5743SOL    HW228863   3.386   0.397   8.507  1.4247  1.7205  0.4899
 5744SOL     OW28864   2.885   1.632   6.067 -0.2367  0.6909  0.2336
 5744SOL    HW128865   2.858   1.575   5.995  0.1842  0.0393  0.5846
 5744SOL    HW228866   2.801   1.677   6.073 -0.7107 -0.1297 -0.1156
 5745SOL     OW28867   3.464   1.545  11.643  0.0884  0.0662 -0.1821
 5745SOL    HW128868   3.525   1.475  11.665 -1.4459 -0.9055  0.9963
 5745SOL    HW228869   3.404   1.499  11.585 -0.7537  1.6174 -0.5365
 5746SOL     OW28870   0.607   4.555  13.840 -0.1513 -0.1390  0.1786
 5746SOL    HW128871   0.690   4.602  13.835 -0.0512 -0.3871 -0.4461
 5746SOL    HW228872   0.563   4.609  13.906 -1.4386 -0.9768  0.0052
 5747SOL     OW28873   3.040   3.195   5.581  0.2454  0.4473 -0.3885
 5747SOL    HW128874   2.950   3.167   5.563  0.7250  0.1630 -2.3359
 5747SOL    HW228875   3.029   3.215   5.674  0.1835  2.7086 -0.8624
 5748SOL     OW28876   2.240   2.428   2.717  0.1751  1.0001 -0.1423
 5748SOL    HW128877   2.304   2.467   2.657  2.1626 -1.9840  0.0132
 5748SOL    HW228878   2.294   2.379   2.780 -2.2542  0.2030  1.3241
 5749SOL     OW28879   1.549   0.141  13.757 -0.9064  0.1104 -0.7033
 5749SOL    HW128880   1.479   0.135  13.822 -1.4527  2.3546 -1.0737
 5749SOL    HW228881   1.610   0.079  13.797 -0.6988  1.4242  1.0293
 5750SOL     OW28882   0.123   4.068   7.274  0.0355 -0.3134 -0.4006
 5750SOL    HW128883   0.046   4.013   7.260 -1.1197  1.1487  0.2580
 5750SOL    HW228884   0.194   4.004   7.285  0.3204  0.7365  4.2804
 5751SOL     OW28885   4.232   2.245   3.207  0.3929  0.4015 -0.6504
 5751SOL    HW128886   4.157   2.217   3.155  1.1648 -0.5202 -1.2947
 5751SOL    HW228887   4.301   2.184   3.179  0.0764 -0.0350 -0.4841
 5752SOL     OW28888   2.858   1.266   3.048 -0.0858 -0.2314  0.0876
 5752SOL    HW128889   2.833   1.355   3.072  1.5081  0.5415 -1.1159
 5752SOL    HW228890   2.772   1.228   3.033 -0.8000  0.8519  1.4313
 5753SOL     OW28891   0.569   0.256  16.567 -0.2591  0.5004 -0.2093
 5753SOL    HW128892   0.550   0.280  16.657  1.4161 -2.4115  0.9328
 5753SOL    HW228893   0.525   0.172  16.554  0.9201  0.2321 -2.5326
 5754SOL     OW28894   4.397   3.903   5.004  0.1967  0.0510  0.0177
 5754SOL    HW128895   4.347   3.835   5.049  1.5593  0.4544  2.1134
 5754SOL    HW228896   4.388   3.971   5.071 -0.5843 -0.2839  0.2464
 5755SOL     OW28897   0.463   2.707   3.496  0.2265  0.7616 -0.4860
 5755SOL    HW128898   0.466   2.668   3.409 -0.3237  0.8057 -0.5285
 5755SOL    HW228899   0.427   2.794   3.477  3.3067  1.7655 -1.5913
 5756SOL     OW28900   4.655   1.375   3.607  0.0411 -0.7149  0.5245
 5756SOL    HW128901   4.723   1.437   3.633  0.4916 -0.3944 -1.4436
 5756SOL    HW228902   4.677   1.361   3.515  0.1833  2.0432  0.1304
 5757SOL     OW28903   4.179   0.407   3.051  0.4958 -0.1047 -0.5026
 5757SOL    HW128904   4.145   0.391   2.963 -0.6201 -2.7708  0.4276
 5757SOL    HW228905   4.108   0.453   3.095  0.3305  0.0412 -0.9149
 5758SOL     OW28906   2.918   0.424   4.817  0.4085 -0.1000  0.6430
 5758SOL    HW128907   2.910   0.401   4.724  1.7107  0.5077  0.3850
 5758SOL    HW228908   2.959   0.508   4.797 -0.0074 -0.5846 -2.2490
 5759SOL     OW28909   0.294   3.009   2.246  0.2947 -0.1866 -0.0874
 5759SOL    HW128910   0.273   2.984   2.336 -0.2366  1.1739  0.1697
 5759SOL    HW228911   0.317   3.102   2.250  0.9748 -0.4092  1.1929
 5760SOL     OW28912   0.570   1.725   3.337  0.1294 -0.3353 -0.0754
 5760SOL    HW128913   0.561   1.778   3.416  0.0422 -1.3810  0.6183
 5760SOL    HW228914   0.666   1.719   3.341  0.1473  1.1222  1.6018
 5761SOL     OW28915   2.968   0.868   5.724  0.4648 -0.1890  0.1357
 5761SOL    HW128916   2.877   0.897   5.724  0.4986 -0.0854  0.3360
 5761SOL    HW228917   3.007   0.955   5.727  1.0481 -0.5209  2.7521
 5762SOL     OW28918   4.345   3.007   7.833 -0.2373 -0.6654  0.7387
 5762SOL    HW128919   4.422   2.951   7.823 -0.9907 -1.9238  1.9747
 5762SOL    HW228920   4.287   2.959   7.893  0.9345 -1.5833  1.1335
 5763SOL     OW28921   2.104   3.816   4.707  0.2769 -0.0685  0.1118
 5763SOL    HW128922   2.151   3.832   4.789  1.7141  0.7275 -0.8560
 5763SOL    HW228923   2.170   3.766   4.659 -2.3588 -1.9210 -1.5840
 5764SOL     OW28924   0.923   2.337   4.454 -0.3038 -0.1182  0.0546
 5764SOL    HW128925   0.866   2.265   4.483  1.0518 -0.3408  2.1636
 5764SOL    HW228926   0.854   2.402   4.446 -0.4674 -0.0465  2.0436
 5765SOL     OW28927   0.077   4.049   6.059  0.7430 -0.6167  0.2156
 5765SOL    HW128928   0.096   4.089   6.144  1.3494 -1.9175  0.6933
 5765SOL    HW228929   4.725   4.034   6.092  0.6408 -1.9189 -0.6617
 5766SOL     OW28930   0.333   4.246   2.456 -0.1941 -0.2567  0.2294
 5766SOL    HW128931   0.273   4.252   2.530 -1.8571  0.2717 -1.1441
 5766SOL    HW228932   0.301   4.170   2.407 -0.6495 -1.0579  1.7572
 5767SOL     OW28933   3.027   3.862   0.480 -0.3918 -0.0021  0.0275
 5767SOL    HW128934   3.025   3.881   0.574  3.7754  2.1355 -0.3358
 5767SOL    HW228935   3.103   3.804   0.472  0.5658  1.1965  0.4705
 5768SOL     OW28936   3.123   2.021   3.148  0.5845 -0.0204 -0.6284
 5768SOL    HW128937   3.170   1.945   3.184  0.5065  0.3106  0.1785
 5768SOL    HW228938   3.049   1.976   3.108 -1.1352  0.8060  1.6558
 5769SOL     OW28939   0.868   0.291  14.493  0.8546  0.0525 -0.2888
 5769SOL    HW128940   0.810   0.287  14.417 -1.7039 -0.4362  1.6856
 5769SOL    HW228941   0.836   0.369  14.539  0.0049 -1.1304  1.1536
 5770SOL     OW28942   2.636   4.688   2.367 -0.3578 -0.1865  0.1048
 5770SOL    HW128943   2.627   4.605   2.413 -0.4229  0.1419  0.6864
 5770SOL    HW228944   2.654   4.647   2.282  0.6992 -1.6443  1.0290
 5771SOL     OW28945   0.313   3.888   7.200  0.1878  0.0515  0.4470
 5771SOL    HW128946   0.282   3.798   7.192  0.3779  0.0077  0.1989
 5771SOL    HW228947   0.368   3.910   7.124  0.6318  0.4823  0.8941
 5772SOL     OW28948   3.560   1.329  17.536  0.1014  0.0813 -0.0939
 5772SOL    HW128949   3.516   1.267  17.595 -0.9918 -1.0212 -2.0737
 5772SOL    HW228950   3.554   1.286  17.451  2.5070 -2.6468  1.1087
 5773SOL     OW28951   1.090   4.656   8.444  0.1882 -0.1732 -0.2368
 5773SOL    HW128952   1.033   4.579   8.441 -1.0398  0.7482 -0.0884
 5773SOL    HW228953   1.089   4.670   8.539  1.6735 -1.7157  0.0109
 5774SOL     OW28954   0.684   2.806   4.388  0.4528 -0.2227  0.1453
 5774SOL    HW128955   0.736   2.840   4.461 -0.5914  0.0783  0.7425
 5774SOL    HW228956   0.612   2.868   4.378  1.3756  0.7968 -0.0953
 5775SOL     OW28957   2.934   2.620   0.539  0.5031 -0.3465 -0.2291
 5775SOL    HW128958   3.002   2.621   0.606 -1.7614 -0.7124  2.0793
 5775SOL    HW228959   2.934   2.709   0.504 -0.6590 -0.0782  0.4265
 5776SOL     OW28960   0.204   4.052   2.282 -0.3242 -0.6237  0.3779
 5776SOL    HW128961   0.215   4.101   2.200 -0.2565 -0.7954  0.2837
 5776SOL    HW228962   0.238   3.967   2.252  1.2110 -0.0837  0.5534
 5777SOL     OW28963   3.565   0.019  17.227  0.2623  0.5571 -0.5703
 5777SOL    HW128964   3.473   4.728  17.220 -0.2582  1.9927  0.5673
 5777SOL    HW228965   3.567   0.059  17.140 -0.5060  0.4093 -0.6592
 5778SOL     OW28966   2.120   1.316   8.313 -0.1607  0.2249  0.0299
 5778SOL    HW128967   2.037   1.298   8.356  0.3370 -0.0192  0.8861
 5778SOL    HW228968   2.097   1.312   8.220 -2.5645 -0.7734  0.6683
 5779SOL     OW28969   2.963   1.304  17.059 -0.5692 -0.1489  0.5146
 5779SOL    HW128970   2.916   1.387  17.069  1.0148  0.7260  0.7053
 5779SOL    HW228971   2.892   1.242  17.069  0.4139 -1.0870  1.6915
 5780SOL     OW28972   4.000   3.208  14.999  0.2571  0.1959  0.2947
 5780SOL    HW128973   3.933   3.171  14.942  2.1362 -0.1160 -1.7336
 5780SOL    HW228974   4.049   3.258  14.934 -1.1144 -1.7504 -2.2327
 5781SOL     OW28975   2.391   2.155   7.340 -0.1708  0.1918 -0.0576
 5781SOL    HW128976   2.468   2.183   7.390 -0.4265 -0.1969  0.5647
 5781SOL    HW228977   2.386   2.061   7.359  3.2212  0.1402  0.4392
 5782SOL     OW28978   1.799   1.992   7.553 -0.0588  0.4397 -0.6761
 5782SOL    HW128979   1.860   1.920   7.568  1.2962  1.2596 -2.2493
 5782SOL    HW228980   1.837   2.067   7.600  1.5154  0.3450 -1.7836
 5783SOL     OW28981   0.565   1.092   8.728 -0.2366  0.3196  0.0640
 5783SOL    HW128982   0.498   1.149   8.768 -1.7619 -0.3179 -1.5739
 5783SOL    HW228983   0.546   1.102   8.635 -0.3081 -1.0988 -0.0717
 5784SOL     OW28984   1.712   3.147  15.679 -0.1541 -0.1276 -0.8914
 5784SOL    HW128985   1.759   3.230  15.687  0.6643 -0.5449 -1.4063
 5784SOL    HW228986   1.766   3.081  15.723 -3.0083 -0.4817  2.0893
 5785SOL     OW28987   3.333   3.418   9.350  0.1154 -0.7857  0.0330
 5785SOL    HW128988   3.401   3.476   9.382 -1.3529  0.4415  0.9179
 5785SOL    HW228989   3.298   3.393   9.436 -0.0726 -1.0760 -0.1284
 5786SOL     OW28990   3.187   1.727   1.870 -0.4238  0.3188 -0.0142
 5786SOL    HW128991   3.107   1.763   1.908 -0.4722  1.3302 -1.1001
 5786SOL    HW228992   3.225   1.797   1.817 -0.8525  0.9093  0.4570
 5787SOL     OW28993   1.373   3.452   1.532 -0.5364  0.5630  0.5587
 5787SOL    HW128994   1.317   3.395   1.585 -2.2352  1.6370 -0.0878
 5787SOL    HW228995   1.418   3.494   1.606 -0.0801  0.1448  0.5232
 5788SOL     OW28996   2.292   4.281  13.949  0.6154  0.2437 -0.5158
 5788SOL    HW128997   2.286   4.322  13.862  0.2227  0.4222 -0.4032
 5788SOL    HW228998   2.328   4.355  13.999  1.0775  0.2876 -0.9120
 5789SOL     OW28999   2.401   3.706   2.881 -0.0435  0.5231  0.2429
 5789SOL    HW129000   2.351   3.657   2.815  0.7875 -1.9111  1.4413
 5789SOL    HW229001   2.354   3.790   2.881 -1.7475 -0.4312  0.6057
 5790SOL     OW29002   1.183   0.387   9.339 -0.6894 -0.3381 -0.0593
 5790SOL    HW129003   1.143   0.300   9.341 -0.0155 -0.6781 -1.5576
 5790SOL    HW229004   1.269   0.364   9.375 -0.3764  0.7359 -0.1377
 5791SOL     OW29005   0.848   0.120   6.225  0.0486 -0.0695  0.0730
 5791SOL    HW129006   0.800   0.098   6.305 -1.1182  0.9864 -0.3455
 5791SOL    HW229007   0.789   0.188   6.192 -1.9079 -0.9933  1.6948
 5792SOL     OW29008   2.140   1.760   2.003  0.1222 -0.1576 -0.0100
 5792SOL    HW129009   2.105   1.848   2.013 -0.5881 -0.7157  2.3876
 5792SOL    HW229010   2.062   1.705   1.989 -0.3717  0.8962 -1.3348
 5793SOL     OW29011   1.269   3.422  17.162 -0.2241 -0.8154  0.4628
 5793SOL    HW129012   1.337   3.439  17.096 -0.9187 -0.6337 -0.2044
 5793SOL    HW229013   1.255   3.333  17.132  0.2376 -1.3176  1.7314
 5794SOL     OW29014   2.022   1.227   4.541  0.1934  0.3458 -0.0647
 5794SOL    HW129015   2.020   1.132   4.551  0.2834  0.3436 -0.0641
 5794SOL    HW229016   2.103   1.249   4.588 -1.2722 -2.0147  3.5327
 5795SOL     OW29017   2.997   1.099  12.206  0.0609 -0.0769 -0.7219
 5795SOL    HW129018   2.971   1.175  12.155 -0.3473 -0.9635 -1.8575
 5795SOL    HW229019   3.089   1.086  12.180 -0.2852 -0.7486 -1.6184
 5796SOL     OW29020   0.008   2.083   4.309  0.4484  0.2399 -0.1688
 5796SOL    HW129021   0.018   2.045   4.396  1.6290  1.6027  0.3003
 5796SOL    HW229022   4.649   2.089   4.296  0.2290 -2.1724  0.4733
 5797SOL     OW29023   2.765   1.436  13.057 -0.2527  0.0552 -0.1604
 5797SOL    HW129024   2.706   1.420  13.131 -1.8542 -1.1908 -1.7316
 5797SOL    HW229025   2.705   1.472  12.992 -0.5697 -2.5250 -1.2893
 5798SOL     OW29026   4.058   3.018   1.917 -0.2194  0.4892  0.0061
 5798SOL    HW129027   3.966   3.001   1.899 -0.0293  0.5712 -1.0763
 5798SOL    HW229028   4.071   2.942   1.973 -0.9181  1.5181  1.5484
 5799SOL     OW29029   2.238   1.463   4.975  0.1294 -0.1589  0.4249
 5799SOL    HW129030   2.216   1.544   5.020  2.3472  0.8917 -0.3564
 5799SOL    HW229031   2.303   1.426   5.035 -0.2530 -0.8254  0.4272
 5800SOL     OW29032   1.912   1.130   7.093 -0.8597  0.5019 -0.3067
 5800SOL    HW129033   1.834   1.123   7.147 -0.0153 -0.7484  0.7526
 5800SOL    HW229034   1.891   1.093   7.007 -0.6281  0.7494 -0.4702
 5801SOL     OW29035   3.849   0.771  11.502 -0.1393  0.3159  0.1503
 5801SOL    HW129036   3.936   0.759  11.541  0.8921  0.6793 -2.0672
 5801SOL    HW229037   3.863   0.719  11.423  0.5971  1.9632 -0.7828
 5802SOL     OW29038   3.750   3.038  14.314  0.3662  0.1189  0.1786
 5802SOL    HW129039   3.760   3.012  14.223 -2.4241 -2.2340  0.5405
 5802SOL    HW229040   3.710   2.968  14.366 -1.2963  1.6547  0.9528
 5803SOL     OW29041   0.255   3.106   1.669  0.5543  0.1989 -0.8262
 5803SOL    HW129042   0.305   3.069   1.742 -1.5165  0.7656  0.8632
 5803SOL    HW229043   0.173   3.091   1.716  1.5855 -1.1939  0.5259
 5804SOL     OW29044   4.584   4.296   0.651  0.1491  0.2463 -0.1422
 5804SOL    HW129045   4.583   4.216   0.599  1.3948  0.6261 -0.7542
 5804SOL    HW229046   4.586   4.266   0.742  0.1566  1.5478  0.2963
 5805SOL     OW29047   1.016   2.564   9.424 -0.0120  0.5834 -0.0717
 5805SOL    HW129048   0.973   2.642   9.458  0.2613  1.8765 -2.7336
 5805SOL    HW229049   1.083   2.549   9.491  1.1633  2.4130 -0.8434
 5806SOL     OW29050   2.463   0.167   4.698 -0.3674 -0.0291 -0.1018
 5806SOL    HW129051   2.421   0.098   4.749 -1.7197  1.1974  0.4323
 5806SOL    HW229052   2.549   0.124   4.700 -1.1387 -1.6376 -1.4633
 5807SOL     OW29053   3.744   3.608  11.758 -1.1802 -0.0609 -0.2881
 5807SOL    HW129054   3.806   3.538  11.735 -2.2179 -0.8976 -0.5117
 5807SOL    HW229055   3.660   3.562  11.755 -1.9754  1.4146 -0.5795
 5808SOL     OW29056   2.079   0.013   4.031  0.9657 -0.0715  0.7396
 5808SOL    HW129057   2.008   4.704   4.075  1.4276 -1.0402  0.4962
 5808SOL    HW229058   2.136   0.029   4.106  2.0131 -0.3597  0.0126
 5809SOL     OW29059   1.319   1.835   4.587  0.6434 -0.4355  0.4020
 5809SOL    HW129060   1.309   1.929   4.597  1.4568 -0.4991  1.8190
 5809SOL    HW229061   1.400   1.819   4.636  2.0576  0.5955 -1.6127
 5810SOL     OW29062   2.051   0.004   1.749 -0.4618 -0.4174  0.0984
 5810SOL    HW129063   2.072   0.089   1.788 -1.5871  0.0629 -0.3199
 5810SOL    HW229064   2.006   4.704   1.825  0.4471  1.1380  1.3587
 5811SOL     OW29065   2.401   2.022   0.621  0.2065  0.5751  0.1598
 5811SOL    HW129066   2.439   2.108   0.600 -0.1912  0.0083 -2.8588
 5811SOL    HW229067   2.470   1.967   0.584 -0.4548  0.6050 -1.1298
 5812SOL     OW29068   3.019   4.429   2.712 -0.1864 -0.0710 -0.2123
 5812SOL    HW129069   3.070   4.413   2.632  2.0540  0.4618  1.1169
 5812SOL    HW229070   2.932   4.394   2.692  0.7031 -2.9213  0.9493
 5813SOL     OW29071   4.718   2.867  12.322 -0.7364  0.1345 -0.2452
 5813SOL    HW129072   0.022   2.888  12.237 -2.5991 -0.8200 -1.3575
 5813SOL    HW229073   0.059   2.827  12.361 -0.6453 -0.0817 -0.6454
 5814SOL     OW29074   3.787   4.446   5.707  0.3239  0.1778  0.2865
 5814SOL    HW129075   3.816   4.512   5.770 -0.0495 -0.3281  0.9854
 5814SOL    HW229076   3.852   4.378   5.727  1.3592  1.3797  1.0648
 5815SOL     OW29077   1.825   2.757   8.272 -0.0153 -0.1408  0.0523
 5815SOL    HW129078   1.877   2.732   8.349 -0.1858 -0.6038  0.0125
 5815SOL    HW229079   1.753   2.694   8.278  1.0704 -1.3970 -0.4306
 5816SOL     OW29080   0.010   1.937   1.857 -0.2157  0.3804  0.0045
 5816SOL    HW129081   4.726   1.851   1.894 -0.4394  0.2048 -0.5334
 5816SOL    HW229082   0.103   1.930   1.835 -0.2548 -0.5364  0.1611
 5817SOL     OW29083   2.855   1.759   2.479 -0.0423  0.0578  0.4445
 5817SOL    HW129084   2.826   1.779   2.568 -1.0762  2.4356 -0.4293
 5817SOL    HW229085   2.947   1.775   2.500 -0.3094  1.0829  0.8035
 5818SOL     OW29086   0.348   1.915   8.007 -0.5620  0.6793 -0.6862
 5818SOL    HW129087   0.349   1.962   8.090  2.5388  0.0249 -0.3603
 5818SOL    HW229088   0.360   1.989   7.948 -1.9735  3.2789  2.2982
 5819SOL     OW29089   3.273   2.006   3.429 -0.7054  0.7910  0.7200
 5819SOL    HW129090   3.270   1.923   3.382  0.3925  2.3050 -1.9869
 5819SOL    HW229091   3.367   2.018   3.440 -0.8250  0.9776  1.5778
 5820SOL     OW29092   4.161   0.953   2.600  0.4758  0.0875  0.4883
 5820SOL    HW129093   4.236   0.895   2.609  0.5523  0.2616  0.9451
 5820SOL    HW229094   4.196   1.016   2.537 -0.4976  1.1306  1.0000
 5821SOL     OW29095   1.874   0.562  12.949 -0.6894 -0.1420 -0.1504
 5821SOL    HW129096   1.827   0.646  12.950  0.5321  0.5492 -0.4311
 5821SOL    HW229097   1.917   0.559  13.034  0.6682  0.8767 -0.8076
 5822SOL     OW29098   2.327   2.798  12.549  0.0208 -0.2986 -0.6378
 5822SOL    HW129099   2.383   2.873  12.569  0.7809 -0.7006 -1.2465
 5822SOL    HW229100   2.246   2.840  12.520  0.1475 -0.3709 -1.0980
 5823SOL     OW29101   0.459   0.099  13.720 -0.7815  0.1742 -0.2196
 5823SOL    HW129102   0.376   0.107  13.767 -1.1811  0.0576 -0.8880
 5823SOL    HW229103   0.506   0.171  13.760  0.8770 -1.5062  0.8641
 5824SOL     OW29104   3.033   3.561   7.088 -0.1432  0.2654  0.0865
 5824SOL    HW129105   2.965   3.610   7.041  1.2414  1.1612 -0.9585
 5824SOL    HW229106   3.007   3.571   7.179 -1.8988 -1.3021 -0.2293
 5825SOL     OW29107   1.886   4.271   4.713 -0.0088 -0.1646  0.6775
 5825SOL    HW129108   1.907   4.292   4.623  2.0740  3.4508  1.9943
 5825SOL    HW229109   1.917   4.181   4.722  1.2792  0.0931 -1.2168
 5826SOL     OW29110   1.087   0.292   6.808 -0.0208  0.3981  0.4266
 5826SOL    HW129111   1.167   0.315   6.855 -0.5249 -2.0053  2.4534
 5826SOL    HW229112   1.108   0.201   6.784 -1.1237  1.2998 -3.9108
 5827SOL     OW29113   1.044   1.652   7.010  0.1148 -0.1268  0.7603
 5827SOL    HW129114   1.021   1.576   7.063  1.3133 -0.5412  0.6694
 5827SOL    HW229115   1.112   1.695   7.061  0.2009 -1.8181  2.0711
 5828SOL     OW29116   2.009   2.073  13.022 -0.0468  0.2455  0.2952
 5828SOL    HW129117   2.083   2.105  12.971 -0.3586  1.5082  0.6196
 5828SOL    HW229118   2.002   2.141  13.090 -2.3013 -1.4518  1.7698
 5829SOL     OW29119   1.108   2.250   3.548  0.1534 -0.3274  0.1997
 5829SOL    HW129120   1.095   2.242   3.642 -1.2561 -0.7967 -0.0298
 5829SOL    HW229121   1.067   2.166   3.524  0.7234 -0.3288 -0.7821
 5830SOL     OW29122   2.262   2.483  17.166 -0.0793  0.1550 -0.6198
 5830SOL    HW129123   2.344   2.531  17.160 -0.9083  1.7537  0.5054
 5830SOL    HW229124   2.214   2.514  17.090 -1.9480  0.0755  0.5236
 5831SOL     OW29125   3.457   1.345   1.747 -0.0302 -0.3298  0.6385
 5831SOL    HW129126   3.448   1.339   1.652  0.0886  2.1729  0.4715
 5831SOL    HW229127   3.370   1.375   1.773 -0.4236 -1.8660  1.0512
 5832SOL     OW29128   2.138   2.670   5.085 -0.3532  0.5380  0.5437
 5832SOL    HW129129   2.174   2.621   5.012  1.0249  1.1874  0.7958
 5832SOL    HW229130   2.206   2.675   5.153  0.5478 -0.8272 -0.2811
 5833SOL     OW29131   3.015   2.865   8.728  0.1394  0.0721 -0.4602
 5833SOL    HW129132   3.050   2.925   8.794 -1.5818 -0.8024  1.2743
 5833SOL    HW229133   2.921   2.886   8.727 -0.4408 -2.4822 -1.0589
 5834SOL     OW29134   3.033   4.700   5.047  0.3734 -0.0323 -0.6441
 5834SOL    HW129135   2.992   4.616   5.068 -1.3999  1.2436  1.1222
 5834SOL    HW229136   3.118   4.693   5.091  1.0524 -1.8709 -2.2870
 5835SOL     OW29137   3.083   0.975   3.692 -0.2221  0.5581 -0.5582
 5835SOL    HW129138   3.167   0.966   3.646  0.5871  1.9411  0.6625
 5835SOL    HW229139   3.096   0.927   3.774  1.0428  1.1497 -0.4085
 5836SOL     OW29140   0.468   2.406   1.599  0.0778 -0.2726  0.0435
 5836SOL    HW129141   0.478   2.327   1.547 -2.2090 -0.4653 -0.1170
 5836SOL    HW229142   0.513   2.378   1.679  0.6402 -1.5789 -0.7255
 5837SOL     OW29143   2.345   2.200   7.064 -0.0775 -0.1636  0.4967
 5837SOL    HW129144   2.284   2.271   7.047  1.0323  0.5778 -0.3955
 5837SOL    HW229145   2.383   2.243   7.140  0.6377  0.2229 -0.0756
 5838SOL     OW29146   1.105   4.218   2.036 -0.0474  0.3687  0.5618
 5838SOL    HW129147   1.097   4.308   2.067  0.3147  0.9490 -1.0476
 5838SOL    HW229148   1.024   4.213   1.985  0.0529 -4.3196  0.8130
 5839SOL     OW29149   1.039   3.586   4.849  0.6819  0.8035  0.8997
 5839SOL    HW129150   1.071   3.515   4.794 -0.5702 -0.5628  1.9079
 5839SOL    HW229151   1.108   3.578   4.915  1.7214  1.3939 -0.1338
 5840SOL     OW29152   4.550   3.611  11.149  0.1187 -1.0543  0.2959
 5840SOL    HW129153   4.460   3.644  11.139 -0.6437 -3.2065  0.0280
 5840SOL    HW229154   4.598   3.663  11.083 -0.1010 -0.7743  0.3533
 5841SOL     OW29155   2.059   2.985  10.485  0.5377 -0.1132  0.3590
 5841SOL    HW129156   1.983   3.001  10.429 -0.1206 -0.7916  1.0642
 5841SOL    HW229157   2.056   3.059  10.546  0.7609 -1.0943  1.5585
 5842SOL     OW29158   1.132   0.668   2.706  0.3532  0.1715 -0.2591
 5842SOL    HW129159   1.094   0.580   2.704  2.2288 -0.6157 -1.0828
 5842SOL    HW229160   1.058   0.714   2.668  1.3544  0.2183 -2.1292
 5843SOL     OW29161   0.569   0.399   2.266 -0.0457  0.7642  0.1055
 5843SOL    HW129162   0.560   0.437   2.179 -1.0773 -1.0320 -0.5873
 5843SOL    HW229163   0.504   0.329   2.277 -0.2962  0.6650 -2.0560
 5844SOL     OW29164   4.350   0.731   9.064  0.2900 -0.5658  0.2447
 5844SOL    HW129165   4.359   0.674   9.141 -1.6238  0.9706  1.5984
 5844SOL    HW229166   4.323   0.666   8.999 -0.1750  0.2980 -0.4300
 5845SOL     OW29167   2.216   3.708  13.282  0.1692  0.0699 -0.2997
 5845SOL    HW129168   2.178   3.699  13.195  1.0022 -0.3423 -0.6157
 5845SOL    HW229169   2.172   3.786  13.317  0.3436 -0.0146  0.1138
 5846SOL     OW29170   1.381   1.346   7.124  0.0761  0.8189  0.6737
 5846SOL    HW129171   1.418   1.390   7.201 -0.3112  0.7359  0.9068
 5846SOL    HW229172   1.376   1.254   7.149 -1.4355  0.5979 -0.4289
 5847SOL     OW29173   1.107   1.702   4.722 -0.0606 -0.0264  0.0697
 5847SOL    HW129174   1.084   1.784   4.764  2.2063  1.5448 -1.7466
 5847SOL    HW229175   1.183   1.736   4.675  1.3848 -3.3430 -0.0288
 5848SOL     OW29176   2.335   3.434   3.431 -0.0002  0.2249  0.1820
 5848SOL    HW129177   2.378   3.349   3.434 -1.6806 -0.6725 -0.6412
 5848SOL    HW229178   2.329   3.455   3.337  1.3611 -0.3714 -0.0383
 5849SOL     OW29179   1.987   3.487   3.061  0.0277 -0.0101  0.5372
 5849SOL    HW129180   2.029   3.573   3.066 -0.6719  0.1946  2.8008
 5849SOL    HW229181   1.893   3.503   3.060 -0.2528 -1.8134 -1.9971
 5850SOL     OW29182   3.189   2.093   5.484  0.7202 -0.2887 -0.4113
 5850SOL    HW129183   3.184   2.015   5.428  0.5122 -0.4318 -0.1937
 5850SOL    HW229184   3.132   2.066   5.556 -0.8606 -0.4408 -1.7042
 5851SOL     OW29185   3.663   0.281   2.822  0.2769 -0.0292 -0.1659
 5851SOL    HW129186   3.676   0.248   2.911 -1.9622 -0.7593 -0.1299
 5851SOL    HW229187   3.577   0.323   2.824  0.0721 -0.4611 -0.0175
 5852SOL     OW29188   3.596   2.624   5.304  0.4652  0.0184  0.7422
 5852SOL    HW129189   3.522   2.676   5.335  1.0498 -1.2655  4.3756
 5852SOL    HW229190   3.627   2.647   5.217  1.6170 -3.4112  0.2494
 5853SOL     OW29191   0.738   0.455   8.983  0.3654  0.1265 -0.1069
 5853SOL    HW129192   0.760   0.527   8.923 -3.5784  0.1715 -1.5323
 5853SOL    HW229193   0.666   0.414   8.935  0.1747 -0.4625  0.7010
 5854SOL     OW29194   3.902   4.361  16.611  0.2291  0.6384  0.5290
 5854SOL    HW129195   3.812   4.331  16.621 -0.6116  2.6644 -1.1765
 5854SOL    HW229196   3.950   4.315  16.680  0.9145  2.7819  1.4863
 5855SOL     OW29197   3.602   4.492   1.195  0.0492 -0.1062 -0.7246
 5855SOL    HW129198   3.686   4.514   1.155 -0.2499 -2.4704 -2.6355
 5855SOL    HW229199   3.583   4.572   1.245  0.6855  0.9117 -2.1064
 5856SOL     OW29200   2.366   0.466  17.471 -0.6716  0.0580  0.4144
 5856SOL    HW129201   2.286   0.474  17.419  0.1003 -0.3778 -0.8139
 5856SOL    HW229202   2.380   0.556  17.502 -2.0250  0.2859  0.3777
 5857SOL     OW29203   4.537   3.755   3.724 -0.5507  0.4154  0.0373
 5857SOL    HW129204   4.524   3.840   3.682 -1.5351  1.0049  1.5258
 5857SOL    HW229205   4.454   3.755   3.772  0.4237  1.7899  1.7091
 5858SOL     OW29206   4.061   4.337   6.452  0.1005 -0.2710  0.4063
 5858SOL    HW129207   4.133   4.364   6.395 -0.2350  2.4556  1.3093
 5858SOL    HW229208   3.994   4.384   6.403  0.4937 -0.0797  0.0562
 5859SOL     OW29209   3.610   1.546   2.294 -0.4089  0.2462  0.6638
 5859SOL    HW129210   3.580   1.458   2.270 -1.3655  1.0161 -0.9314
 5859SOL    HW229211   3.524   1.585   2.309 -0.0017  0.9182  1.2822
 5860SOL     OW29212   3.667   1.702   1.712  0.0938 -0.1526 -0.1221
 5860SOL    HW129213   3.728   1.628   1.717 -0.0972 -0.2257  1.2106
 5860SOL    HW229214   3.596   1.670   1.656 -0.6259 -0.8245  1.1813
 5861SOL     OW29215   2.844   3.254   9.990 -0.0244 -0.4927  0.0462
 5861SOL    HW129216   2.852   3.266  10.084 -2.2733 -3.4063  0.6050
 5861SOL    HW229217   2.756   3.224   9.965  0.4355 -2.3013  0.6439
 5862SOL     OW29218   0.762   2.709  15.213  0.0834  0.9049 -0.2964
 5862SOL    HW129219   0.716   2.788  15.182 -1.3271 -0.1529 -0.8999
 5862SOL    HW229220   0.705   2.669  15.279 -0.2147  1.8508  0.0191
 5863SOL     OW29221   3.023   2.336   9.033  0.2223 -0.1973  0.8997
 5863SOL    HW129222   2.964   2.376   9.097  1.6826  0.4767  1.8208
 5863SOL    HW229223   2.995   2.368   8.948 -0.8431 -3.3860  0.0219
 5864SOL     OW29224   2.859   3.544  13.516 -0.4368 -0.3025 -0.3871
 5864SOL    HW129225   2.770   3.555  13.552  0.3185 -0.8646  1.6683
 5864SOL    HW229226   2.848   3.596  13.436 -0.2144 -0.8587 -0.7794
 5865SOL     OW29227   3.359   0.753  15.719 -0.1811  0.1491 -0.2159
 5865SOL    HW129228   3.422   0.695  15.763 -0.2643 -0.0347 -0.3405
 5865SOL    HW229229   3.282   0.698  15.730 -0.0118 -0.2224 -0.8589
 5866SOL     OW29230   1.412   1.005  17.295 -0.0908  0.4662 -0.7381
 5866SOL    HW129231   1.356   1.042  17.227 -0.6129 -1.1656 -1.2114
 5866SOL    HW229232   1.496   1.034  17.258 -0.6392 -0.5692 -2.8308
 5867SOL     OW29233   0.429   1.405   2.952 -0.2744 -0.0796 -0.0205
 5867SOL    HW129234   0.474   1.335   2.999  0.9984  0.2103 -0.8235
 5867SOL    HW229235   0.437   1.377   2.861  0.5140 -0.5481  0.1963
 5868SOL     OW29236   4.015   4.414   4.526  0.9413  0.2404  0.1108
 5868SOL    HW129237   3.937   4.413   4.581  2.2063 -1.1048  1.8441
 5868SOL    HW229238   4.078   4.354   4.564  0.7217  0.1782  0.3744
 5869SOL     OW29239   4.619   4.566   6.305  0.4726  0.5108  0.4522
 5869SOL    HW129240   4.658   4.631   6.362 -0.8788  0.7393  1.1233
 5869SOL    HW229241   4.679   4.492   6.307 -1.7188 -1.3152 -0.3113
 5870SOL     OW29242   1.185   3.362   4.755  0.0902  0.4782 -0.2969
 5870SOL    HW129243   1.234   3.324   4.682 -0.0942  0.5184 -0.4427
 5870SOL    HW229244   1.192   3.296   4.824 -0.3471  1.1905  0.4301
 5871SOL     OW29245   4.614   1.652   2.645  0.1116  0.5964  0.4135
 5871SOL    HW129246   4.690   1.604   2.614 -0.7081 -1.1039  1.0597
 5871SOL    HW229247   4.548   1.583   2.645  1.5504 -0.7786 -2.0575
 5872SOL     OW29248   4.014   0.170  15.547  0.3010 -0.1885  0.5909
 5872SOL    HW129249   3.983   0.118  15.622 -0.3212  1.9533  1.8000
 5872SOL    HW229250   3.940   0.164  15.486 -0.0402 -1.5171  1.1271
 5873SOL     OW29251   4.072   0.865  13.566  0.0846 -0.7601 -0.1410
 5873SOL    HW129252   4.060   0.895  13.476  1.8121 -0.2922 -0.2064
 5873SOL    HW229253   3.990   0.819  13.586 -0.3342  0.0138 -0.0700
 5874SOL     OW29254   3.673   1.198   7.935  0.4209 -0.3859  0.4055
 5874SOL    HW129255   3.730   1.126   7.908 -1.0197 -0.2979 -2.8281
 5874SOL    HW229256   3.744   1.243   7.982 -0.1536  0.7609  0.1823
 5875SOL     OW29257   0.413   3.985   4.508  0.7361  0.0871  0.7607
 5875SOL    HW129258   0.499   3.993   4.467 -0.2556 -0.9702 -1.5430
 5875SOL    HW229259   0.446   3.987   4.598  2.1262  1.1765  0.2266
 5876SOL     OW29260   2.169   0.410   3.184  0.6902  0.2573  0.4063
 5876SOL    HW129261   2.252   0.450   3.157  0.2525 -0.0951 -1.4658
 5876SOL    HW229262   2.126   0.483   3.228  3.0014  1.1055  1.2678
 5877SOL     OW29263   1.957   4.498   7.655  0.4083  0.0260 -0.0497
 5877SOL    HW129264   1.985   4.525   7.743  1.0015 -0.5300 -0.0728
 5877SOL    HW229265   1.961   4.403   7.662  1.2792 -0.0950 -2.1690
 5878SOL     OW29266   1.079   0.265   8.909 -0.1622 -0.0655  0.6231
 5878SOL    HW129267   1.001   0.245   8.857  0.4041 -0.5077 -0.0598
 5878SOL    HW229268   1.124   0.183   8.890  0.9672  0.8626 -0.7562
 5879SOL     OW29269   4.631   2.386   2.506  0.2938  0.1713  0.4279
 5879SOL    HW129270   4.537   2.405   2.505 -0.0181 -1.4582 -0.0692
 5879SOL    HW229271   4.645   2.338   2.587 -1.6802  0.3303  0.8655
 5880SOL     OW29272   2.078   0.615   1.194 -0.2147 -0.0652  0.9369
 5880SOL    HW129273   2.149   0.614   1.130 -2.6382 -2.0930 -1.7239
 5880SOL    HW229274   2.105   0.690   1.247  0.0769  0.1433  0.5003
 5881SOL     OW29275   2.618   0.347  16.224  0.2291  0.1620 -0.0011
 5881SOL    HW129276   2.713   0.344  16.225  0.2488  0.6735 -0.3872
 5881SOL    HW229277   2.604   0.437  16.194 -0.5470  1.3146  3.7156
 5882SOL     OW29278   4.039   2.947   2.327  0.1250  0.6492 -0.5476
 5882SOL    HW129279   3.991   3.028   2.311 -0.2985  0.8586  1.7991
 5882SOL    HW229280   4.120   2.957   2.277  0.0967 -0.0074 -0.7174
 5883SOL     OW29281   0.188   0.229  12.359 -0.1190  0.0176 -0.4079
 5883SOL    HW129282   0.094   0.231  12.339 -0.5616 -2.1037  1.5229
 5883SOL    HW229283   0.225   0.256  12.275  0.0472 -1.1041 -0.6922
 5884SOL     OW29284   4.413   0.099   5.268 -0.4224  0.6934  0.2597
 5884SOL    HW129285   4.435   0.094   5.361  0.0559  1.0631  0.1656
 5884SOL    HW229286   4.330   0.051   5.269  0.7717 -1.4295 -0.8604
 5885SOL     OW29287   4.286   0.672   3.336 -0.2029  0.2260  0.0722
 5885SOL    HW129288   4.278   0.577   3.331  1.0347  0.0494  1.7806
 5885SOL    HW229289   4.228   0.689   3.261  0.5503 -2.6105 -1.1310
 5886SOL     OW29290   1.806   1.813   9.327  0.2649  0.0615  0.1673
 5886SOL    HW129291   1.738   1.746   9.320 -0.8946  1.0253  2.2956
 5886SOL    HW229292   1.784   1.864   9.249 -0.1385 -2.2492 -1.2217
 5887SOL     OW29293   1.206   2.685   6.287  0.5964 -0.3865  0.2931
 5887SOL    HW129294   1.122   2.708   6.247  0.4616 -0.5099  0.5042
 5887SOL    HW229295   1.219   2.599   6.247  0.4990  0.2453 -1.0777
 5888SOL     OW29296   2.561   3.732   8.842  0.2468  0.2163  0.4139
 5888SOL    HW129297   2.600   3.805   8.793 -0.7541  2.0826  2.3905
 5888SOL    HW229298   2.484   3.713   8.789  0.5640 -0.3712  0.1678
 5889SOL     OW29299   0.132   2.515   6.244 -0.2871  0.1074 -0.4850
 5889SOL    HW129300   0.154   2.423   6.258  1.2642  0.2690 -1.9194
 5889SOL    HW229301   0.106   2.538   6.334  0.9223 -1.9211  0.3847
 5890SOL     OW29302   4.698   0.051   2.418  0.3020 -0.2875 -0.1431
 5890SOL    HW129303   4.725   0.135   2.454 -0.7284  0.3188 -0.7863
 5890SOL    HW229304   0.050   0.013   2.417  0.7618  0.7921 -0.3232
 5891SOL     OW29305   0.091   1.712   7.334 -0.2098  0.0289 -0.2035
 5891SOL    HW129306   0.139   1.715   7.251  0.1269  0.3252  0.0020
 5891SOL    HW229307   0.001   1.705   7.305  0.3435 -0.4466 -1.8059
 5892SOL     OW29308   0.449   0.427   4.277 -0.0750  0.1723  0.5531
 5892SOL    HW129309   0.509   0.477   4.222 -0.4400 -0.9603 -0.8687
 5892SOL    HW229310   0.476   0.467   4.360  0.2482  0.8418  0.1186
 5893SOL     OW29311   4.284   4.056  11.875 -0.3321  0.2227 -0.2077
 5893SOL    HW129312   4.230   3.988  11.836  0.4080 -0.7645  0.4911
 5893SOL    HW229313   4.366   4.008  11.889  0.2043  1.4496  0.9290
 5894SOL     OW29314   4.057   4.324   5.693 -0.0507 -0.2052  0.5737
 5894SOL    HW129315   4.053   4.350   5.601 -1.0735 -0.5902  0.5080
 5894SOL    HW229316   4.145   4.348   5.720  0.3174 -2.2627  1.1544
 5895SOL     OW29317   4.044   1.589   2.765 -0.2474  1.0548  0.5628
 5895SOL    HW129318   4.021   1.507   2.809  2.4649  0.4405  0.8303
 5895SOL    HW229319   4.030   1.566   2.673  3.2359  0.3662  0.1969
 5896SOL     OW29320   2.118   1.884   5.470 -0.1847  0.2056 -0.0954
 5896SOL    HW129321   2.090   1.868   5.561 -2.7697 -3.4514 -1.5157
 5896SOL    HW229322   2.171   1.961   5.491  0.9753 -0.2411 -1.4381
 5897SOL     OW29323   2.559   2.989   8.193  0.5010 -0.1873  0.0909
 5897SOL    HW129324   2.517   3.065   8.153 -0.6922 -1.6036 -1.3401
 5897SOL    HW229325   2.637   2.986   8.138  1.7756 -0.0613  1.8710
 5898SOL     OW29326   1.629   0.586   0.612 -0.0692  0.4797  0.1139
 5898SOL    HW129327   1.715   0.620   0.635 -0.2446  2.0949 -1.6545
 5898SOL    HW229328   1.648   0.563   0.521 -0.4098 -1.2805  0.4816
 5899SOL     OW29329   2.668   1.838  11.091 -0.1680  0.0213  0.3747
 5899SOL    HW129330   2.689   1.853  11.183 -0.6642 -3.8077  1.1204
 5899SOL    HW229331   2.595   1.781  11.116  0.1688 -0.7255 -0.3459
 5900SOL     OW29332   1.377   2.326   4.250 -0.6645 -0.5243 -0.3291
 5900SOL    HW129333   1.335   2.296   4.330 -1.0993 -3.0836 -1.4976
 5900SOL    HW229334   1.464   2.336   4.289 -0.6628 -0.4514 -0.3514
 5901SOL     OW29335   0.144   1.185   4.500  1.1333 -0.1298 -0.6979
 5901SOL    HW129336   0.238   1.199   4.503  0.9787  1.6795 -3.3110
 5901SOL    HW229337   0.129   1.102   4.455 -1.6773  0.8501 -1.6168
 5902SOL     OW29338   0.951   3.308   6.623  0.1865 -0.0092  0.0936
 5902SOL    HW129339   0.877   3.366   6.639 -0.0622 -0.6606  1.2618
 5902SOL    HW229340   0.931   3.279   6.534  2.5759  0.6264 -0.6433
 5903SOL     OW29341   1.568   1.343   8.632  0.7649 -0.3805 -0.6288
 5903SOL    HW129342   1.524   1.258   8.640  0.0378  0.1863  1.2431
 5903SOL    HW229343   1.500   1.407   8.652 -1.7031 -2.8068 -1.2761
 5904SOL     OW29344   4.703   3.439   1.832  0.1623 -0.2559  0.4540
 5904SOL    HW129345   4.669   3.392   1.755  0.2438  0.1952  0.1448
 5904SOL    HW229346   4.642   3.508   1.853 -2.1897 -2.2825  0.2784
 5905SOL     OW29347   2.258   3.659   7.037 -0.1041 -0.5009  0.1104
 5905SOL    HW129348   2.200   3.627   7.106 -1.7683 -0.1157 -1.1083
 5905SOL    HW229349   2.249   3.754   7.044  1.3762 -0.3416 -0.1240
 5906SOL     OW29350   4.706   0.412   3.444  0.4729  0.4440  0.4018
 5906SOL    HW129351   4.622   0.382   3.480  0.6736  0.4000  0.8252
 5906SOL    HW229352   0.032   0.347   3.474  0.4030  0.1434 -0.1108
 5907SOL     OW29353   4.509   2.861   2.740 -0.5104 -0.1106 -0.5616
 5907SOL    HW129354   4.513   2.955   2.724  0.1970  0.2599  1.8949
 5907SOL    HW229355   4.602   2.851   2.757 -1.1432 -0.5195  2.5917
 5908SOL     OW29356   0.286   2.800   5.862  0.4304 -0.0349 -0.1727
 5908SOL    HW129357   0.230   2.745   5.917  0.9300 -1.5394 -1.1680
 5908SOL    HW229358   0.247   2.885   5.881  2.5944  0.8290  0.4395
 5909SOL     OW29359   3.448   0.566  12.710 -0.5704 -0.3879 -0.2064
 5909SOL    HW129360   3.412   0.653  12.729  0.6658  1.0319 -4.3149
 5909SOL    HW229361   3.369   0.521  12.679 -1.6035  1.8672 -0.8375
 5910SOL     OW29362   4.664   4.673   7.353 -0.5484  0.8078  0.4759
 5910SOL    HW129363   4.652   4.642   7.263 -1.1348 -1.7322  1.4459
 5910SOL    HW229364   4.645   0.030   7.339  2.2183  1.2485 -0.3916
 5911SOL     OW29365   3.793   3.960   0.704 -0.3326  0.1067 -0.2955
 5911SOL    HW129366   3.842   4.042   0.706 -2.2739  1.2786 -0.6049
 5911SOL    HW229367   3.730   3.971   0.633  0.6686  0.2531 -1.1534
 5912SOL     OW29368   1.494   0.715  11.958 -0.0760 -0.0733 -0.1668
 5912SOL    HW129369   1.560   0.759  11.904  1.3684 -2.0752 -0.0126
 5912SOL    HW229370   1.456   0.786  12.011 -1.2842  0.0958 -1.2743
 5913SOL     OW29371   3.680   1.799  12.440  0.2678  0.8036  0.2265
 5913SOL    HW129372   3.699   1.710  12.471  1.2535  0.1637 -2.2657
 5913SOL    HW229373   3.629   1.785  12.360  1.7900 -3.1091 -0.0667
 5914SOL     OW29374   0.358   3.218   5.390 -0.1266  0.1063  0.1150
 5914SOL    HW129375   0.357   3.291   5.329 -2.3765 -0.7433 -0.8736
 5914SOL    HW229376   0.410   3.157   5.337  0.7402  0.2017  0.8405
 5915SOL     OW29377   2.735   3.285   4.697  1.1006  0.0440  0.6048
 5915SOL    HW129378   2.746   3.276   4.602  2.5559  0.1047  0.7747
 5915SOL    HW229379   2.825   3.285   4.730  1.4251 -2.6916 -0.2792
 5916SOL     OW29380   2.819   3.846   4.254  0.1816 -0.0491  0.4489
 5916SOL    HW129381   2.913   3.851   4.240 -0.4220  1.3002 -3.0361
 5916SOL    HW229382   2.805   3.754   4.229  2.2088 -0.3187  0.3283
 5917SOL     OW29383   0.405   2.629   3.916  0.1173 -0.1198  0.1862
 5917SOL    HW129384   0.480   2.578   3.884  0.6135  0.0524  1.0864
 5917SOL    HW229385   0.442   2.716   3.932 -0.6937 -0.0238  1.5563
 5918SOL     OW29386   2.576   2.506   9.009 -0.2544 -0.2652 -0.4414
 5918SOL    HW129387   2.642   2.443   9.039 -0.0479 -1.2311 -2.8767
 5918SOL    HW229388   2.556   2.552   9.090  1.9746  1.4442 -0.8459
 5919SOL     OW29389   1.002   1.308   2.847 -0.2654  0.4224  0.1226
 5919SOL    HW129390   1.031   1.355   2.925  0.4268  1.0285 -0.5038
 5919SOL    HW229391   0.920   1.354   2.829 -0.7325 -0.4385  0.0432
 5920SOL     OW29392   0.182   2.379   1.599  0.1066 -0.5678 -0.2012
 5920SOL    HW129393   0.269   2.418   1.605 -1.6663  2.8181  3.5712
 5920SOL    HW229394   0.191   2.297   1.648 -1.1087  0.0499  1.0508
 5921SOL     OW29395   0.743   1.117   5.624 -0.3332  0.1907 -0.4491
 5921SOL    HW129396   0.738   1.168   5.705  0.2759 -0.9077  0.2884
 5921SOL    HW229397   0.837   1.113   5.608 -0.1513  0.4771  0.4886
 5922SOL     OW29398   3.280   2.160  10.932 -0.1404 -0.1390  0.6193
 5922SOL    HW129399   3.366   2.137  10.967 -0.1279  1.4415  1.5987
 5922SOL    HW229400   3.251   2.075  10.899  2.4858 -0.5058 -0.7613
 5923SOL     OW29401   4.191   1.406   1.507  0.3243 -0.1949 -0.4206
 5923SOL    HW129402   4.245   1.405   1.587  0.7474  1.0652 -0.6881
 5923SOL    HW229403   4.238   1.467   1.451 -1.4347  0.1665 -1.4977
 5924SOL     OW29404   1.057   2.553   7.115 -0.2765 -0.1785 -0.0439
 5924SOL    HW129405   0.985   2.491   7.109 -0.3953 -0.0012 -0.4687
 5924SOL    HW229406   1.021   2.641   7.128  0.9471  0.3977 -0.5900
 5925SOL     OW29407   3.103   0.108   5.980  0.1211  0.2358  0.0475
 5925SOL    HW129408   3.064   0.146   6.059  1.1227  0.7428  0.2968
 5925SOL    HW229409   3.190   0.147   5.989 -0.6160  2.0739 -0.8094
 5926SOL     OW29410   2.404   0.919   4.351  0.6361  0.4842 -0.2335
 5926SOL    HW129411   2.317   0.880   4.344  0.8914 -0.0767 -0.2456
 5926SOL    HW229412   2.442   0.865   4.420 -1.3681 -2.5303 -1.4854
 5927SOL     OW29413   1.452   2.942   1.965  0.4281  0.4823 -0.3676
 5927SOL    HW129414   1.501   3.005   2.018 -1.1536  0.1279  1.5145
 5927SOL    HW229415   1.486   2.957   1.877 -1.5743 -0.7289 -1.3318
 5928SOL     OW29416   3.052   4.662   6.360 -0.3420  0.2985  0.3761
 5928SOL    HW129417   3.138   4.669   6.318 -0.3132  2.6405  0.7953
 5928SOL    HW229418   3.028   0.018   6.356  1.8003  0.8328 -0.4135
 5929SOL     OW29419   2.522   3.422   4.785 -0.5877  0.4468  0.4978
 5929SOL    HW129420   2.455   3.367   4.743 -1.6938  2.4768 -0.3933
 5929SOL    HW229421   2.599   3.372   4.759 -1.0860 -0.8453  1.5435
 5930SOL     OW29422   0.682   4.658   2.526 -0.0856  0.1588 -0.0020
 5930SOL    HW129423   0.662   4.567   2.502  1.8916 -0.0027 -1.0351
 5930SOL    HW229424   0.714   4.629   2.612  0.4839 -1.6991 -0.8287
 5931SOL     OW29425   1.877   2.984   3.759 -0.8000 -0.0328  0.2778
 5931SOL    HW129426   1.784   2.994   3.743 -0.2489  1.1450 -2.1568
 5931SOL    HW229427   1.912   2.996   3.671  2.7229  0.4257  1.7134
 5932SOL     OW29428   3.279   1.678   4.178  0.1037  0.8638  0.1436
 5932SOL    HW129429   3.226   1.604   4.207  1.2553 -0.1554 -0.3394
 5932SOL    HW229430   3.290   1.655   4.085 -0.3114  3.1327 -0.4716
 5933SOL     OW29431   2.147   3.989  13.040  0.0258 -0.0780 -0.1414
 5933SOL    HW129432   2.230   4.007  13.083  0.0303 -0.7111  0.1209
 5933SOL    HW229433   2.183   3.959  12.957 -1.8007  1.6081 -1.5595
 5934SOL     OW29434   1.021   2.249   5.513 -0.3209 -0.3394  0.3994
 5934SOL    HW129435   1.048   2.161   5.540  3.4114  0.0604 -2.0771
 5934SOL    HW229436   0.942   2.268   5.564 -0.4032 -1.0301  0.5290
 5935SOL     OW29437   3.051   4.565  10.290  0.1437  0.0204  0.2269
 5935SOL    HW129438   2.977   4.619  10.264 -0.0221  0.1315  0.9447
 5935SOL    HW229439   3.022   4.479  10.260  0.8105 -0.3287  0.5866
 5936SOL     OW29440   3.125   0.593  15.770  0.5465  0.0812  0.6796
 5936SOL    HW129441   3.087   0.505  15.768 -0.7787  0.6328  1.2005
 5936SOL    HW229442   3.126   0.600  15.865 -0.9688 -0.7868  0.7729
 5937SOL     OW29443   1.414   3.260   7.732  0.0164 -0.7130  0.1834
 5937SOL    HW129444   1.357   3.214   7.670 -0.6193 -0.8809  0.8974
 5937SOL    HW229445   1.455   3.186   7.779  1.1493 -0.7732 -0.8919
 5938SOL     OW29446   0.210   1.907   4.262  0.3617 -0.0340  0.5485
 5938SOL    HW129447   0.140   1.972   4.257  0.2640 -0.2376 -0.9460
 5938SOL    HW229448   0.169   1.829   4.225 -1.2178 -0.9732  4.2727
 5939SOL     OW29449   2.095   2.314   7.129  0.2872 -0.1625 -0.1514
 5939SOL    HW129450   2.068   2.306   7.220 -1.4891  2.1229 -0.4938
 5939SOL    HW229451   2.131   2.402   7.124 -1.3137  0.5637  1.2131
 5940SOL     OW29452   1.826   3.934   1.959  0.1218 -0.7738  0.2941
 5940SOL    HW129453   1.909   3.979   1.978 -1.1106  1.3252  0.8062
 5940SOL    HW229454   1.777   3.978   2.029  0.2484 -2.1230  1.2275
 5941SOL     OW29455   1.742   0.913  17.571 -0.2208 -0.0245  0.4782
 5941SOL    HW129456   1.683   0.841  17.548 -0.9111  0.4920  0.6364
 5941SOL    HW229457   1.747   0.920  17.666  2.1665  1.2910  0.2618
 5942SOL     OW29458   1.536   4.271   8.385 -0.1107 -0.3311  0.3050
 5942SOL    HW129459   1.472   4.231   8.325  1.9819 -2.4422 -0.5361
 5942SOL    HW229460   1.591   4.315   8.320  0.7255 -0.7947  0.7018
 5943SOL     OW29461   3.740   1.898   5.779 -0.7390  0.2209 -0.1386
 5943SOL    HW129462   3.835   1.894   5.789 -0.8736 -0.6631  0.7729
 5943SOL    HW229463   3.723   1.848   5.700  2.2451 -3.5533  1.6536
 5944SOL     OW29464   2.735   0.319   2.081 -0.1321  0.5218  0.0051
 5944SOL    HW129465   2.795   0.275   2.141 -2.0241 -0.5068  1.1540
 5944SOL    HW229466   2.659   0.267   2.106  1.4520 -1.5437  0.4595
 5945SOL     OW29467   4.522   1.283   5.931 -0.4351 -0.2042  0.4155
 5945SOL    HW129468   4.561   1.215   5.985 -1.0405  1.0684  2.4641
 5945SOL    HW229469   4.498   1.240   5.848  1.3658 -1.2333  0.4474
 5946SOL     OW29470   3.702   4.412   7.113  0.0447 -0.1887 -0.6003
 5946SOL    HW129471   3.712   4.347   7.183 -1.7429 -1.7497 -1.7616
 5946SOL    HW229472   3.626   4.364   7.081 -0.8197  0.1530  0.9298
 5947SOL     OW29473   2.395   3.639   0.454 -0.5810  0.7171 -0.1097
 5947SOL    HW129474   2.374   3.612   0.365  2.5450 -1.2842 -0.2367
 5947SOL    HW229475   2.450   3.716   0.439  1.0861 -0.6105 -0.7672
 5948SOL     OW29476   1.777   1.936   1.979 -0.0093  0.5323  0.3272
 5948SOL    HW129477   1.739   1.851   1.999  0.6188 -0.1882 -1.5906
 5948SOL    HW229478   1.702   1.993   2.000  0.3480  1.3693 -0.6600
 5949SOL     OW29479   1.013   3.257  17.307 -0.1956 -0.8542 -0.0010
 5949SOL    HW129480   1.031   3.224  17.218  1.4915  3.0490 -1.1065
 5949SOL    HW229481   0.974   3.344  17.299  0.4568 -0.4945  0.8031
 5950SOL     OW29482   2.951   4.013   5.241  0.6207  0.8350  0.1574
 5950SOL    HW129483   2.901   4.079   5.288 -1.1862 -1.5833  1.5685
 5950SOL    HW229484   2.974   3.957   5.315  2.5298  0.8018 -0.4353
 5951SOL     OW29485   4.213   3.033   6.215  0.5031  0.4751 -0.4334
 5951SOL    HW129486   4.271   3.047   6.140 -0.9105 -1.5176 -1.8872
 5951SOL    HW229487   4.136   2.998   6.170 -2.4646  3.2787  2.4849
 5952SOL     OW29488   1.040   2.578  14.254 -0.2033  0.0633 -0.1776
 5952SOL    HW129489   1.114   2.541  14.207 -0.3539  1.1149 -1.2236
 5952SOL    HW229490   1.001   2.498  14.291  1.0820 -0.0437  0.9593
 5953SOL     OW29491   4.469   1.721   1.500 -0.6347  0.3118  0.3772
 5953SOL    HW129492   4.546   1.707   1.556 -0.7607  2.3599  1.0466
 5953SOL    HW229493   4.465   1.816   1.498  0.5219  0.3261 -1.4169
 5954SOL     OW29494   3.406   3.006   9.022 -0.1539  0.4655  0.1775
 5954SOL    HW129495   3.463   3.005   8.945 -0.8850 -0.6021 -0.3459
 5954SOL    HW229496   3.468   2.985   9.092  1.8095  1.1911 -1.3668
 5955SOL     OW29497   3.008   2.633  10.593 -0.2187  0.2628 -0.5469
 5955SOL    HW129498   3.060   2.698  10.640  1.9929 -2.4514  0.7784
 5955SOL    HW229499   3.074   2.566  10.576 -0.2947 -0.0256  0.3084
 5956SOL     OW29500   0.676   0.494  15.717  0.0055  0.3327 -0.2100
 5956SOL    HW129501   0.675   0.439  15.795  1.8691  0.5296 -0.0462
 5956SOL    HW229502   0.735   0.447  15.659  0.8784 -0.4391  1.3123
 5957SOL     OW29503   1.739   4.428  11.006  0.7480 -0.2721 -0.1071
 5957SOL    HW129504   1.733   4.501  11.068  0.1603  0.1336 -0.6401
 5957SOL    HW229505   1.680   4.371  11.055 -1.9971  1.8231 -0.9512
 5958SOL     OW29506   2.430   1.738   7.496  0.1840  0.4557  0.7972
 5958SOL    HW129507   2.395   1.718   7.409 -0.4167  3.1371  0.4512
 5958SOL    HW229508   2.459   1.652   7.528  1.1206  0.5348  0.1661
 5959SOL     OW29509   3.424   1.602   2.007  0.1523 -0.0021  0.5076
 5959SOL    HW129510   3.403   1.516   1.970  1.1571 -0.2542  0.4999
 5959SOL    HW229511   3.348   1.644   1.967 -1.0419 -1.5709  1.1190
 5960SOL     OW29512   3.258   3.240  15.865 -0.4522  0.0725  0.4137
 5960SOL    HW129513   3.167   3.236  15.835 -0.5118 -1.1857  0.7649
 5960SOL    HW229514   3.255   3.304  15.937  1.1334 -0.4254  0.9217
 5961SOL     OW29515   4.598   3.965  11.400  0.0273 -0.0845 -0.2939
 5961SOL    HW129516   4.518   3.945  11.448  0.2477 -3.1775 -1.2170
 5961SOL    HW229517   4.661   3.992  11.467 -1.4098  0.7796  0.6968
 5962SOL     OW29518   2.467   0.910   3.900 -0.0287 -0.4276 -0.4734
 5962SOL    HW129519   2.526   0.972   3.857 -1.5393 -0.4758 -2.6109
 5962SOL    HW229520   2.505   0.889   3.985  1.8744 -2.8332 -1.9175
 5963SOL     OW29521   2.640   2.567  14.930 -0.1051  0.5223  0.1848
 5963SOL    HW129522   2.565   2.607  14.974  0.8638 -0.6261  2.9284
 5963SOL    HW229523   2.680   2.645  14.893 -0.6565  1.3934  1.3962
 5964SOL     OW29524   1.273   3.781   1.465 -0.7541  0.6133 -0.3829
 5964SOL    HW129525   1.299   3.838   1.393  2.3363  2.3963  2.1049
 5964SOL    HW229526   1.290   3.846   1.534 -1.1246  0.4019 -0.0940
 5965SOL     OW29527   0.056   3.045  13.350  1.1410  0.2865 -0.2813
 5965SOL    HW129528   0.109   2.992  13.409  0.3044 -1.1222 -0.8130
 5965SOL    HW229529   4.707   3.032  13.392  1.1092 -0.0975 -0.4650
 5966SOL     OW29530   4.671   1.085  12.382  0.3670 -0.1696  0.1689
 5966SOL    HW129531   4.602   1.019  12.387  0.6030 -0.4821 -0.7342
 5966SOL    HW229532   4.630   1.166  12.411 -0.1365 -0.0880 -0.7809
 5967SOL     OW29533   2.009   4.414   3.582  0.5710  0.2889 -0.5419
 5967SOL    HW129534   1.953   4.413   3.504 -0.4371  1.7301  0.1426
 5967SOL    HW229535   1.937   4.421   3.645  0.1142  0.3559 -1.0690
 5968SOL     OW29536   4.584   3.997   6.201 -0.2956 -0.1901  0.2362
 5968SOL    HW129537   4.506   4.052   6.213  0.7953  1.1238  1.3533
 5968SOL    HW229538   4.552   3.920   6.248 -0.4573  0.0778  0.5685
 5969SOL     OW29539   4.491   1.390  10.003 -0.0195  0.2839 -0.0551
 5969SOL    HW129540   4.404   1.382  10.042 -0.1168  0.8850 -0.1471
 5969SOL    HW229541   4.549   1.397  10.079  0.2634  0.1744 -0.2603
 5970SOL     OW29542   1.305   4.037   1.340 -0.1050 -0.0425 -0.0422
 5970SOL    HW129543   1.328   4.116   1.389 -2.0547 -1.6773  3.4979
 5970SOL    HW229544   1.323   4.068   1.251 -0.0431  0.8133  0.2616
 5971SOL     OW29545   2.238   3.992   3.908  0.4895  0.1858  0.4027
 5971SOL    HW129546   2.220   3.940   3.986  0.7339 -1.9090 -0.9645
 5971SOL    HW229547   2.322   3.966   3.871 -0.5661 -1.6982 -0.6118
 5972SOL     OW29548   0.261   3.912   4.298  0.1152 -0.6212  0.6934
 5972SOL    HW129549   0.317   3.947   4.367 -0.7492 -0.8261  1.4814
 5972SOL    HW229550   0.174   3.938   4.327  0.5780 -0.3793  1.8408
 5973SOL     OW29551   2.936   4.370   9.463  0.0200 -0.1613  0.0640
 5973SOL    HW129552   2.937   4.393   9.556 -1.5301  0.2337 -0.0103
 5973SOL    HW229553   3.027   4.381   9.436  0.8482 -0.2688  2.8132
 5974SOL     OW29554   3.881   1.607   0.129 -0.1547 -0.2518 -0.3923
 5974SOL    HW129555   3.946   1.671   0.100 -0.5032  0.7477  1.0378
 5974SOL    HW229556   3.904   1.593   0.221 -0.9279  1.0779  0.0119
 5975SOL     OW29557   1.662   3.287   1.580 -0.5066 -0.0660 -0.2633
 5975SOL    HW129558   1.725   3.316   1.514  0.5169 -1.2121  0.2043
 5975SOL    HW229559   1.697   3.198   1.588 -0.1688  0.0766 -0.1459
 5976SOL     OW29560   1.804   0.975   9.054  0.2789 -0.0045 -0.3868
 5976SOL    HW129561   1.713   0.998   9.037  0.5201  1.4677  0.2710
 5976SOL    HW229562   1.806   0.960   9.149  1.7748  0.6965 -0.3087
 5977SOL     OW29563   1.834   1.383   4.833  0.3049  0.0941  0.0306
 5977SOL    HW129564   1.784   1.309   4.800 -0.0232 -0.4171  1.6485
 5977SOL    HW229565   1.907   1.334   4.870  1.2469  0.4966 -1.3432
 5978SOL     OW29566   0.740   0.082   9.619 -0.1215  0.7183  0.4742
 5978SOL    HW129567   0.710   0.164   9.578  4.1873  1.9282 -0.2637
 5978SOL    HW229568   0.667   0.064   9.678 -1.5759  0.5585 -1.3635
 5979SOL     OW29569   3.567   0.985   9.592  0.0356  1.2171  0.6773
 5979SOL    HW129570   3.525   0.958   9.674  0.0600 -1.1743 -0.0986
 5979SOL    HW229571   3.538   1.076   9.588  0.1542  1.2307  0.2128
 5980SOL     OW29572   3.438   1.088   3.727  0.6835 -0.2572  0.5242
 5980SOL    HW129573   3.399   1.173   3.708  2.0932  0.2966  0.1076
 5980SOL    HW229574   3.409   1.080   3.817  1.4161  0.9562  0.8672
 5981SOL     OW29575   0.543   2.547   1.984 -0.2421 -0.3451  0.2126
 5981SOL    HW129576   0.599   2.624   1.979 -0.4846 -0.1962 -0.2019
 5981SOL    HW229577   0.473   2.575   1.925  0.6907 -0.0868 -0.7552
 5982SOL     OW29578   3.448   3.369   4.497  0.6533  0.3906  0.4318
 5982SOL    HW129579   3.475   3.288   4.540  2.1685  0.3950 -0.5154
 5982SOL    HW229580   3.352   3.370   4.496  0.6181 -1.9205  0.9451
 5983SOL     OW29581   2.956   4.039   8.465  0.2683  0.3485  0.2552
 5983SOL    HW129582   2.915   4.126   8.465 -3.0460 -1.2258 -1.8061
 5983SOL    HW229583   3.035   4.052   8.517 -0.0774  0.4874  0.7496
 5984SOL     OW29584   1.571   3.216  12.761  0.4527  0.0008  0.2874
 5984SOL    HW129585   1.545   3.182  12.847  0.4563  1.7662  0.9950
 5984SOL    HW229586   1.639   3.277  12.789  1.1055  0.4756 -2.4024
 5985SOL     OW29587   3.416   1.603   9.343 -0.1156 -0.4079 -0.2226
 5985SOL    HW129588   3.460   1.676   9.386 -2.6993  0.4529  0.9683
 5985SOL    HW229589   3.484   1.583   9.278  0.3451 -1.7893  0.6890
 5986SOL     OW29590   1.312   1.227   2.795 -0.1219 -0.2282  0.3638
 5986SOL    HW129591   1.335   1.314   2.829 -2.7835 -0.2900  2.3563
 5986SOL    HW229592   1.217   1.241   2.793 -0.2378 -1.2245 -0.7238
 5987SOL     OW29593   0.141   3.496   9.164  0.2313  0.5483 -0.3711
 5987SOL    HW129594   0.216   3.496   9.224  0.3469 -0.1205 -0.5130
 5987SOL    HW229595   0.172   3.435   9.097  0.6785 -0.5891  0.8625
 5988SOL     OW29596   2.861   3.056   6.159 -0.5074  0.3730 -0.0504
 5988SOL    HW129597   2.910   2.985   6.200  0.0393  1.0410  0.4588
 5988SOL    HW229598   2.849   3.112   6.237 -1.5239  1.0772 -0.7062
 5989SOL     OW29599   4.387   3.033  17.428 -0.3218 -0.4586 -0.3285
 5989SOL    HW129600   4.412   2.977  17.355 -1.0194 -0.7788 -0.3193
 5989SOL    HW229601   4.294   3.012  17.431 -0.4359  0.2819  1.1011
 5990SOL     OW29602   1.671   0.421   3.004  0.4047 -0.1465  0.2767
 5990SOL    HW129603   1.619   0.383   3.076  0.2414  0.0949  0.2855
 5990SOL    HW229604   1.639   0.511   3.009 -0.5665 -0.4567 -0.3376
 5991SOL     OW29605   2.765   2.513   8.501 -0.1124  0.1229 -0.2516
 5991SOL    HW129606   2.733   2.590   8.547 -0.0112  0.2588 -0.4057
 5991SOL    HW229607   2.738   2.522   8.409 -0.4403  1.1327 -0.0599
 5992SOL     OW29608   3.302   3.940   1.462  0.1685  0.0887 -0.0611
 5992SOL    HW129609   3.232   3.906   1.516 -0.8016  0.4968 -1.0708
 5992SOL    HW229610   3.254   3.993   1.399 -1.0209 -0.5853  0.2965
 5993SOL     OW29611   0.249   3.518   5.415 -0.7957  0.3501 -0.0374
 5993SOL    HW129612   0.156   3.499   5.426 -0.6046 -0.8098 -0.4791
 5993SOL    HW229613   0.238   3.557   5.328  1.6689  0.3059 -0.3900
 5994SOL     OW29614   3.104   1.406   1.574 -0.6068  0.5491  0.4714
 5994SOL    HW129615   3.059   1.322   1.577  0.1781  0.0421 -1.7230
 5994SOL    HW229616   3.044   1.459   1.521 -1.5202 -0.7912  0.1791
 5995SOL     OW29617   3.005   2.910   5.655 -0.8826 -0.4783  0.5105
 5995SOL    HW129618   2.923   2.919   5.608 -0.1918  0.6300 -0.4796
 5995SOL    HW229619   3.060   2.986   5.638 -1.2052  0.3354  3.0560
 5996SOL     OW29620   2.754   1.255   8.451  0.3038  0.0761 -0.0027
 5996SOL    HW129621   2.768   1.341   8.490 -0.2341 -0.1532  0.7039
 5996SOL    HW229622   2.659   1.257   8.466  0.3698 -0.5015  0.4964
 5997SOL     OW29623   3.191   2.257   5.037 -0.0002 -0.5838 -0.5596
 5997SOL    HW129624   3.138   2.222   5.109  2.1001 -1.9784  0.3144
 5997SOL    HW229625   3.136   2.283   4.964  1.5221  1.1017 -1.1280
 5998SOL     OW29626   3.163   2.742   8.260 -0.4159 -0.4954 -0.4116
 5998SOL    HW129627   3.127   2.713   8.344  1.7095 -2.8351 -0.2716
 5998SOL    HW229628   3.196   2.827   8.288 -1.6899 -0.6469  1.4853
 5999SOL     OW29629   1.027   3.006   5.550 -0.0049  0.1029 -0.0708
 5999SOL    HW129630   1.025   2.911   5.562  0.1630  0.3051  1.5260
 5999SOL    HW229631   1.048   3.013   5.457 -0.3665  3.0985  0.0555
 6000SOL     OW29632   3.658   1.373   5.345 -0.3038 -0.1239 -0.1107
 6000SOL    HW129633   3.568   1.403   5.359 -0.6796  0.1752 -3.3281
 6000SOL    HW229634   3.669   1.300   5.406 -1.1292  0.8700  1.2229
 6001SOL     OW29635   1.351   0.588   7.730 -0.1308  0.1014 -0.2194
 6001SOL    HW129636   1.438   0.558   7.756 -0.2774 -0.2695 -0.1582
 6001SOL    HW229637   1.346   0.682   7.747 -2.4348 -0.2842  1.1711
 6002SOL     OW29638   0.873   3.690   3.721 -0.0242 -0.2314  0.5951
 6002SOL    HW129639   0.902   3.599   3.724 -2.3584 -0.8962  3.4023
 6002SOL    HW229640   0.863   3.702   3.627 -1.3260  1.8533  1.0019
 6003SOL     OW29641   3.297   3.961   3.071 -0.5790 -0.0033 -0.0032
 6003SOL    HW129642   3.303   4.056   3.070  0.3702 -0.0839 -1.1218
 6003SOL    HW229643   3.212   3.939   3.110  0.6930 -0.8088  2.3294
 6004SOL     OW29644   2.931   2.874   0.439  0.2053  0.0833  0.3818
 6004SOL    HW129645   2.924   2.961   0.478  0.3659  0.4430 -0.3873
 6004SOL    HW229646   3.019   2.854   0.470 -0.1868 -1.7388  0.3336
 6005SOL     OW29647   3.171   3.751  15.033 -0.1663 -0.3529 -0.1618
 6005SOL    HW129648   3.231   3.766  14.960  0.3152  1.8038  0.6629
 6005SOL    HW229649   3.231   3.719  15.100  0.1299  2.5638  0.9469
 6006SOL     OW29650   2.588   0.827   6.541  0.0039 -0.6287 -0.3270
 6006SOL    HW129651   2.538   0.888   6.487 -0.6306 -1.1910 -0.3737
 6006SOL    HW229652   2.534   0.749   6.553 -1.0774  0.1433 -0.1618
 6007SOL     OW29653   4.224   0.217   5.563  0.6434  0.0164 -0.1057
 6007SOL    HW129654   4.148   0.177   5.606  0.2238  2.0540  1.0359
 6007SOL    HW229655   4.195   0.273   5.491  2.7887  1.6125  0.2527
 6008SOL     OW29656   1.407   3.511   3.393  0.1014 -0.3799 -0.5789
 6008SOL    HW129657   1.454   3.586   3.355  1.3913 -3.1952 -4.5322
 6008SOL    HW229658   1.349   3.497   3.318  0.7419  0.9013 -1.3207
 6009SOL     OW29659   3.871   3.509   7.376 -0.4703  0.4269 -0.2395
 6009SOL    HW129660   3.933   3.479   7.442 -0.0794  1.0776 -0.3054
 6009SOL    HW229661   3.893   3.440   7.314 -1.1824 -1.0821  1.1905
 6010SOL     OW29662   4.320   4.544   3.931 -0.2626 -0.5506 -0.2774
 6010SOL    HW129663   4.304   4.469   3.987  0.1386  0.2454  0.9132
 6010SOL    HW229664   4.360   4.611   3.986  2.2099 -1.7826 -0.5691
 6011SOL     OW29665   4.313   3.643  10.076 -0.2879 -0.6862 -0.8399
 6011SOL    HW129666   4.362   3.671  10.154 -2.1779 -0.1864  0.1618
 6011SOL    HW229667   4.381   3.666  10.012 -0.3184  0.6661 -0.3856
 6012SOL     OW29668   3.074   4.416  16.537  0.3767 -0.1894 -0.1266
 6012SOL    HW129669   3.146   4.390  16.595 -0.6100 -2.0714  0.2521
 6012SOL    HW229670   3.119   4.425  16.453 -0.7524 -2.9419 -1.0106
 6013SOL     OW29671   0.334   2.646   6.642 -0.0653  0.3880  0.2479
 6013SOL    HW129672   0.348   2.617   6.552  0.8781  0.8488  0.2470
 6013SOL    HW229673   0.327   2.740   6.620  1.3890  0.4847  0.2032
 6014SOL     OW29674   4.423   2.432   9.755  0.3764 -0.0952 -0.0825
 6014SOL    HW129675   4.370   2.400   9.682 -2.2138 -0.0159  1.7649
 6014SOL    HW229676   4.478   2.356   9.775 -0.9231 -0.5170  1.9841
 6015SOL     OW29677   0.187   1.007   2.632 -0.6234 -0.4489 -0.2467
 6015SOL    HW129678   0.226   0.921   2.648 -1.5582 -0.0630  4.1440
 6015SOL    HW229679   0.172   1.054   2.714 -0.5991  0.4643 -0.7777
 6016SOL     OW29680   1.975   1.535  14.156 -0.3824 -0.5057 -0.1136
 6016SOL    HW129681   1.973   1.534  14.252 -0.6896  0.4356 -0.1088
 6016SOL    HW229682   2.002   1.449  14.123  1.4770 -0.1537  0.4953
 6017SOL     OW29683   1.170   2.944  16.471  0.1620 -0.1276 -0.2055
 6017SOL    HW129684   1.262   2.918  16.481  0.6448  0.8997 -2.1094
 6017SOL    HW229685   1.184   2.985  16.386 -1.0078 -3.4406 -2.0010
 6018SOL     OW29686   3.497   0.207  12.702 -0.0044 -0.7903 -0.0854
 6018SOL    HW129687   3.478   0.192  12.795  1.4889  0.8380  0.4718
 6018SOL    HW229688   3.415   0.179  12.661 -0.6416  1.4459 -0.3407
 6019SOL     OW29689   0.254   3.257   3.454 -0.0430  0.0443 -0.2345
 6019SOL    HW129690   0.227   3.299   3.536  2.8309 -1.1338  1.3180
 6019SOL    HW229691   0.345   3.288   3.462 -0.2477  0.3404  1.0260
 6020SOL     OW29692   3.294   1.794   3.275 -0.1936  0.1917  0.0430
 6020SOL    HW129693   3.385   1.813   3.253  0.3082 -1.4607  0.6978
 6020SOL    HW229694   3.306   1.701   3.258 -0.2261  0.4901 -1.6109
 6021SOL     OW29695   0.750   0.810   4.945  0.1555  0.1534  0.2181
 6021SOL    HW129696   0.744   0.879   5.011 -0.8388  1.1850 -0.9580
 6021SOL    HW229697   0.690   0.739   4.968 -1.0775  0.8465 -0.8702
 6022SOL     OW29698   3.368   2.697   2.878  0.5321  0.4430 -0.0065
 6022SOL    HW129699   3.330   2.782   2.854 -2.2008 -1.0513 -0.8793
 6022SOL    HW229700   3.355   2.651   2.795 -1.0980  0.6408  0.1451
 6023SOL     OW29701   3.117   2.178   1.930  0.0473 -0.0179  0.4852
 6023SOL    HW129702   3.086   2.181   1.840  2.4904 -1.1822 -0.3937
 6023SOL    HW229703   3.087   2.096   1.970  2.6145 -2.0780 -1.8724
 6024SOL     OW29704   0.232   2.290   8.749  0.1921 -0.0498  0.3937
 6024SOL    HW129705   0.299   2.353   8.776  0.9313 -0.6930  0.0853
 6024SOL    HW229706   0.168   2.339   8.698  1.2856 -0.0551 -0.9876
 6025SOL     OW29707   0.126   0.368  14.405 -0.8261 -0.3264  0.2536
 6025SOL    HW129708   0.109   0.428  14.478  0.8727 -1.0469  1.2333
 6025SOL    HW229709   0.123   0.433  14.335 -1.2195 -3.0853 -2.2740
 6026SOL     OW29710   2.472   2.000   2.418 -0.5683 -0.6445  0.3698
 6026SOL    HW129711   2.411   1.934   2.385 -1.0730 -0.6818  1.3764
 6026SOL    HW229712   2.489   2.052   2.340  2.6561 -1.1604  0.7114
 6027SOL     OW29713   1.329   2.539   4.726  0.1738  0.0396  0.4829
 6027SOL    HW129714   1.379   2.615   4.698  2.2375 -1.1770  0.8379
 6027SOL    HW229715   1.251   2.544   4.671  1.4074 -1.1509 -1.3813
 6028SOL     OW29716   0.042   2.327   6.879  0.3347 -0.0332 -0.2058
 6028SOL    HW129717   4.705   2.317   6.818  0.2532  0.9167 -0.2561
 6028SOL    HW229718   0.040   2.421   6.893 -0.9367  0.2080 -1.9542
 6029SOL     OW29719   0.556   3.647   9.588 -0.2029  0.3919 -0.5346
 6029SOL    HW129720   0.524   3.734   9.612 -0.0083 -0.2782  2.2102
 6029SOL    HW229721   0.610   3.618   9.663  0.7758  0.9529 -1.0206
 6030SOL     OW29722   0.749   2.013   3.424 -0.2748  0.0290 -0.0943
 6030SOL    HW129723   0.778   1.998   3.334  2.1881  1.2771  0.4817
 6030SOL    HW229724   0.746   2.108   3.420 -1.0086  0.0624  1.2066
 6031SOL     OW29725   4.430   1.669   7.498 -0.3641  0.5142 -0.1455
 6031SOL    HW129726   4.475   1.606   7.442  0.9292  2.1671 -0.9490
 6031SOL    HW229727   4.373   1.600   7.532  2.9260 -0.9219  2.4116
 6032SOL     OW29728   3.467   2.852   8.173  0.2369 -1.0432 -0.2914
 6032SOL    HW129729   3.450   2.865   8.266 -0.0218 -1.0447 -0.3374
 6032SOL    HW229730   3.382   2.886   8.145  1.2440  0.8583 -1.0774
 6033SOL     OW29731   2.800   1.205   1.783  0.4005  0.6851 -0.6919
 6033SOL    HW129732   2.713   1.164   1.781 -0.1527  1.8070  1.4371
 6033SOL    HW229733   2.854   1.157   1.720 -1.2519  0.1425 -1.6882
 6034SOL     OW29734   1.540   3.917   3.899 -0.1030 -0.7475 -0.3788
 6034SOL    HW129735   1.601   3.873   3.958 -2.2507 -0.8017  1.8152
 6034SOL    HW229736   1.573   3.879   3.818  1.4425 -0.8528  0.3089
 6035SOL     OW29737   1.373   3.508  12.796  0.0861 -1.1396 -0.5165
 6035SOL    HW129738   1.294   3.453  12.794  0.5204 -1.7413 -0.9083
 6035SOL    HW229739   1.400   3.506  12.888 -0.7969  1.7393 -0.1766
 6036SOL     OW29740   2.389   3.367   2.926 -0.5154  0.2438 -0.2437
 6036SOL    HW129741   2.423   3.352   2.838 -1.1830 -1.0472 -0.2732
 6036SOL    HW229742   2.451   3.345   2.995 -4.1587 -4.1392  1.6434
 6037SOL     OW29743   1.218   1.458  14.261  0.1426 -0.1809 -0.2395
 6037SOL    HW129744   1.215   1.476  14.355  0.7204  0.1901 -0.2891
 6037SOL    HW229745   1.220   1.545  14.223 -1.6653  0.1719  0.4818
 6038SOL     OW29746   2.686   0.895  14.848  0.2861 -0.0572 -0.6828
 6038SOL    HW129747   2.663   0.983  14.877  0.7014 -1.0589  2.6796
 6038SOL    HW229748   2.759   0.867  14.902  1.2239 -1.2467 -2.5909
 6039SOL     OW29749   0.178   4.275   4.936 -0.0156  0.6935  0.3439
 6039SOL    HW129750   0.232   4.321   5.001 -0.6807  1.9704 -0.0047
 6039SOL    HW229751   0.251   4.245   4.882 -1.5635 -0.7743 -0.9450
 6040SOL     OW29752   2.058   1.057   5.747  0.2144  0.1743 -0.0378
 6040SOL    HW129753   2.020   0.994   5.686 -2.0575  1.6674 -0.1561
 6040SOL    HW229754   2.066   1.142   5.704 -0.2422  0.4390  0.4009
 6041SOL     OW29755   2.549   0.426   1.298 -0.0932 -0.4932 -0.5626
 6041SOL    HW129756   2.575   0.335   1.278 -0.2693 -0.1106 -2.5802
 6041SOL    HW229757   2.629   0.473   1.274  0.2809 -1.2670 -0.8521
 6042SOL     OW29758   3.461   4.612   6.624  0.4538 -0.2236  0.6042
 6042SOL    HW129759   3.535   4.558   6.652 -1.3751 -2.3764  1.2107
 6042SOL    HW229760   3.402   4.538   6.618  0.7638 -0.3862 -0.4629
 6043SOL     OW29761   0.106   3.814   5.433  0.7477  0.2612  0.4857
 6043SOL    HW129762   0.139   3.904   5.431  1.8948 -0.1372  1.3006
 6043SOL    HW229763   0.187   3.770   5.461  1.4684  1.5342  0.3949
 6044SOL     OW29764   2.374   2.961   9.551  0.5313 -0.3007 -0.1830
 6044SOL    HW129765   2.293   2.939   9.506  0.5689  1.2199 -0.9842
 6044SOL    HW229766   2.436   2.975   9.479 -1.0037 -0.1707 -1.4904
 6045SOL     OW29767   4.608   3.293  16.347  0.4389  0.1724  0.3506
 6045SOL    HW129768   4.587   3.315  16.256 -1.8409 -1.0602  0.5888
 6045SOL    HW229769   4.648   3.209  16.323 -1.3567 -1.1534  2.0690
 6046SOL     OW29770   3.451   1.288  12.661  0.0366 -0.3659  0.1807
 6046SOL    HW129771   3.398   1.259  12.734  0.1324  1.5285  1.0085
 6046SOL    HW229772   3.499   1.206  12.646 -0.6357 -0.7990  0.4226
 6047SOL     OW29773   1.012   0.990  13.603 -0.2310 -0.7830 -0.3188
 6047SOL    HW129774   1.062   0.954  13.530 -2.1999  0.7387 -2.4156
 6047SOL    HW229775   1.029   0.932  13.677 -1.4098 -0.2648  0.3566
 6048SOL     OW29776   1.755   1.747   7.849  0.1605  0.2582  0.4606
 6048SOL    HW129777   1.850   1.748   7.838  0.0249  0.8172 -0.7084
 6048SOL    HW229778   1.741   1.842   7.845 -0.1954  0.1631 -0.7441
 6049SOL     OW29779   0.064   2.701   1.438 -0.2577 -0.4178  0.3473
 6049SOL    HW129780   0.022   2.662   1.361  4.2317 -1.5205 -1.4974
 6049SOL    HW229781   0.007   2.673   1.510  0.7879  0.0604  1.3666
 6050SOL     OW29782   4.428   1.481   6.863 -0.6416  0.1752  0.4519
 6050SOL    HW129783   4.388   1.568   6.860 -1.8611 -0.4776 -2.2115
 6050SOL    HW229784   4.520   1.504   6.875 -0.4831 -1.3876  2.2166
 6051SOL     OW29785   2.390   2.736  14.799  0.6411 -0.1798 -0.1610
 6051SOL    HW129786   2.420   2.808  14.856 -1.6701  0.2100  0.5517
 6051SOL    HW229787   2.450   2.751  14.726 -0.8137 -1.0292 -1.5298
 6052SOL     OW29788   2.400   2.592   2.583  0.2527  0.2343  0.2211
 6052SOL    HW129789   2.317   2.628   2.550  0.2740 -2.0873 -2.3164
 6052SOL    HW229790   2.436   2.546   2.507 -1.2750  0.2400 -0.5091
 6053SOL     OW29791   2.802   2.792   4.822 -0.1035 -0.0923 -0.4011
 6053SOL    HW129792   2.892   2.820   4.838 -0.9427  0.3342  3.7385
 6053SOL    HW229793   2.753   2.853   4.878  0.9600  0.2551  0.1447
 6054SOL     OW29794   3.921   3.267   6.984 -0.0279  0.4357  0.2113
 6054SOL    HW129795   3.864   3.265   6.907 -0.3903  0.8541  0.4661
 6054SOL    HW229796   4.003   3.264   6.935 -1.7041  0.5665 -2.6162
 6055SOL     OW29797   4.069   3.985   3.209  0.3516  0.4647  0.0672
 6055SOL    HW129798   4.020   4.019   3.134 -1.2874  4.4697  2.9565
 6055SOL    HW229799   4.022   3.902   3.218  2.6785 -0.7624  0.9426
 6056SOL     OW29800   2.074   1.712   8.318 -0.5639 -0.0257  0.1111
 6056SOL    HW129801   2.041   1.674   8.236  0.3476 -0.0743 -0.2333
 6056SOL    HW229802   2.027   1.656   8.380 -1.3353  1.9951  1.3423
 6057SOL     OW29803   2.869   0.308  11.946  0.6720  0.2538  0.5911
 6057SOL    HW129804   2.880   0.281  11.854 -1.1240 -0.7266  0.6530
 6057SOL    HW229805   2.897   0.397  11.926 -0.0329  0.5975  1.1477
 6058SOL     OW29806   0.109   2.049  12.714 -0.7839  0.2262  0.1547
 6058SOL    HW129807   0.129   1.959  12.742  1.9647 -0.1589 -3.0256
 6058SOL    HW229808   0.054   2.044  12.636  0.6085 -1.3523 -0.7157
 6059SOL     OW29809   2.345   2.045   7.945  0.2626 -0.2721 -0.0223
 6059SOL    HW129810   2.332   1.982   7.875 -3.1190  0.6103 -0.1842
 6059SOL    HW229811   2.307   2.126   7.910  1.8740  0.7588  0.5900
 6060SOL     OW29812   4.465   2.122   5.074  0.2393 -0.5860 -1.0621
 6060SOL    HW129813   4.461   2.143   5.168 -1.3173  3.2391 -1.9939
 6060SOL    HW229814   4.403   2.175   5.025 -0.3608 -1.0225 -0.7791
 6061SOL     OW29815   2.854   3.305  16.753  0.4543  0.1416 -0.1888
 6061SOL    HW129816   2.786   3.325  16.688 -0.1211 -1.6687 -0.1497
 6061SOL    HW229817   2.925   3.290  16.691 -0.9020 -0.2506 -1.6430
 6062SOL     OW29818   2.017   0.206   9.613  0.0050 -0.3190  0.1361
 6062SOL    HW129819   1.981   0.268   9.676  3.0772 -1.9720  3.5185
 6062SOL    HW229820   2.065   0.145   9.668 -1.4335 -2.9246 -1.4965
 6063SOL     OW29821   1.695   0.626   9.135  0.0660 -0.2772 -0.1231
 6063SOL    HW129822   1.643   0.637   9.215  0.8795  0.2055  0.3419
 6063SOL    HW229823   1.634   0.588   9.072 -1.5856 -0.9610  1.9050
 6064SOL     OW29824   2.784   0.557   9.012 -0.5352  0.0921 -0.4317
 6064SOL    HW129825   2.752   0.612   8.941  0.5959  0.9290 -0.2987
 6064SOL    HW229826   2.704   0.551   9.064 -0.5232  0.0785 -0.4146
 6065SOL     OW29827   2.968   2.341   4.408 -0.1901 -0.0879  0.4849
 6065SOL    HW129828   2.914   2.264   4.423 -2.1419  1.0149 -0.9721
 6065SOL    HW229829   3.017   2.302   4.335  1.4544  0.3889  1.3288
 6066SOL     OW29830   2.833   2.426   5.575  0.1406 -0.3507  0.2148
 6066SOL    HW129831   2.875   2.349   5.536 -0.9737  0.6128 -2.8522
 6066SOL    HW229832   2.891   2.489   5.532 -0.1810 -0.1925  0.0126
 6067SOL     OW29833   0.696   2.643   3.090 -0.2522 -0.2204  0.2845
 6067SOL    HW129834   0.741   2.648   3.005 -1.8859  0.0375 -0.5619
 6067SOL    HW229835   0.750   2.712   3.129  0.7984  0.3561 -2.1446
 6068SOL     OW29836   1.538   2.117   1.673  0.2666 -0.4180  0.1110
 6068SOL    HW129837   1.629   2.136   1.694 -0.1407  0.3174  1.2130
 6068SOL    HW229838   1.545   2.041   1.615  0.4293 -1.0037  0.8990
 6069SOL     OW29839   4.187   1.804   5.402 -0.2716 -0.4303 -0.0958
 6069SOL    HW129840   4.184   1.898   5.384  0.8799  0.1072  2.6373
 6069SOL    HW229841   4.269   1.798   5.450 -0.6433 -0.8304  0.4966
 6070SOL     OW29842   2.824   4.107   6.139 -0.0248  0.0523  0.0184
 6070SOL    HW129843   2.770   4.184   6.158 -1.9901 -1.6046  1.2369
 6070SOL    HW229844   2.808   4.108   6.044 -1.9351  0.8940  0.3442
 6071SOL     OW29845   1.584   2.280   2.330 -0.5855 -0.0749 -0.2699
 6071SOL    HW129846   1.639   2.201   2.327  0.8941  1.0625 -2.6840
 6071SOL    HW229847   1.573   2.296   2.424  1.3473 -1.6827  0.2424
 6072SOL     OW29848   3.782   2.715   5.119  0.0344 -0.1814  0.0878
 6072SOL    HW129849   3.786   2.807   5.092  0.8804  0.7622  3.5140
 6072SOL    HW229850   3.875   2.692   5.117 -0.0179 -0.4205  0.5075
 6073SOL     OW29851   2.434   1.070   9.497  0.2261  0.3485 -0.1218
 6073SOL    HW129852   2.486   1.007   9.546 -1.4381 -1.9070 -1.2798
 6073SOL    HW229853   2.505   1.121   9.457  1.9417 -1.2802  0.8152
 6074SOL     OW29854   4.272   2.270   7.995 -0.2705 -0.0032 -0.3996
 6074SOL    HW129855   4.241   2.233   7.912  1.0310  1.2765 -1.4588
 6074SOL    HW229856   4.213   2.345   7.998 -0.4887 -0.1622 -0.6668
 6075SOL     OW29857   3.965   1.749   6.776  0.2520  0.2190  0.1757
 6075SOL    HW129858   3.895   1.735   6.840  0.3744  0.4394  0.3634
 6075SOL    HW229859   3.941   1.687   6.708 -0.3565  0.5994  0.0413
 6076SOL     OW29860   4.277   3.068   1.731  0.4729 -0.0249 -0.2106
 6076SOL    HW129861   4.204   3.030   1.781 -0.1030  0.6362 -0.5442
 6076SOL    HW229862   4.237   3.110   1.655 -0.0795  2.2925  1.3452
 6077SOL     OW29863   3.150   0.125  11.462 -0.2746 -0.3232 -1.0971
 6077SOL    HW129864   3.082   0.077  11.415 -1.2840  0.3851 -0.3409
 6077SOL    HW229865   3.173   0.063  11.531  0.2054 -0.2643 -1.2024
 6078SOL     OW29866   1.919   1.154  10.275  0.9355 -0.3974  0.4040
 6078SOL    HW129867   2.011   1.160  10.247  0.5662  0.5108 -0.5977
 6078SOL    HW229868   1.867   1.194  10.206 -1.1358 -1.5456  1.2981
 6079SOL     OW29869   0.935   2.661   3.593 -0.2549 -0.3610  0.2128
 6079SOL    HW129870   0.874   2.690   3.661 -1.7137 -1.9378 -0.4228
 6079SOL    HW229871   0.887   2.690   3.515 -0.5305 -0.6386  0.2802
 6080SOL     OW29872   3.290   1.288   2.177 -0.0951 -0.6238 -0.3865
 6080SOL    HW129873   3.277   1.379   2.202 -0.6715 -0.0291 -2.8294
 6080SOL    HW229874   3.371   1.292   2.125 -0.2833  0.5878 -0.5678
 6081SOL     OW29875   3.489   4.365   5.027 -0.3553 -0.2980  0.0326
 6081SOL    HW129876   3.466   4.455   5.005 -0.1437 -0.1694  0.3378
 6081SOL    HW229877   3.399   4.336   5.040  0.5356 -3.3959 -0.7761
 6082SOL     OW29878   0.528   3.527  10.300  0.3883 -0.5062 -0.2040
 6082SOL    HW129879   0.459   3.592  10.314  2.9566  1.7311  1.9897
 6082SOL    HW229880   0.512   3.501  10.209 -1.2607  2.0729 -0.6351
 6083SOL     OW29881   0.794   0.300   4.194  0.0799 -0.0015 -0.0052
 6083SOL    HW129882   0.787   0.347   4.277  3.4156  0.1568  0.1675
 6083SOL    HW229883   0.798   0.209   4.223  1.1878  0.6519  1.9072
 6084SOL     OW29884   3.226   4.716  10.446 -0.1458  0.0468  0.1897
 6084SOL    HW129885   3.187   4.649  10.391 -0.5716  0.0206  0.5199
 6084SOL    HW229886   3.292   4.674  10.500 -1.9452 -0.9118  1.6483
 6085SOL     OW29887   3.592   1.474   6.654  0.3947  0.4826 -0.2378
 6085SOL    HW129888   3.545   1.391   6.640  0.4659  0.4466 -0.2651
 6085SOL    HW229889   3.520   1.536   6.660  1.6324  1.9893 -1.2523
 6086SOL     OW29890   1.259   1.620  17.150  0.6464 -1.0009 -0.0717
 6086SOL    HW129891   1.200   1.682  17.193  1.3478  0.1142 -0.6895
 6086SOL    HW229892   1.331   1.681  17.133 -0.3204  0.2981  0.4429
 6087SOL     OW29893   1.043   2.599   2.970 -0.3228 -0.0566  0.2837
 6087SOL    HW129894   0.976   2.601   2.902 -0.6874 -2.4587  0.5669
 6087SOL    HW229895   1.015   2.664   3.034  0.9685  1.8089 -1.0154
 6088SOL     OW29896   1.556   2.703   6.006  0.5985  0.0291  0.2642
 6088SOL    HW129897   1.512   2.708   6.092  0.6305  0.8116  0.2410
 6088SOL    HW229898   1.580   2.795   5.993  1.3945 -0.2425 -0.1240
 6089SOL     OW29899   4.308   3.652   0.686  0.2059  0.3766  0.1294
 6089SOL    HW129900   4.368   3.578   0.682  1.1220  1.1393 -0.2205
 6089SOL    HW229901   4.299   3.670   0.593 -1.6287  0.0852  0.2594
 6090SOL     OW29902   3.050   0.749  10.452 -0.2747  0.2151 -0.1918
 6090SOL    HW129903   3.041   0.675  10.512 -1.1022 -0.4008 -1.0879
 6090SOL    HW229904   2.971   0.802  10.452 -0.3576  0.0980  0.3928
 6091SOL     OW29905   2.248   3.663   9.653 -0.4449  0.2221 -0.3079
 6091SOL    HW129906   2.229   3.742   9.602 -2.1244 -0.1662 -0.2951
 6091SOL    HW229907   2.336   3.647   9.619  0.4756  1.4867  1.4936
 6092SOL     OW29908   1.729   2.032   2.448  0.1269  0.5688 -0.4275
 6092SOL    HW129909   1.684   1.947   2.456 -0.6967  0.7735 -3.0173
 6092SOL    HW229910   1.706   2.071   2.532 -0.3536  0.4011 -0.4795
 6093SOL     OW29911   4.610   1.955  10.345  0.0866 -0.6544 -0.2462
 6093SOL    HW129912   4.555   1.945  10.423 -1.2840 -2.5008 -1.4313
 6093SOL    HW229913   4.693   1.964  10.391 -0.3845 -0.5287  0.5725
 6094SOL     OW29914   3.606   1.740  14.921  0.1707  0.2716  0.2756
 6094SOL    HW129915   3.551   1.752  14.999  0.6361 -1.1515  0.8169
 6094SOL    HW229916   3.561   1.660  14.894  1.1684  0.0356 -0.6994
 6095SOL     OW29917   0.100   3.144   7.842  0.1107 -0.3869 -0.3858
 6095SOL    HW129918   0.088   3.112   7.931  0.5693  0.3078 -0.0729
 6095SOL    HW229919   0.153   3.079   7.795 -1.1942 -2.0158  0.4160
 6096SOL     OW29920   2.929   4.706   8.330 -0.3293 -0.1413  0.1387
 6096SOL    HW129921   2.953   0.052   8.371  2.7070 -1.3685  0.7960
 6096SOL    HW229922   2.833   4.713   8.324 -0.4335 -0.0935  1.8356
 6097SOL     OW29923   0.507   4.619  10.037 -0.0917  0.0597 -0.5435
 6097SOL    HW129924   0.421   4.584  10.062 -1.2460  0.9453 -3.2755
 6097SOL    HW229925   0.521   4.672  10.116  0.9385 -0.1713 -0.5768
 6098SOL     OW29926   1.491   0.418  14.052  0.1397  0.4369 -0.0573
 6098SOL    HW129927   1.402   0.451  14.056 -0.4634 -1.7125  3.5913
 6098SOL    HW229928   1.531   0.504  14.034  3.1095 -0.6851  1.0941
 6099SOL     OW29929   2.325   1.612   1.607  0.5651 -0.5884  0.1042
 6099SOL    HW129930   2.279   1.688   1.572  0.7709 -2.1655 -3.6410
 6099SOL    HW229931   2.316   1.546   1.539  1.7789 -1.0621  0.4034
 6100SOL     OW29932   0.215   1.701   2.051 -0.1882 -0.1182  0.3254
 6100SOL    HW129933   0.249   1.769   2.111 -1.0580 -0.1127  0.8073
 6100SOL    HW229934   0.157   1.651   2.108 -0.4770 -1.9501 -1.6150
 6101SOL     OW29935   1.130   4.011   4.778 -0.5050 -0.2463 -0.7237
 6101SOL    HW129936   1.120   3.942   4.713 -3.1743 -0.2857 -0.2856
 6101SOL    HW229937   1.051   4.055   4.748 -0.7379  0.2705  0.6500
 6102SOL     OW29938   2.420   3.755  10.846 -0.0581  0.0213 -0.1258
 6102SOL    HW129939   2.516   3.754  10.852 -0.0679 -0.6626 -0.1243
 6102SOL    HW229940   2.392   3.677  10.894 -2.7248  0.5776 -0.7694
 6103SOL     OW29941   3.527   4.460  11.587 -0.4105  0.3307  0.1441
 6103SOL    HW129942   3.594   4.461  11.656  0.0287 -2.0106 -0.2464
 6103SOL    HW229943   3.453   4.437  11.643 -0.3897 -0.0419  0.0176
 6104SOL     OW29944   4.050   3.272   1.768 -0.5659 -0.1703  0.1763
 6104SOL    HW129945   4.055   3.242   1.677 -0.9094  0.5644 -0.0823
 6104SOL    HW229946   4.021   3.191   1.810  1.8758 -1.1929 -0.1072
 6105SOL     OW29947   2.619   1.528   5.241 -0.5902  0.0177  0.4689
 6105SOL    HW129948   2.667   1.464   5.189 -1.7316 -1.2436  0.9474
 6105SOL    HW229949   2.672   1.606   5.226  0.2759 -0.1376  2.6012
 6106SOL     OW29950   4.484   1.603  15.704 -0.3224 -0.0346  0.4793
 6106SOL    HW129951   4.394   1.631  15.688  0.3986  1.1589 -1.4487
 6106SOL    HW229952   4.488   1.663  15.779 -2.0639 -0.7415  1.1234
 6107SOL     OW29953   2.375   0.424  14.408 -0.2935 -0.0618  0.0313
 6107SOL    HW129954   2.301   0.402  14.464 -1.1156 -1.1647 -1.4774
 6107SOL    HW229955   2.407   0.334  14.397  0.5984 -0.2733  4.2024
 6108SOL     OW29956   2.380   3.155   3.975 -0.2012  0.0957 -0.4118
 6108SOL    HW129957   2.400   3.196   3.891  0.4502 -0.5236 -0.5565
 6108SOL    HW229958   2.285   3.150   3.966 -0.1067 -1.1744 -0.7144
 6109SOL     OW29959   3.611   0.345   1.523 -0.5660 -0.1292 -0.8452
 6109SOL    HW129960   3.657   0.402   1.462  0.7366  0.3289  0.5485
 6109SOL    HW229961   3.667   0.329   1.599 -0.8687  1.7577 -0.2317
 6110SOL     OW29962   2.553   2.693   9.931 -0.3629 -0.0835 -0.2742
 6110SOL    HW129963   2.483   2.645   9.974  1.6285 -1.7771  1.0650
 6110SOL    HW229964   2.571   2.625   9.866  3.6910  0.9131 -0.1757
 6111SOL     OW29965   2.309   1.222   7.858  0.2501 -0.2690  0.1020
 6111SOL    HW129966   2.386   1.203   7.912  1.3774 -0.4922 -1.5969
 6111SOL    HW229967   2.336   1.310   7.832 -2.2003  0.3098 -0.4768
 6112SOL     OW29968   4.453   3.748  17.654  0.0780  0.0839 -0.2539
 6112SOL    HW129969   4.374   3.703  17.686 -0.4487  1.5133  0.4851
 6112SOL    HW229970   4.420   3.789  17.574  0.6684 -1.1417 -1.1078
 6113SOL     OW29971   2.364   1.944   3.917 -0.8427 -0.2602  0.0761
 6113SOL    HW129972   2.307   1.920   3.990 -1.3888 -0.2205 -0.3436
 6113SOL    HW229973   2.448   1.925   3.959 -2.3563 -1.0559  2.7395
 6114SOL     OW29974   0.093   3.657  11.280  0.3001 -0.0999 -0.3635
 6114SOL    HW129975   0.051   3.727  11.231  0.1569  0.6208  0.7746
 6114SOL    HW229976   0.017   3.602  11.299 -0.6211  1.2152 -0.2678
 6115SOL     OW29977   4.610   2.341   0.837 -0.1428 -0.1400 -0.1453
 6115SOL    HW129978   4.550   2.325   0.764 -0.2765  2.0755 -0.5092
 6115SOL    HW229979   4.680   2.277   0.823  0.2688  0.4137 -0.5906
 6116SOL     OW29980   4.506   4.124   7.289 -0.6529  0.2539 -0.1934
 6116SOL    HW129981   4.451   4.137   7.366  0.6430  2.1808  0.4259
 6116SOL    HW229982   4.451   4.161   7.219 -0.7760  1.1962  0.3978
 6117SOL     OW29983   1.941   2.382  16.506  0.1036 -0.0671  0.0910
 6117SOL    HW129984   1.968   2.400  16.416 -0.9299  0.5319 -0.0950
 6117SOL    HW229985   2.016   2.332  16.538  0.0192  0.7657  1.6244
 6118SOL     OW29986   1.097   0.072   4.045  0.3008 -0.7521 -0.2048
 6118SOL    HW129987   1.173   0.045   4.097  0.8101  1.1608  0.0721
 6118SOL    HW229988   1.029   0.069   4.111  0.8261 -2.9781  0.2112
 6119SOL     OW29989   4.042   4.055   3.803  0.2435 -0.1340 -0.0940
 6119SOL    HW129990   4.002   4.126   3.753 -2.6439 -1.4056  0.4063
 6119SOL    HW229991   3.958   4.017   3.826 -1.1825  3.1417  0.1258
 6120SOL     OW29992   2.048   3.200  10.644 -0.4573 -0.4263 -0.5278
 6120SOL    HW129993   2.104   3.186  10.720 -0.5310 -2.5531 -0.8646
 6120SOL    HW229994   1.985   3.263  10.679  1.1996  1.8814 -1.7478
 6121SOL     OW29995   0.329   3.561   7.911  0.8428  0.1656  0.6529
 6121SOL    HW129996   0.407   3.549   7.858 -1.3091  3.2010 -3.1478
 6121SOL    HW229997   0.280   3.491   7.868  1.6393 -1.6665  2.7178
 6122SOL     OW29998   2.878   2.936   8.363  0.5295 -0.2216  0.0537
 6122SOL    HW129999   2.859   3.030   8.376 -1.4136 -0.7202  0.8718
 6122SOL    HW230000   2.972   2.946   8.351  0.5026  0.3765  0.2955
 6123SOL     OW30001   0.194   1.187   6.282 -0.1482 -0.3027 -0.1344
 6123SOL    HW130002   0.159   1.275   6.266 -0.9335 -0.4106  0.9831
 6123SOL    HW230003   0.257   1.208   6.351 -0.7856  0.7931  0.1180
 6124SOL     OW30004   0.518   0.294   3.867 -0.5038 -0.0706  0.2396
 6124SOL    HW130005   0.526   0.305   3.772 -0.7743 -1.9626  0.0060
 6124SOL    HW230006   0.569   0.372   3.892 -2.0336  0.4691  1.6938
 6125SOL     OW30007   0.163   4.474   0.643 -0.0208 -0.1260 -0.0239
 6125SOL    HW130008   0.151   4.381   0.662 -1.4262  0.4141  1.7117
 6125SOL    HW230009   0.071   4.501   0.645  0.4255  1.3891 -0.0019
 6126SOL     OW30010   0.513   0.684  10.625  0.3786 -0.1097  0.6502
 6126SOL    HW130011   0.460   0.673  10.704 -0.6430  1.4710  0.1814
 6126SOL    HW230012   0.601   0.672  10.661  0.6018  0.3221  0.2449
 6127SOL     OW30013   0.648   3.750   4.401  0.1377 -0.6358  0.6963
 6127SOL    HW130014   0.594   3.764   4.324  0.2206 -1.6276  0.4690
 6127SOL    HW230015   0.658   3.655   4.405  2.1603 -0.4426  0.1660
 6128SOL     OW30016   3.264   3.970  17.074  0.2063 -0.1901 -0.3512
 6128SOL    HW130017   3.267   3.992  16.981  1.1322  0.4196 -0.1753
 6128SOL    HW230018   3.169   3.960  17.081  0.3474 -1.8769 -0.9800
 6129SOL     OW30019   4.614   1.885   4.766 -0.7239  0.4163 -0.6951
 6129SOL    HW130020   4.618   1.976   4.795 -0.4615 -0.5240  2.2424
 6129SOL    HW230021   4.519   1.880   4.756 -0.8465 -0.1553  0.6773
 6130SOL     OW30022   1.295   3.649  14.728  0.1165  0.2265  0.2625
 6130SOL    HW130023   1.308   3.722  14.788  0.2622 -0.5904  1.2188
 6130SOL    HW230024   1.352   3.581  14.764  0.4152  0.0212 -0.5892
 6131SOL     OW30025   0.683   3.346  14.202 -0.1886 -0.8342  0.6030
 6131SOL    HW130026   0.768   3.371  14.166 -1.1742  1.2416 -0.2899
 6131SOL    HW230027   0.665   3.263  14.158  0.4397 -0.4570 -0.3755
 6132SOL     OW30028   0.796   0.665   8.809 -0.7692 -0.5921  0.0106
 6132SOL    HW130029   0.773   0.753   8.838 -1.1789 -0.4907 -0.6285
 6132SOL    HW230030   0.889   0.669   8.786 -0.7610 -0.0480  0.1476
 6133SOL     OW30031   4.473   1.855  12.205 -0.5702  0.1300  0.1246
 6133SOL    HW130032   4.492   1.824  12.117 -1.1548 -1.3478  0.5245
 6133SOL    HW230033   4.495   1.948  12.198 -0.5667  0.2413  1.5379
 6134SOL     OW30034   2.543   1.466   7.144  0.0371  0.5721 -0.4386
 6134SOL    HW130035   2.547   1.371   7.155 -1.2308  0.6208  0.3839
 6134SOL    HW230036   2.454   1.483   7.174 -0.4814 -0.4730 -1.4127
 6135SOL     OW30037   4.238   4.628  13.909 -0.6388 -0.0479  0.2707
 6135SOL    HW130038   4.201   4.587  13.831  3.4685  1.9152 -2.7255
 6135SOL    HW230039   4.228   4.557  13.973 -1.7328  0.8026  1.0350
 6136SOL     OW30040   2.880   3.540  15.075  0.6368  0.0518  0.1955
 6136SOL    HW130041   2.968   3.515  15.046  0.4399  1.0070 -1.2112
 6136SOL    HW230042   2.895   3.572  15.164 -1.3860 -0.9992  0.9203
 6137SOL     OW30043   1.561   0.675   2.962 -0.4791  0.1218  0.0693
 6137SOL    HW130044   1.475   0.710   2.938 -0.4912  1.1567  1.6328
 6137SOL    HW230045   1.606   0.757   2.979  0.2677 -0.7089  2.0089
 6138SOL     OW30046   1.991   0.221   3.165 -0.0289 -0.3839  0.7972
 6138SOL    HW130047   2.036   0.303   3.182  0.9020 -0.5823 -0.6992
 6138SOL    HW230048   1.936   0.223   3.243 -1.8378 -0.3133 -0.4663
 6139SOL     OW30049   4.607   0.623   3.163 -0.1498 -0.4839 -0.1755
 6139SOL    HW130050   4.648   0.545   3.124 -1.0159 -0.1014 -1.8717
 6139SOL    HW230051   4.577   0.662   3.081 -1.7773 -0.0994  0.6177
 6140SOL     OW30052   4.157   1.744  13.788  0.6780  0.1311  0.2985
 6140SOL    HW130053   4.154   1.742  13.692  0.8423  1.1862  0.2754
 6140SOL    HW230054   4.247   1.770  13.807  0.5696  1.0151 -0.4219
 6141SOL     OW30055   1.464   1.175   7.587 -0.1368  0.1957 -0.1724
 6141SOL    HW130056   1.438   1.088   7.560  1.4236  0.6329 -3.0600
 6141SOL    HW230057   1.465   1.217   7.501  2.7557  2.3088  0.8920
 6142SOL     OW30058   2.347   3.599   2.435 -0.1219  0.1607  0.0333
 6142SOL    HW130059   2.416   3.661   2.410  0.6245 -0.4967  0.4660
 6142SOL    HW230060   2.404   3.525   2.455  0.4970  0.5909 -0.1220
 6143SOL     OW30061   0.216   3.946   6.748  0.1518  0.5164 -0.3380
 6143SOL    HW130062   0.155   3.994   6.804  2.1666  0.6904  1.6866
 6143SOL    HW230063   0.191   3.855   6.762 -2.1676  1.2378  0.2288
 6144SOL     OW30064   2.891   3.429  16.998  0.7223  0.7349 -0.1110
 6144SOL    HW130065   2.881   3.382  16.916 -2.3398 -0.1713  0.8025
 6144SOL    HW230066   2.876   3.520  16.975  1.9325  1.4911  2.0494
 6145SOL     OW30067   0.090   1.079  14.921 -0.2022 -0.1204  0.7407
 6145SOL    HW130068   0.069   0.986  14.915  0.4521 -0.1765 -0.5624
 6145SOL    HW230069   0.021   1.110  14.862 -1.1512 -2.2909  0.7127
 6146SOL     OW30070   0.409   2.209   4.783  0.2483 -0.6601 -0.2083
 6146SOL    HW130071   0.383   2.240   4.870  0.4594 -0.8226 -0.0874
 6146SOL    HW230072   0.503   2.223   4.794  0.0025  1.3234 -0.5823
 6147SOL     OW30073   0.104   1.966   6.001  0.3645  0.1926  0.2542
 6147SOL    HW130074   0.102   1.991   6.094  1.6990 -1.2884  0.6573
 6147SOL    HW230075   0.013   1.988   5.978  0.3591 -0.0161  0.0827
 6148SOL     OW30076   0.192   4.291   3.844 -0.7213  0.0346 -0.3180
 6148SOL    HW130077   0.194   4.309   3.750 -0.3349 -0.2369 -0.3615
 6148SOL    HW230078   0.160   4.378   3.866 -0.3361 -0.8109  3.4918
 6149SOL     OW30079   4.161   0.533   8.667 -0.6645  0.0311 -0.0349
 6149SOL    HW130080   4.228   0.535   8.600 -0.4353 -0.3190  0.1852
 6149SOL    HW230081   4.083   0.503   8.621 -0.3520 -1.1814  0.2172
 6150SOL     OW30082   3.711   3.255  15.307  0.1222  0.1715 -0.3183
 6150SOL    HW130083   3.768   3.313  15.356  1.2621 -3.1531  2.3166
 6150SOL    HW230084   3.658   3.205  15.369 -0.0164  0.2316 -0.3883
 6151SOL     OW30085   0.574   3.748   8.348 -0.0552 -0.1724 -0.0304
 6151SOL    HW130086   0.599   3.711   8.433 -1.2651  0.9795  0.8441
 6151SOL    HW230087   0.632   3.823   8.333  0.5115 -0.3395  1.3056
 6152SOL     OW30088   3.831   2.474   5.329 -0.0535  0.0019 -0.4954
 6152SOL    HW130089   3.826   2.520   5.413  0.5385 -2.7237  1.0309
 6152SOL    HW230090   3.750   2.505   5.287 -1.1282 -1.7344  0.2831
 6153SOL     OW30091   4.167   3.350   0.045  0.3680 -0.8754 -0.0081
 6153SOL    HW130092   4.092   3.309   0.089  0.0075  0.3128  0.4742
 6153SOL    HW230093   4.158   3.309  17.703 -2.0838 -1.1380  0.3536
 6154SOL     OW30094   3.080   0.777   1.492 -0.4482  0.4816 -0.0706
 6154SOL    HW130095   3.084   0.776   1.588 -0.3235 -0.5795 -0.0881
 6154SOL    HW230096   2.994   0.740   1.474 -0.7130  2.7371 -3.4775
 6155SOL     OW30097   0.968   4.509   9.100 -0.5414  0.0143 -0.0657
 6155SOL    HW130098   0.939   4.443   9.038 -0.1231  1.1449 -1.4747
 6155SOL    HW230099   0.902   4.578   9.088 -1.8272 -0.9747  1.3858
 6156SOL     OW30100   2.059   1.479   1.246 -0.2058  0.5135 -0.1394
 6156SOL    HW130101   1.966   1.478   1.223 -0.7891 -0.6747  2.2302
 6156SOL    HW230102   2.089   1.419   1.178  0.7231 -0.3806  1.0615
 6157SOL     OW30103   3.429   1.357   6.063  0.7951  0.1100 -0.0639
 6157SOL    HW130104   3.420   1.269   6.027 -0.6483 -0.0952  0.8215
 6157SOL    HW230105   3.360   1.404   6.016  0.4547 -1.0044 -0.6930
 6158SOL     OW30106   3.680   4.638  10.134 -0.2452 -0.2453 -0.2574
 6158SOL    HW130107   3.607   4.654  10.194  0.5487  1.3970  0.2609
 6158SOL    HW230108   3.746   4.665  10.198 -1.2436  0.2642  0.5727
 6159SOL     OW30109   0.892   1.188   8.924 -0.1590  0.2241  0.3666
 6159SOL    HW130110   0.799   1.167   8.917 -0.0611 -0.6572  1.7017
 6159SOL    HW230111   0.907   1.196   9.018 -0.6859  0.0567  0.4600
 6160SOL     OW30112   0.237   4.448  10.108 -0.1808  1.1187  0.5876
 6160SOL    HW130113   0.300   4.376  10.100 -1.1830  0.1876  1.0801
 6160SOL    HW230114   0.163   4.402  10.069  1.8449 -1.3286 -0.4074
 6161SOL     OW30115   4.676   1.395   3.326 -0.1846  0.5712  0.2839
 6161SOL    HW130116   4.623   1.467   3.291  1.5697  1.2248 -1.0018
 6161SOL    HW230117   0.027   1.421   3.297 -0.1544 -1.7137 -1.6316
 6162SOL     OW30118   0.238   0.957  12.148 -0.4132  0.1931 -0.1038
 6162SOL    HW130119   0.226   1.002  12.231  1.1286 -1.1197  0.8256
 6162SOL    HW230120   0.323   0.915  12.161 -0.6790 -0.0028  0.9825
 6163SOL     OW30121   2.083   3.962   1.244 -0.4104 -0.9519  0.2394
 6163SOL    HW130122   2.177   3.967   1.262 -0.8847  2.6721  1.6554
 6163SOL    HW230123   2.061   4.048   1.278 -1.6690 -0.7381 -1.1632
 6164SOL     OW30124   2.147   1.001   6.995  0.2669 -0.6031 -0.1354
 6164SOL    HW130125   2.128   1.079   6.942  1.6512  1.3600  2.2324
 6164SOL    HW230126   2.105   1.030   7.076 -1.3273 -2.3666 -0.3374
 6165SOL     OW30127   0.607   3.741   7.256 -0.2900  0.0709 -0.9433
 6165SOL    HW130128   0.534   3.791   7.220 -1.7352 -1.4611 -0.1499
 6165SOL    HW230129   0.562   3.657   7.267 -0.0147  0.0347 -0.0908
 6166SOL     OW30130   3.192   1.785  14.152  0.0357 -0.4271 -0.2940
 6166SOL    HW130131   3.182   1.770  14.058  0.1415 -0.8663 -0.2336
 6166SOL    HW230132   3.287   1.780  14.156  0.2183  1.7503 -1.6566
 6167SOL     OW30133   3.729   0.296   4.385  0.1199  0.1315  0.0363
 6167SOL    HW130134   3.673   0.374   4.389 -1.1449 -0.7355 -0.7030
 6167SOL    HW230135   3.807   0.329   4.429  1.1650 -1.7517 -0.4174
 6168SOL     OW30136   1.369   1.628   5.363 -0.2320 -0.0977 -0.0649
 6168SOL    HW130137   1.381   1.538   5.331  1.2067  0.0067  0.1785
 6168SOL    HW230138   1.371   1.686   5.288  0.9233 -0.5574 -0.3997
 6169SOL     OW30139   3.261   1.484   7.027 -0.5442 -0.6057 -0.1328
 6169SOL    HW130140   3.277   1.452   6.938 -2.6511 -1.3503 -0.2268
 6169SOL    HW230141   3.165   1.486   7.024 -0.4159  2.8467 -2.4166
 6170SOL     OW30142   1.471   4.386   9.998  0.7339 -0.2120 -0.4829
 6170SOL    HW130143   1.566   4.381  10.011  0.7305 -0.2837 -0.4843
 6170SOL    HW230144   1.459   4.473  10.036  0.6310 -0.3368 -0.2293
 6171SOL     OW30145   1.520   0.437  17.732  0.2113  0.5748 -0.3406
 6171SOL    HW130146   1.549   0.523   0.020 -0.0762  0.1394  1.1117
 6171SOL    HW230147   1.491   0.406   0.075 -0.3641  1.4921 -0.2011
 6172SOL     OW30148   1.549   0.254   4.723  0.2847  0.1940  0.3736
 6172SOL    HW130149   1.455   0.238   4.736  0.2596  1.5386  1.8418
 6172SOL    HW230150   1.557   0.186   4.657 -1.2248 -0.0724  0.4610
 6173SOL     OW30151   2.408   4.235   1.992  0.1641  0.5435 -0.4161
 6173SOL    HW130152   2.394   4.300   1.923 -0.9915  1.0796  0.3157
 6173SOL    HW230153   2.348   4.163   1.971  1.5145 -0.7328  0.0984
 6174SOL     OW30154   0.477   3.483   4.334 -0.7139 -0.0924 -0.2188
 6174SOL    HW130155   0.537   3.447   4.269  0.6516  1.1336  0.3412
 6174SOL    HW230156   0.443   3.563   4.295 -1.1327  0.0351  0.4039
 6175SOL     OW30157   1.307   1.122   3.663  0.9106  0.1255  0.7983
 6175SOL    HW130158   1.335   1.040   3.704 -0.2041 -0.8137 -0.2706
 6175SOL    HW230159   1.308   1.182   3.737  1.2609 -0.4923  1.2891
 6176SOL     OW30160   3.428   1.863   2.161  0.0471  0.2477 -0.2219
 6176SOL    HW130161   3.406   1.781   2.207 -2.7272  1.6212  0.9209
 6176SOL    HW230162   3.443   1.825   2.074  0.5111  2.6659 -1.1870
 6177SOL     OW30163   4.052   0.382   7.925  0.0759 -0.3447 -0.0822
 6177SOL    HW130164   4.147   0.396   7.934 -0.1490 -0.0363  1.9618
 6177SOL    HW230165   4.034   0.313   7.862 -1.0402 -1.2930  1.2652
 6178SOL     OW30166   1.858   0.475  15.944 -0.8789  0.0281  0.3602
 6178SOL    HW130167   1.837   0.490  15.852  0.8233  1.3849  0.2042
 6178SOL    HW230168   1.799   0.407  15.976  1.2867 -1.7081  0.6402
 6179SOL     OW30169   0.976   3.614   4.269  0.1009  0.1485 -0.6043
 6179SOL    HW130170   1.035   3.686   4.246  2.2671 -1.3749  0.2213
 6179SOL    HW230171   0.891   3.656   4.281  0.4951  1.3692 -2.0084
 6180SOL     OW30172   3.941   0.640   1.545 -0.2002 -0.0944 -0.1077
 6180SOL    HW130173   4.036   0.642   1.548 -0.1740 -0.6890 -0.6003
 6180SOL    HW230174   3.938   0.564   1.487  3.6859  1.1465 -1.8887
 6181SOL     OW30175   1.590   0.384  13.154  0.2903  0.6090 -0.4193
 6181SOL    HW130176   1.565   0.458  13.099  0.6431  1.1697  0.1691
 6181SOL    HW230177   1.567   0.422  13.239 -2.9380  0.7988 -1.3761
 6182SOL     OW30178   4.154   2.623  11.808 -0.4479  0.4576  0.4969
 6182SOL    HW130179   4.203   2.656  11.732 -3.1110  3.0679 -0.1002
 6182SOL    HW230180   4.089   2.693  11.815 -1.1556 -0.1212 -0.2227
 6183SOL     OW30181   1.629   3.442  14.449 -0.2646 -0.2457 -0.2007
 6183SOL    HW130182   1.661   3.498  14.379  2.3018  0.2864  1.3994
 6183SOL    HW230183   1.537   3.468  14.450 -0.4445 -0.9290  1.4016
 6184SOL     OW30184   0.051   2.970  10.769 -1.0095  0.0459  0.1919
 6184SOL    HW130185   4.692   2.971  10.754 -0.8748 -2.6667 -0.7466
 6184SOL    HW230186   0.068   2.890  10.819  1.4308  1.1374  1.1130
 6185SOL     OW30187   4.618   0.081   6.116 -0.1455  0.0587 -0.2532
 6185SOL    HW130188   4.660   4.731   6.114 -0.4622 -0.1333  1.1138
 6185SOL    HW230189   4.638   0.107   6.206 -0.0059  0.9241 -0.5358
 6186SOL     OW30190   2.795   0.894   8.507  0.6271  0.1700 -0.5447
 6186SOL    HW130191   2.840   0.915   8.425  2.2947 -1.8688 -0.1756
 6186SOL    HW230192   2.713   0.860   8.471  0.9764  0.1485 -1.3072
 6187SOL     OW30193   4.343   4.126   7.518 -0.0598 -0.8568  0.2952
 6187SOL    HW130194   4.412   4.103   7.581  1.5516  1.6772 -0.5388
 6187SOL    HW230195   4.292   4.045   7.528  0.8281 -1.2625  1.5855
 6188SOL     OW30196   0.735   2.804   9.152  0.1972 -0.2728  0.2096
 6188SOL    HW130197   0.743   2.710   9.169 -0.7286 -0.1831  1.1946
 6188SOL    HW230198   0.640   2.815   9.142  0.6397  0.4642 -3.0137
 6189SOL     OW30199   0.726   0.417   7.254 -0.0113  0.3026 -0.4440
 6189SOL    HW130200   0.799   0.420   7.315  0.2257 -0.7208 -0.6658
 6189SOL    HW230201   0.753   0.492   7.201 -2.6144  1.2679 -0.3845
 6190SOL     OW30202   3.306   2.053   7.504 -0.4599 -0.1509  0.2989
 6190SOL    HW130203   3.364   2.041   7.579 -1.2342  2.9480  1.4096
 6190SOL    HW230204   3.293   2.148   7.506  1.3530  0.1140 -0.4579
 6191SOL     OW30205   0.264   2.909  13.446 -0.1091 -0.1838 -0.3573
 6191SOL    HW130206   0.296   2.888  13.359 -0.2839 -2.9753  0.2687
 6191SOL    HW230207   0.338   2.964  13.473  0.2179 -0.8214  0.0350
 6192SOL     OW30208   1.525   1.018   8.409  0.6003 -0.3194 -0.1986
 6192SOL    HW130209   1.453   0.981   8.358  1.1496 -0.7189 -0.6871
 6192SOL    HW230210   1.480   1.039   8.491 -1.0356 -0.2070 -1.1244
 6193SOL     OW30211   0.266   1.995   4.722 -0.0922 -0.5200 -0.3222
 6193SOL    HW130212   0.259   1.965   4.813 -1.1109  0.0127 -0.2299
 6193SOL    HW230213   0.317   2.075   4.733 -0.7913 -0.2357  0.9474
 6194SOL     OW30214   3.758   0.780  10.236  0.0006 -0.8564 -0.5054
 6194SOL    HW130215   3.838   0.829  10.253  0.2083 -1.5641  0.6093
 6194SOL    HW230216   3.727   0.760  10.324 -2.6418  1.0750 -1.0008
 6195SOL     OW30217   1.752   4.345   9.724  0.4752  0.7388 -0.3256
 6195SOL    HW130218   1.670   4.328   9.678 -0.0831  2.1867  0.1525
 6195SOL    HW230219   1.731   4.346   9.818  2.3125  2.3312  0.0543
 6196SOL     OW30220   0.980   2.677   5.934 -0.5850  0.1410 -0.2600
 6196SOL    HW130221   0.923   2.666   5.858 -0.8444  2.2050 -0.3580
 6196SOL    HW230222   0.913   2.691   6.000  1.1334 -0.6071  1.6424
 6197SOL     OW30223   1.394   0.571   3.496  0.1253  0.8010 -0.2074
 6197SOL    HW130224   1.367   0.538   3.582  2.0523 -1.5913 -0.5196
 6197SOL    HW230225   1.486   0.545   3.505  0.7789  2.8654 -1.1381
 6198SOL     OW30226   1.324   2.042   5.562  0.3590 -0.1516 -0.3147
 6198SOL    HW130227   1.379   2.040   5.640 -0.4269  1.2159  0.2784
 6198SOL    HW230228   1.237   2.038   5.601  0.1843 -0.9525 -0.7935
 6199SOL     OW30229   0.685   0.348   8.110  0.0741 -0.9386  0.1700
 6199SOL    HW130230   0.663   0.406   8.037 -1.3034 -1.5975  0.0702
 6199SOL    HW230231   0.599   0.317   8.138 -1.0331  0.7084 -1.3596
 6200SOL     OW30232   2.422   0.957  16.129 -0.1518  0.1202  0.9615
 6200SOL    HW130233   2.501   1.010  16.127  1.7253 -2.7530  0.1305
 6200SOL    HW230234   2.388   0.990  16.046  0.8608  0.1924  0.5792
 6201SOL     OW30235   2.670   0.777  15.767 -0.1093  0.2975  0.4024
 6201SOL    HW130236   2.764   0.769  15.756 -0.2939 -1.8615  0.3590
 6201SOL    HW230237   2.663   0.706  15.832 -2.8668  0.5611  0.4198
 6202SOL     OW30238   0.286   2.026   8.785 -0.6287  0.8994 -0.1545
 6202SOL    HW130239   0.263   2.118   8.794 -1.4751  0.5632  1.1804
 6202SOL    HW230240   0.197   1.992   8.787 -0.3915  0.3475  0.9872
 6203SOL     OW30241   4.490   2.647   6.283 -0.4751 -0.2829  0.2222
 6203SOL    HW130242   4.537   2.689   6.211 -0.3941 -3.2508 -1.4831
 6203SOL    HW230243   4.550   2.670   6.353  1.9165 -0.4190 -1.7598
 6204SOL     OW30244   1.534   2.051  15.261 -0.3197  0.2681  0.1232
 6204SOL    HW130245   1.447   2.015  15.241 -1.3324  1.3710  2.4590
 6204SOL    HW230246   1.588   1.995  15.206  1.3226 -0.1315  2.1330
 6205SOL     OW30247   3.733   2.453   7.625  0.3084  0.5439 -0.2545
 6205SOL    HW130248   3.827   2.445   7.606  0.4026 -1.9981  1.2926
 6205SOL    HW230249   3.731   2.453   7.721  0.2518  0.0257 -0.2559
 6206SOL     OW30250   0.964   3.977   5.800  0.4897  0.1704 -0.1246
 6206SOL    HW130251   0.896   4.030   5.841 -0.7710 -1.8739  0.3954
 6206SOL    HW230252   0.995   4.031   5.727  1.2391  1.2952  1.0271
 6207SOL     OW30253   2.603   3.013   9.376 -0.2571 -0.6450 -0.1285
 6207SOL    HW130254   2.639   3.031   9.462 -0.8855 -0.0151  0.0068
 6207SOL    HW230255   2.559   3.096   9.358 -0.7477 -1.2825 -1.8698
 6208SOL     OW30256   3.959   1.269   7.099  0.3606 -0.1798  0.1085
 6208SOL    HW130257   3.922   1.329   7.034 -1.8871 -0.5420  1.0375
 6208SOL    HW230258   4.012   1.327   7.154  1.9437 -1.8153  0.3029
 6209SOL     OW30259   1.344   1.737   8.562  0.1915 -0.1488  0.1260
 6209SOL    HW130260   1.277   1.805   8.571 -0.7502 -1.0820  0.1115
 6209SOL    HW230261   1.414   1.775   8.615 -0.5921  2.6771 -0.8407
 6210SOL     OW30262   4.643   1.086   2.760 -0.4267 -0.2411 -0.1255
 6210SOL    HW130263   4.629   0.994   2.740  1.5962 -0.9686  1.7448
 6210SOL    HW230264   4.647   1.116   2.669  3.2840 -1.7495 -0.4779
 6211SOL     OW30265   1.747   3.384  13.976 -0.0118 -0.1280 -0.2097
 6211SOL    HW130266   1.762   3.300  14.020 -2.0176 -0.1996  0.3702
 6211SOL    HW230267   1.824   3.438  13.992 -0.7553  0.7487  0.3665
 6212SOL     OW30268   4.038   3.005   4.515  0.1901  0.2014 -0.0099
 6212SOL    HW130269   3.985   3.084   4.505 -1.0698 -0.6389 -0.0573
 6212SOL    HW230270   3.970   2.941   4.494 -0.6964  1.5054 -1.0692
 6213SOL     OW30271   4.105   0.785   6.971 -0.1250 -0.1234 -0.3731
 6213SOL    HW130272   4.046   0.853   7.005  0.3781 -0.7437  1.6884
 6213SOL    HW230273   4.095   0.800   6.877  2.6468  0.3699 -0.5909
 6214SOL     OW30274   3.502   4.009   2.734 -0.3477  0.0953 -0.4412
 6214SOL    HW130275   3.497   4.026   2.640 -1.6650 -0.3824 -0.4531
 6214SOL    HW230276   3.467   4.091   2.769  0.6035  0.3965 -0.2024
 6215SOL     OW30277   1.468   0.247   9.286  0.0117  0.2111 -0.2809
 6215SOL    HW130278   1.562   0.240   9.266  0.2069 -0.4941  0.8474
 6215SOL    HW230279   1.430   0.171   9.242  1.1844  0.0050 -0.9360
 6216SOL     OW30280   2.278   4.113   5.951  0.7464 -0.4477  0.1815
 6216SOL    HW130281   2.350   4.174   5.933 -0.8604  0.9745 -1.2983
 6216SOL    HW230282   2.200   4.165   5.967 -0.3212 -1.1787 -2.7873
 6217SOL     OW30283   0.209   4.391  15.982 -0.5102  0.1086 -0.0658
 6217SOL    HW130284   0.141   4.408  15.917 -0.3516  0.0463 -0.2459
 6217SOL    HW230285   0.282   4.428  15.934 -0.6529  2.2580  1.3674
 6218SOL     OW30286   4.577   0.739  10.241 -0.1634  0.0878 -0.6843
 6218SOL    HW130287   4.552   0.714  10.330 -2.7087  1.1588 -1.0939
 6218SOL    HW230288   4.526   0.676  10.191 -0.2259 -0.6492  0.3104
 6219SOL     OW30289   3.699   4.666   2.226  0.4438 -0.5276  0.4530
 6219SOL    HW130290   3.739   0.015   2.209 -0.2870  0.0771  1.7069
 6219SOL    HW230291   3.658   4.688   2.310 -0.1083  2.7277 -0.6788
 6220SOL     OW30292   4.510   2.107   3.778  0.4320 -0.4886 -0.6005
 6220SOL    HW130293   4.566   2.185   3.780 -1.6571  1.0109 -0.6742
 6220SOL    HW230294   4.579   2.045   3.754  0.9136  0.0937 -0.7326
 6221SOL     OW30295   0.050   3.326   5.165  0.0595 -0.2412 -1.3611
 6221SOL    HW130296   0.060   3.387   5.091 -1.1864  1.4534 -0.1132
 6221SOL    HW230297   4.712   3.364   5.212  0.1907 -3.7392  1.6894
 6222SOL     OW30298   1.221   2.215  16.825 -0.0421 -1.0092 -0.6402
 6222SOL    HW130299   1.138   2.172  16.801  0.2720 -1.4592 -0.9222
 6222SOL    HW230300   1.216   2.285  16.760  0.9339  1.5269  2.0438
 6223SOL     OW30301   1.271   2.818   0.821  0.5353  0.1353  0.2446
 6223SOL    HW130302   1.322   2.893   0.853 -1.0747  2.8637 -3.6474
 6223SOL    HW230303   1.333   2.745   0.816 -0.1825 -0.5133  0.8502
 6224SOL     OW30304   4.191   4.354   4.145  0.6028 -0.0606  0.1889
 6224SOL    HW130305   4.184   4.430   4.204 -0.5612 -0.2502  0.2941
 6224SOL    HW230306   4.212   4.285   4.208 -1.1370 -0.1617  0.6736
 6225SOL     OW30307   4.510   4.322   4.197  0.1316 -0.4654  0.0273
 6225SOL    HW130308   4.470   4.261   4.136 -0.7426  0.9157 -0.7771
 6225SOL    HW230309   4.604   4.322   4.178  0.5761  1.5832  2.1969
 6226SOL     OW30310   4.107   2.391   4.801 -0.0995 -0.0846  0.4417
 6226SOL    HW130311   4.056   2.376   4.880  0.0517  1.4345  0.8156
 6226SOL    HW230312   4.048   2.450   4.754 -1.0376 -0.5400  1.0675
 6227SOL     OW30313   1.827   2.519   0.856  0.6363 -0.2737 -0.3744
 6227SOL    HW130314   1.890   2.591   0.851  0.9665 -0.6127 -1.0630
 6227SOL    HW230315   1.778   2.548   0.778  0.8159  2.1062  0.3886
 6228SOL     OW30316   4.174   3.243   7.305  0.1094 -0.0366  0.3482
 6228SOL    HW130317   4.207   3.177   7.244  1.5279  1.4252 -0.4508
 6228SOL    HW230318   4.232   3.316   7.286  0.0581 -0.1242 -0.1436
 6229SOL     OW30319   1.579   4.266   3.190  0.0904  0.3996  0.2927
 6229SOL    HW130320   1.624   4.320   3.125 -0.1130 -0.0560 -0.2334
 6229SOL    HW230321   1.635   4.190   3.203  2.0488  1.9331  0.7121
 6230SOL     OW30322   4.623   0.455   6.552 -0.0827 -0.1886  0.0366
 6230SOL    HW130323   4.699   0.465   6.610 -0.3861 -0.2111  0.4376
 6230SOL    HW230324   4.656   0.440   6.463  2.5700 -1.5491  1.2419
 6231SOL     OW30325   1.841   0.232   4.319  0.0333 -0.3209 -0.0147
 6231SOL    HW130326   1.911   0.196   4.373  0.2663 -1.4585 -1.0930
 6231SOL    HW230327   1.884   0.301   4.268  0.6207 -2.7395 -2.7829
 6232SOL     OW30328   0.072   1.699   5.196 -0.3614 -0.2390 -0.4804
 6232SOL    HW130329   0.069   1.687   5.101  2.2651 -2.6105 -0.2752
 6232SOL    HW230330   0.117   1.781   5.215 -1.5087  0.2242  0.2287
 6233SOL     OW30331   2.226   3.850   4.955  0.4636 -0.2979 -0.1223
 6233SOL    HW130332   2.189   3.899   5.029 -1.5993 -1.7997 -0.1330
 6233SOL    HW230333   2.311   3.894   4.953  0.7563 -0.7986  0.9787
 6234SOL     OW30334   2.000   1.974   2.341  0.3199 -0.7735  0.3973
 6234SOL    HW130335   1.909   1.967   2.369  0.5084  1.2067  1.5443
 6234SOL    HW230336   2.019   2.065   2.367  3.1319 -1.4762  0.7625
 6235SOL     OW30337   2.104   0.694   7.763  0.2313  0.6856 -0.9484
 6235SOL    HW130338   2.170   0.625   7.757 -0.8464 -0.3995 -0.4346
 6235SOL    HW230339   2.024   0.666   7.719  0.7101 -0.7002 -0.9508
 6236SOL     OW30340   3.071   4.430   5.389  0.1051 -0.5474 -0.6076
 6236SOL    HW130341   3.003   4.400   5.329 -0.7621  0.9992 -0.3985
 6236SOL    HW230342   3.141   4.368   5.369  1.2885  0.5290  0.1971
 6237SOL     OW30343   2.696   2.298   2.774  0.2071 -0.1732  0.0081
 6237SOL    HW130344   2.679   2.230   2.709 -0.1526 -0.9161  0.8859
 6237SOL    HW230345   2.760   2.251   2.828  0.6012 -0.9707 -1.1587
 6238SOL     OW30346   4.350   1.844   6.257 -0.2259 -0.2097  0.4474
 6238SOL    HW130347   4.351   1.833   6.162  0.5288 -0.0573  0.4389
 6238SOL    HW230348   4.364   1.752   6.283  1.3335 -0.6621 -2.0063
 6239SOL     OW30349   3.525   3.969   1.935 -0.0590  0.5591 -0.0921
 6239SOL    HW130350   3.473   4.049   1.926 -2.8337 -0.9904  2.2272
 6239SOL    HW230351   3.557   3.963   1.845 -1.1780  0.5644 -0.4916
 6240SOL     OW30352   4.394   1.817  13.846  0.3324  0.1630 -0.0295
 6240SOL    HW130353   4.431   1.894  13.889  0.1445  0.0969  0.2498
 6240SOL    HW230354   4.452   1.800  13.772  0.4742  0.1881  0.0760
 6241SOL     OW30355   0.424   1.176  11.291  0.2426 -0.2879 -0.5865
 6241SOL    HW130356   0.434   1.268  11.266 -0.7461 -0.3737 -1.3187
 6241SOL    HW230357   0.332   1.160  11.271  1.0377 -1.3991 -3.3892
 6242SOL     OW30358   1.009   3.700   2.367 -0.2090  0.2696  0.1218
 6242SOL    HW130359   0.913   3.704   2.374 -0.2331 -0.4527  0.2333
 6242SOL    HW230360   1.024   3.794   2.356  0.9773  0.1164  0.4535
 6243SOL     OW30361   3.994   0.047   6.549  0.3701 -0.3369  0.1833
 6243SOL    HW130362   4.061   4.716   6.538  1.9786  1.7732 -2.6282
 6243SOL    HW230363   4.039   0.124   6.515  0.0952 -0.6507 -0.8756
 6244SOL     OW30364   1.591   2.494   5.369 -0.6857 -0.9079 -0.5024
 6244SOL    HW130365   1.560   2.417   5.417  0.1922 -0.0593  1.4297
 6244SOL    HW230366   1.595   2.464   5.278  1.4655  2.0800 -1.4135
 6245SOL     OW30367   2.879   4.050   8.111 -0.2712 -0.1268  0.2764
 6245SOL    HW130368   2.817   4.086   8.174 -0.7338  2.7786 -1.8119
 6245SOL    HW230369   2.921   4.128   8.075 -0.1626  0.5225  1.8412
 6246SOL     OW30370   4.552   0.768   7.891  0.1213 -0.7932  0.3384
 6246SOL    HW130371   4.598   0.691   7.924 -0.6679 -0.7713  1.4984
 6246SOL    HW230372   4.592   0.842   7.937  1.0093 -1.1166  0.0767
 6247SOL     OW30373   0.296   4.642   6.388 -0.3092 -0.2429  0.3424
 6247SOL    HW130374   0.354   4.649   6.312 -0.8946  0.1096 -0.0654
 6247SOL    HW230375   0.263   4.732   6.386 -2.1664 -0.8523  2.7462
 6248SOL     OW30376   4.465   0.543   2.174  0.4131 -0.6901 -0.5210
 6248SOL    HW130377   4.434   0.627   2.140  1.1156  0.3750  1.4804
 6248SOL    HW230378   4.493   0.503   2.092  0.5183 -1.6477 -0.0083
 6249SOL     OW30379   4.568   1.890  16.158  0.4288 -0.3179 -0.4927
 6249SOL    HW130380   4.495   1.877  16.219  0.4868  1.0684 -0.1445
 6249SOL    HW230381   4.636   1.855  16.217  1.8730 -0.9584 -2.5397
 6250SOL     OW30382   3.755   2.928   5.725  0.1091  0.1488 -0.0499
 6250SOL    HW130383   3.840   2.916   5.765 -0.3395 -1.4210  0.4043
 6250SOL    HW230384   3.695   2.919   5.799 -0.2096  1.3241 -0.1520
 6251SOL     OW30385   1.964   0.947   4.219  0.4652  0.9120  0.5382
 6251SOL    HW130386   2.007   0.878   4.169  0.4627  0.8629  0.6034
 6251SOL    HW230387   2.011   1.023   4.184  1.1378 -0.0151 -0.5676
 6252SOL     OW30388   4.070   0.691   2.252 -0.2694 -0.2251 -0.2131
 6252SOL    HW130389   3.986   0.645   2.249 -1.5665  1.7939  4.7566
 6252SOL    HW230390   4.061   0.730   2.339  0.9523  1.2574 -0.7598
 6253SOL     OW30391   3.466   3.771  16.620  0.0859  0.2227  0.0467
 6253SOL    HW130392   3.512   3.844  16.578  0.2751  0.2232  0.2475
 6253SOL    HW230393   3.375   3.791  16.600 -0.2379  1.1701  2.3967
 6254SOL     OW30394   3.828   1.120   4.602 -0.2047 -0.1167  0.8721
 6254SOL    HW130395   3.864   1.208   4.593 -0.0435  0.0398  2.9323
 6254SOL    HW230396   3.794   1.097   4.515 -3.3630 -2.1838  2.6211
 6255SOL     OW30397   0.089   1.610  14.891  0.6909 -0.1610 -0.8426
 6255SOL    HW130398   0.123   1.526  14.923 -1.1791 -1.2523 -1.7029
 6255SOL    HW230399   0.010   1.593  14.840  0.9202  1.6310 -1.8037
 6256SOL     OW30400   1.790   2.394   2.770  0.3793 -0.3903 -0.3640
 6256SOL    HW130401   1.772   2.395   2.864 -0.4283 -0.3604 -0.5228
 6256SOL    HW230402   1.719   2.455   2.751  1.3039  0.7873 -0.0484
 6257SOL     OW30403   3.551   2.106   2.180  0.6041  0.8185 -0.6135
 6257SOL    HW130404   3.494   2.170   2.137  0.3659  0.0160 -1.4839
 6257SOL    HW230405   3.493   2.033   2.162  2.7223 -0.8764 -0.5601
 6258SOL     OW30406   4.574   0.733   6.542 -0.4685  0.2854  0.2533
 6258SOL    HW130407   4.592   0.748   6.449 -0.5093 -0.4370  0.1265
 6258SOL    HW230408   4.571   0.637   6.540 -1.6726  0.2416  3.8873
 6259SOL     OW30409   0.114   0.603   4.980  0.8795 -0.2749  0.1125
 6259SOL    HW130410   0.073   0.690   4.980  0.6338 -0.3889 -0.4933
 6259SOL    HW230411   0.140   0.579   4.891 -2.5373 -3.0112 -0.1289
 6260SOL     OW30412   0.942   3.255   2.906 -0.6632 -0.2848  0.2241
 6260SOL    HW130413   0.902   3.169   2.917 -2.3409  0.2366 -1.6641
 6260SOL    HW230414   0.992   3.268   2.986 -1.7505 -0.5455  0.9403
 6261SOL     OW30415   0.963   3.119  16.162  1.0098 -0.9001 -0.1684
 6261SOL    HW130416   0.939   3.045  16.218  1.7203 -2.2329 -1.6465
 6261SOL    HW230417   0.972   3.195  16.220 -0.5976 -1.5855  1.0036
 6262SOL     OW30418   1.283   2.063   2.831  0.1109  0.1344  0.6246
 6262SOL    HW130419   1.280   1.988   2.890 -1.2905 -1.1327 -1.0536
 6262SOL    HW230420   1.376   2.074   2.812  0.3284 -0.3157  1.4295
 6263SOL     OW30421   1.844   3.604   3.334  0.3702 -0.0401  0.2227
 6263SOL    HW130422   1.771   3.604   3.272  0.7338 -0.1473 -0.2008
 6263SOL    HW230423   1.867   3.512   3.321  0.8122  0.0437  0.4141
 6264SOL     OW30424   4.230   3.655   4.707  0.0383  0.2227  0.3462
 6264SOL    HW130425   4.321   3.668   4.735  0.4582 -0.2026 -0.8074
 6264SOL    HW230426   4.183   3.721   4.757  2.4159  2.9153 -0.9907
 6265SOL     OW30427   3.844   3.896   2.472 -0.5496 -0.0906 -0.2511
 6265SOL    HW130428   3.809   3.860   2.554  1.0955  0.0819  0.5289
 6265SOL    HW230429   3.933   3.918   2.498 -0.2965  0.2856 -1.4660
 6266SOL     OW30430   4.134   4.061   6.176  0.1616 -0.2356  0.5353
 6266SOL    HW130431   4.086   3.987   6.139  0.5681 -0.6405  0.8182
 6266SOL    HW230432   4.097   4.056   6.265 -2.6836 -0.6556 -0.6795
 6267SOL     OW30433   1.779   1.557   5.864  0.6254  0.5644 -0.3429
 6267SOL    HW130434   1.760   1.473   5.908  1.7403  0.1046 -0.7353
 6267SOL    HW230435   1.688   1.583   5.853  0.1635 -1.3781 -1.1465
 6268SOL     OW30436   3.728   2.008  15.679 -0.1586  0.2545  0.0539
 6268SOL    HW130437   3.811   2.053  15.692  0.5736 -0.3608 -2.3541
 6268SOL    HW230438   3.677   2.007  15.760  1.5684 -0.2176  1.1264
 6269SOL     OW30439   2.428   0.156   2.365 -0.5125  0.7006 -0.1230
 6269SOL    HW130440   2.432   0.161   2.269  0.1126  0.9145 -0.0818
 6269SOL    HW230441   2.493   0.086   2.371  2.3959  3.4134 -0.0513
 6270SOL     OW30442   4.516   1.666   3.483  0.4022  0.0901  0.4356
 6270SOL    HW130443   4.505   1.572   3.467  0.7158 -0.4377  3.4742
 6270SOL    HW230444   4.584   1.690   3.419 -0.4297 -1.3320 -0.9723
 6271SOL     OW30445   3.092   4.603   7.855  0.6632  0.2570 -0.5584
 6271SOL    HW130446   3.092   4.508   7.856  0.1653  0.2596 -0.2534
 6271SOL    HW230447   3.180   4.621   7.822  0.1641  0.7744 -1.6013
 6272SOL     OW30448   3.655   4.443  10.912  0.1964 -0.6266 -0.8869
 6272SOL    HW130449   3.676   4.414  10.823  1.6275  0.2683 -0.8437
 6272SOL    HW230450   3.582   4.500  10.888  1.1917  1.2074  0.4062
 6273SOL     OW30451   1.210   4.077   9.595  0.1702 -0.1300 -0.1289
 6273SOL    HW130452   1.153   4.023   9.651 -1.8657  0.1252 -2.0015
 6273SOL    HW230453   1.245   4.139   9.659 -2.0905  1.3314 -0.3213
 6274SOL     OW30454   0.079   0.649   1.428 -0.0426 -0.6987  0.3275
 6274SOL    HW130455   0.144   0.658   1.498  0.9869 -2.8304 -0.3467
 6274SOL    HW230456   0.038   0.567   1.457 -0.5955  0.0451  1.6147
 6275SOL     OW30457   1.250   2.845  12.258  0.2472 -0.5764 -0.5525
 6275SOL    HW130458   1.204   2.838  12.342 -0.8172  1.6556 -0.9511
 6275SOL    HW230459   1.183   2.878  12.199 -0.5662 -4.0249 -1.5890
 6276SOL     OW30460   2.459   2.360  12.764  0.0025 -0.0663 -0.4172
 6276SOL    HW130461   2.401   2.413  12.710 -2.1397 -0.9870  0.9660
 6276SOL    HW230462   2.545   2.397  12.745  0.7136 -0.8151  1.3629
 6277SOL     OW30463   1.988   0.300  16.114 -0.3590 -0.2294 -0.4693
 6277SOL    HW130464   1.943   0.353  16.048 -0.1581  1.2663  0.5729
 6277SOL    HW230465   2.045   0.369  16.149 -0.0002 -0.7559 -0.0272
 6278SOL     OW30466   2.801   4.575   6.324  0.2914  0.4607  0.1785
 6278SOL    HW130467   2.791   4.648   6.384 -2.5958 -0.5376  0.8913
 6278SOL    HW230468   2.893   4.588   6.299  0.1511  0.2038 -0.4638
 6279SOL     OW30469   3.530   2.678   7.622  0.1846 -0.0160  0.1366
 6279SOL    HW130470   3.572   2.683   7.707 -0.3473 -0.2271  0.4110
 6279SOL    HW230471   3.507   2.769   7.602  2.2849  0.6824  0.9451
 6280SOL     OW30472   3.854   2.268  16.317 -0.0739 -0.2106 -0.2470
 6280SOL    HW130473   3.769   2.278  16.273 -0.9842 -1.0187  1.2830
 6280SOL    HW230474   3.887   2.354  16.340 -0.2572 -0.2169  0.0468
 6281SOL     OW30475   4.227   0.105   4.555 -0.1789 -0.1467 -0.3562
 6281SOL    HW130476   4.232   0.011   4.573  0.7441 -0.1326 -0.5654
 6281SOL    HW230477   4.259   0.115   4.466  0.6862 -2.2879 -0.2998
 6282SOL     OW30478   1.371   1.399   3.321 -0.2849 -0.7838 -0.0977
 6282SOL    HW130479   1.386   1.357   3.236  1.6803 -1.5334  0.6162
 6282SOL    HW230480   1.336   1.332   3.381  3.2784 -3.2740 -0.7429
 6283SOL     OW30481   3.074   3.854   3.183  0.4054  0.0231 -0.3257
 6283SOL    HW130482   2.995   3.854   3.237  0.6886 -0.7663  0.0772
 6283SOL    HW230483   3.034   3.824   3.102  0.9960  1.1548 -1.0360
 6284SOL     OW30484   1.653   4.398  14.066 -0.2516 -0.0164  1.2127
 6284SOL    HW130485   1.678   4.361  14.150  1.1450  1.5025  1.4684
 6284SOL    HW230486   1.579   4.341  14.043 -1.8037  1.5117  2.4710
 6285SOL     OW30487   4.502   2.830   4.797  0.2434  0.1487  0.2601
 6285SOL    HW130488   4.462   2.886   4.863 -1.3740  0.9132 -1.3480
 6285SOL    HW230489   4.476   2.750   4.842 -2.1083 -0.0578 -1.4398
 6286SOL     OW30490   1.378   1.953   2.173  0.2121  0.0025 -0.5200
 6286SOL    HW130491   1.310   2.002   2.127 -1.3247 -2.6270 -1.0545
 6286SOL    HW230492   1.352   1.975   2.262 -0.2552  2.7107 -1.2997
 6287SOL     OW30493   1.790   3.483   8.817  0.3095  0.3990 -0.1344
 6287SOL    HW130494   1.703   3.445   8.829  0.0648  0.5351 -1.4700
 6287SOL    HW230495   1.791   3.562   8.870 -1.8180  0.7096 -0.5761
 6288SOL     OW30496   4.311   0.888   5.597 -0.5886 -0.0141  0.0678
 6288SOL    HW130497   4.281   0.882   5.507 -1.7984 -0.1764  0.4884
 6288SOL    HW230498   4.226   0.871   5.638 -0.5514 -0.8886 -0.2048
 6289SOL     OW30499   4.302   3.016   7.198 -0.2104 -0.3465 -0.0630
 6289SOL    HW130500   4.324   3.002   7.290 -0.7052  2.7742  0.5193
 6289SOL    HW230501   4.327   2.932   7.160  0.1229  0.4800 -1.6345
 6290SOL     OW30502   4.664   1.463   7.438  0.0246 -0.1205  0.3555
 6290SOL    HW130503   0.022   1.457   7.420 -0.1355  0.4945 -0.6974
 6290SOL    HW230504   4.625   1.390   7.391  1.9246  0.1615 -1.7133
 6291SOL     OW30505   4.078   0.851   4.633  0.0155  0.0855 -0.2189
 6291SOL    HW130506   4.082   0.938   4.593  1.2069  0.7609  1.3472
 6291SOL    HW230507   3.990   0.869   4.666  0.8110  3.1458  0.2148
 6292SOL     OW30508   0.052   3.177  12.245 -0.0964  0.2161  0.1773
 6292SOL    HW130509   0.089   3.199  12.159 -1.0498  3.2187  0.5153
 6292SOL    HW230510   4.697   3.163  12.218  0.1129 -1.7854  0.5085
 6293SOL     OW30511   0.199   3.624  13.026 -0.0716  0.2889  0.0073
 6293SOL    HW130512   0.251   3.551  12.992 -0.1103  0.5106 -0.5185
 6293SOL    HW230513   0.151   3.586  13.100 -0.4355  0.5143 -0.1111
 6294SOL     OW30514   0.686   1.411   4.407  0.5105  0.2085 -0.0622
 6294SOL    HW130515   0.725   1.496   4.429  1.7110 -0.3515 -0.0271
 6294SOL    HW230516   0.691   1.370   4.493 -0.7931  2.4255  1.0886
 6295SOL     OW30517   0.200   2.930   6.458 -0.2955 -0.2255 -0.1723
 6295SOL    HW130518   0.105   2.917   6.459 -0.1420 -1.4090 -1.1103
 6295SOL    HW230519   0.201   3.025   6.466 -1.0013 -0.3372  1.2380
 6296SOL     OW30520   0.107   0.855  12.990  0.0715  0.3328 -0.3127
 6296SOL    HW130521   0.196   0.876  13.016 -0.3438 -0.4688  1.7092
 6296SOL    HW230522   0.059   0.858  13.072  0.0534  0.9150 -0.3445
 6297SOL     OW30523   4.497   3.055   8.176 -0.1094 -0.3775 -0.1254
 6297SOL    HW130524   4.473   3.063   8.268 -1.5580  1.7525 -0.6891
 6297SOL    HW230525   4.549   2.976   8.167 -1.9708 -1.3291 -2.7721
 6298SOL     OW30526   4.657   2.952   6.539  0.0947 -0.1907 -0.3066
 6298SOL    HW130527   4.663   2.976   6.631  0.8352  1.5970 -0.8293
 6298SOL    HW230528   4.571   2.983   6.509  0.2390  0.2719 -0.2407
 6299SOL     OW30529   1.221   2.373   8.452 -0.6564 -0.0096 -0.4605
 6299SOL    HW130530   1.239   2.315   8.527 -0.7508  0.7019  0.1136
 6299SOL    HW230531   1.127   2.356   8.445 -0.1803 -2.6819 -0.3420
 6300SOL     OW30532   1.495   2.398   1.673 -0.9139 -0.0828 -0.0361
 6300SOL    HW130533   1.583   2.428   1.694 -0.6775 -0.6087 -0.2877
 6300SOL    HW230534   1.486   2.309   1.707 -1.8394 -0.8900 -2.4255
 6301SOL     OW30535   3.494   0.949  15.844  0.3682 -0.1585  0.3722
 6301SOL    HW130536   3.547   0.990  15.776 -0.2299  1.0940  0.6613
 6301SOL    HW230537   3.434   0.898  15.790  0.4715  0.9755 -0.8089
 6302SOL     OW30538   2.698   1.350   5.445 -0.1900 -0.0081 -0.4137
 6302SOL    HW130539   2.659   1.418   5.391 -1.0942  0.7844  1.2428
 6302SOL    HW230540   2.752   1.303   5.382 -0.4771  0.5584 -1.0690
 6303SOL     OW30541   3.343   4.603   7.986 -0.3500  0.5271 -0.2035
 6303SOL    HW130542   3.318   4.540   8.054  1.9193 -0.1918 -0.0435
 6303SOL    HW230543   3.317   4.683   8.032 -1.2382  1.0987 -1.6789
 6304SOL     OW30544   1.969   1.196   9.607 -0.7945  0.3498  0.2957
 6304SOL    HW130545   1.900   1.132   9.627 -0.8800 -0.1708 -1.7415
 6304SOL    HW230546   1.939   1.236   9.526  2.4169  1.7192 -0.2190
 6305SOL     OW30547   0.252   4.709   6.861  0.8079  0.5670  0.5717
 6305SOL    HW130548   0.334   4.724   6.813  1.1500 -0.0049  0.9755
 6305SOL    HW230549   0.225   4.629   6.816  0.5728  0.6199  0.6200
 6306SOL     OW30550   1.699   3.376   6.725 -0.4185 -0.4991 -0.3331
 6306SOL    HW130551   1.706   3.297   6.671  1.1144 -0.2863 -0.4565
 6306SOL    HW230552   1.778   3.424   6.700  0.1065 -0.3675  1.6030
 6307SOL     OW30553   4.240   2.004   1.710  0.4192 -0.3880  0.1805
 6307SOL    HW130554   4.146   1.993   1.718  0.3102  0.0238 -0.5597
 6307SOL    HW230555   4.269   1.915   1.729 -0.7671 -0.9217 -0.5701
 6308SOL     OW30556   0.426   1.324   4.432  0.7289  0.3172 -0.4247
 6308SOL    HW130557   0.515   1.354   4.411  0.0245  2.8972  0.3728
 6308SOL    HW230558   0.444   1.242   4.385 -2.8876 -0.9524  0.4307
 6309SOL     OW30559   3.740   0.561  11.887  0.0668  0.3263 -0.1190
 6309SOL    HW130560   3.830   0.581  11.912  0.4749 -0.5506 -0.9107
 6309SOL    HW230561   3.697   0.646  11.885 -1.5993 -0.4995  0.7225
 6310SOL     OW30562   4.439   4.438   5.977  0.5590 -0.7305 -0.2119
 6310SOL    HW130563   4.466   4.520   5.934  0.8968 -0.4544  0.5219
 6310SOL    HW230564   4.519   4.407   6.018 -0.5279 -1.0686  1.6201
 6311SOL     OW30565   1.136   3.689  14.117  0.2898  0.2969  0.0170
 6311SOL    HW130566   1.144   3.701  14.212  0.2910  1.9403 -0.1900
 6311SOL    HW230567   1.173   3.603  14.100  1.5118  0.3668  2.2276
 6312SOL     OW30568   1.927   3.724   6.787  0.2137 -0.2989 -0.2238
 6312SOL    HW130569   1.861   3.663   6.753 -2.0660  2.3642 -0.6213
 6312SOL    HW230570   2.005   3.690   6.743 -1.2837 -0.2072 -2.9215
 6313SOL     OW30571   2.074   0.630   8.785 -0.2732 -0.0049  0.7249
 6313SOL    HW130572   2.151   0.653   8.837 -0.2212  2.5886 -0.5002
 6313SOL    HW230573   2.005   0.694   8.804  0.0592  0.6080 -0.1152
 6314SOL     OW30574   4.352   4.163  14.923 -0.4261  0.1486 -0.2155
 6314SOL    HW130575   4.443   4.184  14.900 -0.7478  1.1655 -0.5167
 6314SOL    HW230576   4.361   4.075  14.960  0.8660  0.2887 -0.1731
 6315SOL     OW30577   2.787   1.806  16.968  0.1732 -0.2814  0.2401
 6315SOL    HW130578   2.733   1.776  17.041 -0.6291 -2.9965 -1.4842
 6315SOL    HW230579   2.871   1.814  17.013 -0.5706  2.8062  1.1024
 6316SOL     OW30580   3.633   0.830  11.966 -0.0888  0.1695 -0.0319
 6316SOL    HW130581   3.578   0.833  11.888 -1.6504 -2.2003  0.9801
 6316SOL    HW230582   3.611   0.916  12.003 -0.7868 -0.3750  0.8077
 6317SOL     OW30583   2.835   3.773   7.814  0.1273 -0.1291  0.5179
 6317SOL    HW130584   2.875   3.842   7.762  0.1945 -0.8720 -0.4176
 6317SOL    HW230585   2.864   3.692   7.772  1.8420  1.9146 -2.2050
 6318SOL     OW30586   3.886   4.188   3.393 -0.1580  0.5784 -0.0921
 6318SOL    HW130587   3.852   4.221   3.310 -0.8127 -1.4533 -0.6274
 6318SOL    HW230588   3.930   4.110   3.359 -2.2781 -0.8984  0.5357
 6319SOL     OW30589   0.367   1.589   4.889 -0.1237  0.5726  0.4665
 6319SOL    HW130590   0.361   1.510   4.836  0.9577  1.0129 -0.3087
 6319SOL    HW230591   0.395   1.563   4.977  0.9631  2.5688  0.7027
 6320SOL     OW30592   1.919   3.849   5.592  0.1345  0.0998  0.6938
 6320SOL    HW130593   2.005   3.859   5.552 -0.0245  0.0821  0.3456
 6320SOL    HW230594   1.873   3.816   5.515 -0.2422  0.0334  0.9428
 6321SOL     OW30595   1.632   1.965  17.666 -0.2987 -0.4677  0.1534
 6321SOL    HW130596   1.681   1.917  17.600  2.1858  2.1097  0.1133
 6321SOL    HW230597   1.702   2.011  17.713 -0.9022 -0.1242  0.7269
 6322SOL     OW30598   0.517   2.427   7.410 -0.2626 -0.0097  0.7316
 6322SOL    HW130599   0.451   2.430   7.341  0.6371 -0.2177 -0.1522
 6322SOL    HW230600   0.564   2.349   7.380 -0.0385 -0.4656  2.2919
 6323SOL     OW30601   3.955   2.032   4.402  0.5191 -0.4455 -0.2025
 6323SOL    HW130602   3.910   2.087   4.338 -0.8753  0.3709  1.4561
 6323SOL    HW230603   4.032   2.087   4.412 -0.0234  0.4028 -0.6333
 6324SOL     OW30604   0.711   1.875  10.904 -0.1887 -0.0703 -0.3787
 6324SOL    HW130605   0.690   1.967  10.887 -2.7333 -0.4646  0.6656
 6324SOL    HW230606   0.667   1.852  10.985  0.5343 -0.1071  0.0025
 6325SOL     OW30607   3.826   3.225   7.922 -0.7132  0.5109 -0.0776
 6325SOL    HW130608   3.825   3.171   8.002  0.3940 -0.5826 -0.7938
 6325SOL    HW230609   3.795   3.162   7.857  1.4489 -2.5679  1.8734
 6326SOL     OW30610   1.165   1.419   3.063  0.0888 -0.3723  0.3768
 6326SOL    HW130611   1.227   1.347   3.078  0.1812  0.2986  3.1706
 6326SOL    HW230612   1.172   1.471   3.143 -1.0044  0.1767  0.1016
 6327SOL     OW30613   2.802   1.576   3.546 -0.3731 -0.5819  0.2143
 6327SOL    HW130614   2.873   1.603   3.487 -1.9047  1.1861 -0.8221
 6327SOL    HW230615   2.814   1.642   3.614  0.0023 -0.7545  0.3183
 6328SOL     OW30616   1.454   3.695   6.639 -0.4755 -0.0389 -0.5487
 6328SOL    HW130617   1.414   3.775   6.672 -0.6144 -0.3873  0.1400
 6328SOL    HW230618   1.502   3.672   6.718 -2.6010 -1.6224  0.2912
 6329SOL     OW30619   0.539   3.092   2.476 -0.0981 -0.3004 -0.3933
 6329SOL    HW130620   0.572   3.006   2.449  0.4871 -0.1817 -0.0483
 6329SOL    HW230621   0.489   3.067   2.554 -0.4882 -0.7445 -0.7821
 6330SOL     OW30622   0.526   3.408  15.983  0.0893  0.1302 -0.5029
 6330SOL    HW130623   0.496   3.330  15.937 -0.6080 -0.8657  1.6676
 6330SOL    HW230624   0.605   3.380  16.028  0.9497 -0.3349 -2.2750
 6331SOL     OW30625   0.380   0.765   8.411 -0.1838  0.2304  0.7327
 6331SOL    HW130626   0.308   0.712   8.445  2.3401 -3.6423 -0.0262
 6331SOL    HW230627   0.363   0.765   8.316  1.6342 -0.0275  0.4228
 6332SOL     OW30628   3.432   2.302  10.479  0.1934  0.0002  0.3181
 6332SOL    HW130629   3.430   2.251  10.559  0.5612 -2.7410 -1.3968
 6332SOL    HW230630   3.415   2.228  10.421 -1.2995  1.6101 -1.2949
 6333SOL     OW30631   1.941   2.468  13.588 -0.2470  0.5406  0.5272
 6333SOL    HW130632   1.896   2.528  13.648 -1.6617 -0.0293  0.0243
 6333SOL    HW230633   2.032   2.498  13.589 -0.2752  0.6038  1.5215
 6334SOL     OW30634   4.570   1.881   5.227  0.0679  0.2051  0.1918
 6334SOL    HW130635   4.528   1.967   5.220  0.7766  0.4515 -1.0522
 6334SOL    HW230636   4.520   1.825   5.168  0.4877 -1.0379  1.0119
 6335SOL     OW30637   3.604   4.615   6.264 -0.2356 -0.9067  0.2644
 6335SOL    HW130638   3.589   4.613   6.170 -1.4430 -1.3628  0.4698
 6335SOL    HW230639   3.519   4.656   6.282 -0.7147 -0.2755 -3.3853
 6336SOL     OW30640   4.349   1.900   3.288 -0.3333  0.4345  0.3109
 6336SOL    HW130641   4.372   1.951   3.210 -0.0600 -0.1454  0.0105
 6336SOL    HW230642   4.425   1.908   3.346 -1.2601 -0.6438  1.6573
 6337SOL     OW30643   3.977   2.724   5.372 -0.1089  0.2710 -0.4004
 6337SOL    HW130644   4.016   2.812   5.370 -2.2738  1.2727  1.0637
 6337SOL    HW230645   4.011   2.684   5.292 -0.1907  1.7994 -1.2017
 6338SOL     OW30646   3.066   4.362   7.778  0.0264 -0.6931 -0.4185
 6338SOL    HW130647   2.980   4.360   7.736 -1.3049 -1.8423  2.3467
 6338SOL    HW230648   3.116   4.302   7.723  1.2499  0.2672 -0.3478
 6339SOL     OW30649   0.522   0.816  12.658 -0.4798  0.0481 -0.3055
 6339SOL    HW130650   0.500   0.873  12.731  1.0125 -0.7827  0.7819
 6339SOL    HW230651   0.553   0.741  12.708 -0.9175 -0.4386 -0.7518
 6340SOL     OW30652   0.694   2.200  14.030  0.5741 -0.1201  0.4246
 6340SOL    HW130653   0.678   2.279  14.083 -1.3409 -0.1834 -0.0546
 6340SOL    HW230654   0.640   2.219  13.954  0.6683  0.2006  0.4345
 6341SOL     OW30655   0.414   3.506  10.580 -0.0663  0.0597  0.1939
 6341SOL    HW130656   0.485   3.474  10.525  0.9108  0.3588  1.2912
 6341SOL    HW230657   0.425   3.467  10.667 -0.3821  0.5379  0.4519
 6342SOL     OW30658   3.977   4.428   7.615 -0.0846 -0.4501 -0.2487
 6342SOL    HW130659   4.047   4.397   7.558 -1.1076  0.6260 -2.0914
 6342SOL    HW230660   3.947   4.344   7.651  2.3129 -1.1701  0.0240
 6343SOL     OW30661   3.743   3.673   5.995  0.2597  0.3457 -0.1457
 6343SOL    HW130662   3.789   3.612   5.938 -0.8926  0.2112 -0.9293
 6343SOL    HW230663   3.679   3.719   5.941  1.8304  3.2974  0.5082
 6344SOL     OW30664   3.615   4.047   6.791 -0.4935 -0.4261 -0.3434
 6344SOL    HW130665   3.646   3.957   6.801 -1.7714 -1.1005 -2.5442
 6344SOL    HW230666   3.690   4.105   6.778 -0.5547  0.3411  2.6498
 6345SOL     OW30667   2.172   2.328  17.739 -0.6340  0.6449  0.1271
 6345SOL    HW130668   2.127   2.391  17.683  0.5893 -0.5676 -2.2233
 6345SOL    HW230669   2.223   2.389   0.048  0.9107 -1.5764  1.2434
 6346SOL     OW30670   1.004   2.199   6.652  0.6646 -0.4164  0.1089
 6346SOL    HW130671   0.950   2.135   6.605 -0.7352  0.5975  0.3661
 6346SOL    HW230672   0.991   2.272   6.592 -1.8036  1.7657  3.2816
 6347SOL     OW30673   0.547   0.581   9.418  0.3436  0.6652 -0.3109
 6347SOL    HW130674   0.489   0.626   9.479  2.2924  2.3225  0.3155
 6347SOL    HW230675   0.497   0.587   9.336  0.5817 -1.2314 -0.5869
 6348SOL     OW30676   1.355   0.691  16.630 -0.5758  0.4575  0.2973
 6348SOL    HW130677   1.348   0.626  16.699  0.5995 -0.0019 -0.0152
 6348SOL    HW230678   1.411   0.651  16.563 -1.0617 -1.5971  1.1187
 6349SOL     OW30679   4.691   3.216   6.038  0.2920 -0.7192  0.0242
 6349SOL    HW130680   4.694   3.200   6.133  0.1498  0.5972  0.2475
 6349SOL    HW230681   0.029   3.272   6.018 -1.7720  1.4848 -1.4697
 6350SOL     OW30682   3.264   4.248   5.304  0.0533 -0.2114 -0.2004
 6350SOL    HW130683   3.250   4.238   5.210  1.0824 -0.3977 -0.3268
 6350SOL    HW230684   3.278   4.156   5.327 -0.0541 -0.8783 -2.7685
 6351SOL     OW30685   4.460   1.709   8.019 -0.1022 -0.0120  0.4086
 6351SOL    HW130686   4.490   1.800   8.010 -0.9227  0.2787  0.5031
 6351SOL    HW230687   4.387   1.706   7.956  0.3927 -0.9806 -0.1208
 6352SOL     OW30688   1.110   3.265   2.686  0.4230  0.6007 -0.1706
 6352SOL    HW130689   1.041   3.274   2.621  1.2061 -1.2811 -1.2799
 6352SOL    HW230690   1.058   3.268   2.766 -0.5871 -0.6974 -0.7945
 6353SOL     OW30691   1.871   0.369  11.333 -0.1989 -0.1397 -0.3694
 6353SOL    HW130692   1.867   0.286  11.286 -1.0517  0.6019 -1.6069
 6353SOL    HW230693   1.815   0.353  11.410  0.6984  1.7398  0.6968
 6354SOL     OW30694   3.300   1.639   2.309  0.3686 -0.2751 -0.7301
 6354SOL    HW130695   3.217   1.654   2.265  0.7254  0.5487 -1.1179
 6354SOL    HW230696   3.279   1.667   2.398  0.5090 -0.2613 -0.7003
 6355SOL     OW30697   4.292   0.320   5.124 -0.7526  0.1072 -0.3778
 6355SOL    HW130698   4.353   0.251   5.151  0.1175  0.9171 -0.2961
 6355SOL    HW230699   4.286   0.311   5.028  0.0205 -0.7798 -0.3406
 6356SOL     OW30700   3.080   3.631   2.231 -0.0292  0.5171  0.4605
 6356SOL    HW130701   3.007   3.685   2.260 -1.1119 -1.4650  1.3991
 6356SOL    HW230702   3.119   3.688   2.164 -0.6905 -0.1983 -0.5384
 6357SOL     OW30703   3.397   0.395   7.930 -0.7059  0.4578 -0.1780
 6357SOL    HW130704   3.324   0.375   7.988 -0.0549 -0.6480  0.2724
 6357SOL    HW230705   3.471   0.368   7.985  0.2808  3.0432 -0.2648
 6358SOL     OW30706   1.297   4.257   7.048 -0.3661  0.0686 -0.1085
 6358SOL    HW130707   1.275   4.164   7.050  0.5181 -0.1918 -2.1707
 6358SOL    HW230708   1.253   4.283   7.129  0.1983  1.1437 -0.1371
 6359SOL     OW30709   3.494   0.873  17.451 -0.3296 -0.0950 -0.2460
 6359SOL    HW130710   3.416   0.899  17.403  0.2180  1.1054 -0.4986
 6359SOL    HW230711   3.559   0.865  17.381 -0.9548 -1.3866 -0.6683
 6360SOL     OW30712   3.112   3.496  14.948 -0.2189 -0.1197  0.1975
 6360SOL    HW130713   3.181   3.483  14.884  0.2698 -1.4815  1.0163
 6360SOL    HW230714   3.128   3.589  14.967 -0.5323 -0.2253  0.9888
 6361SOL     OW30715   0.110   1.141   3.103  0.2349 -0.0145 -0.2615
 6361SOL    HW130716   0.074   1.077   3.165  1.9685 -0.3253  0.4316
 6361SOL    HW230717   0.164   1.185   3.169  1.5502  1.4685 -2.3461
 6362SOL     OW30718   2.168   2.950   8.688 -0.1715 -0.5463 -0.4560
 6362SOL    HW130719   2.170   3.029   8.741  0.5732  1.5433 -3.5836
 6362SOL    HW230720   2.074   2.934   8.688 -0.2069 -0.2182  2.1793
 6363SOL     OW30721   0.124   2.311   7.414 -0.2182  0.2120  0.1336
 6363SOL    HW130722   0.035   2.341   7.432 -0.0418  1.7110 -1.5858
 6363SOL    HW230723   0.156   2.375   7.351  2.1245  0.4182  1.5418
 6364SOL     OW30724   2.188   3.851   9.431  0.3869  0.5725  0.3936
 6364SOL    HW130725   2.197   3.784   9.364 -1.0295 -0.5245  1.2789
 6364SOL    HW230726   2.096   3.877   9.437  0.0801 -0.2016 -1.0397
 6365SOL     OW30727   1.429   1.930   7.634  0.3226  0.2041 -0.3865
 6365SOL    HW130728   1.455   1.861   7.695  0.2653  0.9710  0.5058
 6365SOL    HW230729   1.445   1.887   7.550 -3.8970  1.2387 -1.7257
 6366SOL     OW30730   0.278   4.497   3.353 -0.3806  0.4878  0.2637
 6366SOL    HW130731   0.357   4.524   3.305  0.3411 -2.2127 -0.0497
 6366SOL    HW230732   0.237   4.431   3.298 -0.2149 -1.0032  1.9269
 6367SOL     OW30733   0.963   2.799   7.164  0.0007 -1.1964  0.1757
 6367SOL    HW130734   0.944   2.887   7.198 -1.9687 -1.6642  0.3118
 6367SOL    HW230735   0.896   2.777   7.098  0.4148  4.2345 -2.0747
 6368SOL     OW30736   1.779   4.305   8.695  0.7899 -0.4964  0.4402
 6368SOL    HW130737   1.713   4.332   8.758 -1.4396 -1.7451 -1.3374
 6368SOL    HW230738   1.858   4.348   8.726  1.2837  0.0285 -1.5500
 6369SOL     OW30739   1.849   1.502  12.100 -1.0202 -0.2952  0.0960
 6369SOL    HW130740   1.804   1.519  12.017  0.5584  0.5369 -0.6027
 6369SOL    HW230741   1.932   1.550  12.089 -0.6384 -0.7023  1.1682
 6370SOL     OW30742   4.439   2.901   4.152  0.3117  0.1124  0.3533
 6370SOL    HW130743   4.374   2.841   4.115 -0.0581 -0.2405  1.5723
 6370SOL    HW230744   4.382   2.961   4.199 -1.1886 -0.3521 -0.8870
 6371SOL     OW30745   2.930   4.063   1.367  0.2792 -0.4800 -0.2498
 6371SOL    HW130746   3.014   4.078   1.324 -0.3244  2.4113 -0.3715
 6371SOL    HW230747   2.947   4.099   1.454 -0.9726 -0.3023 -0.0727
 6372SOL     OW30748   4.606   0.676   3.414 -0.3801  0.4083 -0.0726
 6372SOL    HW130749   4.605   0.662   3.319 -0.7354  0.1958 -0.0369
 6372SOL    HW230750   4.676   0.615   3.436 -2.1003 -1.1766  0.9583
 6373SOL     OW30751   0.151   0.830   9.210  0.1679 -0.2050  0.0625
 6373SOL    HW130752   0.121   0.742   9.187  1.1624 -0.8762  1.3532
 6373SOL    HW230753   0.106   0.847   9.293 -0.5328 -1.6730 -0.0157
 6374SOL     OW30754   3.082   2.076   8.455  0.2870 -0.0632  0.2654
 6374SOL    HW130755   3.091   2.170   8.438 -1.5655  0.3028  1.3106
 6374SOL    HW230756   3.024   2.054   8.382  1.9680 -2.6049 -0.2832
 6375SOL     OW30757   0.063   2.460   0.221 -0.1945  0.6999 -0.6099
 6375SOL    HW130758   4.705   2.443   0.217 -0.5920  2.8246 -0.2236
 6375SOL    HW230759   0.088   2.522   0.153  2.0275  1.0110  0.4595
 6376SOL     OW30760   1.627   0.682   8.586  0.3771  0.1402  0.1456
 6376SOL    HW130761   1.649   0.768   8.621  1.0293  0.2167 -0.4577
 6376SOL    HW230762   1.622   0.626   8.664  1.7186  1.0401  0.8751
 6377SOL     OW30763   0.236   1.791   8.474  0.1210  0.0016  0.1069
 6377SOL    HW130764   0.209   1.743   8.396 -0.1006 -0.7850  0.6668
 6377SOL    HW230765   0.201   1.737   8.544  2.9669 -0.7690  0.9398
 6378SOL     OW30766   1.993   3.296   7.591 -0.3763  0.5220  0.1375
 6378SOL    HW130767   1.916   3.270   7.641 -0.5608  1.5609  0.4018
 6378SOL    HW230768   1.962   3.299   7.501 -1.7218 -1.3913  0.5367
 6379SOL     OW30769   3.077   0.296   0.753  0.0883 -0.1616 -0.0098
 6379SOL    HW130770   3.074   0.390   0.772  0.9678 -0.4474  1.5187
 6379SOL    HW230771   3.107   0.313   0.664  0.4790  1.4493  0.4129
 6380SOL     OW30772   1.809   4.468  12.203 -0.0311 -0.5965  0.4803
 6380SOL    HW130773   1.766   4.552  12.215  2.3995  0.8725 -1.0170
 6380SOL    HW230774   1.825   4.437  12.292  0.2409 -1.4896  0.1304
 6381SOL     OW30775   0.890   0.958  12.117  0.0970  0.2909  0.2937
 6381SOL    HW130776   0.907   0.909  12.197  1.0520 -1.2200 -0.8410
 6381SOL    HW230777   0.895   1.049  12.146 -1.9007 -0.0613  1.7574
 6382SOL     OW30778   1.387   4.114   4.713  0.5865  0.0283  0.5107
 6382SOL    HW130779   1.311   4.063   4.740  0.3479 -0.5131 -1.1805
 6382SOL    HW230780   1.359   4.197   4.753 -0.4807  0.1830 -0.5692
 6383SOL     OW30781   2.172   1.156   9.313 -0.1146  0.0653 -0.4163
 6383SOL    HW130782   2.141   1.095   9.245  0.1031  1.0447 -1.3856
 6383SOL    HW230783   2.232   1.089   9.346  2.3239  3.2090  1.4411
 6384SOL     OW30784   0.260   2.104   2.324 -0.3002  0.3893 -0.0943
 6384SOL    HW130785   0.189   2.113   2.260 -0.1006 -0.1150 -0.3875
 6384SOL    HW230786   0.267   2.194   2.355  0.4993  0.0957  0.5722
 6385SOL     OW30787   3.964   0.712  16.303 -0.1792 -0.2716 -0.7046
 6385SOL    HW130788   4.054   0.717  16.272  0.9972 -0.2460  2.8061
 6385SOL    HW230789   3.975   0.742  16.393  1.7525 -2.1292 -0.3373
 6386SOL     OW30790   0.960   2.325   6.229  0.2010  0.1501 -0.0424
 6386SOL    HW130791   0.888   2.262   6.222  0.4308 -0.0141 -0.9102
 6386SOL    HW230792   0.954   2.353   6.321  1.0914 -1.5401  0.5350
 6387SOL     OW30793   2.291   3.892   1.552  0.1468  0.0801  0.6381
 6387SOL    HW130794   2.369   3.908   1.499 -0.8234  3.4450  0.2075
 6387SOL    HW230795   2.317   3.810   1.593  2.9823  0.7753  0.2043
 6388SOL     OW30796   0.451   0.714   5.502 -0.1683  0.1792 -0.1595
 6388SOL    HW130797   0.464   0.630   5.457 -4.0417  0.4087 -1.6512
 6388SOL    HW230798   0.384   0.761   5.453  0.5190 -0.7237 -1.9734
 6389SOL     OW30799   2.092   2.295   3.325 -0.3823 -0.3433 -0.2184
 6389SOL    HW130800   2.090   2.289   3.420  3.1215  1.7567  0.0141
 6389SOL    HW230801   2.026   2.227   3.313 -0.1079 -0.9966  2.0931
 6390SOL     OW30802   3.267   3.748   8.030  0.6354  0.2396 -0.1039
 6390SOL    HW130803   3.352   3.764   8.069  0.1526  3.2479 -0.2737
 6390SOL    HW230804   3.260   3.829   7.979  1.9200  0.4982  0.1410
 6391SOL     OW30805   2.336   2.955   0.687 -0.1037 -0.6150 -0.3689
 6391SOL    HW130806   2.383   2.931   0.607 -1.9587 -0.4950 -1.4982
 6391SOL    HW230807   2.411   3.002   0.724  1.8516 -3.5865 -0.5885
 6392SOL     OW30808   0.136   2.794  14.668 -0.0235  0.5463  0.1946
 6392SOL    HW130809   0.062   2.793  14.729  0.1147  1.9991  0.3879
 6392SOL    HW230810   0.185   2.716  14.695  1.0165  0.5436 -1.7186
 6393SOL     OW30811   3.420   1.860   6.851 -0.4281  0.1757 -0.1359
 6393SOL    HW130812   3.467   1.891   6.928 -0.5197 -0.3171  0.1196
 6393SOL    HW230813   3.461   1.773   6.851 -0.1779  0.2576 -3.4340
 6394SOL     OW30814   2.350   4.636   4.821 -0.6107  0.2394 -0.4996
 6394SOL    HW130815   2.304   4.612   4.901 -0.1668 -2.4724 -1.0556
 6394SOL    HW230816   2.300   4.580   4.762 -1.0298 -0.7703  0.8227
 6395SOL     OW30817   3.755   0.013   4.422 -0.3200 -0.2762  0.3855
 6395SOL    HW130818   3.760   0.108   4.432 -2.5195 -0.2108  0.7752
 6395SOL    HW230819   3.847   4.725   4.430 -0.6968 -0.3815  4.4650
 6396SOL     OW30820   3.670   3.683   4.406 -0.0541  0.3552 -0.4989
 6396SOL    HW130821   3.756   3.724   4.413 -0.0076 -0.1109  1.5348
 6396SOL    HW230822   3.605   3.748   4.379  0.5767  0.4958 -1.6812
 6397SOL     OW30823   1.464   2.159   6.817  0.3032 -0.1014 -0.4402
 6397SOL    HW130824   1.460   2.197   6.904  1.3467  0.7978 -0.7796
 6397SOL    HW230825   1.376   2.128   6.796  0.3018  0.1799 -0.8486
 6398SOL     OW30826   0.656   2.660   3.679 -0.5212  0.1194  0.0310
 6398SOL    HW130827   0.637   2.568   3.694  0.3991 -0.0842 -0.0443
 6398SOL    HW230828   0.587   2.682   3.617 -1.7846  0.3029  1.5174
 6399SOL     OW30829   2.064   2.349   6.150 -0.3155  0.1313  0.5978
 6399SOL    HW130830   2.042   2.256   6.147 -0.2694  0.1640 -0.7865
 6399SOL    HW230831   2.078   2.376   6.241 -0.5621 -1.0177  0.9758
 6400SOL     OW30832   3.815   1.669  10.240  0.3900  0.4468 -0.0029
 6400SOL    HW130833   3.902   1.709  10.242  0.8170 -0.4204 -1.1038
 6400SOL    HW230834   3.763   1.700  10.167  1.8380  0.0737 -1.1885
 6401SOL     OW30835   0.942   3.968   2.690  0.9367 -0.2794 -0.3199
 6401SOL    HW130836   0.850   3.960   2.666  0.2033 -1.4137  2.9870
 6401SOL    HW230837   0.961   3.895   2.748 -0.6069  0.7724  1.5067
 6402SOL     OW30838   3.603   1.022  11.138 -0.2623 -0.1911  0.2484
 6402SOL    HW130839   3.687   0.979  11.120  0.4813  0.6553  1.6575
 6402SOL    HW230840   3.624   1.104  11.093 -0.4684  0.3238  1.0909
 6403SOL     OW30841   2.895   0.588   1.475 -0.3229  0.1323  0.6538
 6403SOL    HW130842   2.921   0.504   1.513 -1.5013 -0.8632 -0.7546
 6403SOL    HW230843   2.804   0.601   1.501 -0.7576 -1.8750  0.0853
 6404SOL     OW30844   0.768   2.773   9.497 -0.0068  0.0367  0.1903
 6404SOL    HW130845   0.832   2.843   9.511  0.0145 -0.0428  0.4889
 6404SOL    HW230846   0.699   2.824   9.455 -0.6515  0.7518  2.1073
 6405SOL     OW30847   0.309   3.584  12.705 -0.4336  0.1401 -0.0157
 6405SOL    HW130848   0.361   3.640  12.763 -1.5128 -0.0262  1.1037
 6405SOL    HW230849   0.224   3.616  12.734 -1.0444 -0.7642 -0.8311
 6406SOL     OW30850   2.917   1.501   8.994  0.2696  0.7085 -0.2473
 6406SOL    HW130851   2.994   1.525   9.046  1.0863  0.0865 -1.1528
 6406SOL    HW230852   2.891   1.437   9.060 -0.2122 -0.6136 -1.7172
 6407SOL     OW30853   0.996   0.824  14.012 -0.1339  0.0242  0.2261
 6407SOL    HW130854   1.018   0.802  14.102 -2.6525 -3.1671  0.0455
 6407SOL    HW230855   1.008   0.919  14.024 -2.2739  0.4789 -1.2536
 6408SOL     OW30856   0.616   1.132   9.027  0.0130 -0.3778 -0.0165
 6408SOL    HW130857   0.568   1.185   8.963  1.4086  0.5226 -0.3228
 6408SOL    HW230858   0.544   1.117   9.089 -0.3665 -1.0667 -0.6302
 6409SOL     OW30859   0.461   3.056  17.672 -0.0597 -0.0684 -0.3674
 6409SOL    HW130860   0.507   3.108  17.739 -1.6927  2.8946 -1.5373
 6409SOL    HW230861   0.531   3.028  17.613 -0.6071  0.7204 -1.4023
 6410SOL     OW30862   1.502   0.547   8.098  0.4259  0.1193  0.2631
 6410SOL    HW130863   1.411   0.517   8.102  0.5380 -0.4993 -1.5941
 6410SOL    HW230864   1.526   0.557   8.190 -0.1606  0.5590  0.3643
 6411SOL     OW30865   4.054   4.532   5.945  0.2327  0.3263 -0.1492
 6411SOL    HW130866   4.092   4.571   6.024  0.3624 -0.6094  0.2440
 6411SOL    HW230867   4.102   4.449   5.943 -0.0987  0.1375 -0.1283
 6412SOL     OW30868   3.192   2.538   7.002 -0.3452  0.2804 -0.5827
 6412SOL    HW130869   3.175   2.500   6.916  1.8271  2.2313 -1.8547
 6412SOL    HW230870   3.287   2.550   7.002 -0.4029  0.7511 -0.5048
 6413SOL     OW30871   0.506   3.317   4.544 -0.1850  0.3215  0.9244
 6413SOL    HW130872   0.430   3.351   4.592 -2.6687 -1.2691 -1.8706
 6413SOL    HW230873   0.516   3.379   4.472 -1.9247 -3.0663 -2.2624
 6414SOL     OW30874   4.456   1.109   2.960  0.4575  0.1566  0.1330
 6414SOL    HW130875   4.426   1.200   2.955 -1.3495 -0.5997 -3.0273
 6414SOL    HW230876   4.527   1.104   2.896  1.1808 -2.2850  1.1564
 6415SOL     OW30877   3.471   2.155  10.698 -0.4478  0.5818  0.3456
 6415SOL    HW130878   3.453   2.061  10.694 -0.9515  0.7254 -0.6348
 6415SOL    HW230879   3.508   2.159  10.786  2.3411 -1.4789 -0.7194
 6416SOL     OW30880   1.460   0.926   2.401  0.0615 -0.0757  0.0336
 6416SOL    HW130881   1.392   0.911   2.336 -1.5913  1.2403  1.4460
 6416SOL    HW230882   1.404   0.937   2.478 -0.4574  0.8910 -0.4800
 6417SOL     OW30883   0.555   3.123   0.478  0.1421  0.0192  0.3900
 6417SOL    HW130884   0.496   3.188   0.516 -1.8765 -2.2031  1.0508
 6417SOL    HW230885   0.501   3.044   0.479 -0.2993  0.2492 -2.4992
 6418SOL     OW30886   0.282   0.819   3.000 -0.1971  0.3218  0.0023
 6418SOL    HW130887   0.218   0.754   3.030  1.7818 -1.2849  0.7430
 6418SOL    HW230888   0.322   0.853   3.080  0.9526  0.3016 -0.5612
 6419SOL     OW30889   0.769   0.693  13.951  0.1285 -0.3070 -0.0320
 6419SOL    HW130890   0.776   0.636  14.027 -2.8696 -1.0614 -0.3146
 6419SOL    HW230891   0.852   0.740  13.948  1.2198 -2.3066 -0.9883
 6420SOL     OW30892   2.166   2.234   7.826  0.3742 -0.8380 -0.0823
 6420SOL    HW130893   2.075   2.219   7.802  0.5070 -0.9754 -0.5031
 6420SOL    HW230894   2.207   2.194   7.749 -0.0820  0.1179 -0.8226
 6421SOL     OW30895   2.604   3.652   8.551 -0.3950  0.2672  0.1037
 6421SOL    HW130896   2.659   3.730   8.552  1.5168 -1.0811 -0.7107
 6421SOL    HW230897   2.530   3.691   8.505 -0.7095 -1.6775 -1.0364
 6422SOL     OW30898   1.501   0.540   4.653 -0.1726 -0.4414 -0.0356
 6422SOL    HW130899   1.566   0.591   4.604 -0.4294 -0.2001 -0.1231
 6422SOL    HW230900   1.559   0.472   4.686 -1.2620 -1.7253 -0.7642
 6423SOL     OW30901   0.432   2.371   8.063 -0.0401  0.1781 -0.4008
 6423SOL    HW130902   0.401   2.461   8.066  1.2550  0.7224 -3.1565
 6423SOL    HW230903   0.519   2.375   8.102  0.0700 -0.2156 -0.6077
 6424SOL     OW30904   4.426   1.731   5.065  0.1887 -0.3215  0.8991
 6424SOL    HW130905   4.339   1.702   5.093 -0.1620 -0.3014 -0.1844
 6424SOL    HW230906   4.408   1.793   4.995 -0.4197 -1.2282  0.2448
 6425SOL     OW30907   0.236   3.256   2.745 -0.4740  0.2203  0.1542
 6425SOL    HW130908   0.251   3.204   2.824 -0.2323  0.6790  0.4067
 6425SOL    HW230909   0.275   3.342   2.762 -2.7959  1.6305 -1.6004
 6426SOL     OW30910   1.828   2.745   5.356  0.4077 -0.2439 -0.6923
 6426SOL    HW130911   1.922   2.741   5.372 -0.0006 -0.4617  1.7865
 6426SOL    HW230912   1.792   2.656   5.357  1.2111 -0.5742 -1.5351
 6427SOL     OW30913   3.239   4.489  17.035  0.1253  0.0930 -0.6987
 6427SOL    HW130914   3.251   4.550  16.962 -1.1830  1.3645  0.1623
 6427SOL    HW230915   3.198   4.416  16.989  1.1511 -1.7831  1.3702
 6428SOL     OW30916   2.276   0.018   4.233 -0.6897 -0.0593  0.3701
 6428SOL    HW130917   2.356   0.061   4.266 -0.4953  0.5071 -0.8688
 6428SOL    HW230918   2.265   4.679   4.291 -0.2055  0.2860  0.9183
 6429SOL     OW30919   3.237   0.708   4.268 -1.0512 -0.0025 -0.2727
 6429SOL    HW130920   3.269   0.795   4.292 -0.2866 -0.4858  0.4922
 6429SOL    HW230921   3.285   0.690   4.187 -1.1301  1.8140 -0.7331
 6430SOL     OW30922   2.094   0.292   9.371 -0.0704  0.0566  0.0239
 6430SOL    HW130923   2.073   0.229   9.440  0.5132  0.5655  0.6701
 6430SOL    HW230924   2.181   0.318   9.400 -0.1430 -0.3622  0.6308
 6431SOL     OW30925   1.422   3.139   8.513  0.1236  0.1767  0.1276
 6431SOL    HW130926   1.366   3.153   8.436 -0.2844  0.4448  0.4688
 6431SOL    HW230927   1.431   3.044   8.504  2.3174  0.2059  2.1029
 6432SOL     OW30928   0.298   0.890   6.328  0.1790 -0.8976  0.2853
 6432SOL    HW130929   0.272   0.798   6.341 -2.1770 -0.1425  0.9418
 6432SOL    HW230930   0.225   0.928   6.279  0.0184  0.8187  1.8522
 6433SOL     OW30931   2.252   4.713   1.582 -0.0144  0.1576 -0.2877
 6433SOL    HW130932   2.174   4.690   1.633 -0.4124  0.5826 -0.6984
 6433SOL    HW230933   2.271   0.065   1.614 -0.6122 -0.2321  1.1590
 6434SOL     OW30934   4.522   4.240  14.526 -0.1915 -0.2052  0.5681
 6434SOL    HW130935   4.616   4.233  14.514 -0.5126 -3.4323 -0.2716
 6434SOL    HW230936   4.498   4.160  14.573 -2.4699  1.3361  2.0436
 6435SOL     OW30937   4.503   3.501   4.384  0.2472  0.6942  0.6169
 6435SOL    HW130938   4.584   3.463   4.418 -0.0690 -0.6178 -0.0722
 6435SOL    HW230939   4.434   3.438   4.406  2.5052 -1.1850  2.3985
 6436SOL     OW30940   4.147   4.575   6.819 -0.2146  0.4229 -1.0828
 6436SOL    HW130941   4.057   4.608   6.826  0.8896  3.2263  0.0633
 6436SOL    HW230942   4.176   4.556   6.908 -0.7689 -0.3891 -1.0783
 6437SOL     OW30943   1.447   1.698  15.409 -0.1272 -0.2882  0.6548
 6437SOL    HW130944   1.523   1.737  15.452 -1.2702  1.6375  0.9135
 6437SOL    HW230945   1.482   1.692  15.320  0.3769  0.8412  0.7649
 6438SOL     OW30946   0.634   2.226   2.487  0.7319  0.6417 -0.0989
 6438SOL    HW130947   0.549   2.198   2.520 -0.7042  1.1451 -3.3786
 6438SOL    HW230948   0.687   2.197   2.561  0.5826  2.8528  0.8460
 6439SOL     OW30949   1.739   3.157   5.058  0.4388  0.1254  0.6832
 6439SOL    HW130950   1.811   3.213   5.086  0.9996  0.0250 -0.5423
 6439SOL    HW230951   1.743   3.091   5.128  0.7937  2.0537  2.4831
 6440SOL     OW30952   3.257   2.746   7.275  0.1732 -0.4759 -0.1379
 6440SOL    HW130953   3.223   2.750   7.365  0.6849  0.6830  0.0044
 6440SOL    HW230954   3.175   2.745   7.226  0.3596  1.6423 -0.5372
 6441SOL     OW30955   2.414   0.082   9.966  0.1295 -0.4107 -0.1417
 6441SOL    HW130956   2.478   0.132  10.017 -0.6977  0.9006 -0.3743
 6441SOL    HW230957   2.367   0.037  10.036 -1.1934 -1.3594 -1.6286
 6442SOL     OW30958   1.925   0.077   7.255  0.8108 -0.1493  0.6947
 6442SOL    HW130959   1.962   0.010   7.198 -0.3218 -0.8117  0.7371
 6442SOL    HW230960   1.898   0.038   7.339  0.9252  3.7190  2.5480
 6443SOL     OW30961   4.313   1.136   6.938 -0.3133 -0.1130 -0.0971
 6443SOL    HW130962   4.336   1.065   6.998 -1.0274 -0.8299 -0.6528
 6443SOL    HW230963   4.385   1.195   6.958 -0.3303 -0.5937  1.3317
 6444SOL     OW30964   4.176   4.317   5.096 -0.4337  0.4341 -0.1790
 6444SOL    HW130965   4.174   4.388   5.031 -0.8219  1.2410  0.7142
 6444SOL    HW230966   4.263   4.333   5.133 -0.9408  2.4650  0.1276
 6445SOL     OW30967   0.035   1.417   6.307  0.0061  1.0214 -0.2362
 6445SOL    HW130968   4.683   1.380   6.314  0.4000  0.3101  0.9643
 6445SOL    HW230969   0.034   1.466   6.389  0.0286  0.1915  0.2633
 6446SOL     OW30970   3.366   3.232   5.911 -0.1538  0.1178 -0.0202
 6446SOL    HW130971   3.457   3.204   5.914 -0.9435 -2.6718 -2.9463
 6446SOL    HW230972   3.314   3.153   5.925 -1.9505  1.4681  0.9500
 6447SOL     OW30973   4.227   2.348  14.743  0.2465 -0.3965 -0.5822
 6447SOL    HW130974   4.169   2.304  14.805  3.2276 -1.3713  1.5383
 6447SOL    HW230975   4.243   2.273  14.686  2.1508  0.9764 -1.8473
 6448SOL     OW30976   4.081   1.949   3.426 -0.0690  0.5574  0.1660
 6448SOL    HW130977   4.133   1.973   3.503  1.8610 -1.2969 -0.5598
 6448SOL    HW230978   4.149   1.901   3.378 -0.8905 -1.4700  1.0154
 6449SOL     OW30979   4.477   2.772   7.905  0.5033  0.0079 -0.5431
 6449SOL    HW130980   4.436   2.686   7.891  1.1483 -0.7118  1.9524
 6449SOL    HW230981   4.467   2.797   7.997  0.2599 -0.7547 -0.3616
 6450SOL     OW30982   0.284   1.599   9.683  0.2950  0.8708  0.4861
 6450SOL    HW130983   0.367   1.553   9.697  0.9173  1.7364 -0.3702
 6450SOL    HW230984   0.247   1.605   9.771  0.3050 -2.9191  0.7830
 6451SOL     OW30985   1.136   0.179   7.262  0.3378  0.4202 -0.0746
 6451SOL    HW130986   1.080   0.151   7.334  0.9947  1.0004  0.6511
 6451SOL    HW230987   1.225   0.173   7.296  0.5919 -0.6250 -0.9127
 6452SOL     OW30988   3.276   2.126   2.652  0.4936  0.3430 -0.1388
 6452SOL    HW130989   3.294   2.190   2.721 -0.3228 -2.0746  2.2646
 6452SOL    HW230990   3.363   2.085   2.645 -0.5227 -1.8791  0.3677
 6453SOL     OW30991   0.838   4.366  13.701 -0.3026 -0.3668 -0.2247
 6453SOL    HW130992   0.848   4.388  13.608 -1.2632  1.7705  0.1981
 6453SOL    HW230993   0.913   4.414  13.736  0.7573 -2.2557  0.1298
 6454SOL     OW30994   1.619   3.366  13.149 -0.4725  0.0010 -0.6953
 6454SOL    HW130995   1.699   3.317  13.165 -0.4895 -0.6279 -2.5218
 6454SOL    HW230996   1.665   3.450  13.140 -0.2952  0.0401  0.6116
 6455SOL     OW30997   2.807   0.480   9.688 -0.3472  0.6352 -0.0019
 6455SOL    HW130998   2.897   0.510   9.673 -0.7667  0.3206 -3.1497
 6455SOL    HW230999   2.770   0.471   9.600 -2.7145  2.5865  0.7929
 6456SOL     OW31000   2.781   2.350   2.336 -0.1142 -0.6205 -0.3359
 6456SOL    HW131001   2.742   2.288   2.275  0.4569 -0.3603 -0.9638
 6456SOL    HW231002   2.744   2.431   2.299 -1.7465 -1.2192 -0.0221
 6457SOL     OW31003   3.000   3.686   8.626 -0.7095  0.4490 -0.1145
 6457SOL    HW131004   2.935   3.731   8.573  0.7342  1.0549 -1.3847
 6457SOL    HW231005   2.944   3.622   8.669  1.4514 -1.5178 -0.2132
 6458SOL     OW31006   2.929   2.747  12.496 -0.0275 -0.4077 -0.5966
 6458SOL    HW131007   2.969   2.790  12.420 -1.0128 -0.7680 -1.3234
 6458SOL    HW231008   3.003   2.693  12.523 -0.6995 -0.3006  1.5042
 6459SOL     OW31009   2.304   1.349   6.303  0.6103  0.2257  0.6670
 6459SOL    HW131010   2.219   1.325   6.340 -0.2731 -0.4788 -1.8516
 6459SOL    HW231011   2.283   1.442   6.303 -0.9867 -0.1251  2.3430
 6460SOL     OW31012   2.868   1.956   6.140  0.2054 -0.4859  0.2527
 6460SOL    HW131013   2.952   1.933   6.180  1.5689  1.1830 -1.6500
 6460SOL    HW231014   2.907   2.005   6.067  1.2524  0.5420  1.4863
 6461SOL     OW31015   0.215   3.343   6.044  0.1889 -0.6273  0.2861
 6461SOL    HW131016   0.199   3.418   5.987  0.8728  0.0422  0.9734
 6461SOL    HW231017   0.229   3.385   6.129 -1.8232 -0.2778  0.4309
 6462SOL     OW31018   3.114   3.966   5.036  0.0326  0.1315  0.5807
 6462SOL    HW131019   3.062   3.975   5.116  2.1432 -0.0027  1.9458
 6462SOL    HW231020   3.177   3.901   5.065  0.7656  0.8140  0.5118
 6463SOL     OW31021   2.793   4.565   6.850  0.2599  0.1884 -0.2940
 6463SOL    HW131022   2.783   4.514   6.769  0.5833 -1.0372  0.4408
 6463SOL    HW231023   2.786   4.494   6.914 -1.4227  1.3776  0.8303
 6464SOL     OW31024   2.982   4.132   0.920 -0.1012  0.0336  0.1752
 6464SOL    HW131025   3.029   4.206   0.960  1.5761 -1.1821  0.4499
 6464SOL    HW231026   3.044   4.061   0.936 -1.6364 -0.6881  2.8571
 6465SOL     OW31027   3.764   0.430   1.819  0.2649 -0.5774  0.0989
 6465SOL    HW131028   3.855   0.459   1.831 -0.3815  1.3741  0.2847
 6465SOL    HW231029   3.723   0.504   1.774  0.8916  0.5193  1.3277
 6466SOL     OW31030   1.398   2.287   3.976  0.0542 -0.1935 -0.1563
 6466SOL    HW131031   1.489   2.317   3.977  0.3787 -1.2195  1.4249
 6466SOL    HW231032   1.373   2.299   4.068 -1.6968  0.0532 -0.6690
 6467SOL     OW31033   2.790   1.740   5.170  0.6238  0.0635 -0.1115
 6467SOL    HW131034   2.878   1.726   5.207  0.4761 -0.2232  0.1273
 6467SOL    HW231035   2.815   1.765   5.081  3.4491  0.1706  0.6981
 6468SOL     OW31036   1.670   4.561   6.655  0.1098 -0.3601 -0.3825
 6468SOL    HW131037   1.714   4.610   6.724  1.9036  0.5152 -2.1328
 6468SOL    HW231038   1.745   4.515   6.618 -0.1710 -0.6791 -0.5654
 6469SOL     OW31039   2.134   2.147   5.793  0.0420 -0.3505 -0.2732
 6469SOL    HW131040   2.041   2.146   5.818  0.3325 -0.0966  0.8441
 6469SOL    HW231041   2.170   2.076   5.847  2.4890 -0.0976 -1.6183
 6470SOL     OW31042   0.197   2.099   1.616 -0.1623  0.2547 -0.6199
 6470SOL    HW131043   0.291   2.106   1.632 -0.7569 -0.0549  3.2489
 6470SOL    HW231044   0.179   2.005   1.613 -1.0143  0.4027 -0.0844
 6471SOL     OW31045   3.209   2.101  12.031 -0.1969  0.5979  0.5106
 6471SOL    HW131046   3.176   2.048  11.958  0.8297  0.9985 -0.2523
 6471SOL    HW231047   3.286   2.131  11.983 -0.4124 -2.2923 -1.6890
 6472SOL     OW31048   3.436   3.064   4.967 -0.7530 -0.1492 -0.0189
 6472SOL    HW131049   3.363   3.114   5.004 -2.7667 -1.0425 -2.7744
 6472SOL    HW231050   3.444   2.992   5.030  0.3259  1.5423  1.7888
 6473SOL     OW31051   3.792   4.520  13.381  0.4355  0.0471  0.0384
 6473SOL    HW131052   3.723   4.528  13.446 -0.9383  0.5650 -1.4663
 6473SOL    HW231053   3.747   4.557  13.304 -0.4278 -0.0438  0.5070
 6474SOL     OW31054   0.626   3.398  15.449 -0.1055  0.8796 -0.2323
 6474SOL    HW131055   0.720   3.380  15.454 -0.3825 -0.7318 -0.7026
 6474SOL    HW231056   0.621   3.448  15.530 -1.2104 -0.0716  0.2932
 6475SOL     OW31057   3.827   1.258   2.451  0.1702 -0.2328  0.1430
 6475SOL    HW131058   3.868   1.190   2.398  1.1456 -0.0155  0.6257
 6475SOL    HW231059   3.738   1.258   2.414  1.5794 -1.2997 -3.2283
 6476SOL     OW31060   0.222   2.205   8.340 -0.1453  0.2704 -0.3922
 6476SOL    HW131061   0.296   2.144   8.333 -0.1053  0.3280 -0.4723
 6476SOL    HW231062   0.165   2.159   8.401  0.6966  0.2489  0.3912
 6477SOL     OW31063   4.575   3.428  17.075 -0.1273  0.2421 -0.2263
 6477SOL    HW131064   4.560   3.334  17.072 -2.0171  0.4637  1.5160
 6477SOL    HW231065   4.636   3.431  17.149 -0.0452 -2.2177 -0.2116
 6478SOL     OW31066   3.682   2.165   9.150 -0.5013  0.2600  0.1795
 6478SOL    HW131067   3.618   2.212   9.097 -0.9423  0.9442  1.3318
 6478SOL    HW231068   3.691   2.228   9.221 -0.8356 -0.0544  0.4982
 6479SOL     OW31069   4.637   2.387   7.687 -0.1583 -0.4071 -0.0235
 6479SOL    HW131070   4.564   2.418   7.741  0.2336 -1.6573  1.2085
 6479SOL    HW231071   4.664   2.471   7.649  1.9321 -2.7815 -3.7975
 6480SOL     OW31072   3.007   1.337   4.062 -0.2919  0.8465  0.1589
 6480SOL    HW131073   2.935   1.277   4.042  1.2319 -1.3168  1.1580
 6480SOL    HW231074   3.062   1.325   3.985  1.0606 -2.2045  1.5915
 6481SOL     OW31075   2.681   0.750   6.827  0.2981  0.3426 -0.3337
 6481SOL    HW131076   2.717   0.714   6.746 -0.4895  1.7327 -1.3032
 6481SOL    HW231077   2.590   0.741   6.802  0.2167 -1.6975  0.7553
 6482SOL     OW31078   1.130   1.172   5.666  0.4547  0.8640 -0.3903
 6482SOL    HW131079   1.143   1.258   5.625  0.2425  0.5074 -1.2187
 6482SOL    HW231080   1.207   1.168   5.722 -0.4899 -1.8433  0.7049
 6483SOL     OW31081   0.550   2.063  16.792  0.0845 -0.4465 -0.1474
 6483SOL    HW131082   0.558   2.156  16.814  0.9055 -0.2972 -1.0925
 6483SOL    HW231083   0.547   2.030  16.882  0.6227 -0.6783 -0.2143
 6484SOL     OW31084   4.147   1.157   2.034  0.1592 -0.0562  0.1319
 6484SOL    HW131085   4.213   1.095   2.002  0.2950 -1.2127  2.6525
 6484SOL    HW231086   4.172   1.227   1.973 -1.2090 -0.1518 -0.5359
 6485SOL     OW31087   1.053   0.620   1.771  0.2830 -0.5610  0.4691
 6485SOL    HW131088   0.961   0.631   1.748  1.6715 -0.1135 -4.8880
 6485SOL    HW231089   1.054   0.679   1.847  1.9237  0.1297 -0.0790
 6486SOL     OW31090   0.685   1.955   8.311 -0.6838 -0.2230 -0.5203
 6486SOL    HW131091   0.723   1.995   8.233  2.0454  1.3404  1.5994
 6486SOL    HW231092   0.699   1.862   8.291 -1.0029 -0.6962  1.4440
 6487SOL     OW31093   2.276   3.278   8.574 -0.4194  0.4438 -0.1606
 6487SOL    HW131094   2.290   3.330   8.653  1.9140 -1.5555  0.7191
 6487SOL    HW231095   2.211   3.216   8.606  0.1930  0.6425  1.4916
 6488SOL     OW31096   2.491   1.210  12.239  0.0956 -1.2471 -0.1680
 6488SOL    HW131097   2.571   1.160  12.221  1.0451 -0.2587  1.2824
 6488SOL    HW231098   2.540   1.292  12.251 -2.8069  0.8649 -2.9375
 6489SOL     OW31099   0.855   2.204  13.684 -0.2861  0.3145  0.6324
 6489SOL    HW131100   0.782   2.204  13.746  2.4771 -1.3832  3.9203
 6489SOL    HW231101   0.836   2.286  13.639 -0.6710 -0.3836 -0.4625
 6490SOL     OW31102   3.614   0.467   5.215 -0.2406  0.3365 -0.0478
 6490SOL    HW131103   3.605   0.546   5.270 -0.9534  1.4918 -1.8330
 6490SOL    HW231104   3.540   0.415   5.247 -0.5015  1.0886  0.6002
 6491SOL     OW31105   1.637   4.636  12.363 -0.9133  0.3227 -0.0201
 6491SOL    HW131106   1.693   4.674  12.431 -1.7644  0.0871  0.8099
 6491SOL    HW231107   1.574   4.587  12.416 -1.7356  0.4011 -0.9223
 6492SOL     OW31108   4.727   0.278   5.856 -0.2285 -0.2447 -0.4282
 6492SOL    HW131109   4.729   0.320   5.770  4.2926 -0.3467 -0.4005
 6492SOL    HW231110   4.652   0.222   5.836  1.2951 -1.6160 -2.4521
 6493SOL     OW31111   4.029   0.542   8.188  0.2408 -0.3655 -0.1594
 6493SOL    HW131112   4.041   0.497   8.104 -0.1461 -0.8332  0.0322
 6493SOL    HW231113   4.086   0.496   8.249 -1.8464 -0.0251  2.0677
 6494SOL     OW31114   4.540   2.348  17.227  0.0033 -0.0829  0.0617
 6494SOL    HW131115   4.617   2.295  17.205 -1.3156 -1.7995 -0.3950
 6494SOL    HW231116   4.597   2.412  17.271 -0.7207  0.7618 -0.2199
 6495SOL     OW31117   3.365   4.575   5.449  0.6840 -0.0768 -0.3563
 6495SOL    HW131118   3.384   4.591   5.542 -1.2072 -0.9884  0.1671
 6495SOL    HW231119   3.354   4.480   5.447  0.6575 -0.1133  1.2018
 6496SOL     OW31120   3.469   4.273   5.485  0.4966  0.4685 -0.5020
 6496SOL    HW131121   3.501   4.184   5.502  0.8162  0.8412  0.8431
 6496SOL    HW231122   3.427   4.264   5.399 -2.1420  1.0742  0.7128
 6497SOL     OW31123   0.214   4.698   8.618  0.0068 -0.6100 -0.2703
 6497SOL    HW131124   0.173   4.709   8.533  1.8538  1.2902 -0.9032
 6497SOL    HW231125   0.229   4.603   8.623  0.1575 -0.5452  0.5256
 6498SOL     OW31126   0.564   3.349   2.101  0.2515  0.0225  0.3874
 6498SOL    HW131127   0.570   3.375   2.009 -0.0351 -0.2864  0.2805
 6498SOL    HW231128   0.585   3.436   2.136  0.6167  0.1599 -0.1761
 6499SOL     OW31129   0.442   1.244   2.721  0.1461  0.5559 -0.0446
 6499SOL    HW131130   0.456   1.181   2.650 -0.5106  0.8307 -0.4203
 6499SOL    HW231131   0.391   1.188   2.780 -1.0446 -0.2415 -1.8071
 6500SOL     OW31132   2.826   1.667  14.764 -0.1683 -0.3842 -0.1085
 6500SOL    HW131133   2.882   1.735  14.726 -0.4883 -0.3446 -0.5189
 6500SOL    HW231134   2.834   1.685  14.857  1.0626 -1.1688 -0.0522
 6501SOL     OW31135   2.720   4.644   3.879  0.3923  0.6028 -0.7008
 6501SOL    HW131136   2.699   4.566   3.829  0.2088 -0.9621  1.8310
 6501SOL    HW231137   2.660   4.622   3.950 -0.6894  1.3954 -1.3638
 6502SOL     OW31138   2.912   0.825  17.525 -0.0138  0.3148 -0.1548
 6502SOL    HW131139   2.864   0.787  17.452 -1.4323  1.4247  0.2043
 6502SOL    HW231140   2.901   0.918  17.507  1.9694  0.3084 -1.3150
 6503SOL     OW31141   1.551   0.696   0.042  0.1298  0.2292 -0.1889
 6503SOL    HW131142   1.461   0.710   0.070 -0.2800  1.1713 -1.9654
 6503SOL    HW231143   1.580   0.784   0.015 -1.1999  0.8990  0.5997
 6504SOL     OW31144   4.143   3.064  15.844 -0.0638  0.1007 -0.5651
 6504SOL    HW131145   4.215   3.005  15.821  0.5375  0.8543 -0.6253
 6504SOL    HW231146   4.096   3.028  15.918  0.2650 -1.2749 -1.0232
 6505SOL     OW31147   2.390   0.420  10.939  0.3502 -0.3052 -0.0610
 6505SOL    HW131148   2.342   0.360  10.882 -1.7275  0.4261  0.9504
 6505SOL    HW231149   2.473   0.425  10.891 -0.0180 -0.9928 -0.7672
 6506SOL     OW31150   2.683   3.914  12.117  0.1508 -0.4628 -0.5592
 6506SOL    HW131151   2.691   3.872  12.032 -1.3581 -2.3271  0.2117
 6506SOL    HW231152   2.588   3.921  12.121  0.1652 -0.1508 -0.7933
 6507SOL     OW31153   2.479   1.421  13.204 -0.1926  0.4473  0.2827
 6507SOL    HW131154   2.387   1.403  13.188  0.9772 -3.6338 -1.9682
 6507SOL    HW231155   2.487   1.394  13.296  0.7827 -1.6467 -0.4042
 6508SOL     OW31156   2.455   2.209   1.783  0.4938  0.2931  0.0922
 6508SOL    HW131157   2.494   2.141   1.728  1.2373  0.7747  0.0294
 6508SOL    HW231158   2.408   2.168   1.855 -0.3817  0.7252 -0.2309
 6509SOL     OW31159   2.154   3.558   4.351 -0.1078 -0.5561 -0.0892
 6509SOL    HW131160   2.231   3.516   4.389  0.4010  0.3061 -0.1701
 6509SOL    HW231161   2.142   3.500   4.275 -1.1341  0.7971 -0.9480
 6510SOL     OW31162   4.241   3.185   5.303 -0.4176 -0.0775 -0.3510
 6510SOL    HW131163   4.214   3.267   5.261  0.5483  0.8404  0.8477
 6510SOL    HW231164   4.328   3.205   5.339 -0.5524  2.5398 -1.4834
 6511SOL     OW31165   2.987   2.964   9.927  0.4360  0.6329  0.0312
 6511SOL    HW131166   2.908   2.913   9.943  1.8634 -0.8789  2.2893
 6511SOL    HW231167   3.008   2.990  10.017  1.4029 -1.2901  0.3579
 6512SOL     OW31168   3.037   0.804  16.469  0.0280  0.1668  0.4200
 6512SOL    HW131169   2.958   0.855  16.486 -0.3564 -0.2690 -0.0504
 6512SOL    HW231170   3.055   0.758  16.551 -1.1554  0.7316  0.9924
 6513SOL     OW31171   2.237   1.731  13.502  0.4458  0.2908 -0.0382
 6513SOL    HW131172   2.145   1.756  13.510  0.8132  0.9023  2.2154
 6513SOL    HW231173   2.260   1.740  13.409 -0.8154  2.8444 -0.0711
 6514SOL     OW31174   1.535   1.712   4.712  0.2385 -0.3597  0.7360
 6514SOL    HW131175   1.627   1.738   4.710  0.7509 -2.4806 -2.4511
 6514SOL    HW231176   1.525   1.694   4.805 -1.7156 -0.4895  0.5182
 6515SOL     OW31177   0.293   0.563  13.389  0.0826 -0.0811  0.6668
 6515SOL    HW131178   0.248   0.484  13.419 -0.2663 -0.2494 -0.3016
 6515SOL    HW231179   0.332   0.537  13.306  0.4713  2.3397  0.0821
 6516SOL     OW31180   2.817   3.123   6.737  0.0671  0.1415  0.1118
 6516SOL    HW131181   2.800   3.044   6.686  0.6951 -0.5287  0.9427
 6516SOL    HW231182   2.912   3.131   6.737  0.0476  0.3632  1.5479
 6517SOL     OW31183   4.113   2.776   1.605 -0.6197 -0.5445 -0.2239
 6517SOL    HW131184   4.098   2.832   1.528  0.9890  0.5315  0.2464
 6517SOL    HW231185   4.037   2.800   1.658 -0.5215 -1.7437  0.4581
 6518SOL     OW31186   0.921   2.809   3.119 -0.2147 -0.0055  0.5765
 6518SOL    HW131187   0.976   2.813   3.197  1.1814 -0.0603 -0.4259
 6518SOL    HW231188   0.919   2.897   3.083 -0.2836  0.7984  2.5275
 6519SOL     OW31189   4.493   1.284   5.116  0.0609  0.2105  0.1308
 6519SOL    HW131190   4.518   1.375   5.133 -0.2919  0.4820 -0.7749
 6519SOL    HW231191   4.407   1.296   5.075 -0.6581 -0.7992  1.3534
 6520SOL     OW31192   1.858   2.619   5.720  0.4031 -0.7102 -0.1757
 6520SOL    HW131193   1.843   2.692   5.781 -0.2459  0.0723 -1.2831
 6520SOL    HW231194   1.779   2.632   5.669 -1.1549 -2.1259  1.8668
 6521SOL     OW31195   3.138   3.210   3.573 -0.4277 -0.1998  0.7399
 6521SOL    HW131196   3.161   3.125   3.536  0.5680 -0.3052  1.6005
 6521SOL    HW231197   3.214   3.266   3.556  0.0587 -1.2688 -0.5570
 6522SOL     OW31198   0.767   1.037   9.309 -0.2958 -0.2643  0.0514
 6522SOL    HW131199   0.700   0.990   9.259  0.0627 -1.4818  0.7111
 6522SOL    HW231200   0.790   0.977   9.379 -2.2465 -1.2138 -0.1256
 6523SOL     OW31201   2.597   3.457   9.741  0.2366  0.1888  0.6297
 6523SOL    HW131202   2.580   3.545   9.775 -0.3578  0.9127 -1.5285
 6523SOL    HW231203   2.691   3.446   9.752  0.7331  3.7837  0.2205
 6524SOL     OW31204   0.489   2.838   4.583  0.0526  0.0514  0.4351
 6524SOL    HW131205   0.429   2.770   4.552 -0.5085  0.5965  0.3165
 6524SOL    HW231206   0.435   2.914   4.560 -0.0932  0.2891  1.5584
 6525SOL     OW31207   2.303   3.779   7.369 -0.0951 -0.3377 -0.3576
 6525SOL    HW131208   2.246   3.715   7.411 -0.4152  0.0009 -0.2804
 6525SOL    HW231209   2.294   3.854   7.428  2.4825  0.6615 -1.2266
 6526SOL     OW31210   0.743   0.763   6.453 -0.3815  0.3995  0.1672
 6526SOL    HW131211   0.779   0.850   6.470 -1.7264  1.1884 -1.0181
 6526SOL    HW231212   0.688   0.776   6.376  1.1945  1.2014 -0.8281
 6527SOL     OW31213   2.139   2.398   8.072  0.5167  0.3574  0.1357
 6527SOL    HW131214   2.132   2.342   7.995  1.5486  0.5082 -0.0634
 6527SOL    HW231215   2.156   2.337   8.144 -1.2209 -0.8418 -0.4872
 6528SOL     OW31216   4.719   2.056   7.515  0.5292 -1.0115 -0.2297
 6528SOL    HW131217   4.650   2.047   7.450 -0.4184 -2.1567  0.9324
 6528SOL    HW231218   0.060   2.077   7.462 -0.2438 -1.4662 -1.5453
 6529SOL     OW31219   1.954   1.255   0.880 -0.5922 -0.2885  0.1236
 6529SOL    HW131220   1.888   1.193   0.849 -0.6198  0.7115 -1.7890
 6529SOL    HW231221   1.920   1.340   0.853  0.4918 -0.3370 -1.3960
 6530SOL     OW31222   3.747   3.449   4.548  0.7580 -0.7237 -0.4932
 6530SOL    HW131223   3.657   3.418   4.556  1.1809 -2.0159 -0.8835
 6530SOL    HW231224   3.737   3.527   4.493  0.7890  0.1471  0.7417
 6531SOL     OW31225   4.449   2.709  13.712 -0.1127  0.2642  0.6235
 6531SOL    HW131226   4.543   2.726  13.705 -0.1737  1.9453  3.5757
 6531SOL    HW231227   4.438   2.722  13.806 -1.2994  0.1763  0.4941
 6532SOL     OW31228   3.264   1.060   7.820  0.0452  0.5969 -0.0576
 6532SOL    HW131229   3.233   1.128   7.760 -0.3471 -1.1316 -1.8113
 6532SOL    HW231230   3.347   1.030   7.783 -0.7247 -2.0922  0.3817
 6533SOL     OW31231   4.558   2.092   6.787 -0.5057  0.0520  0.4380
 6533SOL    HW131232   4.606   2.047   6.856  0.5706 -1.3539 -1.2440
 6533SOL    HW231233   4.533   2.026   6.722  0.9139 -0.8679  0.8296
 6534SOL     OW31234   0.160   0.251  11.220  0.1534 -0.0061  0.5375
 6534SOL    HW131235   0.182   0.249  11.127  3.1511  0.2840  1.2157
 6534SOL    HW231236   0.188   0.337  11.251 -0.9367  1.0929 -1.5251
 6535SOL     OW31237   1.382   3.598   3.730 -0.6677  0.0402  0.2121
 6535SOL    HW131238   1.361   3.529   3.667  5.0888 -0.0480 -1.6000
 6535SOL    HW231239   1.298   3.586   3.775 -0.1937  0.1431  1.1126
 6536SOL     OW31240   2.202   1.907   6.665 -0.3363  0.0234 -0.7071
 6536SOL    HW131241   2.126   1.913   6.723  0.5368  1.4490  0.2934
 6536SOL    HW231242   2.275   1.933   6.721 -0.0808  0.5390 -1.2781
 6537SOL     OW31243   1.018   3.152   2.306 -0.7081 -0.7295  0.2236
 6537SOL    HW131244   1.064   3.221   2.259 -1.9903 -0.3730 -0.5105
 6537SOL    HW231245   1.081   3.118   2.370  0.7469  0.9225 -0.3316
 6538SOL     OW31246   3.834   2.498   4.683 -0.2132 -0.3193 -0.1773
 6538SOL    HW131247   3.755   2.475   4.731  1.1315 -0.0926  2.1345
 6538SOL    HW231248   3.849   2.429   4.618 -1.5217  0.1908 -1.0334
 6539SOL     OW31249   0.390   2.906   7.056  0.2870 -0.0273  0.0918
 6539SOL    HW131250   0.390   2.975   6.990 -1.1002 -2.1975 -2.1896
 6539SOL    HW231251   0.355   2.948   7.134  2.6027 -1.3218  1.8410
 6540SOL     OW31252   0.568   0.521   4.500  0.1290 -0.1866  0.0512
 6540SOL    HW131253   0.613   0.582   4.559 -1.0360 -0.1881  0.9288
 6540SOL    HW231254   0.638   0.464   4.467 -0.5098 -2.0596  1.9741
 6541SOL     OW31255   1.165   1.405   9.503 -0.0518  0.1634  0.0476
 6541SOL    HW131256   1.192   1.451   9.582 -0.5817 -1.0464  0.9305
 6541SOL    HW231257   1.233   1.430   9.440  1.7201  0.0911  1.9398
 6542SOL     OW31258   1.509   2.685  11.057 -0.4335 -0.4020 -0.3042
 6542SOL    HW131259   1.589   2.665  11.010 -0.8922  1.5956 -1.9412
 6542SOL    HW231260   1.492   2.605  11.107  0.4809 -0.2918  0.1801
 6543SOL     OW31261   2.597   1.737   0.650  0.1525 -0.0004  0.2171
 6543SOL    HW131262   2.544   1.796   0.705 -0.3346 -0.0433 -0.2064
 6543SOL    HW231263   2.682   1.730   0.694 -0.1919 -0.8619  0.7360
 6544SOL     OW31264   1.367   0.081  10.483 -0.2529  0.3987 -0.6163
 6544SOL    HW131265   1.364   0.101  10.389 -1.8584  2.9078 -0.0303
 6544SOL    HW231266   1.303   0.143  10.518  1.7811  1.3939  1.3130
 6545SOL     OW31267   3.823   4.363  17.560  0.0398  0.1303  0.1168
 6545SOL    HW131268   3.828   4.458  17.566 -0.2367  0.0807  1.1380
 6545SOL    HW231269   3.913   4.332  17.568  0.0048  0.0315  0.1313
 6546SOL     OW31270   4.367   4.229  17.244 -0.5281  0.2560 -0.2420
 6546SOL    HW131271   4.292   4.198  17.294 -0.6496  0.4353 -0.3138
 6546SOL    HW231272   4.414   4.283  17.308 -1.8632 -0.9803  1.7673
 6547SOL     OW31273   0.203   2.191   0.066  0.0685  0.6080  0.4073
 6547SOL    HW131274   0.263   2.188   0.141 -0.1578 -0.8638  0.5469
 6547SOL    HW231275   0.118   2.196   0.109 -0.1199 -0.2869  0.1442
 6548SOL     OW31276   3.829   1.341  11.641  0.1763  0.5700  0.1306
 6548SOL    HW131277   3.836   1.379  11.553 -1.7419  0.8815  0.1137
 6548SOL    HW231278   3.877   1.413  11.681  0.3657  0.5154 -0.0008
 6549SOL     OW31279   3.137   4.473   4.712 -0.1101 -0.3919 -0.4402
 6549SOL    HW131280   3.139   4.378   4.705  2.4693 -0.5862  2.8877
 6549SOL    HW231281   3.204   4.500   4.649 -0.0192 -1.5376 -0.8301
 6550SOL     OW31282   2.195   0.536   2.069  0.2179 -0.3784 -0.6091
 6550SOL    HW131283   2.160   0.587   2.141  1.8778 -1.6261  1.0996
 6550SOL    HW231284   2.152   0.451   2.082  1.1429 -1.0584 -1.8921
 6551SOL     OW31285   1.573   0.183   8.246  0.1203 -0.2706  0.1668
 6551SOL    HW131286   1.557   0.271   8.279  0.0357 -0.2601  0.0977
 6551SOL    HW231287   1.512   0.133   8.300  0.5455  1.6302  2.4067
 6552SOL     OW31288   2.630   2.435  11.791  0.5558  0.1753 -0.5047
 6552SOL    HW131289   2.695   2.416  11.724  0.9096  2.8542 -0.9270
 6552SOL    HW231290   2.650   2.376  11.864 -4.1917  0.2142  0.8163
 6553SOL     OW31291   2.992   0.295   9.253  0.4960 -0.3131 -0.4078
 6553SOL    HW131292   3.053   0.319   9.324  1.4943 -0.5161 -1.1927
 6553SOL    HW231293   2.914   0.344   9.278  0.3136 -0.7802 -0.0659
 6554SOL     OW31294   0.837   0.608   7.877 -0.1825 -0.1031 -0.1247
 6554SOL    HW131295   0.756   0.616   7.927  0.0303  0.1550  0.1742
 6554SOL    HW231296   0.907   0.611   7.941  0.0916  0.4891 -0.4584
 6555SOL     OW31297   2.555   3.023   1.223 -0.1845 -0.1258 -0.2397
 6555SOL    HW131298   2.557   3.103   1.275 -2.5213 -0.0699 -0.2164
 6555SOL    HW231299   2.508   3.049   1.143 -0.7809  0.8313  0.4232
 6556SOL     OW31300   1.890   2.623  16.621  0.2157 -0.0906 -0.1505
 6556SOL    HW131301   1.893   2.533  16.588  1.2595 -0.4389  0.9042
 6556SOL    HW231302   1.970   2.652  16.577 -0.6400  1.7390 -0.5352
 6557SOL     OW31303   0.576   4.030   3.078 -0.0734 -0.4065  0.2792
 6557SOL    HW131304   0.663   4.026   3.037  1.3949 -1.4751  3.5443
 6557SOL    HW231305   0.557   4.123   3.063 -3.9042 -1.5028 -1.6097
 6558SOL     OW31306   3.246   3.280   7.295  0.0356 -0.2403  0.0267
 6558SOL    HW131307   3.164   3.250   7.335 -0.2575 -0.4853 -0.7604
 6558SOL    HW231308   3.248   3.218   7.222  2.2855 -0.1980  0.0430
 6559SOL     OW31309   2.835   1.348   5.191 -0.3457 -0.2869 -0.5226
 6559SOL    HW131310   2.849   1.357   5.096 -0.0688 -1.1160 -0.5574
 6559SOL    HW231311   2.828   1.252   5.190  2.6997 -0.5107 -0.4987
 6560SOL     OW31312   4.102   2.630   2.972 -0.0155 -0.4492 -0.3399
 6560SOL    HW131313   4.080   2.721   2.995  0.1951 -0.4376 -0.1880
 6560SOL    HW231314   4.151   2.607   3.051  1.9952  1.6821 -0.9648
 6561SOL     OW31315   3.926   3.106  17.236  0.3503 -0.6527  0.6582
 6561SOL    HW131316   3.975   3.058  17.169 -0.8246 -2.3218  0.9867
 6561SOL    HW231317   3.871   3.164  17.184 -0.0913  0.7896  2.7310
 6562SOL     OW31318   1.289   1.883   3.897 -0.2403 -0.1492  0.3826
 6562SOL    HW131319   1.266   1.793   3.876  0.8987 -0.3255 -0.1310
 6562SOL    HW231320   1.337   1.861   3.977  0.9121  0.1090 -0.2317
 6563SOL     OW31321   1.559   2.069   2.022  0.3466 -0.4041  0.1906
 6563SOL    HW131322   1.543   2.163   2.031 -0.4267 -0.5485  0.2973
 6563SOL    HW231323   1.496   2.032   2.084  0.2652 -2.0846 -0.9092
 6564SOL     OW31324   1.156   1.961   5.200 -0.3678  0.2311 -0.1808
 6564SOL    HW131325   1.113   2.032   5.152 -0.1032 -0.6341 -1.6866
 6564SOL    HW231326   1.213   2.021   5.248  0.9372 -0.7107 -0.5639
 6565SOL     OW31327   1.381   3.491  13.066 -0.0561 -0.1902  0.0522
 6565SOL    HW131328   1.443   3.424  13.096  0.7218  1.1946  1.5583
 6565SOL    HW231329   1.312   3.468  13.129 -0.1548 -1.8661 -0.6629
 6566SOL     OW31330   0.032   2.963   1.403  0.4439 -0.3736 -0.0317
 6566SOL    HW131331   0.105   2.993   1.457 -0.4603  2.9301 -0.6654
 6566SOL    HW231332   0.032   2.869   1.418  0.1094 -0.4408 -0.4432
 6567SOL     OW31333   1.542   1.597   2.685  0.6071 -0.2993 -0.2265
 6567SOL    HW131334   1.579   1.668   2.738  1.4686 -2.5979  2.2332
 6567SOL    HW231335   1.456   1.585   2.724  0.0738 -0.0222 -1.3295
 6568SOL     OW31336   4.659   1.611  15.285  0.0790 -0.1140  0.2331
 6568SOL    HW131337   4.624   1.679  15.227 -0.0805  0.1203  0.6075
 6568SOL    HW231338   4.588   1.549  15.268 -0.1758  0.6631 -1.5898
 6569SOL     OW31339   1.279   4.615   3.748  0.0366  0.3044  0.0447
 6569SOL    HW131340   1.197   4.583   3.711  0.4203 -0.8550  0.2070
 6569SOL    HW231341   1.302   4.541   3.804 -0.8528 -0.4318 -0.5586
 6570SOL     OW31342   0.480   3.889  12.267 -0.4989  0.2039  0.1377
 6570SOL    HW131343   0.555   3.874  12.210  1.6676  0.9396  2.7924
 6570SOL    HW231344   0.493   3.981  12.288  0.7718 -0.0046  0.2758
 6571SOL     OW31345   2.615   4.259   1.495 -0.0590  0.2024 -0.2713
 6571SOL    HW131346   2.608   4.178   1.445 -2.1973 -1.1512  2.2643
 6571SOL    HW231347   2.524   4.287   1.506 -0.3287 -0.2242 -1.3622
 6572SOL     OW31348   3.981   1.761   7.694  0.2606  0.2469  0.1760
 6572SOL    HW131349   4.025   1.828   7.641 -2.0577  1.0005 -0.8007
 6572SOL    HW231350   3.896   1.802   7.709 -0.7782 -1.7919 -0.1119
 6573SOL     OW31351   2.972   2.228   6.617  0.2436  0.2211 -0.1092
 6573SOL    HW131352   2.903   2.289   6.590  2.3879  2.0562 -1.3416
 6573SOL    HW231353   2.934   2.149   6.577 -0.0129 -1.9872  4.4036
 6574SOL     OW31354   2.833   0.519   3.877  0.2403  0.2717  0.1647
 6574SOL    HW131355   2.870   0.567   3.951  1.4600  0.2170 -0.4031
 6574SOL    HW231356   2.803   0.444   3.929  1.1919  1.6661  2.7250
 6575SOL     OW31357   0.009   1.899   5.447 -0.6531 -0.8883  0.0379
 6575SOL    HW131358   4.709   1.941   5.525 -0.5332 -0.7508  0.0194
 6575SOL    HW231359   4.671   1.893   5.387  0.4814  0.3588 -1.4847
 6576SOL     OW31360   4.222   1.697   3.207  0.0365  0.4633 -0.6708
 6576SOL    HW131361   4.265   1.768   3.255 -0.8197  0.4588  0.0997
 6576SOL    HW231362   4.171   1.756   3.152  0.0984  1.8558  0.7453
 6577SOL     OW31363   0.190   2.273   7.985 -0.4409 -0.0459 -0.4763
 6577SOL    HW131364   0.281   2.302   7.989  0.0349 -1.4652 -0.8359
 6577SOL    HW231365   0.192   2.200   7.922 -1.3940 -0.6564  0.2059
 6578SOL     OW31366   0.272   0.938   9.786  0.3644 -0.4227 -0.2076
 6578SOL    HW131367   0.271   1.017   9.840  0.0477  0.8027 -2.0458
 6578SOL    HW231368   0.202   0.959   9.725  0.3444 -0.7851 -0.3135
 6579SOL     OW31369   2.628   1.279  12.652 -0.2436 -0.2219  0.2527
 6579SOL    HW131370   2.616   1.219  12.578 -0.0953 -0.7503  0.6532
 6579SOL    HW231371   2.565   1.349  12.635  2.5555  1.6498 -2.3307
 6580SOL     OW31372   2.119   1.407   2.558  0.2441 -0.3492  0.6102
 6580SOL    HW131373   2.070   1.326   2.573 -2.3758  1.1963  0.3811
 6580SOL    HW231374   2.064   1.467   2.507  0.4374 -1.7587 -1.2740
 6581SOL     OW31375   1.941   1.636  11.543 -0.4068  1.0676  0.2571
 6581SOL    HW131376   1.905   1.627  11.631  1.1208 -1.5622  0.6425
 6581SOL    HW231377   2.025   1.590  11.552 -0.2239  1.2740 -0.3442
 6582SOL     OW31378   4.296   4.056  12.992  0.1514  0.1549  0.4090
 6582SOL    HW131379   4.286   4.135  13.046 -1.0143 -0.1425  0.6356
 6582SOL    HW231380   4.368   4.003  13.026 -1.3349 -1.8053  0.5317
 6583SOL     OW31381   3.177   0.710   5.668 -0.1598  0.3658  0.3969
 6583SOL    HW131382   3.165   0.621   5.700  0.5939 -0.2813 -1.1270
 6583SOL    HW231383   3.107   0.765   5.704 -1.1051  0.5386 -1.6712
 6584SOL     OW31384   0.920   1.942   9.969 -0.5117  0.3348  0.5303
 6584SOL    HW131385   0.980   2.016   9.978  2.7838 -2.3358  0.1970
 6584SOL    HW231386   0.862   1.973   9.899 -1.1885  0.3003  1.0763
 6585SOL     OW31387   3.776   0.801   6.842  0.0573  0.0700 -0.5768
 6585SOL    HW131388   3.797   0.712   6.817  0.3129 -0.6501  2.1399
 6585SOL    HW231389   3.750   0.799   6.935  0.5184  3.3166 -0.3880
 6586SOL     OW31390   4.733   1.122   9.424  0.0971  0.4549 -0.0953
 6586SOL    HW131391   0.008   1.158   9.512 -0.0001  1.6115 -0.5571
 6586SOL    HW231392   4.639   1.109   9.431  0.6081 -3.2703 -0.1585
 6587SOL     OW31393   1.471   2.961  12.137  0.2251  0.2369  0.5064
 6587SOL    HW131394   1.457   3.014  12.215  0.2149 -0.0933  0.7302
 6587SOL    HW231395   1.408   2.892  12.155 -1.2554  1.4779  0.0201
 6588SOL     OW31396   3.894   2.092  15.051  0.3698 -0.1957  0.0960
 6588SOL    HW131397   3.901   2.038  15.129  1.4997  0.2043  0.2681
 6588SOL    HW231398   3.814   2.053  15.014 -0.1533 -1.1463  2.2777
 6589SOL     OW31399   4.229   0.668   5.867 -0.7886 -0.2377 -0.2969
 6589SOL    HW131400   4.257   0.755   5.838  2.0135 -0.7572  0.8268
 6589SOL    HW231401   4.307   0.615   5.880  0.6713  2.1178  0.5265
 6590SOL     OW31402   2.368   3.358   8.838 -0.0652  0.8274  0.5113
 6590SOL    HW131403   2.437   3.379   8.900  0.7732  1.9879 -0.8155
 6590SOL    HW231404   2.353   3.446   8.804  0.2851  0.6969  0.0175
 6591SOL     OW31405   4.484   2.652   4.321  0.4608 -0.3577  0.2092
 6591SOL    HW131406   4.467   2.587   4.252 -0.1765 -1.0926  1.0617
 6591SOL    HW231407   4.461   2.732   4.273 -2.2716 -2.2060 -1.6256
 6592SOL     OW31408   2.400   0.660   9.444  0.6041  0.0235  0.1436
 6592SOL    HW131409   2.432   0.712   9.518 -0.6974 -0.0372  0.7551
 6592SOL    HW231410   2.316   0.623   9.470  0.4032 -1.5687 -2.8612
 6593SOL     OW31411   1.900   0.970  11.912  0.0445 -0.0417 -0.0974
 6593SOL    HW131412   1.990   0.947  11.931 -0.1218 -1.4164 -1.0073
 6593SOL    HW231413   1.906   1.062  11.885 -0.4419 -0.4742 -1.6905
 6594SOL     OW31414   2.538   1.731  13.776 -0.2214 -0.0516 -0.1186
 6594SOL    HW131415   2.590   1.800  13.735  0.4757  0.1591  1.1033
 6594SOL    HW231416   2.517   1.682  13.697  2.1489  0.5932 -1.1341
 6595SOL     OW31417   0.681   1.853   0.153 -0.0027  0.1545  0.3111
 6595SOL    HW131418   0.763   1.888   0.118 -1.7182  2.3310 -1.4819
 6595SOL    HW231419   0.623   1.866   0.078  1.5076 -0.6885 -0.9964
 6596SOL     OW31420   4.622   0.986   8.072  0.2606  0.0039 -0.0964
 6596SOL    HW131421   4.592   1.055   8.013  0.7521  0.2664 -0.0440
 6596SOL    HW231422   4.602   1.034   8.152 -2.8231 -0.0596 -0.8493
 6597SOL     OW31423   2.164   4.694  13.722  0.5529 -0.1850  0.3273
 6597SOL    HW131424   2.221   0.013  13.775  0.6545  1.6778 -1.7027
 6597SOL    HW231425   2.076   4.732  13.726  0.1509 -1.3854  2.7769
 6598SOL     OW31426   1.920   1.403   7.275  0.0882  1.0195 -0.3066
 6598SOL    HW131427   1.973   1.355   7.212 -1.0000 -0.3538 -0.1584
 6598SOL    HW231428   1.922   1.341   7.348 -1.5892  0.2446 -0.9432
 6599SOL     OW31429   0.873   4.139   4.684 -0.2295  0.1371  0.3647
 6599SOL    HW131430   0.816   4.070   4.717  1.1732 -1.0001  0.4081
 6599SOL    HW231431   0.830   4.172   4.604  0.5192 -1.1221 -0.5561
 6600SOL     OW31432   2.247   4.576   5.754 -0.4579 -0.3246 -0.3287
 6600SOL    HW131433   2.259   4.557   5.847  1.0118 -3.0995 -1.0860
 6600SOL    HW231434   2.188   4.651   5.753 -2.5136 -1.9458  0.6268
 6601SOL     OW31435   0.089   0.750   5.663 -0.2043 -0.1093  0.1948
 6601SOL    HW131436   0.002   0.772   5.630 -0.1200  0.0014  0.0495
 6601SOL    HW231437   0.146   0.798   5.603  0.0312 -0.1199  0.4099
 6602SOL     OW31438   2.658   4.646  15.913  0.0470 -0.3787  0.3562
 6602SOL    HW131439   2.622   4.703  15.981  0.2753 -0.2967  0.4066
 6602SOL    HW231440   2.648   4.696  15.833 -0.0049  0.1649  0.7053
 6603SOL     OW31441   3.071   0.975   6.026 -0.5330 -0.1631 -0.1230
 6603SOL    HW131442   3.049   1.046   5.965 -1.1648 -0.7898 -0.6309
 6603SOL    HW231443   3.046   0.889   5.991 -2.0437  0.4207 -0.4803
 6604SOL     OW31444   1.987   3.155   2.787  0.3014 -0.3533 -0.0963
 6604SOL    HW131445   2.055   3.190   2.845 -1.0573  2.8385 -0.4294
 6604SOL    HW231446   1.937   3.098   2.844 -0.0506 -0.1079 -0.1609
 6605SOL     OW31447   0.185   2.607   1.981  0.2550 -0.3677  0.1946
 6605SOL    HW131448   0.233   2.619   1.899  2.7469 -1.4432  1.4730
 6605SOL    HW231449   0.175   2.699   2.005  0.8881 -0.4709  0.8770
 6606SOL     OW31450   0.338   3.941  14.857  0.6536  0.3706  0.1053
 6606SOL    HW131451   0.356   4.031  14.885  2.0201 -0.0978  0.7030
 6606SOL    HW231452   0.248   3.923  14.884  0.3402  0.4749 -0.8539
 6607SOL     OW31453   0.649   1.732   4.310  0.0132 -0.5842 -0.0423
 6607SOL    HW131454   0.654   1.708   4.403 -0.1962  2.0778  0.6613
 6607SOL    HW231455   0.740   1.720   4.286  0.0903  0.9747 -0.5081
 6608SOL     OW31456   1.430   3.083   0.346  0.2212 -0.0680 -0.1030
 6608SOL    HW131457   1.387   3.032   0.277  0.4209  0.4798 -0.6330
 6608SOL    HW231458   1.420   3.020   0.417 -1.5423 -0.6508 -0.8610
 6609SOL     OW31459   0.852   0.596   9.450  0.3722  0.3078  0.0691
 6609SOL    HW131460   0.874   0.557   9.365 -1.6973 -0.0553 -0.3127
 6609SOL    HW231461   0.758   0.580   9.455  0.7106 -2.2457 -1.7700
 6610SOL     OW31462   3.386   0.374   5.320 -0.0458  0.0937  0.4159
 6610SOL    HW131463   3.373   0.282   5.346 -1.4882 -0.0511 -0.7765
 6610SOL    HW231464   3.298   0.391   5.286 -0.5918 -1.6215  0.9217
 6611SOL     OW31465   2.146   0.576   8.059  0.2479 -0.3301  0.0049
 6611SOL    HW131466   2.212   0.530   8.111 -0.5876 -0.9660  0.4952
 6611SOL    HW231467   2.197   0.578   7.978 -0.7428  0.0063 -0.6050
 6612SOL     OW31468   3.867   0.353   5.170 -0.2620 -0.4933  0.3487
 6612SOL    HW131469   3.780   0.387   5.186 -0.1372 -0.1457  0.2916
 6612SOL    HW231470   3.845   0.321   5.082 -1.6054  0.3529  0.3826
 6613SOL     OW31471   2.729   2.188   7.499 -0.0508 -0.3137 -0.0515
 6613SOL    HW131472   2.749   2.145   7.582  1.3780  0.3898 -0.0366
 6613SOL    HW231473   2.812   2.235   7.486 -0.7624  0.6391 -1.1776
 6614SOL     OW31474   3.575   0.951   2.348  0.4019  0.3592 -0.5478
 6614SOL    HW131475   3.564   0.925   2.439  1.5400  0.7025 -0.3026
 6614SOL    HW231476   3.656   0.910   2.317  0.0394  0.0582 -1.0943
 6615SOL     OW31477   1.928   4.489   3.016 -0.0379 -0.6124 -0.1073
 6615SOL    HW131478   2.014   4.529   3.009  0.3327 -1.3387  0.2780
 6615SOL    HW231479   1.904   4.509   3.106 -1.3244  1.0413 -0.8202
 6616SOL     OW31480   3.622   1.319  13.204 -0.2050  0.3360 -0.0285
 6616SOL    HW131481   3.561   1.263  13.156 -1.6167  1.5966  0.2982
 6616SOL    HW231482   3.627   1.387  13.136 -3.2585  0.4338 -0.1264
 6617SOL     OW31483   4.383   2.953   6.449 -0.0523  0.0793 -1.1192
 6617SOL    HW131484   4.338   2.871   6.426 -0.1401  0.0590 -0.8771
 6617SOL    HW231485   4.336   3.001   6.381  0.0932  1.8369  0.0304
 6618SOL     OW31486   4.373   1.826   0.066 -0.4437  0.4760  0.1459
 6618SOL    HW131487   4.447   1.779   0.026 -0.6384  0.8709 -0.6711
 6618SOL    HW231488   4.326   1.846  17.729  0.3200 -1.1887 -0.7308
 6619SOL     OW31489   3.144   1.716   5.976  0.4547  0.2849  0.1129
 6619SOL    HW131490   3.051   1.706   5.995  0.1984 -0.6626 -1.6637
 6619SOL    HW231491   3.148   1.809   6.002  1.4776 -0.1340  1.4296
 6620SOL     OW31492   3.155   3.234   1.177 -0.1765  0.8546  0.3125
 6620SOL    HW131493   3.161   3.215   1.270 -0.6965 -0.6424  0.0477
 6620SOL    HW231494   3.240   3.275   1.163  0.9554 -2.0773 -1.3947
 6621SOL     OW31495   1.310   4.180  15.270 -0.0770  0.3858 -0.0766
 6621SOL    HW131496   1.220   4.211  15.272 -0.4525 -0.5101 -3.2707
 6621SOL    HW231497   1.339   4.224  15.350  0.4843 -1.1810  0.5678
 6622SOL     OW31498   0.117   4.566   5.135  0.6057 -0.3015  0.2908
 6622SOL    HW131499   0.028   4.601   5.125  0.1845 -1.4437  0.0180
 6622SOL    HW231500   0.106   4.479   5.174 -0.5081  0.1677  1.0110
 6623SOL     OW31501   2.030   0.928  15.848 -0.2103 -0.0116 -0.5238
 6623SOL    HW131502   1.985   0.913  15.931  2.3522  0.1273  0.8814
 6623SOL    HW231503   2.037   0.845  15.802 -2.3520 -0.7848  0.5418
 6624SOL     OW31504   0.736   2.813   4.693  0.1566  0.2529  0.3611
 6624SOL    HW131505   0.744   2.892   4.746  1.1533  0.6166 -0.3341
 6624SOL    HW231506   0.651   2.823   4.651  0.4986 -1.4716 -0.7548
 6625SOL     OW31507   2.775   0.083   5.030 -0.2174  0.8102 -0.1953
 6625SOL    HW131508   2.758   0.081   5.125  2.1079 -0.8336  0.1938
 6625SOL    HW231509   2.869   0.067   5.035 -0.5344 -0.5159  1.8363
 6626SOL     OW31510   0.363   4.210   8.433 -0.5708  0.6469 -0.0317
 6626SOL    HW131511   0.284   4.205   8.486 -2.3277 -0.6868 -2.7898
 6626SOL    HW231512   0.374   4.118   8.411  3.7723  0.9944  0.6022
 6627SOL     OW31513   4.420   0.702   3.590  0.1184  0.5054 -0.0922
 6627SOL    HW131514   4.504   0.701   3.543  1.2781 -1.5141  2.0281
 6627SOL    HW231515   4.374   0.652   3.523  0.7091 -0.5003  0.2650
 6628SOL     OW31516   0.906   1.779  10.276 -0.0669  0.1040  0.5151
 6628SOL    HW131517   0.936   1.701  10.321 -0.5131  0.2896  1.1409
 6628SOL    HW231518   0.856   1.749  10.200  4.9289  1.4210 -3.3150
 6629SOL     OW31519   1.424   3.926   2.726  0.0175  0.1612 -0.1463
 6629SOL    HW131520   1.359   3.995   2.714  2.4154  2.2754 -0.9854
 6629SOL    HW231521   1.378   3.864   2.669 -0.2185  0.2393 -0.0404
 6630SOL     OW31522   1.717   4.178   3.887 -0.2181  0.5003 -0.1014
 6630SOL    HW131523   1.671   4.115   3.942 -0.3512 -2.0716 -3.1959
 6630SOL    HW231524   1.757   4.243   3.945  0.0672 -0.4765  0.8099
 6631SOL     OW31525   1.240   1.278   8.861  0.4209  0.0203  0.2332
 6631SOL    HW131526   1.265   1.337   8.791  2.9814 -0.1600  1.0002
 6631SOL    HW231527   1.159   1.313   8.899 -1.7083 -0.5574 -3.7480
 6632SOL     OW31528   1.967   3.949   8.382  0.4890 -0.1360 -0.2508
 6632SOL    HW131529   1.965   4.031   8.432  0.5482 -0.2055 -0.1368
 6632SOL    HW231530   1.885   3.957   8.333 -0.0950  1.0577  0.9150
 6633SOL     OW31531   4.418   3.458   5.139  0.4693 -0.4811 -0.0748
 6633SOL    HW131532   4.406   3.553   5.137  0.3670 -0.4831  0.8588
 6633SOL    HW231533   4.341   3.439   5.086  0.7016 -0.5437 -0.3932
 6634SOL     OW31534   3.310   1.128   8.337 -0.4392  0.0809  0.2453
 6634SOL    HW131535   3.304   1.083   8.253  0.4804 -0.4259  0.4433
 6634SOL    HW231536   3.351   1.065   8.396  1.4554  0.6805 -0.4043
 6635SOL     OW31537   3.844   4.618   1.389  0.2133 -0.2051 -0.2526
 6635SOL    HW131538   3.883   4.701   1.363  1.9724 -0.4798  1.5313
 6635SOL    HW231539   3.823   4.579   1.304 -1.5152  0.0067  0.0810
 6636SOL     OW31540   1.907   1.788   4.693 -0.3962 -0.2860  0.1935
 6636SOL    HW131541   1.879   1.782   4.601  0.5343  0.1294 -0.1150
 6636SOL    HW231542   1.986   1.841   4.684 -0.1033 -0.6591  0.5970
 6637SOL     OW31543   3.127   2.669   1.888 -0.0180  0.8198 -0.0835
 6637SOL    HW131544   3.081   2.699   1.810  2.2926  0.7881 -1.4409
 6637SOL    HW231545   3.173   2.749   1.911 -0.9873  1.6325 -0.9881
 6638SOL     OW31546   2.675   0.777   3.222 -1.0700  0.0698 -0.2927
 6638SOL    HW131547   2.753   0.801   3.272 -0.0276  0.6201 -2.2064
 6638SOL    HW231548   2.682   0.822   3.138  1.5243  0.0973 -0.0480
 6639SOL     OW31549   1.973   4.425   2.493  0.9727 -0.1819 -0.1110
 6639SOL    HW131550   2.039   4.379   2.543 -1.7754 -1.4086  2.3887
 6639SOL    HW231551   1.998   4.383   2.411 -1.8577  0.6731 -1.4322
 6640SOL     OW31552   4.582   4.414   7.906  0.7454 -0.7554 -0.0070
 6640SOL    HW131553   4.589   4.318   7.914  0.7731 -0.7365  0.1946
 6640SOL    HW231554   4.593   4.425   7.811 -1.2658  0.5599 -0.0817
 6641SOL     OW31555   2.632   3.123   4.876 -0.0397  0.7356 -0.2399
 6641SOL    HW131556   2.657   3.180   4.803  3.2403  0.5394  0.7214
 6641SOL    HW231557   2.547   3.095   4.843 -0.3296  1.3644 -0.0400
 6642SOL     OW31558   2.961   0.552  11.881  0.3512  1.0567  0.0871
 6642SOL    HW131559   2.990   0.594  11.800  0.7104 -1.0979 -0.9084
 6642SOL    HW231560   3.021   0.592  11.944 -0.9574  0.3339  1.7925
 6643SOL     OW31561   3.044   0.733   7.109  0.0039  0.2711 -0.6596
 6643SOL    HW131562   2.998   0.812   7.081 -0.6633  0.3036  0.5129
 6643SOL    HW231563   3.026   0.668   7.041  1.8583 -1.4690  0.5006
 6644SOL     OW31564   1.300   3.724   5.191 -0.1497  0.1034  0.1870
 6644SOL    HW131565   1.297   3.692   5.281 -0.7300 -0.5928 -0.0730
 6644SOL    HW231566   1.254   3.808   5.194 -1.6959 -0.7559  0.5296
 6645SOL     OW31567   4.232   4.612   5.457  0.1305 -0.3241 -0.1984
 6645SOL    HW131568   4.168   4.623   5.527  1.1315 -1.8715  0.9819
 6645SOL    HW231569   4.312   4.608   5.510  0.4691  2.3969 -0.5143
 6646SOL     OW31570   4.307   4.565   4.601 -0.3087  0.2493 -0.0074
 6646SOL    HW131571   4.299   4.482   4.554 -1.1942  0.6992 -0.6538
 6646SOL    HW231572   4.400   4.586   4.592 -0.2214 -0.7436 -1.4083
 6647SOL     OW31573   3.705   4.565   0.511  0.0047 -0.4615  0.4001
 6647SOL    HW131574   3.729   4.635   0.572  1.5260  0.2845 -1.0549
 6647SOL    HW231575   3.628   4.520   0.547 -0.9727  0.2357 -0.8321
 6648SOL     OW31576   3.648   4.545   9.246  0.5623  0.1395 -0.1772
 6648SOL    HW131577   3.665   4.578   9.157 -0.6840  0.6813 -0.2113
 6648SOL    HW231578   3.720   4.483   9.256  0.2686 -0.1964 -0.1536
 6649SOL     OW31579   1.788   0.172  17.332 -0.3754 -0.0011  0.3064
 6649SOL    HW131580   1.745   0.233  17.393 -1.6197  0.5761 -1.1468
 6649SOL    HW231581   1.845   0.221  17.274 -1.0317 -3.3036 -3.1073
 6650SOL     OW31582   2.132   3.028   3.865 -0.1688 -0.1107 -0.1084
 6650SOL    HW131583   2.187   3.062   3.794  0.6107 -0.1087  0.5049
 6650SOL    HW231584   2.046   3.020   3.822  0.9399 -1.1322 -2.0990
 6651SOL     OW31585   1.919   2.495   5.099  0.0132 -0.0951 -0.9330
 6651SOL    HW131586   1.865   2.540   5.034  1.7706  1.7810 -1.0757
 6651SOL    HW231587   1.990   2.557   5.116 -0.7324  0.4449  0.2007
 6652SOL     OW31588   3.635   1.432  12.167 -0.7444  0.4789 -0.1333
 6652SOL    HW131589   3.578   1.427  12.243 -1.2677 -1.7520 -0.6912
 6652SOL    HW231590   3.688   1.356  12.189 -0.2656  1.0956  0.8389
 6653SOL     OW31591   1.305   0.559   5.091  0.1064  0.5609 -0.2455
 6653SOL    HW131592   1.326   0.525   5.177  1.6933 -0.4799 -1.0366
 6653SOL    HW231593   1.306   0.653   5.109  0.4887  0.4182  0.4631
 6654SOL     OW31594   2.078   1.828   3.529  0.7115  0.1394  0.5976
 6654SOL    HW131595   2.094   1.790   3.442  3.1742  1.3555  0.5038
 6654SOL    HW231596   1.984   1.839   3.515  0.6089  1.3333  2.2081
 6655SOL     OW31597   3.616   0.496  10.991 -0.0198  0.6272  0.0831
 6655SOL    HW131598   3.550   0.486  11.060 -0.2045  2.9126  0.2504
 6655SOL    HW231599   3.691   0.539  11.031  1.0473 -0.6414 -0.5561
 6656SOL     OW31600   2.041   4.552   8.149  0.2122  0.3915  0.6497
 6656SOL    HW131601   1.995   4.619   8.199  1.6564  0.5073  1.8302
 6656SOL    HW231602   2.116   4.529   8.204  2.0517  2.1395 -1.1125
 6657SOL     OW31603   4.299   1.164  10.624  0.4007 -0.5966  0.3442
 6657SOL    HW131604   4.270   1.151  10.714 -3.8239 -2.8316 -1.2945
 6657SOL    HW231605   4.380   1.213  10.622 -1.3340  2.3061  1.7019
 6658SOL     OW31606   1.855   3.713   2.161  0.1241  0.2559  0.1007
 6658SOL    HW131607   1.831   3.788   2.107 -1.5572  0.4474  1.0818
 6658SOL    HW231608   1.819   3.637   2.114  0.0450  0.2019  0.2462
 6659SOL     OW31609   2.493   2.514   9.296 -0.3124 -0.0811  0.0105
 6659SOL    HW131610   2.552   2.581   9.330  0.0130 -0.2676 -0.1974
 6659SOL    HW231611   2.456   2.486   9.380  1.9040  0.2031  1.0758
 6660SOL     OW31612   3.807   1.154  16.008  0.2144 -0.0931 -0.2779
 6660SOL    HW131613   3.811   1.086  16.075  2.5445 -1.1721 -1.4750
 6660SOL    HW231614   3.823   1.096  15.933 -0.4310  0.5540 -0.9071
 6661SOL     OW31615   4.137   1.633   9.999  0.2478 -0.3249 -0.3315
 6661SOL    HW131616   4.102   1.673  10.079 -0.9104 -0.8895 -0.5667
 6661SOL    HW231617   4.167   1.548  10.030  2.4789  0.2304 -0.9209
 6662SOL     OW31618   1.393   0.301   6.559  0.2421  0.5860 -0.4978
 6662SOL    HW131619   1.465   0.239   6.553  0.4983  0.8923 -0.5640
 6662SOL    HW231620   1.411   0.342   6.644 -1.8783 -0.1762  0.3449
 6663SOL     OW31621   4.317   1.070  15.074 -0.4591 -0.4644 -0.0035
 6663SOL    HW131622   4.347   0.982  15.052  3.2352  0.4174  1.6254
 6663SOL    HW231623   4.400   1.115  15.087 -1.0948  0.7985 -0.3218
 6664SOL     OW31624   1.995   3.744   2.797 -0.3504  0.1372  0.3660
 6664SOL    HW131625   1.930   3.692   2.749 -1.0539  0.8797  0.5294
 6664SOL    HW231626   2.077   3.706   2.766 -0.1219 -0.3038  1.5288
 6665SOL     OW31627   0.113   0.794   7.800  0.1141  0.1709 -0.6164
 6665SOL    HW131628   0.056   0.847   7.744  0.0744  0.5612 -0.2099
 6665SOL    HW231629   0.170   0.757   7.733  0.1441 -0.2100 -0.3808
 6666SOL     OW31630   0.722   0.478  13.772  0.4237  0.3373 -0.5159
 6666SOL    HW131631   0.725   0.548  13.837 -0.3672  1.9853 -2.2190
 6666SOL    HW231632   0.754   0.515  13.689  0.0659  1.5756 -0.0984
 6667SOL     OW31633   3.903   4.630  17.524 -0.0746  0.2728 -0.3712
 6667SOL    HW131634   3.852   4.686  17.466  1.7031  1.1954 -1.0423
 6667SOL    HW231635   3.986   4.678  17.525 -0.6067  1.1110  3.1069
 6668SOL     OW31636   0.177   3.573   5.902  0.1155 -0.2114 -0.0388
 6668SOL    HW131637   0.161   3.662   5.869  2.2359  0.7783  1.6309
 6668SOL    HW231638   0.271   3.574   5.883  0.1381  2.2381  0.1978
 6669SOL     OW31639   3.223   2.703   9.224  0.4635  0.1507  0.4357
 6669SOL    HW131640   3.185   2.667   9.304  1.9925 -0.6165  0.8058
 6669SOL    HW231641   3.241   2.791   9.257  0.1007  0.5691 -0.4612
 6670SOL     OW31642   1.217   4.474   3.428  0.1670  0.5818 -0.0932
 6670SOL    HW131643   1.163   4.544   3.392 -1.0346 -0.3349 -0.0446
 6670SOL    HW231644   1.159   4.455   3.501 -0.8727 -1.1345 -1.3838
 6671SOL     OW31645   4.162   0.656  14.501  0.3336  0.3317 -0.1945
 6671SOL    HW131646   4.219   0.659  14.424  1.2663 -2.0021  0.3993
 6671SOL    HW231647   4.118   0.741  14.506 -1.5496 -0.6349 -0.0765
 6672SOL     OW31648   1.727   4.181   1.117  0.1170 -0.2657  0.8018
 6672SOL    HW131649   1.795   4.230   1.070 -0.8701  1.0277  0.7492
 6672SOL    HW231650   1.719   4.226   1.201 -0.4425  2.0977 -0.5494
 6673SOL     OW31651   3.946   0.777  17.262  0.0777 -0.0099 -0.0253
 6673SOL    HW131652   4.031   0.822  17.255  0.5465 -1.1971 -1.8794
 6673SOL    HW231653   3.975   0.686  17.254  0.0937  0.0243 -0.3511
 6674SOL     OW31654   0.367   1.202   7.946  0.3763  0.2480  0.3239
 6674SOL    HW131655   0.311   1.279   7.933 -0.4500 -0.4224 -0.1143
 6674SOL    HW231656   0.399   1.195   7.856  0.5389  0.1742  0.3875
 6675SOL     OW31657   2.585   0.133  10.543 -0.1080  0.5867  0.1336
 6675SOL    HW131658   2.613   0.044  10.566 -3.4504 -0.6788 -0.6805
 6675SOL    HW231659   2.494   0.113  10.521  0.5372 -1.8909 -0.3354
 6676SOL     OW31660   1.079   0.699   8.853  0.4812  0.4561  0.2497
 6676SOL    HW131661   1.113   0.789   8.851  0.3138  0.5574  2.1398
 6676SOL    HW231662   1.131   0.641   8.908  1.5767 -0.7342 -2.0467
 6677SOL     OW31663   1.871   1.839   0.486  0.3575 -0.5277 -0.4020
 6677SOL    HW131664   1.840   1.873   0.402 -1.3622 -0.0636  0.4215
 6677SOL    HW231665   1.965   1.858   0.479  0.2435 -0.2464 -1.1344
 6678SOL     OW31666   3.694   4.483  11.165 -0.6748  0.3976 -0.3179
 6678SOL    HW131667   3.763   4.418  11.183 -1.1375  0.1775  0.6481
 6678SOL    HW231668   3.679   4.469  11.072 -2.2651  0.3182 -0.0369
 6679SOL     OW31669   2.103   4.558   7.881 -0.4432 -0.5213 -0.0338
 6679SOL    HW131670   2.071   4.567   7.971  0.1270  0.3170  0.0852
 6679SOL    HW231671   2.140   4.470   7.876 -2.0296 -1.3231  2.4684
 6680SOL     OW31672   3.814   4.093   4.983 -0.1601 -0.8787  0.1799
 6680SOL    HW131673   3.784   4.096   5.074  3.4245 -1.3994  1.3617
 6680SOL    HW231674   3.909   4.082   4.992  0.2257  2.4918  0.3203
 6681SOL     OW31675   1.052   4.310   4.611 -0.1435  0.4959  0.4940
 6681SOL    HW131676   0.983   4.250   4.639  0.8388 -0.3798  0.9891
 6681SOL    HW231677   1.108   4.249   4.563  1.6492  0.2220  2.9520
 6682SOL     OW31678   3.592   1.227   2.334 -0.4321 -0.9983  0.0313
 6682SOL    HW131679   3.599   1.133   2.344  2.8908 -0.5799  1.5250
 6682SOL    HW231680   3.541   1.223   2.253  0.4883  0.2023 -0.6191
 6683SOL     OW31681   3.009   2.068   4.710  0.0815  0.0673  0.3115
 6683SOL    HW131682   2.999   2.052   4.616  3.1935 -0.5804  0.0820
 6683SOL    HW231683   3.104   2.079   4.713  0.0695  0.5405 -1.0438
 6684SOL     OW31684   3.413   2.784   4.700  0.5949  0.1653  0.2858
 6684SOL    HW131685   3.440   2.758   4.611  0.7112  0.1149  0.3354
 6684SOL    HW231686   3.324   2.813   4.683  0.7970 -1.5837 -3.7822
 6685SOL     OW31687   0.462   0.270   6.637  0.2696 -0.3742  0.0709
 6685SOL    HW131688   0.521   0.268   6.562 -1.4918 -1.5254 -1.2564
 6685SOL    HW231689   0.486   0.188   6.681 -1.6911 -2.0088 -1.9058
 6686SOL     OW31690   2.581   1.282   3.098  0.0388  0.6692 -0.2014
 6686SOL    HW131691   2.510   1.218   3.092 -0.1811  0.9617 -0.7964
 6686SOL    HW231692   2.614   1.273   3.187 -1.1137 -0.5588  0.1073
 6687SOL     OW31693   0.810   2.737   2.582  0.0180 -1.0252 -0.1684
 6687SOL    HW131694   0.895   2.740   2.537  0.2647 -1.3519  0.2721
 6687SOL    HW231695   0.757   2.694   2.516 -2.8729  0.6703  1.0568
 6688SOL     OW31696   2.130   2.829   8.930  0.0635  0.2895  0.9450
 6688SOL    HW131697   2.142   2.901   8.868  0.7571  0.9112  1.7955
 6688SOL    HW231698   2.120   2.750   8.877 -0.2488 -1.3269  3.4180
 6689SOL     OW31699   2.109   3.215  11.466 -0.2623 -0.3718 -0.0124
 6689SOL    HW131700   2.104   3.187  11.557  2.8305 -2.0927 -0.3598
 6689SOL    HW231701   2.023   3.250  11.443 -0.1551 -1.6413 -2.4302
 6690SOL     OW31702   0.122   3.775   8.179 -0.4238  0.3262 -0.0365
 6690SOL    HW131703   0.041   3.724   8.187  0.0875 -0.0021  2.7985
 6690SOL    HW231704   0.193   3.711   8.184 -0.2078  0.5225 -0.6042
 6691SOL     OW31705   0.406   2.053   7.765  0.3469  0.0597  0.5670
 6691SOL    HW131706   0.339   1.992   7.737  0.5114  0.1126  0.0530
 6691SOL    HW231707   0.383   2.129   7.711 -0.3061  1.4352  2.7749
 6692SOL     OW31708   1.142   3.027   3.662 -0.1838 -0.4073  0.6804
 6692SOL    HW131709   1.225   3.021   3.614 -0.8249 -2.8217 -0.1018
 6692SOL    HW231710   1.154   3.100   3.724  0.6995  0.1111 -0.0954
 6693SOL     OW31711   3.004   0.450   1.065  0.4764 -0.4085 -0.0842
 6693SOL    HW131712   3.071   0.387   1.093 -0.8058 -1.6093  0.2751
 6693SOL    HW231713   3.047   0.534   1.083  0.8210 -0.7019  0.4930
 6694SOL     OW31714   3.336   4.223   2.751  0.3744  0.2308  0.0074
 6694SOL    HW131715   3.330   4.287   2.822  0.2002 -0.5499  0.6996
 6694SOL    HW231716   3.373   4.284   2.687  0.6496  1.2997  1.1664
 6695SOL     OW31717   1.212   1.616   2.454  0.0008 -0.6944 -0.1952
 6695SOL    HW131718   1.305   1.623   2.478 -0.5017 -1.0527  1.8641
 6695SOL    HW231719   1.196   1.708   2.433  1.0823  0.2497  3.2430
 6696SOL     OW31720   0.641   0.002   5.603 -0.0607 -0.6076  0.4772
 6696SOL    HW131721   0.682   0.019   5.518 -0.0177  0.1619  0.6469
 6696SOL    HW231722   0.716   4.733   5.661  1.4870 -1.4444 -1.6050
 6697SOL     OW31723   2.801   1.172   1.282  1.0014  0.0590  0.2091
 6697SOL    HW131724   2.814   1.220   1.364  1.7710 -0.7466  0.5559
 6697SOL    HW231725   2.714   1.200   1.254  0.8548  0.1247  0.7323
 6698SOL     OW31726   3.255   3.704  12.854 -0.8480  0.2000 -0.6621
 6698SOL    HW131727   3.298   3.641  12.796 -3.4042 -0.4765 -1.8473
 6698SOL    HW231728   3.189   3.748  12.800 -0.8336  0.2917 -0.6055
 6699SOL     OW31729   2.851   4.272  16.982  0.0409 -0.1957 -0.2174
 6699SOL    HW131730   2.825   4.362  16.962 -1.0563 -0.4936 -0.0900
 6699SOL    HW231731   2.771   4.225  17.003 -0.8009  1.0077 -0.7574
 6700SOL     OW31732   4.091   0.433   1.667  0.0856 -0.5484 -0.0336
 6700SOL    HW131733   4.154   0.438   1.596  0.8749  0.7325  0.7468
 6700SOL    HW231734   4.085   0.338   1.674  2.4676 -0.5828  1.6490
 6701SOL     OW31735   4.567   4.237   6.855  0.1183 -0.9431 -0.2733
 6701SOL    HW131736   4.478   4.201   6.855 -0.2332 -0.0950 -2.4979
 6701SOL    HW231737   4.560   4.321   6.900  1.8845 -2.3290  2.5801
 6702SOL     OW31738   1.958   1.332  15.328 -0.1896 -0.0505 -0.4678
 6702SOL    HW131739   2.005   1.407  15.291 -1.7683  2.1492  2.0187
 6702SOL    HW231740   1.904   1.377  15.393 -0.3183 -0.2160 -0.4603
 6703SOL     OW31741   1.994   3.619   8.211 -0.1034 -0.1796  0.5931
 6703SOL    HW131742   1.904   3.624   8.244 -0.3146  1.4596 -0.2461
 6703SOL    HW231743   2.019   3.532   8.241  0.1609 -0.4132 -0.3243
 6704SOL     OW31744   4.736   3.227   4.138  0.9867 -0.3649  0.0359
 6704SOL    HW131745   0.077   3.245   4.193  0.3056  1.2303  0.4868
 6704SOL    HW231746   4.707   3.139   4.161 -0.2320  0.2576  0.9387
 6705SOL     OW31747   1.388   4.493  11.316 -0.5494 -0.4478  0.2240
 6705SOL    HW131748   1.308   4.543  11.329  0.1329  0.9178 -0.7701
 6705SOL    HW231749   1.382   4.462  11.226  0.1511 -1.7104  0.6067
 6706SOL     OW31750   1.969   3.557  13.982 -0.0157  0.4060  0.5901
 6706SOL    HW131751   2.048   3.602  14.014  0.5321 -0.7155  0.8110
 6706SOL    HW231752   1.908   3.631  13.980  2.2667  2.3399  1.3953
 6707SOL     OW31753   1.512   3.330   4.316 -0.6852 -0.1590  0.0019
 6707SOL    HW131754   1.588   3.342   4.259  0.3883 -1.5610  1.1355
 6707SOL    HW231755   1.505   3.235   4.307 -0.4685 -0.1603 -0.1743
 6708SOL     OW31756   1.616   0.742  14.610 -0.0440  0.2893 -0.5181
 6708SOL    HW131757   1.640   0.833  14.628  1.9349 -0.2313 -0.5938
 6708SOL    HW231758   1.688   0.684  14.634  0.8378  2.0314  1.1201
 6709SOL     OW31759   2.037   0.233   6.983 -0.0703  0.1483  0.2321
 6709SOL    HW131760   2.072   0.228   6.894  2.9424  0.3006  1.4144
 6709SOL    HW231761   2.111   0.190   7.025  0.5098  2.1710  1.2789
 6710SOL     OW31762   2.446   0.781   5.046  0.0262 -0.4332  0.1287
 6710SOL    HW131763   2.365   0.733   5.028  0.9741 -1.8671 -0.2586
 6710SOL    HW231764   2.509   0.716   5.016  1.4548  1.6493 -1.4626
 6711SOL     OW31765   3.045   4.460   8.778 -0.0136 -0.0660 -0.0177
 6711SOL    HW131766   3.096   4.392   8.735  0.1423  0.2682 -0.3705
 6711SOL    HW231767   3.109   4.530   8.763  1.6500 -1.6651 -0.4330
 6712SOL     OW31768   3.352   2.164   8.937 -0.0404  0.1357  0.0901
 6712SOL    HW131769   3.300   2.152   8.857  1.0257 -0.4277 -0.5315
 6712SOL    HW231770   3.442   2.145   8.908 -0.7595 -0.6869 -1.5905
 6713SOL     OW31771   1.311   0.058   3.498 -0.1433  0.0543  0.0986
 6713SOL    HW131772   1.388   0.008   3.525 -2.1197 -1.8923  2.0141
 6713SOL    HW231773   1.251   0.057   3.572  0.5874 -0.5507  0.6778
 6714SOL     OW31774   4.309   0.353  16.304 -0.5011  0.2795  0.1566
 6714SOL    HW131775   4.377   0.366  16.237  0.3835  0.7509  1.1449
 6714SOL    HW231776   4.304   0.261  16.279 -3.1162  0.7052 -0.8765
 6715SOL     OW31777   0.564   1.247   6.310  0.1175  0.5872 -0.1384
 6715SOL    HW131778   0.622   1.177   6.279  0.1900 -0.5379  2.5240
 6715SOL    HW231779   0.499   1.263   6.242 -0.7594  1.1228  0.8250
 6716SOL     OW31780   2.154   2.323   8.654  0.1816  0.0353 -0.3875
 6716SOL    HW131781   2.229   2.275   8.688 -1.0420 -0.9291  0.9820
 6716SOL    HW231782   2.199   2.399   8.617 -2.0192  0.3746 -2.3993
 6717SOL     OW31783   3.281   2.523   3.964  0.3326  0.5640 -0.2160
 6717SOL    HW131784   3.297   2.572   3.884  0.4196  2.2182  0.8094
 6717SOL    HW231785   3.204   2.573   3.990 -1.3727 -1.8225 -0.6414
 6718SOL     OW31786   0.978   0.620   4.696 -0.5697  0.4719  0.4555
 6718SOL    HW131787   0.952   0.585   4.782 -0.3991 -1.9989 -0.4943
 6718SOL    HW231788   1.045   0.556   4.670 -0.5200  0.4013  0.7509
 6719SOL     OW31789   1.605   0.052   9.935  0.1247 -0.4952  0.0467
 6719SOL    HW131790   1.577   0.040   9.844 -0.4160 -0.1631  0.1682
 6719SOL    HW231791   1.677   4.727   9.921  1.5879  0.8516  1.7183
 6720SOL     OW31792   2.061   3.892  13.402 -0.5331 -0.2011 -0.8148
 6720SOL    HW131793   2.089   3.975  13.362  4.0053 -0.6512  1.3793
 6720SOL    HW231794   1.969   3.916  13.400 -0.4517  0.2852  1.0873
 6721SOL     OW31795   0.877   0.593   5.265  0.1874  0.0680 -0.1265
 6721SOL    HW131796   0.853   0.673   5.311 -1.6981 -1.3203  1.3117
 6721SOL    HW231797   0.842   0.617   5.179  0.0900  1.0463  0.1845
 6722SOL     OW31798   3.423   3.011   7.369 -0.2885 -0.4807 -0.3137
 6722SOL    HW131799   3.371   3.065   7.310  0.8151  2.0946  1.0605
 6722SOL    HW231800   3.445   2.940   7.309 -1.2041 -1.3519  0.3740
 6723SOL     OW31801   3.702   3.135   2.944 -0.3827  0.6357 -0.1233
 6723SOL    HW131802   3.750   3.153   2.863  0.3347  0.3919  0.2481
 6723SOL    HW231803   3.731   3.211   2.995  0.8866 -0.6806  1.0778
 6724SOL     OW31804   0.349   0.539   3.296 -0.9246  0.5477 -0.5886
 6724SOL    HW131805   0.324   0.482   3.369 -1.3528  3.2066  1.3390
 6724SOL    HW231806   0.339   0.624   3.339 -0.6991 -0.2456  1.0571
 6725SOL     OW31807   4.241   3.076  11.196 -0.1646 -0.1528 -0.1286
 6725SOL    HW131808   4.297   3.124  11.134 -2.1553  0.2641 -1.6095
 6725SOL    HW231809   4.214   3.002  11.142 -1.4285 -0.6726  1.2309
 6726SOL     OW31810   1.443   0.194   6.051  0.0466 -0.0569 -0.0305
 6726SOL    HW131811   1.415   0.104   6.034 -0.3237 -0.1388  1.0412
 6726SOL    HW231812   1.383   0.229   6.117  1.2672 -0.0097  1.0536
 6727SOL     OW31813   0.750   4.355   4.507  0.6816  0.4898 -0.1628
 6727SOL    HW131814   0.765   4.437   4.555  2.9475 -0.1674  0.2744
 6727SOL    HW231815   0.802   4.388   4.434  0.5158  0.7652 -0.1530
 6728SOL     OW31816   0.049   3.973  12.537  0.3482  0.3574  0.0981
 6728SOL    HW131817   0.051   4.067  12.549 -0.1565  0.5252 -1.1087
 6728SOL    HW231818   0.143   3.957  12.525  0.0339 -1.6244  0.2586
 6729SOL     OW31819   0.659   1.360   6.904  0.2112 -0.2311  0.5870
 6729SOL    HW131820   0.663   1.303   6.980  1.0393  2.2414  2.3863
 6729SOL    HW231821   0.628   1.440   6.947  3.8399  0.5953  1.6180
 6730SOL     OW31822   3.889   0.157   8.699 -0.6785 -0.1006  0.4135
 6730SOL    HW131823   3.917   0.095   8.767 -2.4013 -2.2466 -0.8610
 6730SOL    HW231824   3.797   0.169   8.722 -0.3404  2.4484  0.4570
 6731SOL     OW31825   4.436   4.228  16.462  0.3275  0.3099  0.0634
 6731SOL    HW131826   4.379   4.304  16.450 -1.6263 -1.0803  0.4802
 6731SOL    HW231827   4.413   4.204  16.552  2.3435 -1.3370  0.1309
 6732SOL     OW31828   0.511   1.490   3.704  0.0023  0.2618  0.1718
 6732SOL    HW131829   0.541   1.581   3.705  0.1632  0.2237 -1.4314
 6732SOL    HW231830   0.421   1.502   3.736  0.2316  1.2454  0.4486
 6733SOL     OW31831   0.085   4.069  11.586 -0.3166  0.4498 -0.2378
 6733SOL    HW131832   0.152   4.128  11.622 -0.1505  0.3176 -0.3284
 6733SOL    HW231833   0.139   3.989  11.579 -0.3101  0.3845  0.5901
 6734SOL     OW31834   3.341   2.235   7.221 -0.9685  0.9978  0.2436
 6734SOL    HW131835   3.404   2.196   7.160  1.4874  2.7959  1.5965
 6734SOL    HW231836   3.256   2.219   7.181 -0.8558  1.7357 -0.3071
 6735SOL     OW31837   4.250   1.999  17.098  0.6191 -0.1151  0.2520
 6735SOL    HW131838   4.241   2.083  17.143  1.3567 -2.0091  3.8598
 6735SOL    HW231839   4.240   2.013  17.003 -2.7832 -0.9730  0.4860
 6736SOL     OW31840   0.508   3.009  16.848  0.1275 -0.3526  0.6041
 6736SOL    HW131841   0.447   3.081  16.834  1.8965  0.5229 -2.6335
 6736SOL    HW231842   0.492   2.966  16.764  2.1589  0.3019 -0.1268
 6737SOL     OW31843   1.736   2.800   1.907 -0.5002 -0.1522 -0.0072
 6737SOL    HW131844   1.721   2.883   1.953  0.2447  0.1747 -0.3619
 6737SOL    HW231845   1.654   2.786   1.860 -1.4682  1.4168  1.1821
 6738SOL     OW31846   2.226   1.010   2.341  0.0196 -0.1017 -0.6405
 6738SOL    HW131847   2.169   1.007   2.264 -0.5162 -2.7999 -0.1454
 6738SOL    HW231848   2.286   0.938   2.324  0.9031  0.1732  1.3236
 6739SOL     OW31849   2.180   1.999   7.138 -0.3118  0.0054  0.1644
 6739SOL    HW131850   2.231   2.074   7.106  1.3220 -0.7532  0.9778
 6739SOL    HW231851   2.094   2.035   7.120 -0.2989 -0.4891 -0.9236
 6740SOL     OW31852   0.057   2.979   6.882  0.4422 -0.5503 -0.2925
 6740SOL    HW131853   4.708   2.960   6.845  0.4904 -0.0763 -0.6403
 6740SOL    HW231854   0.022   3.012   6.965  0.0486 -2.0842  0.1377
 6741SOL     OW31855   2.689   2.965   8.998  0.1497 -0.4130 -0.0602
 6741SOL    HW131856   2.605   2.923   8.978 -0.1166  0.0768  0.0374
 6741SOL    HW231857   2.660   3.055   9.011 -0.0809 -0.5536  0.4274
 6742SOL     OW31858   2.280   0.289   4.526 -0.0796  0.5302  0.1699
 6742SOL    HW131859   2.326   0.259   4.604  1.2471 -0.1085 -0.8600
 6742SOL    HW231860   2.204   0.232   4.517  1.2468 -1.4431  1.5394
 6743SOL     OW31861   3.476   1.348   8.037  0.1951  0.3523 -0.1075
 6743SOL    HW131862   3.449   1.381   7.952  0.0280 -1.8306 -0.8811
 6743SOL    HW231863   3.552   1.291   8.027 -1.7857 -2.7344  2.1554
 6744SOL     OW31864   3.849   2.321   5.687 -0.1368  0.1700 -0.1444
 6744SOL    HW131865   3.815   2.386   5.625  1.9067  1.0139 -0.3919
 6744SOL    HW231866   3.767   2.290   5.724 -1.3753  0.6180 -2.5104
 6745SOL     OW31867   3.947   2.129  15.766 -0.2244  0.4233  0.3227
 6745SOL    HW131868   3.919   2.142  15.857  0.5604  1.1213  0.4579
 6745SOL    HW231869   4.024   2.185  15.764  2.4022 -3.1500  0.5188
 6746SOL     OW31870   2.956   3.395  16.519  0.0805  0.1546  0.4371
 6746SOL    HW131871   2.917   3.420  16.435  3.3143  0.4919 -0.9991
 6746SOL    HW231872   2.989   3.306  16.506 -2.8656 -1.0248  1.2131
 6747SOL     OW31873   2.061   0.786   4.661 -0.0134  0.1752 -0.1880
 6747SOL    HW131874   2.030   0.852   4.599  1.1611  1.9484  1.0853
 6747SOL    HW231875   2.040   0.702   4.622  1.8475 -0.4891  0.2400
 6748SOL     OW31876   3.519   0.944  11.741 -0.0991  0.0881 -0.0946
 6748SOL    HW131877   3.456   1.002  11.785  0.8803  2.8947 -2.3729
 6748SOL    HW231878   3.545   1.007  11.674  0.2740  1.2175  1.0991
 6749SOL     OW31879   2.208   4.650  15.353 -0.1241 -0.1221 -0.0719
 6749SOL    HW131880   2.234   4.599  15.277  0.5750  1.1118 -0.6718
 6749SOL    HW231881   2.199   0.004  15.320  0.3966 -0.8122 -2.0874
 6750SOL     OW31882   2.112   0.222   3.848  0.3312 -0.3935  0.4093
 6750SOL    HW131883   2.072   0.288   3.905 -3.1276 -0.8881 -1.5054
 6750SOL    HW231884   2.108   0.143   3.901 -1.0973 -0.7615 -0.2665
 6751SOL     OW31885   1.233   0.493   7.505 -0.1316  0.5659  0.0203
 6751SOL    HW131886   1.265   0.555   7.571  0.2449 -1.7887  2.0355
 6751SOL    HW231887   1.245   0.404   7.539  0.5204  1.0401  1.0266
 6752SOL     OW31888   4.659   2.376   8.029 -0.0454  0.4488 -0.6345
 6752SOL    HW131889   4.666   2.382   8.125  0.3518 -0.5156 -0.6077
 6752SOL    HW231890   0.017   2.390   8.014  0.4198 -0.8371  1.0963
 6753SOL     OW31891   0.055   2.174  14.346  0.2330  0.4885  0.2167
 6753SOL    HW131892   0.044   2.263  14.381  1.5349  0.8734 -0.3560
 6753SOL    HW231893   0.070   2.124  14.427 -3.7060  1.9495  1.8682
 6754SOL     OW31894   3.470   1.439   5.612  0.2178 -0.0438 -0.1137
 6754SOL    HW131895   3.535   1.368   5.612 -1.5842 -1.6808  1.0865
 6754SOL    HW231896   3.493   1.477   5.696 -0.8528  0.1322  0.0909
 6755SOL     OW31897   2.182   0.564   4.539  0.1528 -0.0529  0.7309
 6755SOL    HW131898   2.200   0.472   4.558  0.8751  0.1997  1.2643
 6755SOL    HW231899   2.154   0.561   4.447  1.6870  0.3282  0.2627
 6756SOL     OW31900   2.602   1.829   8.647 -0.7815 -0.5531  0.7704
 6756SOL    HW131901   2.680   1.781   8.619 -2.1045 -1.4441 -1.3165
 6756SOL    HW231902   2.656   1.898   8.686 -1.6409  1.0744 -0.9215
 6757SOL     OW31903   3.423   2.876   5.463  0.0965  0.1299  0.0720
 6757SOL    HW131904   3.421   2.948   5.526 -0.0921  1.5086 -1.5322
 6757SOL    HW231905   3.518   2.864   5.460  0.1610  0.7424 -0.2597
 6758SOL     OW31906   1.654   1.120  12.255 -0.2630  0.3238 -0.3734
 6758SOL    HW131907   1.566   1.150  12.277  0.0449 -0.9934  2.6179
 6758SOL    HW231908   1.637   1.071  12.174  0.8396 -2.9685  1.3800
 6759SOL     OW31909   2.440   2.287   8.328 -0.7287  0.5289 -0.6896
 6759SOL    HW131910   2.480   2.372   8.311 -0.2446  0.7375  1.4245
 6759SOL    HW231911   2.498   2.227   8.282  0.9033  3.3168 -2.2854
 6760SOL     OW31912   0.589   2.945   8.103 -0.5893  0.4541  0.0000
 6760SOL    HW131913   0.583   2.901   8.018 -1.2359 -0.2975  0.4389
 6760SOL    HW231914   0.617   2.867   8.151 -1.0186  0.7672  0.7512
 6761SOL     OW31915   0.854   3.026   9.039  0.1236 -0.1458 -0.0650
 6761SOL    HW131916   0.946   3.001   9.025  0.8219  0.4315  3.4792
 6761SOL    HW231917   0.817   2.948   9.080 -0.0461  0.5388  1.0827
 6762SOL     OW31918   4.549   0.275  13.260  0.9664 -0.2626  0.0993
 6762SOL    HW131919   4.522   0.355  13.215 -1.9882 -1.6268 -0.5294
 6762SOL    HW231920   4.632   0.302  13.299  2.1593 -1.3922 -1.6297
 6763SOL     OW31921   0.859   1.636   8.778  0.0416 -0.1194  0.4400
 6763SOL    HW131922   0.875   1.718   8.825 -1.0600  0.6306 -0.4958
 6763SOL    HW231923   0.768   1.619   8.803 -0.1065 -0.1405 -0.1194
 6764SOL     OW31924   1.119   4.706   8.934  0.0236  0.3279  0.5543
 6764SOL    HW131925   1.073   4.645   8.993 -0.6423  1.2042  0.9349
 6764SOL    HW231926   1.127   4.652   8.855 -1.3808 -0.3301  0.8518
 6765SOL     OW31927   0.543   4.254   5.020  0.3437  0.1235 -0.2533
 6765SOL    HW131928   0.622   4.308   5.019 -0.0101  0.6472  1.1558
 6765SOL    HW231929   0.481   4.298   5.078  2.4346  0.7243  1.5266
 6766SOL     OW31930   3.308   4.719  17.277  0.1598 -0.1979  0.7165
 6766SOL    HW131931   3.243   4.658  17.312  0.4607 -0.3496  1.0191
 6766SOL    HW231932   3.251   0.039  17.225  1.3454  0.6826  0.3626
 6767SOL     OW31933   4.560   0.508   0.383  0.3058 -0.2988 -0.1490
 6767SOL    HW131934   4.593   0.431   0.428 -0.6538 -0.9639 -0.5791
 6767SOL    HW231935   4.529   0.481   0.296 -1.6660 -0.4037  0.5922
 6768SOL     OW31936   3.790   3.443   7.770 -0.0613 -0.5454  0.1133
 6768SOL    HW131937   3.769   3.397   7.689  1.5754 -1.4143  0.1840
 6768SOL    HW231938   3.787   3.370   7.832  0.9202 -1.2200 -0.6226
 6769SOL     OW31939   0.612   2.595   6.711 -0.4968 -0.5876  0.3748
 6769SOL    HW131940   0.615   2.500   6.710 -0.9138 -0.6052  0.7067
 6769SOL    HW231941   0.538   2.617   6.654  1.0307  2.8153 -0.2819
 6770SOL     OW31942   1.099   1.780   7.703  0.1887 -0.6542 -0.3651
 6770SOL    HW131943   1.050   1.775   7.785  0.1030 -1.3662 -0.4607
 6770SOL    HW231944   1.181   1.734   7.726  0.3407 -0.4643 -0.5321
 6771SOL     OW31945   0.954   2.442   5.755  0.0693 -0.5227 -0.2050
 6771SOL    HW131946   0.876   2.432   5.809  0.3880  0.6682  0.4636
 6771SOL    HW231947   0.935   2.514   5.694  0.5714  0.6208  0.9912
 6772SOL     OW31948   3.141   0.453   5.193 -0.1534  0.1883  0.1453
 6772SOL    HW131949   3.057   0.418   5.225  0.5073 -0.3490  1.3103
 6772SOL    HW231950   3.144   0.528   5.253  0.4502  0.6154 -0.4191
 6773SOL     OW31951   2.456   3.187   3.372 -0.1438 -0.0169  0.0483
 6773SOL    HW131952   2.504   3.109   3.402 -0.7361 -0.2595  0.3595
 6773SOL    HW231953   2.516   3.228   3.310  0.3817 -1.5339 -0.4463
 6774SOL     OW31954   2.765   3.093   0.286 -0.3989  0.3963  0.7858
 6774SOL    HW131955   2.700   3.113   0.219 -1.9885 -3.3104  1.2607
 6774SOL    HW231956   2.799   3.010   0.255 -2.2473 -0.7460  1.8570
 6775SOL     OW31957   3.818   4.549   7.796 -0.4778 -0.7045  0.2701
 6775SOL    HW131958   3.896   4.516   7.752 -1.1510 -1.0092 -0.7135
 6775SOL    HW231959   3.859   4.599   7.867 -1.6117  2.9277 -1.6215
 6776SOL     OW31960   2.404   0.776   7.476 -0.0856  0.2575 -0.5119
 6776SOL    HW131961   2.412   0.774   7.571  0.0530  2.0581 -0.4865
 6776SOL    HW231962   2.422   0.869   7.465 -0.2592  0.4047  0.4113
 6777SOL     OW31963   3.545   1.841   7.090 -0.0047 -0.1481  0.1642
 6777SOL    HW131964   3.536   1.840   7.186  1.0955  3.6538  0.3052
 6777SOL    HW231965   3.577   1.754   7.068 -1.2072 -0.3427 -0.8051
 6778SOL     OW31966   1.208   2.890   2.289 -0.1448  0.0357 -0.2784
 6778SOL    HW131967   1.197   2.979   2.324 -1.2302 -0.7534  1.3425
 6778SOL    HW231968   1.299   2.887   2.261  0.1325 -1.0058  0.7390
 6779SOL     OW31969   4.146   0.137  13.950 -0.0245  0.1481  0.0747
 6779SOL    HW131970   4.202   0.061  13.938 -0.6879 -0.3533  0.1444
 6779SOL    HW231971   4.111   0.112  14.035 -1.0422 -1.5785 -0.8436
 6780SOL     OW31972   0.079   1.242   5.680  0.4783  0.1492 -0.1508
 6780SOL    HW131973   0.024   1.254   5.602 -0.7456 -0.2584  0.6487
 6780SOL    HW231974   0.131   1.167   5.652  2.2592  1.5572 -0.6002
 6781SOL     OW31975   1.211   3.788   2.036 -0.3602  0.7356  0.5215
 6781SOL    HW131976   1.263   3.737   2.097 -0.4578 -0.1977 -0.1657
 6781SOL    HW231977   1.153   3.816   2.106  1.3081  1.6595  1.5285
 6782SOL     OW31978   3.328   0.005  17.611 -0.1524 -0.3832  0.3589
 6782SOL    HW131979   3.421   0.023  17.595  0.1382 -2.0839  0.1153
 6782SOL    HW231980   3.321   4.651  17.581  0.3295 -0.3794  0.2314
 6783SOL     OW31981   0.575   1.815   9.328 -0.0470  0.9255 -0.3684
 6783SOL    HW131982   0.627   1.751   9.377 -1.6358  0.0713  0.1975
 6783SOL    HW231983   0.549   1.750   9.262  0.9379 -1.7069  1.8566
 6784SOL     OW31984   1.100   2.779   4.438  0.2029 -0.0592 -0.1125
 6784SOL    HW131985   1.151   2.849   4.397  1.0923 -1.6487 -1.7258
 6784SOL    HW231986   1.038   2.827   4.493 -0.4487 -0.8690 -0.1366
 6785SOL     OW31987   2.837   2.644   6.944  0.1259  0.3277  0.1503
 6785SOL    HW131988   2.762   2.595   6.910  1.1577 -1.0883 -0.0560
 6785SOL    HW231989   2.823   2.711   6.876 -0.6651  0.8099  0.7918
 6786SOL     OW31990   1.438   3.257  12.287 -0.6837  0.2053 -0.1202
 6786SOL    HW131991   1.390   3.234  12.367 -1.2195  2.0630  0.1023
 6786SOL    HW231992   1.517   3.288  12.330 -0.4093 -0.2731 -0.2788
 6787SOL     OW31993   1.521   1.851  13.423  0.4067  0.2241  0.5753
 6787SOL    HW131994   1.596   1.902  13.453  0.7701 -0.0908  0.2069
 6787SOL    HW231995   1.546   1.759  13.434  3.0875  0.5005 -3.0860
 6788SOL     OW31996   4.295   4.121   6.777 -0.8508 -0.0501 -0.4162
 6788SOL    HW131997   4.210   4.157   6.805 -0.8723  0.1444 -0.7319
 6788SOL    HW231998   4.312   4.167   6.695  1.0410 -2.8811 -1.5986
 6789SOL     OW31999   0.124   2.644   5.991 -0.6728 -0.0416 -0.5270
 6789SOL    HW132000   0.167   2.589   5.926  0.4727  0.6007 -0.3033
 6789SOL    HW232001   0.130   2.591   6.071  2.6755  1.9042  0.4887
 6790SOL     OW32002   0.354   1.752  10.699 -0.5331  1.0498 -0.2903
 6790SOL    HW132003   0.334   1.759  10.605  0.0430  1.2269 -0.4014
 6790SOL    HW232004   0.447   1.773  10.694 -0.6084  1.3038 -0.6483
 6791SOL     OW32005   3.903   3.911  10.521 -0.3093 -0.2955 -0.2774
 6791SOL    HW132006   3.875   3.926  10.431 -0.0189  0.4254 -0.2537
 6791SOL    HW232007   3.924   4.001  10.547  1.0986 -0.4919 -0.7666
 6792SOL     OW32008   2.070   1.989  14.071  0.2855 -0.1761 -0.2022
 6792SOL    HW132009   2.155   2.032  14.079 -0.2635  1.1562 -1.5678
 6792SOL    HW232010   2.093   1.935  13.995 -0.3803  0.5721 -0.9436
 6793SOL     OW32011   2.297   0.199   3.472 -0.0117 -0.8440 -0.1270
 6793SOL    HW132012   2.336   0.217   3.558 -2.7486 -0.4911  1.0514
 6793SOL    HW232013   2.348   0.263   3.423 -0.3586 -1.0708 -0.7759
 6794SOL     OW32014   3.017   4.376  12.276 -0.4476  0.7260  0.2566
 6794SOL    HW132015   3.074   4.346  12.347  0.8925 -2.4037 -2.1322
 6794SOL    HW232016   3.069   4.437  12.223  0.0200  1.2344  1.2883
 6795SOL     OW32017   3.229   0.358   6.067  0.0299 -0.5767 -0.1359
 6795SOL    HW132018   3.219   0.418   6.142  0.0632  0.5924 -1.0653
 6795SOL    HW232019   3.223   0.406   5.984 -1.0835 -0.7881 -0.1851
 6796SOL     OW32020   2.009   1.673   6.825 -0.6630  0.6952  0.0266
 6796SOL    HW132021   2.066   1.667   6.902 -2.1823  0.2667  1.1240
 6796SOL    HW232022   1.997   1.768   6.826 -0.3264  0.7426 -0.4894
 6797SOL     OW32023   0.075   2.819   0.498 -0.7507 -0.5506 -0.5699
 6797SOL    HW132024   0.022   2.754   0.451  0.5354 -1.7522 -0.3652
 6797SOL    HW232025   0.017   2.833   0.573  0.8252 -2.1548  0.9484
 6798SOL     OW32026   4.038   1.954   0.256 -0.0542 -0.1102  0.3829
 6798SOL    HW132027   3.951   1.950   0.217  0.4383 -0.9999 -0.6280
 6798SOL    HW232028   4.020   1.982   0.346 -2.2496  2.1733 -0.7633
 6799SOL     OW32029   1.388   4.679   0.744  0.3872  0.5652 -0.4269
 6799SOL    HW132030   1.356   4.723   0.823  3.0598 -1.3047  1.7613
 6799SOL    HW232031   1.482   4.685   0.761 -0.0216 -0.5812  2.3691
 6800SOL     OW32032   2.341   3.220  12.411 -0.3604  0.5209 -0.0681
 6800SOL    HW132033   2.376   3.164  12.341  1.3542  1.8283 -0.2584
 6800SOL    HW232034   2.410   3.205  12.475 -0.8511  0.5180  0.4637
 6801SOL     OW32035   4.407   4.100   0.518 -0.3311 -0.1940 -0.2996
 6801SOL    HW132036   4.376   4.123   0.431 -1.1745 -0.6937 -0.1263
 6801SOL    HW232037   4.446   4.013   0.505 -0.9442  0.0242 -3.5155
 6802SOL     OW32038   2.936   3.322   5.245 -0.2010  0.5536  0.1082
 6802SOL    HW132039   2.950   3.294   5.155 -0.7930  0.7409 -0.0411
 6802SOL    HW232040   2.840   3.323   5.246 -0.1969  0.4069  1.6447
 6803SOL     OW32041   3.299   3.335   4.758  0.5138  0.5763 -0.1528
 6803SOL    HW132042   3.374   3.388   4.728  0.1055  2.1771  1.6182
 6803SOL    HW232043   3.317   3.315   4.850 -1.3860  1.2082  0.3482
 6804SOL     OW32044   1.570   0.027   5.567  0.2396 -0.3148 -0.1229
 6804SOL    HW132045   1.543   4.717   5.647 -2.8931  0.8989 -0.4878
 6804SOL    HW232046   1.558   0.116   5.599  0.2427 -1.6486  3.6073
 6805SOL     OW32047   2.860   2.211   9.744 -0.3462 -0.1319 -0.5025
 6805SOL    HW132048   2.891   2.181   9.658 -1.3393 -2.2524 -0.1228
 6805SOL    HW232049   2.765   2.198   9.745 -0.2124 -1.1886 -0.8989
 6806SOL     OW32050   3.753   2.700   3.869  1.3726 -0.2876  0.0044
 6806SOL    HW132051   3.804   2.619   3.876  1.8222 -0.0355 -0.4007
 6806SOL    HW232052   3.712   2.689   3.783 -1.8273  2.0951  1.2224
 6807SOL     OW32053   1.775   0.199  13.135  0.1616 -0.3043  0.2119
 6807SOL    HW132054   1.735   0.113  13.143 -2.4476  0.8199 -0.6161
 6807SOL    HW232055   1.696   0.251  13.146 -1.3920 -3.1323  2.2298
 6808SOL     OW32056   3.488   4.083   8.970  0.0791 -0.1127  0.6666
 6808SOL    HW132057   3.444   4.023   8.909 -3.6010 -0.5861  3.8316
 6808SOL    HW232058   3.433   4.069   9.047 -0.2661 -1.4280  0.1820
 6809SOL     OW32059   2.092   1.268   3.921 -0.2577  0.2762 -0.0113
 6809SOL    HW132060   2.024   1.243   3.858  0.3091 -1.3958  0.0388
 6809SOL    HW232061   2.120   1.181   3.950 -0.1744  0.1147 -0.5806
 6810SOL     OW32062   2.584   2.594  17.692  0.5394 -0.0760 -0.6012
 6810SOL    HW132063   2.659   2.646  17.722  0.7091  0.6336 -2.2374
 6810SOL    HW232064   2.611   2.583  17.601 -1.6985  1.4848 -1.4634
 6811SOL     OW32065   1.971   0.635   9.159 -0.2474 -0.0257 -0.0097
 6811SOL    HW132066   1.885   0.635   9.116 -0.1280  1.2418 -0.2526
 6811SOL    HW232067   1.955   0.636   9.253 -0.1188 -1.4906  0.0216
 6812SOL     OW32068   1.249   2.725   6.550 -0.2665 -0.1019  0.1227
 6812SOL    HW132069   1.234   2.702   6.458 -1.4411 -0.8632  0.5027
 6812SOL    HW232070   1.335   2.766   6.543  0.5549 -2.0993 -1.4670
 6813SOL     OW32071   0.654   1.213   9.498 -0.8245  0.4725 -0.2073
 6813SOL    HW132072   0.720   1.200   9.429 -2.4849  2.7151 -2.2172
 6813SOL    HW232073   0.583   1.156   9.466  0.1462 -1.6339  1.3789
 6814SOL     OW32074   4.035   0.840   6.690  0.2876  0.1830  0.6938
 6814SOL    HW132075   4.084   0.891   6.625  1.5924 -2.1541 -0.1618
 6814SOL    HW232076   4.013   0.758   6.646 -1.7603  0.1837  1.7413
 6815SOL     OW32077   2.036   3.707   3.697  0.2088  0.2013  0.0778
 6815SOL    HW132078   2.098   3.659   3.643 -0.9795 -1.0592 -0.1685
 6815SOL    HW232079   1.998   3.644   3.759 -0.6753  0.0615 -0.6059
 6816SOL     OW32080   1.295   1.265  12.565 -0.3523  0.8537 -0.3429
 6816SOL    HW132081   1.349   1.280  12.642 -1.2556 -1.6526  0.7851
 6816SOL    HW232082   1.228   1.332  12.579 -0.0154  0.7811  1.6531
 6817SOL     OW32083   0.719   1.651   4.586  0.1048  0.3479  0.2632
 6817SOL    HW132084   0.667   1.708   4.643 -1.2228  0.9077 -1.5139
 6817SOL    HW232085   0.792   1.633   4.646  1.7786  1.5468 -1.4226
 6818SOL     OW32086   1.333   4.301   7.863 -0.2369 -0.2128  0.1619
 6818SOL    HW132087   1.287   4.217   7.867  1.2386 -1.0325 -0.3295
 6818SOL    HW232088   1.267   4.364   7.834  0.5604 -0.1614 -1.5429
 6819SOL     OW32089   3.005   2.836  17.424  0.4707 -0.1957 -0.0194
 6819SOL    HW132090   3.061   2.766  17.456  0.2270 -0.7104 -0.7258
 6819SOL    HW232091   3.044   2.860  17.340  1.0265  0.3475  0.3970
 6820SOL     OW32092   3.819   2.647  16.794 -0.1694  0.3121  0.1847
 6820SOL    HW132093   3.755   2.674  16.860 -2.0350  1.0289 -1.9188
 6820SOL    HW232094   3.763   2.659  16.718  0.9965 -0.0160 -0.7275
 6821SOL     OW32095   4.028   3.475  13.809  0.6233 -0.3445  0.2963
 6821SOL    HW132096   4.088   3.444  13.878 -0.2254 -0.7571  0.8468
 6821SOL    HW232097   3.957   3.518  13.857  0.1721 -1.3852  0.5645
 6822SOL     OW32098   4.055   0.880   1.870 -0.2153 -0.3940  0.0515
 6822SOL    HW132099   4.124   0.874   1.804  0.6803 -1.6801  1.0936
 6822SOL    HW232100   4.100   0.895   1.953  1.0334 -2.2159 -0.2877
 6823SOL     OW32101   0.604   2.410   6.217 -0.4306  0.1961  0.5167
 6823SOL    HW132102   0.679   2.443   6.167 -2.2090  1.3936 -1.3563
 6823SOL    HW232103   0.626   2.319   6.237  0.9001  0.2094 -0.8631
 6824SOL     OW32104   3.995   3.543  10.104 -0.5948 -0.2874  0.2968
 6824SOL    HW132105   3.934   3.508  10.039 -0.9183  1.9524 -0.5878
 6824SOL    HW232106   3.937   3.562  10.178  2.3362  0.5751  2.3593
 6825SOL     OW32107   0.463   0.320   7.300  0.7691 -0.3260  0.2299
 6825SOL    HW132108   0.482   0.261   7.374 -0.5486  1.1691  1.7720
 6825SOL    HW232109   0.551   0.355   7.295 -0.3915  2.4129 -0.6251
 6826SOL     OW32110   1.597   1.239   5.907  0.5896  0.0295 -0.3947
 6826SOL    HW132111   1.687   1.235   5.938  0.4097  0.2698  0.1594
 6826SOL    HW232112   1.574   1.318   5.956 -3.7560 -1.3410 -0.1816
 6827SOL     OW32113   0.099   4.280  14.553  0.0747  0.6559  0.6033
 6827SOL    HW132114   0.178   4.233  14.527  1.1849  2.1325  1.2859
 6827SOL    HW232115   0.092   4.341  14.480  0.0956  0.0022  0.0581
 6828SOL     OW32116   3.673   2.793  14.459  0.0473 -0.4797 -0.4704
 6828SOL    HW132117   3.655   2.824  14.548 -0.5089  0.5854 -0.9519
 6828SOL    HW232118   3.730   2.718  14.477  1.7564  0.8957 -0.2037
 6829SOL     OW32119   2.876   4.636   2.877 -0.0853  0.0757 -0.8107
 6829SOL    HW132120   2.907   4.546   2.892 -0.6855 -0.4162 -2.5671
 6829SOL    HW232121   2.844   4.659   2.964  1.5965 -0.4099 -0.0604
 6830SOL     OW32122   2.983   3.934  17.121 -0.3478  0.1824  0.1471
 6830SOL    HW132123   2.986   3.996  17.194  0.3134  1.6573 -1.1271
 6830SOL    HW232124   2.930   3.862  17.154 -1.3559  1.3740  1.1349
 6831SOL     OW32125   1.330   2.524   9.834  0.3924 -0.3290 -0.2264
 6831SOL    HW132126   1.365   2.581   9.903 -2.5257  0.1657  0.8470
 6831SOL    HW232127   1.318   2.437   9.871  2.1693 -1.2329 -1.7511
 6832SOL     OW32128   0.380   0.888   7.521  0.3220 -0.2948  0.0762
 6832SOL    HW132129   0.351   0.799   7.544  2.9725 -1.1548  0.1522
 6832SOL    HW232130   0.440   0.905   7.593  0.9319 -1.4574 -0.1541
 6833SOL     OW32131   2.004   0.388   4.014 -0.8096  0.0696 -0.3182
 6833SOL    HW132132   2.077   0.369   4.073 -1.8531  0.5336  1.1312
 6833SOL    HW232133   2.030   0.479   4.003  0.2704 -0.1601  0.3492
 6834SOL     OW32134   0.363   2.093   5.924  0.5943 -0.3993  0.2994
 6834SOL    HW132135   0.359   2.045   5.842  0.0146 -1.5432  0.9864
 6834SOL    HW232136   0.276   2.080   5.963  0.8864 -0.1495  1.0401
 6835SOL     OW32137   1.653   4.290   1.562 -0.3167 -0.4869 -0.3984
 6835SOL    HW132138   1.698   4.232   1.624 -1.0988 -1.2250 -0.5212
 6835SOL    HW232139   1.672   4.374   1.604  0.0933 -0.6756 -0.2144
 6836SOL     OW32140   4.293   3.984   3.907  0.1313  0.2243 -0.2527
 6836SOL    HW132141   4.284   3.889   3.907 -0.0060  0.2297  1.5318
 6836SOL    HW232142   4.204   4.007   3.881  0.1750  1.9837  1.1346
 6837SOL     OW32143   2.040   2.730   6.089 -0.0531  0.2716 -0.0124
 6837SOL    HW132144   2.022   2.636   6.082  1.6849 -0.0827  0.3070
 6837SOL    HW232145   2.021   2.762   6.001  2.8685  1.3667 -0.2449
 6838SOL     OW32146   3.749   3.975   9.092  0.2953 -0.0080 -0.4810
 6838SOL    HW132147   3.673   3.984   9.033 -0.1930  2.6489  0.5440
 6838SOL    HW232148   3.805   4.032   9.039 -0.3028  0.3509 -0.7391
 6839SOL     OW32149   4.275   0.077  16.367  0.5793 -0.0440  0.4411
 6839SOL    HW132150   4.232   0.061  16.283  0.6675  0.2159  0.3472
 6839SOL    HW232151   4.364   0.062  16.336  0.5315  1.4152 -0.3847
 6840SOL     OW32152   1.348   2.597   3.633 -0.4398 -0.2152 -0.2329
 6840SOL    HW132153   1.347   2.501   3.631 -1.6343 -0.2359  2.0933
 6840SOL    HW232154   1.277   2.604   3.696 -0.1954 -1.1741  0.1544
 6841SOL     OW32155   0.065   1.022   1.920  0.1047 -0.2467 -0.1078
 6841SOL    HW132156   0.159   1.039   1.915 -0.2112  0.7126 -2.8759
 6841SOL    HW232157   0.055   0.986   2.008  1.7699  0.0243  0.2014
 6842SOL     OW32158   1.838   4.673  11.957  0.0121 -0.6017  0.1921
 6842SOL    HW132159   1.768   4.733  11.985 -0.0320 -0.9696  0.8481
 6842SOL    HW232160   1.871   4.640  12.040 -2.3373 -2.0590  0.5386
 6843SOL     OW32161   4.351   2.143   1.910  0.1726 -0.3035 -0.4567
 6843SOL    HW132162   4.314   2.099   1.833 -2.1414  1.6091 -0.4452
 6843SOL    HW232163   4.356   2.229   1.869 -2.4348  0.0586 -0.0054
 6844SOL     OW32164   4.361   2.150  14.983 -0.2901 -0.6330  0.8843
 6844SOL    HW132165   4.315   2.207  15.044 -0.4837 -0.3922  0.5158
 6844SOL    HW232166   4.287   2.100  14.947  0.4280 -1.7017  0.8984
 6845SOL     OW32167   3.635   2.295  15.885  0.1224 -0.1187  0.0832
 6845SOL    HW132168   3.598   2.264  15.802  1.3580  2.1712 -1.3383
 6845SOL    HW232169   3.676   2.376  15.855  0.6945  0.2047  1.7616
 6846SOL     OW32170   2.467   4.547   4.089 -0.5132 -0.0185  0.0873
 6846SOL    HW132171   2.479   4.590   4.174  0.4344  2.4411 -1.2922
 6846SOL    HW232172   2.378   4.573   4.065 -0.4475  2.9128  2.9953
 6847SOL     OW32173   2.122   1.586   4.505 -0.5558  0.2196 -0.5508
 6847SOL    HW132174   2.030   1.567   4.521 -0.1754  1.3298  3.0740
 6847SOL    HW232175   2.130   1.564   4.412  0.1191 -0.3009 -0.3657
 6848SOL     OW32176   1.893   1.025   2.476 -0.4340  0.2129  0.3766
 6848SOL    HW132177   1.922   1.083   2.546 -0.0806 -0.5026  0.8187
 6848SOL    HW232178   1.933   0.942   2.503 -2.6763 -0.7302  0.8601
 6849SOL     OW32179   1.595   3.280  14.678 -0.2227  0.0099  0.5527
 6849SOL    HW132180   1.530   3.210  14.677  0.5985 -0.7691  0.9451
 6849SOL    HW232181   1.571   3.331  14.601  0.7215 -0.5227 -0.0937
 6850SOL     OW32182   3.363   1.918   8.712  0.5852  0.6066 -0.0906
 6850SOL    HW132183   3.331   1.896   8.800 -1.7661 -1.6101 -1.4771
 6850SOL    HW232184   3.355   1.835   8.665  0.7124  1.1903 -1.1461
 6851SOL     OW32185   4.674   3.483   4.003 -0.2526  0.6707  0.6157
 6851SOL    HW132186   4.583   3.498   4.029 -1.3178 -2.0639 -1.4428
 6851SOL    HW232187   4.694   3.407   4.059  1.5446  0.5955 -0.1285
 6852SOL     OW32188   0.948   1.644   6.115 -0.4894 -0.9324  0.0588
 6852SOL    HW132189   0.993   1.710   6.063 -2.6360 -0.1293 -0.7826
 6852SOL    HW232190   0.978   1.665   6.204 -0.1960  1.1792 -0.5499
 6853SOL     OW32191   4.202   4.368   1.687  0.1985  0.3398  0.0815
 6853SOL    HW132192   4.211   4.360   1.592  0.5626  2.6457 -0.0997
 6853SOL    HW232193   4.120   4.418   1.695 -0.7619 -1.4587  1.3796
 6854SOL     OW32194   1.853   4.560  11.711 -0.1501 -0.5460  0.0636
 6854SOL    HW132195   1.925   4.498  11.722  1.3516  1.4109  1.3415
 6854SOL    HW232196   1.843   4.602  11.796  1.3685  0.4097 -0.2212
 6855SOL     OW32197   0.131   0.505   6.065  0.3821 -0.7511  0.2306
 6855SOL    HW132198   0.152   0.589   6.023 -0.4675  0.7819  2.8780
 6855SOL    HW232199   0.055   0.470   6.019  0.0587 -0.7583  0.7847
 6856SOL     OW32200   3.682   4.267   7.903 -0.0111  0.0759  0.3448
 6856SOL    HW132201   3.713   4.192   7.953  0.8536 -0.9758 -1.7337
 6856SOL    HW232202   3.705   4.330   7.970 -0.1491  1.4280 -0.8731
 6857SOL     OW32203   3.918   2.829   7.754  0.3503  0.2017  0.3468
 6857SOL    HW132204   3.850   2.770   7.785  1.0352 -0.3427  0.8002
 6857SOL    HW232205   3.921   2.803   7.662  1.8259  2.8599 -0.3784
 6858SOL     OW32206   1.767   2.686   6.548 -0.2530  0.5694 -0.4106
 6858SOL    HW132207   1.695   2.670   6.609 -1.7420  0.7684 -2.1264
 6858SOL    HW232208   1.746   2.613   6.491 -1.0167  0.0128  0.5830
 6859SOL     OW32209   2.570   1.675   5.763  0.5051  0.4689  0.3736
 6859SOL    HW132210   2.659   1.642   5.757  0.8233  0.9684  2.4024
 6859SOL    HW232211   2.566   1.676   5.858 -1.2617  1.1691  0.3093
 6860SOL     OW32212   1.769   0.338  10.415 -0.0087  0.1806 -0.0185
 6860SOL    HW132213   1.837   0.296  10.467  2.6133  1.5935 -2.2831
 6860SOL    HW232214   1.760   0.263  10.356 -0.1535 -1.3482  1.9389
 6861SOL     OW32215   1.836   1.219   5.236  0.0267  0.4464  0.5118
 6861SOL    HW132216   1.804   1.153   5.174  2.3309  0.7553 -1.0150
 6861SOL    HW232217   1.781   1.291   5.203 -0.3244 -0.2370 -0.4316
 6862SOL     OW32218   1.376   4.263   1.488  0.2587 -0.0646  0.3041
 6862SOL    HW132219   1.468   4.249   1.510  0.0510  1.0496  1.8449
 6862SOL    HW232220   1.378   4.358   1.488 -2.2488 -0.0335  1.1846
 6863SOL     OW32221   3.042   0.710  12.550  0.4859 -0.4485  0.0182
 6863SOL    HW132222   2.981   0.733  12.480 -0.1743  0.0365  0.7578
 6863SOL    HW232223   3.089   0.793  12.557 -1.0565  0.3623  0.6727
 6864SOL     OW32224   3.632   1.088  14.326  0.0725  0.0419 -0.1171
 6864SOL    HW132225   3.636   1.144  14.248 -1.5863  0.3583  0.0208
 6864SOL    HW232226   3.618   1.004  14.282  2.3817  0.3509 -1.4805
 6865SOL     OW32227   1.162   0.223   8.599 -0.1951  0.0399  0.5968
 6865SOL    HW132228   1.075   0.195   8.571  1.4381 -3.3273 -1.1391
 6865SOL    HW232229   1.156   0.313   8.630 -0.6022  0.3544 -0.4033
 6866SOL     OW32230   3.220   1.913  16.225 -0.0466 -0.2366 -0.1504
 6866SOL    HW132231   3.145   1.854  16.237  0.2130 -0.5112  0.1109
 6866SOL    HW232232   3.201   2.002  16.252 -1.5113  0.3420 -3.1127
 6867SOL     OW32233   1.666   3.407   5.515 -0.0207  0.1281  0.5822
 6867SOL    HW132234   1.729   3.337   5.496 -1.1718 -0.7281 -0.0191
 6867SOL    HW232235   1.583   3.377   5.480  0.4457 -1.7762  1.1031
 6868SOL     OW32236   3.697   1.607  16.040 -0.2304  0.2488 -0.5603
 6868SOL    HW132237   3.650   1.611  16.123  2.7355 -1.1039  1.1802
 6868SOL    HW232238   3.754   1.683  16.049 -1.7588  1.2986  0.2555
 6869SOL     OW32239   4.614   1.224   7.946  0.2044 -0.3040 -0.0537
 6869SOL    HW132240   4.660   1.278   8.010  0.9128  3.2628 -3.5724
 6869SOL    HW232241   4.652   1.267   7.868 -2.0653  2.3345  0.2987
 6870SOL     OW32242   2.543   3.631  16.175 -0.4592  0.1217  0.4551
 6870SOL    HW132243   2.534   3.629  16.079  0.2225 -1.5697  0.4141
 6870SOL    HW232244   2.522   3.720  16.201 -0.6029  0.1870  0.1105
 6871SOL     OW32245   4.588   3.312  14.268 -0.4688 -0.5988 -0.3253
 6871SOL    HW132246   4.588   3.392  14.215 -0.4778  1.4325  2.7337
 6871SOL    HW232247   4.679   3.284  14.269 -0.3346 -0.1496  0.0859
 6872SOL     OW32248   2.877   4.267   5.699 -0.1779 -0.0081  0.2572
 6872SOL    HW132249   2.962   4.246   5.737 -0.4586 -0.2723  0.7458
 6872SOL    HW232250   2.869   4.363   5.696  1.1451  0.0501 -1.3066
 6873SOL     OW32251   1.998   2.112   2.653  0.4818  0.0378 -0.9877
 6873SOL    HW132252   1.998   2.205   2.631  0.5975  0.4823  0.9636
 6873SOL    HW232253   2.090   2.086   2.651  0.5019 -0.0650  2.0196
 6874SOL     OW32254   1.707   3.757   3.698 -0.5890  0.4326 -0.0458
 6874SOL    HW132255   1.711   3.664   3.678 -0.5703  0.0999  1.4872
 6874SOL    HW232256   1.786   3.781   3.748 -0.3314  0.5965 -0.5309
 6875SOL     OW32257   0.137   4.023   7.628  0.3569 -0.3114 -0.2403
 6875SOL    HW132258   0.230   4.042   7.624  0.1406  0.7921  0.1587
 6875SOL    HW232259   0.094   4.098   7.587 -0.1397 -0.8427 -0.6910
 6876SOL     OW32260   1.596   0.788   5.268  0.0023 -0.4494  0.2019
 6876SOL    HW132261   1.658   0.732   5.222  0.1135 -0.0065 -0.1869
 6876SOL    HW232262   1.641   0.806   5.351  1.5397  2.5319 -1.2655
 6877SOL     OW32263   4.723   4.270  11.431 -0.2770  0.4312 -0.2621
 6877SOL    HW132264   0.003   4.354  11.474  3.4829 -2.2261  3.4708
 6877SOL    HW232265   0.049   4.220  11.483  0.8053  2.1751  0.1151
 6878SOL     OW32266   2.384   1.101   1.201 -0.7415 -0.2389 -0.6056
 6878SOL    HW132267   2.318   1.104   1.270 -0.8578 -0.0034 -0.7254
 6878SOL    HW232268   2.401   1.007   1.193 -0.3255 -0.0854 -1.5573
 6879SOL     OW32269   2.929   1.111  11.824 -0.0730 -0.0460  0.0066
 6879SOL    HW132270   2.888   1.043  11.878  0.3977 -0.0711  0.3390
 6879SOL    HW232271   3.012   1.104  11.871  0.4215 -0.5813 -0.9437
 6880SOL     OW32272   3.138   1.357   4.650 -0.0826  0.1701  0.1742
 6880SOL    HW132273   3.215   1.361   4.594  1.5148 -1.0940  2.2942
 6880SOL    HW232274   3.177   1.394   4.730  0.7440  0.8058 -0.5208
 6881SOL     OW32275   1.170   1.415   3.545  0.3812  0.1424  0.5036
 6881SOL    HW132276   1.080   1.415   3.577  0.9060  0.9156  1.9870
 6881SOL    HW232277   1.218   1.411   3.628 -0.7329 -1.4013  1.0791
 6882SOL     OW32278   4.682   2.542   7.342 -0.2448  0.0427 -0.2000
 6882SOL    HW132279   4.617   2.600   7.379 -0.9113 -0.7824 -0.0759
 6882SOL    HW232280   4.630   2.483   7.288  0.3359 -1.5353  0.9638
 6883SOL     OW32281   0.367   3.655  13.697  0.4334 -0.0864  0.0543
 6883SOL    HW132282   0.404   3.709  13.627  0.2199 -0.4780 -0.3601
 6883SOL    HW232283   0.438   3.636  13.758  0.6241  0.8139  0.1223
 6884SOL     OW32284   0.032   4.066   6.917  0.6134 -0.2203 -0.4792
 6884SOL    HW132285   0.002   4.092   7.004 -2.4284  0.1363 -1.6448
 6884SOL    HW232286   4.694   4.097   6.866 -0.3204 -2.3291 -0.4149
 6885SOL     OW32287   2.761   3.172   6.376 -0.3785 -0.8157  0.2251
 6885SOL    HW132288   2.736   3.233   6.445  1.1432  0.2768 -0.1886
 6885SOL    HW232289   2.795   3.102   6.431 -0.7818 -2.1894 -1.2567
 6886SOL     OW32290   1.684   3.907   3.075  0.2650 -0.2674 -0.7573
 6886SOL    HW132291   1.596   3.879   3.100 -0.2469  0.9573 -1.2018
 6886SOL    HW232292   1.707   3.979   3.133 -2.7034  0.6006 -0.6698
 6887SOL     OW32293   0.341   4.221  16.180  0.4868 -0.5923  0.0774
 6887SOL    HW132294   0.283   4.207  16.255 -0.3556 -0.2866 -0.5281
 6887SOL    HW232295   0.285   4.269  16.119 -0.3549 -1.1053  0.4540
 6888SOL     OW32296   4.000   2.213   8.748  0.2946  0.2156  0.3034
 6888SOL    HW132297   4.076   2.156   8.734 -0.0395 -0.0887 -0.2870
 6888SOL    HW232298   3.972   2.234   8.659 -0.4697 -0.4252  0.3935
 6889SOL     OW32299   3.391   3.229   4.142 -0.2365 -0.6759  0.0791
 6889SOL    HW132300   3.395   3.304   4.082 -0.8257  0.5180  1.5148
 6889SOL    HW232301   3.326   3.274   4.197 -0.4685 -0.4963 -0.3392
 6890SOL     OW32302   1.043   1.605  11.824 -0.2969 -0.0938 -0.1740
 6890SOL    HW132303   1.019   1.584  11.734  0.0605  3.3470 -1.0793
 6890SOL    HW232304   1.122   1.656  11.811 -0.4652 -0.1514 -1.3818
 6891SOL     OW32305   3.213   1.397  17.142 -0.1421  0.6344  0.2835
 6891SOL    HW132306   3.270   1.401  17.065  2.1586 -3.4391  1.7658
 6891SOL    HW232307   3.134   1.361  17.102  1.1378 -0.5356 -1.1899
 6892SOL     OW32308   4.185   1.314   6.100 -0.0570 -0.2501  0.4598
 6892SOL    HW132309   4.237   1.236   6.085 -0.9588 -0.5862 -0.8215
 6892SOL    HW232310   4.172   1.297   6.194  0.4120 -1.3677  0.3199
 6893SOL     OW32311   2.336   0.727  13.347 -0.8363  0.0516 -0.1023
 6893SOL    HW132312   2.290   0.790  13.291  0.5718  1.1222 -0.0609
 6893SOL    HW232313   2.296   0.645  13.320 -0.4391  0.3125 -1.5161
 6894SOL     OW32314   3.405   0.997   9.935  0.2505 -0.1849 -0.6527
 6894SOL    HW132315   3.440   0.917   9.897  0.1700  0.2951 -1.7215
 6894SOL    HW232316   3.469   1.004  10.006 -0.7615  0.6652  0.1903
 6895SOL     OW32317   2.651   1.854   6.028  0.6909 -0.2277 -0.2607
 6895SOL    HW132318   2.608   1.934   5.998 -0.2528 -0.1004  1.3986
 6895SOL    HW232319   2.729   1.891   6.069 -0.5122  1.7179  0.2764
 6896SOL     OW32320   1.970   0.424   5.990  0.6261  0.0680  0.7025
 6896SOL    HW132321   2.049   0.474   5.971  0.0767  0.2791 -1.0458
 6896SOL    HW232322   1.907   0.494   5.972  0.5636  0.3050  1.8059
 6897SOL     OW32323   2.366   2.523  12.573  0.4524 -0.1138  0.0796
 6897SOL    HW132324   2.328   2.609  12.559  0.2463 -0.3433 -0.8062
 6897SOL    HW232325   2.431   2.522  12.502  0.7025 -1.9385  0.3296
 6898SOL     OW32326   3.343   3.537   2.027 -0.1740 -0.4819 -0.2418
 6898SOL    HW132327   3.384   3.482   2.093  1.2819 -1.5356 -2.0269
 6898SOL    HW232328   3.303   3.470   1.972  0.2014 -0.8175 -0.1018
 6899SOL     OW32329   1.874   1.751   5.366  0.6595 -0.6520 -0.5602
 6899SOL    HW132330   1.937   1.815   5.397 -1.6640  1.1008  0.5509
 6899SOL    HW232331   1.920   1.675   5.330  0.6451 -0.4534 -1.0056
 6900SOL     OW32332   2.667   2.904   2.499  0.4773  0.2552 -0.0624
 6900SOL    HW132333   2.616   2.983   2.517 -1.1197 -0.9853  0.9199
 6900SOL    HW232334   2.755   2.940   2.505 -0.3690  1.9279  2.1510
 6901SOL     OW32335   2.966   4.642   9.143  0.1164  0.5252  0.0496
 6901SOL    HW132336   2.945   4.716   9.200 -1.2447  0.3980 -0.2674
 6901SOL    HW232337   3.048   4.613   9.182 -1.6129 -0.4038  3.0561
 6902SOL     OW32338   1.745   1.661   8.112 -0.1969  0.2164 -0.2482
 6902SOL    HW132339   1.728   1.692   8.023  1.3095 -0.8438 -0.8985
 6902SOL    HW232340   1.729   1.567   8.106  1.6189  0.0156 -1.9635
 6903SOL     OW32341   3.749   3.673   2.357  0.3325  0.1773  0.5654
 6903SOL    HW132342   3.818   3.622   2.400  0.3162 -1.5719 -1.4900
 6903SOL    HW232343   3.780   3.761   2.380  0.4800 -0.1607  1.6218
 6904SOL     OW32344   2.241   2.640  11.451  0.0528 -0.0180  0.0168
 6904SOL    HW132345   2.324   2.599  11.423 -1.0851 -3.1579  1.2164
 6904SOL    HW232346   2.182   2.578  11.409 -1.7329  1.6568  0.0814
 6905SOL     OW32347   0.727   4.700  14.056 -0.3846  0.2187  0.2758
 6905SOL    HW132348   0.786   4.705  13.981  0.2960 -2.0488  0.6575
 6905SOL    HW232349   0.783   4.653  14.118 -2.2611 -2.5555 -0.0961
 6906SOL     OW32350   0.062   1.438  15.139  0.5691 -0.1609 -0.1598
 6906SOL    HW132351   0.067   1.487  15.221 -1.0626 -0.7540  0.2978
 6906SOL    HW232352   4.705   1.450  15.124  0.3357 -1.3446  0.2987
 6907SOL     OW32353   1.643   4.462   7.380 -0.6932 -0.3290 -0.1820
 6907SOL    HW132354   1.591   4.437   7.456  0.0121  0.6305  0.6109
 6907SOL    HW232355   1.654   4.373   7.345  0.1875 -0.1442 -0.3647
 6908SOL     OW32356   0.203   1.899  11.266 -0.1257  0.1135  0.1405
 6908SOL    HW132357   0.206   1.993  11.283 -0.6215  0.4463 -1.6814
 6908SOL    HW232358   0.248   1.906  11.182  0.1794  0.4881  0.3327
 6909SOL     OW32359   1.220   4.688  13.134 -0.1372 -0.0940  0.2500
 6909SOL    HW132360   1.141   4.695  13.082 -0.3597 -0.3846  0.5435
 6909SOL    HW232361   1.245   4.598  13.113 -0.0254 -0.0778  0.3146
 6910SOL     OW32362   2.098   3.054   1.936 -0.1836  0.6956  0.3384
 6910SOL    HW132363   2.076   2.988   2.002 -1.1027 -1.5367 -2.2187
 6910SOL    HW232364   2.193   3.053   1.944 -0.4506 -1.3006  3.3398
 6911SOL     OW32365   0.667   0.874   7.090 -0.1923  0.1802  0.2836
 6911SOL    HW132366   0.649   0.807   7.025  3.0375 -1.9436  1.5554
 6911SOL    HW232367   0.653   0.834   7.176  0.4229  0.0646  0.3337
 6912SOL     OW32368   2.503   1.302  13.462  0.2660 -0.1380 -0.2639
 6912SOL    HW132369   2.490   1.274  13.553 -0.5415 -1.8938 -0.9191
 6912SOL    HW232370   2.487   1.220  13.416  0.1857 -0.1537 -0.2070
 6913SOL     OW32371   2.113   2.212   4.192 -0.5093 -0.1606  0.5167
 6913SOL    HW132372   2.100   2.305   4.170 -0.5659 -0.2785  0.0468
 6913SOL    HW232373   2.054   2.171   4.129  1.5331 -0.7769 -0.9943
 6914SOL     OW32374   1.912   2.727  10.403  0.0120 -0.5851  0.1233
 6914SOL    HW132375   1.928   2.814  10.366 -0.2897  0.0446  1.4573
 6914SOL    HW232376   1.891   2.747  10.494  0.8406 -1.3211  0.4794
 6915SOL     OW32377   0.084   0.001   5.373  0.7522  0.5050  0.0989
 6915SOL    HW132378   0.022   0.043   5.313 -0.7119 -0.3794  1.0143
 6915SOL    HW232379   0.083   4.648   5.340  0.5861  0.4449  0.2649
 6916SOL     OW32380   0.568   3.682  12.080  0.1912 -0.1596  0.4987
 6916SOL    HW132381   0.483   3.664  12.041  0.5210 -2.9595  1.0299
 6916SOL    HW232382   0.627   3.686  12.004 -0.5455 -2.2774 -0.1662
 6917SOL     OW32383   2.334   1.807  10.433  0.0423  0.4367  0.4272
 6917SOL    HW132384   2.365   1.893  10.461  0.6825  0.1713  0.5386
 6917SOL    HW232385   2.289   1.780  10.513 -1.0924 -1.0757 -0.7059
 6918SOL     OW32386   3.730   0.212  12.565 -0.0653  0.0580 -0.2203
 6918SOL    HW132387   3.653   0.195  12.619  1.0051  3.2698  2.3420
 6918SOL    HW232388   3.753   0.296  12.604  0.2728  0.1217 -0.5539
 6919SOL     OW32389   1.228   1.386   8.127  0.4957 -0.1068 -0.3539
 6919SOL    HW132390   1.180   1.328   8.186 -0.7474  0.0859 -1.1725
 6919SOL    HW232391   1.314   1.345   8.132  0.0205 -1.0651  0.0714
 6920SOL     OW32392   2.087   4.043   1.614 -0.3258  0.3787 -0.4900
 6920SOL    HW132393   2.062   4.082   1.530  0.8701  0.7690 -0.6793
 6920SOL    HW232394   2.160   3.986   1.589 -1.1325 -1.6442  1.8207
 6921SOL     OW32395   2.242   3.058   3.130  0.1254  0.0797 -0.2673
 6921SOL    HW132396   2.180   3.121   3.093 -0.2202 -1.2684 -1.9569
 6921SOL    HW232397   2.324   3.076   3.084  0.4405 -0.4153  0.1002
 6922SOL     OW32398   3.960   0.360   2.091  0.2577  0.8819 -0.2391
 6922SOL    HW132399   4.046   0.319   2.089 -0.6851 -1.1088 -0.3666
 6922SOL    HW232400   3.960   0.441   2.040  2.9647  0.3353 -1.0873
 6923SOL     OW32401   1.128   1.793   5.967  0.0593  0.2214  0.3736
 6923SOL    HW132402   1.218   1.790   5.932  0.2905 -0.2625  1.0193
 6923SOL    HW232403   1.129   1.877   6.011  2.9825  0.0172  0.7155
 6924SOL     OW32404   3.924   2.865  15.102 -0.6351  0.2240  0.7129
 6924SOL    HW132405   3.907   2.771  15.102  0.1014  0.0888  0.9264
 6924SOL    HW232406   3.841   2.889  15.061 -1.6084 -2.0439  1.3489
 6925SOL     OW32407   4.295   1.377   3.364 -0.1719  0.2151 -0.4261
 6925SOL    HW132408   4.260   1.360   3.451 -0.5626  0.3295 -0.5595
 6925SOL    HW232409   4.366   1.314   3.352 -1.2443 -0.9897 -0.4461
 6926SOL     OW32410   3.994   2.897   7.080  0.1608 -0.0876  0.0696
 6926SOL    HW132411   4.043   2.979   7.082 -0.8326  0.5160 -0.4475
 6926SOL    HW232412   3.913   2.926   7.039  0.0342  0.2452  0.5480
 6927SOL     OW32413   0.886   3.538   1.542  0.0141  0.0914  0.1155
 6927SOL    HW132414   0.969   3.490   1.542 -0.1315 -0.1455 -1.6607
 6927SOL    HW232415   0.828   3.462   1.536 -1.7044  1.2745  1.6725
 6928SOL     OW32416   1.653   0.570   8.852 -0.1074 -0.1358  0.0782
 6928SOL    HW132417   1.710   0.642   8.880  0.9154  0.1607 -2.8043
 6928SOL    HW232418   1.693   0.499   8.902 -0.3725  0.1048  0.6395
 6929SOL     OW32419   2.543   3.771  14.280 -0.4099 -0.1939  0.4259
 6929SOL    HW132420   2.557   3.749  14.188  2.6480 -1.3449  1.1931
 6929SOL    HW232421   2.447   3.772  14.282 -0.4544 -2.6186 -1.0266
 6930SOL     OW32422   4.249   1.700   1.683 -0.2751  0.7570 -0.6806
 6930SOL    HW132423   4.326   1.704   1.625  0.9387 -0.0659  0.8669
 6930SOL    HW232424   4.293   1.659   1.757 -1.1752  1.3902  0.1878
 6931SOL     OW32425   1.733   0.604   3.923 -0.2057 -0.2828 -0.3802
 6931SOL    HW132426   1.660   0.645   3.876 -1.4489 -2.4254 -0.3241
 6931SOL    HW232427   1.807   0.658   3.896 -1.4096  1.8051  0.5016
 6932SOL     OW32428   0.413   0.089  11.063 -0.2899 -0.1703  0.2964
 6932SOL    HW132429   0.467   0.156  11.020 -0.0407  0.6140  1.7988
 6932SOL    HW232430   0.330   0.112  11.022  0.5269 -0.3028 -1.4244
 6933SOL     OW32431   3.911   1.000  11.063 -0.0744 -0.5363  0.2384
 6933SOL    HW132432   3.980   1.021  11.002 -1.2737  0.1931 -0.8645
 6933SOL    HW232433   3.908   1.075  11.122  0.3169 -0.2280 -0.1432
 6934SOL     OW32434   3.112   1.742  13.885  0.2865  0.9520 -0.1556
 6934SOL    HW132435   3.160   1.712  13.808  0.2489  0.5841 -0.0356
 6934SOL    HW232436   3.026   1.716  13.853  1.6153 -2.9750 -0.4509
 6935SOL     OW32437   1.980   4.265  11.738 -0.1331 -0.3072  0.2919
 6935SOL    HW132438   1.928   4.295  11.813 -0.2927  0.8286 -0.2700
 6935SOL    HW232439   1.962   4.173  11.755 -1.3800 -0.1738 -0.3196
 6936SOL     OW32440   2.516   1.692   4.538 -0.3399 -0.2829  0.1971
 6936SOL    HW132441   2.464   1.641   4.600 -0.5305  0.8209  0.9545
 6936SOL    HW232442   2.585   1.626   4.534 -1.1180 -1.0935  0.1116
 6937SOL     OW32443   3.302   2.860   1.994 -0.8442 -0.4145 -1.0070
 6937SOL    HW132444   3.329   2.880   2.084 -1.6338 -1.5465 -0.5196
 6937SOL    HW232445   3.296   2.947   1.955  1.1539 -0.0934 -0.6306
 6938SOL     OW32446   2.875   1.743   1.920  0.4935  0.2113 -0.3596
 6938SOL    HW132447   2.876   1.833   1.953 -0.4822 -0.5045  1.6076
 6938SOL    HW232448   2.819   1.703   1.987  0.8188 -0.2805 -0.3832
 6939SOL     OW32449   3.873   0.539  11.112 -0.3992 -0.1994 -0.0490
 6939SOL    HW132450   3.951   0.484  11.107 -0.9760 -0.8586 -1.7954
 6939SOL    HW232451   3.853   0.538  11.206  0.0574  1.2379  0.0654
 6940SOL     OW32452   0.409   2.526   4.827  0.1387  0.0041 -0.1164
 6940SOL    HW132453   0.432   2.473   4.751 -0.4659 -0.0119 -0.2846
 6940SOL    HW232454   0.486   2.509   4.882  0.3094 -2.1163 -1.0372
 6941SOL     OW32455   2.157   4.355   5.084  0.1261 -0.3853 -0.3859
 6941SOL    HW132456   2.102   4.308   5.146  0.7760 -0.3865  0.1916
 6941SOL    HW232457   2.130   4.445   5.105 -1.6596 -0.9641 -0.2726
 6942SOL     OW32458   2.549   3.502   2.678  0.4757 -0.2460  0.0846
 6942SOL    HW132459   2.639   3.515   2.709  0.6332 -1.0709 -0.0397
 6942SOL    HW232460   2.511   3.587   2.702  1.1116 -0.1419  0.7524
 6943SOL     OW32461   0.154   4.109   8.117 -0.0853 -0.2556  0.2605
 6943SOL    HW132462   0.096   4.054   8.064  0.8359  0.8526 -1.9030
 6943SOL    HW232463   0.225   4.047   8.132 -0.6225 -0.2174  3.0462
 6944SOL     OW32464   3.491   1.582   4.794  0.1374  0.1646  0.0878
 6944SOL    HW132465   3.556   1.562   4.861  2.0374  0.7367 -1.5695
 6944SOL    HW232466   3.547   1.574   4.716 -1.0942 -2.0277 -0.5696
 6945SOL     OW32467   2.699   0.104   9.139  0.0407  0.7137 -0.2672
 6945SOL    HW132468   2.668   0.052   9.065 -2.9709  0.3436  1.2818
 6945SOL    HW232469   2.614   0.133   9.172 -0.3185  0.5954 -1.0919
 6946SOL     OW32470   1.022   4.563   0.303  0.1626 -0.0887  0.1102
 6946SOL    HW132471   0.986   4.650   0.285 -2.0780 -1.0337  0.1070
 6946SOL    HW232472   1.114   4.585   0.285 -0.4196  1.9250 -0.3318
 6947SOL     OW32473   1.466   4.579  16.034 -0.0810  0.2116 -0.3170
 6947SOL    HW132474   1.491   4.555  16.124 -1.0471 -1.6818 -0.5732
 6947SOL    HW232475   1.376   4.607  16.046 -0.1633 -1.0457  2.0102
 6948SOL     OW32476   1.647   2.344   9.591 -0.3551  0.5656  0.3674
 6948SOL    HW132477   1.567   2.389   9.564 -0.8831 -0.1879  0.6789
 6948SOL    HW232478   1.708   2.402   9.545  0.7830 -1.1014 -0.2432
 6949SOL     OW32479   1.789   3.082   1.988  0.4797  0.5744  0.4936
 6949SOL    HW132480   1.790   3.172   1.956 -2.4201  0.2499 -0.5111
 6949SOL    HW232481   1.882   3.062   1.995  0.1529 -0.9858  0.2885
 6950SOL     OW32482   4.498   0.662   4.475 -0.4509  0.1626 -0.1466
 6950SOL    HW132483   4.405   0.659   4.498  0.1933 -1.4399  2.2611
 6950SOL    HW232484   4.487   0.653   4.381 -1.0729 -2.3918  0.1781
 6951SOL     OW32485   2.872   3.256   2.663 -0.4018  0.2642  0.4939
 6951SOL    HW132486   2.963   3.234   2.644 -0.4675  1.7452 -1.5756
 6951SOL    HW232487   2.876   3.315   2.738 -1.9094  0.3207  0.5347
 6952SOL     OW32488   1.319   2.827  10.624 -0.1120  0.2703  0.0041
 6952SOL    HW132489   1.337   2.832  10.718 -0.4287  0.6163  0.0477
 6952SOL    HW232490   1.224   2.815  10.628  0.5865 -4.9187  0.4099
 6953SOL     OW32491   2.550   1.069   1.776 -0.2494 -0.0114 -0.4929
 6953SOL    HW132492   2.576   1.008   1.845  1.4202 -0.6386 -1.6512
 6953SOL    HW232493   2.461   1.085   1.805 -0.2133 -1.8176  0.6247
 6954SOL     OW32494   0.393   0.051   5.664  0.3445  0.2323  0.8109
 6954SOL    HW132495   0.361   0.051   5.573 -0.0196 -3.4358  0.9082
 6954SOL    HW232496   0.487   0.035   5.649  0.3453  2.2441 -1.3640
 6955SOL     OW32497   2.922   0.374   6.432  0.2405 -0.2174  0.2078
 6955SOL    HW132498   2.935   0.280   6.417 -1.7714 -0.5388  0.4651
 6955SOL    HW232499   2.864   0.399   6.360  1.3959 -0.5441 -0.8296
 6956SOL     OW32500   2.923   1.119   7.955 -0.2853  0.3440  0.6131
 6956SOL    HW132501   2.913   1.159   8.041 -1.6330  0.7048  0.2815
 6956SOL    HW232502   3.018   1.109   7.951 -0.0393  1.5796  3.9682
 6957SOL     OW32503   4.575   2.995   2.106  0.1231 -0.0539 -1.1859
 6957SOL    HW132504   4.586   2.991   2.011 -2.4102 -0.7563 -1.4623
 6957SOL    HW232505   4.481   2.976   2.113  0.3034 -0.5208  0.0457
 6958SOL     OW32506   1.068   2.456   1.765  0.0420  0.4516  0.0921
 6958SOL    HW132507   1.005   2.516   1.724 -0.1560  0.5666  0.5661
 6958SOL    HW232508   1.102   2.505   1.840  0.7570  1.4308 -0.8685
 6959SOL     OW32509   4.016   4.205  16.789 -0.1525  0.0680 -0.1238
 6959SOL    HW132510   4.032   4.110  16.786 -4.0060 -0.6917  2.6939
 6959SOL    HW232511   4.090   4.229  16.846  2.4801 -2.2852 -2.5581
 6960SOL     OW32512   2.896   0.887   6.309  0.6178  0.3655 -0.2535
 6960SOL    HW132513   2.932   0.964   6.265  1.6935  0.7610  1.3089
 6960SOL    HW232514   2.826   0.922   6.365  0.1559  0.8386 -1.1265
 6961SOL     OW32515   4.150   0.238  14.592  0.0119 -0.5049 -0.7322
 6961SOL    HW132516   4.160   0.245  14.687 -2.6605  3.0203 -0.6775
 6961SOL    HW232517   4.125   0.146  14.589 -1.3389 -0.1399 -1.0113
 6962SOL     OW32518   0.797   3.347   4.689  0.0759 -0.4934 -0.1768
 6962SOL    HW132519   0.712   3.352   4.645  0.7118  1.3843 -1.1551
 6962SOL    HW232520   0.846   3.418   4.649  1.9395 -0.9600  1.2491
 6963SOL     OW32521   3.545   1.314   2.038 -0.2139 -0.2653 -0.2674
 6963SOL    HW132522   3.528   1.337   1.947  0.7958 -0.8931 -0.6117
 6963SOL    HW232523   3.640   1.328   2.041 -0.1162 -0.8752 -0.6845
 6964SOL     OW32524   4.725   3.070   7.121 -0.0617  0.5528 -0.5264
 6964SOL    HW132525   0.071   3.073   7.170 -0.9631  1.6686  0.9148
 6964SOL    HW232526   4.683   3.013   7.186 -1.2813  0.2269 -1.6156
 6965SOL     OW32527   3.115   4.371   1.315  0.6210  0.4229 -0.2101
 6965SOL    HW132528   3.109   4.281   1.346 -0.9593  1.2278  1.8704
 6965SOL    HW232529   3.022   4.386   1.297  0.4684 -1.1174 -0.6981
 6966SOL     OW32530   4.576   0.847   5.531 -0.3569 -0.3408 -0.5836
 6966SOL    HW132531   4.487   0.879   5.548 -0.3527 -0.4061 -0.4434
 6966SOL    HW232532   4.602   0.910   5.463 -1.0455  0.4670 -0.0975
 6967SOL     OW32533   4.120   2.560   0.816  0.2169 -0.5207  0.1588
 6967SOL    HW132534   4.086   2.579   0.903  1.3305 -1.3521  0.7647
 6967SOL    HW232535   4.215   2.572   0.822  0.2605 -0.9751  0.3162
 6968SOL     OW32536   4.530   3.267  16.605  0.0099 -0.4253  0.5382
 6968SOL    HW132537   4.565   3.268  16.516 -3.0024  1.3802 -0.6124
 6968SOL    HW232538   4.442   3.232  16.595 -0.3543  0.3316  1.0791
 6969SOL     OW32539   4.565   2.085   9.202  0.4029  0.0787 -0.2284
 6969SOL    HW132540   4.617   2.156   9.164  1.8661 -0.6055  0.5035
 6969SOL    HW232541   4.561   2.024   9.128 -1.0168  0.1788 -0.2395
 6970SOL     OW32542   4.442   3.085   0.886 -0.2283  0.2464 -0.0878
 6970SOL    HW132543   4.425   3.088   0.980 -0.3659 -4.4379  0.0739
 6970SOL    HW232544   4.381   3.152   0.855  1.3858  2.1217  0.8374
 6971SOL     OW32545   1.437   4.205   9.391  0.4223  0.2473  0.0011
 6971SOL    HW132546   1.394   4.270   9.336  0.2758 -0.9553 -1.3366
 6971SOL    HW232547   1.361   4.162   9.430 -0.3160  1.0797 -0.5140
 6972SOL     OW32548   2.500   2.830   6.565 -0.3038  0.3141  0.0262
 6972SOL    HW132549   2.481   2.899   6.502 -2.5238  0.6924  1.1041
 6972SOL    HW232550   2.417   2.782   6.572  0.1563 -0.6042 -0.8158
 6973SOL     OW32551   2.474   4.580   9.650  0.3920  0.7209 -0.1494
 6973SOL    HW132552   2.395   4.545   9.608 -1.2137  0.7184  2.8945
 6973SOL    HW232553   2.447   4.671   9.661  0.4400  0.8668 -1.1770
 6974SOL     OW32554   2.363   3.278  11.475  0.4768  0.0281 -0.3938
 6974SOL    HW132555   2.268   3.271  11.485  0.6956 -0.8813  1.0238
 6974SOL    HW232556   2.387   3.227  11.398 -0.7960  0.4304 -1.0552
 6975SOL     OW32557   2.048   3.185  16.389  0.8610  0.0455  0.1316
 6975SOL    HW132558   2.119   3.121  16.388  0.8097  0.0220 -1.9156
 6975SOL    HW232559   2.046   3.222  16.478 -2.8637  0.1915 -0.0244
 6976SOL     OW32560   4.557   4.306   0.927 -0.0789 -0.1654  0.1980
 6976SOL    HW132561   4.491   4.373   0.912  0.3233  0.3864  0.8923
 6976SOL    HW232562   4.585   4.334   1.014  0.7625 -1.4647  0.3530
 6977SOL     OW32563   2.506   0.812   7.745  0.3584  0.7395 -0.5891
 6977SOL    HW132564   2.461   0.838   7.826  1.2737  5.4282 -1.5855
 6977SOL    HW232565   2.591   0.853   7.763  1.4982 -1.8006 -0.1448
 6978SOL     OW32566   2.855   1.956   1.538 -0.4499  0.4158  0.1600
 6978SOL    HW132567   2.858   1.915   1.451 -2.6598 -2.5691  1.4729
 6978SOL    HW232568   2.832   1.878   1.589  2.3872  0.2043  1.0891
 6979SOL     OW32569   4.052   1.519   0.335 -0.3575  0.0498 -0.0645
 6979SOL    HW132570   4.073   1.472   0.254 -0.9947  1.0441 -0.8101
 6979SOL    HW232571   4.091   1.607   0.332 -0.6503  0.1702 -0.3897
 6980SOL     OW32572   2.833   1.210   2.134  0.1016 -0.2559  0.5585
 6980SOL    HW132573   2.739   1.193   2.142 -0.2691  0.8948 -1.5272
 6980SOL    HW232574   2.866   1.128   2.171  0.2078 -0.6452 -0.4219
 6981SOL     OW32575   1.541   1.273   8.991  0.2309 -0.0045 -0.4793
 6981SOL    HW132576   1.516   1.222   9.068 -0.5215 -1.2727 -1.5736
 6981SOL    HW232577   1.461   1.321   8.970 -0.4274 -0.9159 -0.0528
 6982SOL     OW32578   4.486   2.049   0.247 -0.0934 -0.0812 -0.5783
 6982SOL    HW132579   4.480   1.997   0.328  0.9712  1.9526  0.7991
 6982SOL    HW232580   4.450   1.984   0.187 -0.4074  1.0322 -1.5940
 6983SOL     OW32581   4.663   4.585  16.446  0.6135 -0.0679 -0.2885
 6983SOL    HW132582   4.682   4.496  16.417  0.1733 -0.0157 -0.7193
 6983SOL    HW232583   0.009   4.612  16.488  0.7628 -0.9241 -0.0390
 6984SOL     OW32584   2.419   4.072   4.823  0.2730  0.1170  0.2435
 6984SOL    HW132585   2.438   4.021   4.744  0.2566  0.7032 -0.1309
 6984SOL    HW232586   2.326   4.093   4.813  0.3629 -0.1097 -0.9945
 6985SOL     OW32587   0.875   0.002   7.863 -0.3097  0.2745 -0.3183
 6985SOL    HW132588   0.837   4.655   7.891  3.1954 -0.6071  1.8197
 6985SOL    HW232589   0.870   0.001   7.768 -0.8383 -0.4679 -0.2822
 6986SOL     OW32590   2.084   0.502   6.312 -0.3343 -0.3108  0.0714
 6986SOL    HW132591   2.160   0.446   6.297 -0.0280  0.5642 -1.6815
 6986SOL    HW232592   2.107   0.572   6.250 -0.0045 -0.6886 -0.2276
 6987SOL     OW32593   0.324   2.679   5.581 -0.5102  0.0635 -0.2977
 6987SOL    HW132594   0.342   2.649   5.670 -1.1054  1.1006  0.1821
 6987SOL    HW232595   0.407   2.714   5.548 -0.7263  0.2681 -0.6281
 6988SOL     OW32596   1.858   0.020   8.219  0.3002 -0.0376 -0.1831
 6988SOL    HW132597   1.786   0.005   8.158  0.2314  1.7418 -0.5416
 6988SOL    HW232598   1.917   0.073   8.165  0.8488 -0.5954 -0.1345
 6989SOL     OW32599   2.441   1.703   3.743  0.2838 -0.2888  0.2171
 6989SOL    HW132600   2.400   1.762   3.807  0.9251  1.7472 -1.2449
 6989SOL    HW232601   2.390   1.715   3.664 -1.9497 -0.2435  1.6605
 6990SOL     OW32602   1.642   4.695   7.736  0.2233  0.1393 -0.1767
 6990SOL    HW132603   1.582   0.030   7.710 -0.1494 -0.1080  0.0053
 6990SOL    HW232604   1.696   4.691   7.657  2.9170 -0.4786  1.7011
 6991SOL     OW32605   1.625   1.769   6.187  0.0637 -0.6095 -0.2685
 6991SOL    HW132606   1.611   1.742   6.278  0.0118 -2.8187 -0.9437
 6991SOL    HW232607   1.557   1.837   6.185  1.3831  0.7489  1.5113
 6992SOL     OW32608   4.691   0.971   3.293  0.0003 -0.0085 -0.1197
 6992SOL    HW132609   4.662   0.887   3.328 -0.8739  0.3826  0.1062
 6992SOL    HW232610   4.695   1.027   3.371 -1.0400 -1.2117  0.7859
 6993SOL     OW32611   0.064   2.425   9.335  0.3573 -0.1562 -0.3816
 6993SOL    HW132612   0.099   2.337   9.322 -0.7629 -0.6946  0.2063
 6993SOL    HW232613   4.716   2.425   9.289  0.1713 -0.6972 -0.0339
 6994SOL     OW32614   4.687   4.129   3.918  0.4413 -0.7763 -0.2381
 6994SOL    HW132615   0.041   4.161   3.926  0.8221 -2.0851  0.6155
 6994SOL    HW232616   4.650   4.213   3.888 -2.2588 -1.1321  2.1381
 6995SOL     OW32617   3.684   4.603  16.712  0.0430 -0.0504 -0.1130
 6995SOL    HW132618   3.764   4.611  16.659  1.4583 -0.3681  1.9825
 6995SOL    HW232619   3.695   4.640  16.799  1.2899 -1.3708  0.2820
 6996SOL     OW32620   1.060   3.305   8.965  0.4304 -0.3324  0.4560
 6996SOL    HW132621   1.045   3.231   8.907  0.0492  0.3888 -0.3624
 6996SOL    HW232622   1.137   3.341   8.922  0.8213 -1.2339  0.3910
 6997SOL     OW32623   3.783   3.322  17.160  0.2598  0.0062 -0.1124
 6997SOL    HW132624   3.733   3.342  17.239  0.7631  1.2451 -0.1024
 6997SOL    HW232625   3.776   3.408  17.118  1.5958 -0.6754 -1.7716
 6998SOL     OW32626   0.362   3.935   6.522  0.3382 -0.0607 -0.2787
 6998SOL    HW132627   0.336   3.846   6.498 -2.8391  0.6281  0.5396
 6998SOL    HW232628   0.314   3.944   6.605  1.1531  0.1336  0.1757
 6999SOL     OW32629   4.559   3.246   2.885  0.3637 -0.0723 -0.4032
 6999SOL    HW132630   4.525   3.266   2.973 -0.9033  1.5009 -1.2641
 6999SOL    HW232631   4.628   3.184   2.909 -0.6268  0.2115  3.1883
 7000SOL     OW32632   4.042   2.683   5.073 -0.2062 -0.4157  0.7119
 7000SOL    HW132633   4.061   2.591   5.055 -0.7425 -0.6054  1.1230
 7000SOL    HW232634   4.128   2.725   5.065 -0.4408  0.2800  1.8302
 7001SOL     OW32635   3.672   4.194   7.641  0.0531 -0.4975 -0.3478
 7001SOL    HW132636   3.699   4.224   7.728 -1.9489  0.6439 -0.1118
 7001SOL    HW232637   3.724   4.116   7.622 -2.7215 -2.9031  1.9252
 7002SOL     OW32638   3.337   2.748   8.658 -0.5923  0.2936 -0.6370
 7002SOL    HW132639   3.316   2.809   8.729 -0.9728  1.9576 -2.2037
 7002SOL    HW232640   3.366   2.670   8.706  2.6816  1.7571 -0.2199
 7003SOL     OW32641   3.094   3.238  10.205 -0.6703 -0.0304  0.4181
 7003SOL    HW132642   3.084   3.295  10.282  2.1647  0.3651  0.4947
 7003SOL    HW232643   3.071   3.157  10.250 -0.4404 -0.5026 -0.3381
 7004SOL     OW32644   1.461   3.181   6.298 -0.0086  0.2134  0.1912
 7004SOL    HW132645   1.382   3.151   6.253  1.0366 -0.1434 -1.3759
 7004SOL    HW232646   1.518   3.104   6.299  0.7985  0.8251  1.7046
 7005SOL     OW32647   1.880   0.619   8.459  0.5362 -0.4893  0.2639
 7005SOL    HW132648   1.790   0.613   8.489  0.1213  1.9321 -0.5230
 7005SOL    HW232649   1.877   0.714   8.444  1.1573 -0.6304 -0.7891
 7006SOL     OW32650   3.288   0.730   3.175  0.0711  0.6254 -0.2490
 7006SOL    HW132651   3.215   0.782   3.142  0.3197  1.4131  0.4327
 7006SOL    HW232652   3.355   0.773   3.122 -0.2167 -0.8967 -1.8189
 7007SOL     OW32653   0.845   0.628  14.771  0.0050 -0.3685  0.1294
 7007SOL    HW132654   0.800   0.712  14.762 -0.2157 -0.7013 -1.8684
 7007SOL    HW232655   0.917   0.631  14.708 -0.3426 -1.0068 -0.3089
 7008SOL     OW32656   0.486   1.459   2.099  0.2397 -0.2792  0.1396
 7008SOL    HW132657   0.430   1.503   2.163  0.9778 -0.2615  0.7682
 7008SOL    HW232658   0.569   1.506   2.108  0.2914 -0.6828  1.7639
 7009SOL     OW32659   4.377   3.175   1.970 -0.1046 -0.2419  0.4214
 7009SOL    HW132660   4.433   3.164   1.893 -1.2291  2.1363 -0.7365
 7009SOL    HW232661   4.298   3.123   1.951  0.2052 -0.3049 -0.7155
 7010SOL     OW32662   0.483   0.629  11.863 -0.1747 -0.3596 -0.1175
 7010SOL    HW132663   0.536   0.678  11.926  0.4366 -0.1248 -0.8241
 7010SOL    HW232664   0.445   0.705  11.819  1.7807  0.1389 -0.9214
 7011SOL     OW32665   1.568   0.320   8.515  0.2824 -0.4209 -0.2573
 7011SOL    HW132666   1.530   0.359   8.594 -0.4606 -1.8179  0.0735
 7011SOL    HW232667   1.605   0.241   8.554 -0.2341 -1.0520 -1.0434
 7012SOL     OW32668   1.373   4.158   3.052 -0.0817  0.3263  0.2646
 7012SOL    HW132669   1.405   4.226   3.111  1.4817 -0.7161  0.6115
 7012SOL    HW232670   1.408   4.180   2.966 -1.1288  0.0422 -0.2366
 7013SOL     OW32671   1.441   1.562   7.610 -0.3406  0.8319  0.1467
 7013SOL    HW132672   1.435   1.616   7.689  0.4013 -0.7346  1.2901
 7013SOL    HW232673   1.532   1.571   7.584 -0.2254  1.0880  0.6380
 7014SOL     OW32674   0.541   1.992   0.347  0.0231 -0.6707 -0.1334
 7014SOL    HW132675   0.515   1.942   0.425 -1.9437 -0.7964 -0.8779
 7014SOL    HW232676   0.578   1.931   0.283  1.7413 -1.6944  1.8188
 7015SOL     OW32677   2.076   3.458   4.810  0.5943  0.5450 -0.5397
 7015SOL    HW132678   2.034   3.525   4.756  0.4235 -0.0255 -1.1073
 7015SOL    HW232679   2.147   3.511   4.847  1.7873 -1.4832  0.0668
 7016SOL     OW32680   3.939   2.221   3.721 -0.9669  0.3549 -0.1064
 7016SOL    HW132681   3.967   2.133   3.748 -0.6438  0.2643 -0.7285
 7016SOL    HW232682   3.947   2.208   3.626  2.5174 -0.6329  0.3169
 7017SOL     OW32683   2.958   1.353   3.346  0.0792  0.1704  0.3830
 7017SOL    HW132684   2.936   1.442   3.374  0.4718  0.9452 -1.7581
 7017SOL    HW232685   2.933   1.304   3.424 -0.1632 -0.3343 -0.0137
 7018SOL     OW32686   1.978   1.240   7.495 -0.4043  0.1783 -0.0977
 7018SOL    HW132687   1.907   1.223   7.557  0.9775  0.7421  1.6149
 7018SOL    HW232688   2.054   1.198   7.535 -0.6666 -0.9217 -0.7430
 7019SOL     OW32689   2.169   1.146  12.737  0.4454 -0.5112 -0.9158
 7019SOL    HW132690   2.210   1.071  12.781  2.3393 -0.6463 -2.9039
 7019SOL    HW232691   2.219   1.153  12.656 -0.5269 -1.6983 -1.6328
 7020SOL     OW32692   2.523   1.924   0.850 -0.8336  0.0261  0.1198
 7020SOL    HW132693   2.433   1.913   0.881 -1.0316 -1.7501 -1.0897
 7020SOL    HW232694   2.520   2.019   0.846  0.6583  0.0186 -0.9572
 7021SOL     OW32695   0.953   0.112   5.447  0.0757  0.2802  0.1187
 7021SOL    HW132696   0.907   0.153   5.520  2.8182  2.6218  0.5274
 7021SOL    HW232697   0.951   0.178   5.378  1.4610  0.0777 -0.1198
 7022SOL     OW32698   2.901   2.568   8.119  0.1814 -0.0746  0.6220
 7022SOL    HW132699   2.945   2.626   8.057 -1.9642  0.2121 -0.6386
 7022SOL    HW232700   2.906   2.608   8.205 -1.0239 -1.0468  1.1470
 7023SOL     OW32701   2.958   0.035   3.954 -0.5395 -0.2176  0.9677
 7023SOL    HW132702   2.902   4.703   3.918  0.1368 -0.7546  0.9357
 7023SOL    HW232703   2.984   0.081   3.874  0.9093 -1.8019  0.5547
 7024SOL     OW32704   1.019   1.361  12.405  0.2130  0.5272  0.0451
 7024SOL    HW132705   1.009   1.322  12.492 -1.0276  2.1377  0.6401
 7024SOL    HW232706   1.034   1.454  12.423 -0.6475  0.6781  0.0184
 7025SOL     OW32707   3.739   2.597   1.625 -0.4570 -0.5994  0.0844
 7025SOL    HW132708   3.834   2.590   1.632 -0.4219  0.2800  0.4398
 7025SOL    HW232709   3.699   2.544   1.694 -3.6444  1.6729  0.0214
 7026SOL     OW32710   1.829   1.230   8.388 -0.1003  0.4685  0.1691
 7026SOL    HW132711   1.789   1.313   8.363 -1.6319 -0.1290  0.6215
 7026SOL    HW232712   1.812   1.179   8.309  2.2315  1.4719 -0.9776
 7027SOL     OW32713   3.729   2.529   0.384  0.4791  0.2871 -0.0292
 7027SOL    HW132714   3.745   2.462   0.317  0.3448  0.3158 -0.0896
 7027SOL    HW232715   3.819   2.555   0.404  0.2637  1.3998 -0.5205
 7028SOL     OW32716   2.541   3.172   6.707 -0.4391  0.2374 -0.2320
 7028SOL    HW132717   2.597   3.120   6.765 -1.3004 -1.3133 -0.7994
 7028SOL    HW232718   2.606   3.217   6.654 -0.9355  0.7294 -0.4246
 7029SOL     OW32719   0.744   0.999   4.092  0.1049  0.1310  0.1266
 7029SOL    HW132720   0.648   0.995   4.090  0.2218 -2.2994 -0.3312
 7029SOL    HW232721   0.752   1.094   4.105 -0.7522  0.0744  1.0366
 7030SOL     OW32722   3.561   4.430  17.367  0.0462 -0.3589  0.3301
 7030SOL    HW132723   3.500   4.469  17.431 -0.0887 -3.6559  2.1928
 7030SOL    HW232724   3.622   4.503  17.361 -1.6977  1.2605  1.9102
 7031SOL     OW32725   4.491   4.297   3.418 -0.0217 -0.3572  0.7253
 7031SOL    HW132726   4.396   4.305   3.409  0.2571  2.9786  0.9453
 7031SOL    HW232727   4.506   4.214   3.371  1.5439 -0.0670  0.7141
 7032SOL     OW32728   1.039   0.262  16.575 -0.9567  0.0860  0.2679
 7032SOL    HW132729   1.099   0.200  16.617 -1.1661  0.6832  1.4825
 7032SOL    HW232730   1.051   0.240  16.483  0.6685  0.8664  0.2960
 7033SOL     OW32731   2.111   1.194  12.401 -0.1696 -0.1644  0.1954
 7033SOL    HW132732   2.097   1.113  12.450 -2.3290  1.0071  1.4783
 7033SOL    HW232733   2.038   1.195  12.339  0.9069  0.0843 -1.0644
 7034SOL     OW32734   0.377   0.665   6.143  0.3357 -0.0547  0.4933
 7034SOL    HW132735   0.300   0.623   6.181 -0.0341  0.2000  0.0288
 7034SOL    HW232736   0.345   0.747   6.106 -1.0858 -0.4445  0.8586
 7035SOL     OW32737   0.192   4.576   5.993 -0.5447  0.2025 -0.0256
 7035SOL    HW132738   0.185   4.658   5.945  2.5914  0.8463  0.5855
 7035SOL    HW232739   0.252   4.597   6.065  1.7573  2.4966 -2.5698
 7036SOL     OW32740   4.582   0.662  13.724  0.6923  0.2427 -0.2205
 7036SOL    HW132741   4.519   0.639  13.792  1.2893 -0.0934  0.2182
 7036SOL    HW232742   4.531   0.728  13.678 -1.4543 -1.3067 -0.0594
 7037SOL     OW32743   3.769   3.950   9.363  0.0318 -0.1876 -0.1948
 7037SOL    HW132744   3.688   3.950   9.413 -1.4080  1.2731 -2.5305
 7037SOL    HW232745   3.736   3.972   9.276 -1.8328 -0.5956  0.4192
 7038SOL     OW32746   0.870   4.011   3.019 -0.6383  0.1362 -0.2654
 7038SOL    HW132747   0.927   3.950   2.973  1.9751  2.3318  0.0127
 7038SOL    HW232748   0.925   4.088   3.031  1.2977 -1.0528 -1.5920
 7039SOL     OW32749   4.650   2.504   3.117 -0.0799 -0.1275  0.4545
 7039SOL    HW132750   4.725   2.557   3.090 -0.8196  1.8159  2.2452
 7039SOL    HW232751   4.611   2.566   3.178 -0.7951  1.0775 -1.2230
 7040SOL     OW32752   0.003   2.958   1.720 -0.3359 -0.5583  0.2406
 7040SOL    HW132753   4.659   2.937   1.768 -0.2605  0.6991  0.9177
 7040SOL    HW232754   0.037   2.868   1.714 -0.9438 -0.5811 -3.0004
 7041SOL     OW32755   2.757   1.042   6.461 -0.1560  0.2194  0.3152
 7041SOL    HW132756   2.683   1.066   6.406 -0.4587 -2.6458 -0.5280
 7041SOL    HW232757   2.716   0.978   6.519 -0.6313 -3.1035 -3.7630
 7042SOL     OW32758   3.713   2.240  10.845  0.6655  0.0205  0.0812
 7042SOL    HW132759   3.753   2.305  10.904  1.6380 -0.9064  0.4495
 7042SOL    HW232760   3.697   2.289  10.765 -2.4899  0.7318  1.1654
 7043SOL     OW32761   2.739   2.531   7.924  0.3178  0.6486 -0.4133
 7043SOL    HW132762   2.672   2.597   7.939 -0.1412  0.5600 -2.0612
 7043SOL    HW232763   2.776   2.529   8.012  0.6746  0.8039 -0.5578
 7044SOL     OW32764   4.279   4.297   4.514  0.0720 -0.0516 -0.0244
 7044SOL    HW132765   4.258   4.225   4.455 -0.7489  1.1176 -1.1667
 7044SOL    HW232766   4.374   4.287   4.524  0.0811  0.3392  0.2711
 7045SOL     OW32767   0.106   3.219   3.856 -0.3575 -0.1656  0.3276
 7045SOL    HW132768   0.144   3.131   3.856 -1.7319 -0.7576 -1.1086
 7045SOL    HW232769   0.029   3.205   3.911 -0.8011 -0.8454 -0.4672
 7046SOL     OW32770   2.209   2.656  16.144  0.8842  0.6059  0.3780
 7046SOL    HW132771   2.248   2.738  16.175  1.5254  0.1068  0.8938
 7046SOL    HW232772   2.220   2.665  16.049  0.2699  1.0180  0.3495
 7047SOL     OW32773   2.495   1.392  14.033 -0.2371 -0.0396 -0.2978
 7047SOL    HW132774   2.433   1.427  14.097 -0.2828  0.8850 -0.8441
 7047SOL    HW232775   2.434   1.397  13.959 -2.5220 -2.0165  1.4438
 7048SOL     OW32776   0.053   2.142   7.754  0.0710 -0.2319 -0.7095
 7048SOL    HW132777   0.016   2.092   7.681  0.4832  0.2003 -1.2239
 7048SOL    HW232778   0.016   2.229   7.740  0.3422  0.2753  1.7837
 7049SOL     OW32779   2.611   3.912  17.109 -0.2870  0.0760  0.0455
 7049SOL    HW132780   2.699   3.895  17.074 -0.2794  0.1493  0.0266
 7049SOL    HW232781   2.589   3.822  17.130 -2.2766 -0.2155 -3.4066
 7050SOL     OW32782   0.705   1.688   8.383 -1.0188 -0.3641  0.7212
 7050SOL    HW132783   0.673   1.627   8.449  1.0211 -2.2290 -0.0249
 7050SOL    HW232784   0.756   1.631   8.326  0.6966  0.2082  1.6963
 7051SOL     OW32785   0.412   0.931   2.135  0.0997 -0.3759 -0.4250
 7051SOL    HW132786   0.375   0.903   2.219  1.3103  0.0979  0.2720
 7051SOL    HW232787   0.500   0.953   2.167  0.2781 -1.5219 -0.1021
 7052SOL     OW32788   0.510   3.993   5.352  0.0484 -0.2022 -0.1983
 7052SOL    HW132789   0.552   4.008   5.436  0.1769  2.4518 -0.7206
 7052SOL    HW232790   0.421   4.017   5.375  0.2584 -0.8629  1.2809
 7053SOL     OW32791   0.846   1.571   2.723 -0.5764 -0.0233  0.2302
 7053SOL    HW132792   0.764   1.595   2.766 -1.7279 -4.7885  0.7390
 7053SOL    HW232793   0.831   1.482   2.691 -1.3193  0.8099 -1.7366
 7054SOL     OW32794   1.938   4.518   4.849  0.1683  0.3295  0.1049
 7054SOL    HW132795   1.943   4.441   4.792 -0.6707  1.4002 -1.4237
 7054SOL    HW232796   1.846   4.508   4.873 -0.5150 -1.0559 -3.0345
 7055SOL     OW32797   0.485   1.299   3.531  0.0491 -0.2751  0.4207
 7055SOL    HW132798   0.494   1.369   3.597  2.8371 -2.6125  2.5460
 7055SOL    HW232799   0.531   1.344   3.460 -0.3570  0.3667  0.5703
 7056SOL     OW32800   1.362   1.848  10.966 -0.8048  0.1710  0.2038
 7056SOL    HW132801   1.400   1.925  10.925 -2.0430 -0.9200 -3.0223
 7056SOL    HW232802   1.439   1.791  10.971  0.2103  1.2477 -2.9797
 7057SOL     OW32803   2.687   3.143   1.601  0.5647  0.0983  0.3099
 7057SOL    HW132804   2.620   3.083   1.635 -1.3969  2.9930  1.5534
 7057SOL    HW232805   2.660   3.148   1.509 -2.2331  2.6378  1.2790
 7058SOL     OW32806   3.795   1.632   3.432 -0.8825 -0.0622 -0.0520
 7058SOL    HW132807   3.873   1.580   3.412 -1.4142 -0.6997 -0.4579
 7058SOL    HW232808   3.742   1.559   3.465  0.1860 -1.7168 -1.9487
 7059SOL     OW32809   0.523   0.978   5.878  0.1070 -0.3285  0.1474
 7059SOL    HW132810   0.571   1.056   5.906  0.7605 -0.8819  0.5957
 7059SOL    HW232811   0.433   0.989   5.910  0.3446  0.2526  0.6150
 7060SOL     OW32812   2.525   0.135   9.713  0.2226  0.4116  0.2176
 7060SOL    HW132813   2.540   0.228   9.730 -1.1558  0.8945 -1.1923
 7060SOL    HW232814   2.487   0.114   9.799 -0.9566 -0.4079 -0.4963
 7061SOL     OW32815   1.750   3.063   0.871  0.3202  0.5592  0.5805
 7061SOL    HW132816   1.796   3.067   0.787 -4.5544  2.3094 -1.9510
 7061SOL    HW232817   1.780   2.976   0.897  1.0676  0.5051 -0.4498
 7062SOL     OW32818   2.764   0.201   7.752 -0.0902  0.4597 -0.0025
 7062SOL    HW132819   2.857   0.204   7.776 -0.5562  2.9058  1.5204
 7062SOL    HW232820   2.768   0.193   7.656 -1.3295  0.3029 -0.0336
 7063SOL     OW32821   4.012   0.190   8.442 -0.1339 -0.1395  0.1022
 7063SOL    HW132822   3.971   0.184   8.528 -0.0278 -2.5981 -0.0393
 7063SOL    HW232823   4.085   0.133   8.463 -1.5184 -1.2335  1.9713
 7064SOL     OW32824   2.233   3.838  12.807  0.4856 -0.1286  0.4010
 7064SOL    HW132825   2.302   3.891  12.769 -0.5628  1.6247  0.9430
 7064SOL    HW232826   2.152   3.866  12.764  2.6525  0.6830 -3.1710
 7065SOL     OW32827   1.922   3.391   7.325 -0.5729 -0.2739  0.1695
 7065SOL    HW132828   1.859   3.348   7.268 -2.2045 -0.5006  2.1339
 7065SOL    HW232829   1.889   3.479   7.306  0.4919 -0.0812 -0.7826
 7066SOL     OW32830   2.558   3.940   1.499 -0.9260 -0.3305 -0.1721
 7066SOL    HW132831   2.612   3.960   1.575  1.8012 -0.2944 -2.1335
 7066SOL    HW232832   2.575   3.847   1.489 -0.7819 -0.5995  2.6361
 7067SOL     OW32833   3.586   2.592  11.665  0.5068  0.1208 -0.2693
 7067SOL    HW132834   3.670   2.556  11.637  0.4367  1.0559 -1.6763
 7067SOL    HW232835   3.529   2.530  11.620 -0.0064 -0.3776  1.0698
 7068SOL     OW32836   1.759   3.529   5.034  0.2309  0.0419 -0.2632
 7068SOL    HW132837   1.716   3.490   4.957 -0.9021  3.2392 -1.2301
 7068SOL    HW232838   1.834   3.471   5.046  0.2486  0.0161 -0.4862
 7069SOL     OW32839   2.396   3.221   8.008 -0.7174 -0.0147 -0.1724
 7069SOL    HW132840   2.491   3.220   8.002 -0.7471 -1.3022 -0.4270
 7069SOL    HW232841   2.366   3.312   8.019 -2.5298 -0.8743  2.1016
 7070SOL     OW32842   3.805   2.030   8.813  0.0219  0.2598 -0.6393
 7070SOL    HW132843   3.866   2.089   8.768  1.5358 -0.0353  1.0068
 7070SOL    HW232844   3.857   1.950   8.800 -1.1166 -0.5616 -0.1546
 7071SOL     OW32845   2.979   1.834   7.691 -1.0235 -0.2688  0.6029
 7071SOL    HW132846   2.961   1.765   7.626  1.5717  1.9523 -2.4801
 7071SOL    HW232847   3.008   1.782   7.766  0.0725 -0.0122  0.3674
 7072SOL     OW32848   3.707   0.277   7.928  0.1224  0.8405 -0.1368
 7072SOL    HW132849   3.700   0.191   7.970 -0.2493  1.1434  0.4365
 7072SOL    HW232850   3.686   0.255   7.838  0.7558 -0.7386  0.1093
 7073SOL     OW32851   4.728   1.294   2.935  0.6928 -0.1566  0.1728
 7073SOL    HW132852   4.703   1.231   2.866  0.5001 -1.3462  1.3268
 7073SOL    HW232853   0.038   1.237   2.997 -0.5502 -0.1160  1.1342
 7074SOL     OW32854   4.634   4.470   9.076  0.3705 -0.3445  0.5415
 7074SOL    HW132855   4.682   4.506   9.001  0.8510  0.0103  1.0198
 7074SOL    HW232856   4.713   4.449   9.125  0.7064 -0.9833 -0.2831
 7075SOL     OW32857   4.187   3.219   6.413 -1.1844  0.0467 -0.0186
 7075SOL    HW132858   4.199   3.302   6.366 -0.0179  0.7133  1.4527
 7075SOL    HW232859   4.186   3.157   6.340  0.4661 -1.3316  1.1434
 7076SOL     OW32860   3.794   1.608   4.638 -0.3714 -0.3922 -0.5076
 7076SOL    HW132861   3.872   1.629   4.688 -1.3384  1.0555  0.3846
 7076SOL    HW232862   3.754   1.694   4.643  1.8633  0.6579 -0.9649
 7077SOL     OW32863   0.638   0.930   2.673  0.0386 -0.2138  0.0251
 7077SOL    HW132864   0.571   0.970   2.617  1.4697  0.6021 -1.1086
 7077SOL    HW232865   0.693   1.001   2.706 -0.3637 -0.8205  1.9445
 7078SOL     OW32866   3.181   1.443   7.868 -0.0475 -0.1998 -0.2144
 7078SOL    HW132867   3.211   1.488   7.789 -1.0749 -1.8115 -1.5165
 7078SOL    HW232868   3.213   1.354   7.852 -1.2124 -0.4987 -0.8999
 7079SOL     OW32869   0.419   4.641   1.398  0.3035 -0.2131 -0.0653
 7079SOL    HW132870   0.437   4.607   1.310 -0.0222  0.4069 -0.3684
 7079SOL    HW232871   0.499   4.685   1.424  0.5387 -0.9694  0.4777
 7080SOL     OW32872   2.270   3.466  13.401  0.0153  0.2335 -0.1842
 7080SOL    HW132873   2.183   3.449  13.439 -0.9113 -0.2983 -2.5341
 7080SOL    HW232874   2.277   3.557  13.373 -3.8522  0.7383  0.5250
 7081SOL     OW32875   3.482   1.279   7.002 -0.0168 -0.0234 -0.1824
 7081SOL    HW132876   3.555   1.218   6.995  0.9614  1.1783 -0.3805
 7081SOL    HW232877   3.446   1.275   6.914 -0.8468  1.3477  0.0806
 7082SOL     OW32878   3.887   1.278   0.432 -0.4432 -0.1164 -0.0639
 7082SOL    HW132879   3.886   1.372   0.413  1.6271 -0.5969 -2.6762
 7082SOL    HW232880   3.902   1.238   0.346 -0.0282  0.1687 -0.1270
 7083SOL     OW32881   0.902   1.189   6.925  0.2564 -0.0248 -0.4370
 7083SOL    HW132882   0.966   1.232   6.983  0.0518 -0.2372 -0.0541
 7083SOL    HW232883   0.829   1.170   6.984 -1.8407  0.8735 -2.7569
 7084SOL     OW32884   1.004   1.920   9.293 -0.6753  0.8259 -0.4736
 7084SOL    HW132885   1.082   1.963   9.260  0.5736 -0.0171  1.4461
 7084SOL    HW232886   1.030   1.832   9.266 -3.1719  0.1068 -0.6011
 7085SOL     OW32887   1.496   4.521   8.459  0.3803 -0.5184  0.0402
 7085SOL    HW132888   1.589   4.542   8.467  0.4432 -0.6219 -0.4502
 7085SOL    HW232889   1.499   4.431   8.427 -0.7181 -0.8337  0.8116
 7086SOL     OW32890   4.259   1.112  10.011 -0.2560 -0.2091 -0.4244
 7086SOL    HW132891   4.209   1.050   9.958 -0.1045 -0.6006 -0.1097
 7086SOL    HW232892   4.300   1.052  10.074  1.5428  1.4702  0.0107
 7087SOL     OW32893   1.087   4.035  16.956  0.3244 -0.5466  0.0052
 7087SOL    HW132894   1.026   4.026  16.883  0.3136 -3.1240  0.3270
 7087SOL    HW232895   1.070   3.949  16.996  1.4222  0.3636  2.4404
 7088SOL     OW32896   2.586   2.824  15.883 -0.4741 -0.0499 -0.4133
 7088SOL    HW132897   2.617   2.742  15.845  3.2115  1.7839 -1.3809
 7088SOL    HW232898   2.572   2.882  15.808  1.1973  0.9409  0.0433
 7089SOL     OW32899   3.288   1.682  17.113  0.1853 -0.2502  0.4937
 7089SOL    HW132900   3.346   1.708  17.185  3.4799 -1.0837 -1.8659
 7089SOL    HW232901   3.266   1.590  17.131 -1.5204  0.2397  0.8966
 7090SOL     OW32902   3.931   0.983   7.111 -0.2797 -0.4548 -0.5779
 7090SOL    HW132903   3.945   1.071   7.144  0.5304 -0.5056 -0.8003
 7090SOL    HW232904   3.906   0.933   7.188 -0.5451  1.0964  0.3418
 7091SOL     OW32905   0.542   2.703  14.573 -0.2106 -1.1445 -0.4211
 7091SOL    HW132906   0.501   2.640  14.632  1.1403 -0.2837  1.4234
 7091SOL    HW232907   0.541   2.777  14.633 -0.4576  0.6333 -2.6121
 7092SOL     OW32908   1.161   0.566   2.341  0.6639  0.0078  0.3665
 7092SOL    HW132909   1.116   0.538   2.421 -0.2686 -0.0196 -0.1808
 7092SOL    HW232910   1.161   0.661   2.356 -1.6245 -0.1066  1.0943
 7093SOL     OW32911   1.129   4.251   3.919 -0.3304 -0.8680  0.0844
 7093SOL    HW132912   1.066   4.208   3.861 -0.7504  1.6306 -1.3056
 7093SOL    HW232913   1.198   4.187   3.937  0.3536  0.2469  1.4422
 7094SOL     OW32914   3.625   2.462   8.162 -0.3831 -0.6544  0.5297
 7094SOL    HW132915   3.598   2.399   8.228  0.5577 -2.2055 -0.5776
 7094SOL    HW232916   3.570   2.534   8.193 -3.1815 -3.5090  2.0429
 7095SOL     OW32917   2.944   4.304  10.273  0.2225  0.1593 -0.3633
 7095SOL    HW132918   2.879   4.265  10.332  1.9256 -0.5130  1.0509
 7095SOL    HW232919   3.012   4.237  10.276  0.2625  0.2135 -0.0092
 7096SOL     OW32920   0.114   4.031  17.226  0.3021 -0.7088 -0.7554
 7096SOL    HW132921   0.210   4.029  17.222  0.3687  0.7851  0.1805
 7096SOL    HW232922   0.089   4.019  17.135 -0.3348  2.2388 -0.9823
 7097SOL     OW32923   3.800   3.443   2.142  0.6000  0.1800  0.3345
 7097SOL    HW132924   3.774   3.466   2.053  2.1290 -1.4925 -0.5723
 7097SOL    HW232925   3.869   3.508   2.155 -0.4791  1.1218  1.2626
 7098SOL     OW32926   1.852   2.081   6.607 -0.1675  0.3339  0.3716
 7098SOL    HW132927   1.801   2.103   6.529  0.6084 -3.6443 -1.2343
 7098SOL    HW232928   1.785   2.034   6.657  0.5208 -1.2720 -0.2233
 7099SOL     OW32929   2.677   2.753   8.324  0.1517 -0.1146  0.1957
 7099SOL    HW132930   2.746   2.817   8.339 -0.6343  0.3037  2.0028
 7099SOL    HW232931   2.604   2.806   8.292  0.6586  0.9183  0.7684
 7100SOL     OW32932   3.069   2.999   2.938 -0.6009 -0.4678 -0.3748
 7100SOL    HW132933   3.141   2.977   2.880  0.9495 -1.0165  1.7772
 7100SOL    HW232934   3.016   2.922   2.918 -0.6324 -0.3482 -0.7649
 7101SOL     OW32935   2.434   2.392   7.580 -0.2211 -0.1883  0.2966
 7101SOL    HW132936   2.506   2.452   7.561 -0.6193  1.1371  2.9091
 7101SOL    HW232937   2.385   2.446   7.643 -0.6911 -0.1441 -0.1114
 7102SOL     OW32938   4.689   2.185   0.132 -0.5271 -0.1292  0.2733
 7102SOL    HW132939   4.613   2.138   0.166 -2.0786  1.3190 -1.1992
 7102SOL    HW232940   4.643   2.219   0.055  0.4401 -0.2463 -0.3624
 7103SOL     OW32941   3.666   0.636   7.663 -0.2729  0.2598 -0.0859
 7103SOL    HW132942   3.599   0.667   7.724 -0.3012 -2.1681  1.1148
 7103SOL    HW232943   3.646   0.701   7.596  1.0943 -2.7310 -3.4055
 7104SOL     OW32944   0.823   3.799   1.934  0.4143 -0.1423  0.1639
 7104SOL    HW132945   0.900   3.841   1.973  1.2642 -0.1859 -1.4607
 7104SOL    HW232946   0.829   3.810   1.839  2.7634  2.9993  0.6783
 7105SOL     OW32947   0.139   0.754  12.324  0.1606  0.6114 -0.1182
 7105SOL    HW132948   0.195   0.679  12.305  0.2000  0.5146  0.3804
 7105SOL    HW232949   0.120   0.788  12.236 -0.9428 -1.1938 -0.5678
 7106SOL     OW32950   4.302   0.521   8.916  0.3445  0.0479  0.3869
 7106SOL    HW132951   4.261   0.566   8.841  1.3698  1.9316  0.9674
 7106SOL    HW232952   4.259   0.436   8.918 -0.3937  0.3554 -2.1139
 7107SOL     OW32953   2.081   4.337   5.659 -0.1211  0.4552 -0.4869
 7107SOL    HW132954   2.131   4.412   5.692 -3.0969  2.4147 -0.4788
 7107SOL    HW232955   2.113   4.268   5.717 -1.1253  0.6954  0.3483
 7108SOL     OW32956   0.753   0.045  16.916  0.0444  0.4475 -0.0120
 7108SOL    HW132957   0.838   0.059  16.958  1.0726  2.2576 -2.6742
 7108SOL    HW232958   0.698   0.012  16.987  1.2675  0.3015  0.8712
 7109SOL     OW32959   0.277   4.303   7.131 -0.2567  0.4176 -0.2793
 7109SOL    HW132960   0.302   4.316   7.223  1.3135  0.6443 -0.7387
 7109SOL    HW232961   0.253   4.211   7.142  1.2094  0.4372  3.2731
 7110SOL     OW32962   4.239   3.288   3.993  0.2073  0.4008  0.1060
 7110SOL    HW132963   4.248   3.283   4.088  1.8206 -1.2015 -0.1235
 7110SOL    HW232964   4.329   3.313   3.969 -0.4935  2.0375 -0.7999
 7111SOL     OW32965   0.398   2.259   4.313 -0.1443  0.5436 -0.5399
 7111SOL    HW132966   0.493   2.274   4.309  0.1807 -1.4984 -0.6054
 7111SOL    HW232967   0.397   2.172   4.273  0.3539  0.4879 -0.4381
 7112SOL     OW32968   2.550   1.789  12.942 -0.5881 -0.4405 -0.0953
 7112SOL    HW132969   2.464   1.823  12.915 -0.0342  0.3191 -0.9044
 7112SOL    HW232970   2.550   1.806  13.036  1.9756 -2.0902  0.1956
 7113SOL     OW32971   0.968   0.634   8.484 -0.2941 -0.7222 -0.0589
 7113SOL    HW132972   0.909   0.624   8.409  1.7812  0.1690 -1.8019
 7113SOL    HW232973   1.037   0.568   8.477  1.4335  1.1239 -0.4789
 7114SOL     OW32974   1.415   1.847   1.785 -0.2473 -0.0622 -0.2420
 7114SOL    HW132975   1.455   1.904   1.851 -0.2368 -0.3914  0.0420
 7114SOL    HW232976   1.491   1.792   1.764 -1.0081 -0.9058 -0.7591
 7115SOL     OW32977   0.302   0.284   4.829 -0.1315  0.2492 -0.4269
 7115SOL    HW132978   0.217   0.280   4.874  0.4793 -0.5544  0.6581
 7115SOL    HW232979   0.338   0.197   4.846  1.8227  0.6799 -2.3596
 7116SOL     OW32980   3.577   1.639  11.998 -0.4429 -0.4849  0.4369
 7116SOL    HW132981   3.565   1.690  12.078 -2.6227 -0.9049  0.3549
 7116SOL    HW232982   3.616   1.562  12.039 -1.8232 -0.2014  2.2735
 7117SOL     OW32983   3.157   0.338   9.458 -0.1037  0.6190 -0.6470
 7117SOL    HW132984   3.252   0.329   9.452 -0.0478  0.1034  1.0546
 7117SOL    HW232985   3.154   0.349   9.553  1.2022  1.0906 -0.6586
 7118SOL     OW32986   1.028   2.839  10.556  0.2155 -0.1141  0.2188
 7118SOL    HW132987   0.999   2.925  10.584  1.2399 -0.1192  1.3082
 7118SOL    HW232988   1.065   2.851  10.468 -2.1288  1.2842 -0.5898
 7119SOL     OW32989   0.694   0.738  12.006 -0.4266 -0.5209 -0.8456
 7119SOL    HW132990   0.715   0.803  11.939  0.4715  0.1035  0.0426
 7119SOL    HW232991   0.724   0.783  12.085 -2.2417  0.0881 -0.4942
 7120SOL     OW32992   1.782   2.142   8.891 -0.0115  0.4501 -0.5036
 7120SOL    HW132993   1.821   2.228   8.879  3.2992 -1.3368 -2.5339
 7120SOL    HW232994   1.866   2.096   8.886  0.6517  1.4565  1.3188
 7121SOL     OW32995   2.771   0.356   5.032  0.1860  0.4915  0.0880
 7121SOL    HW132996   2.837   0.386   4.969  0.7840  0.0761  0.5157
 7121SOL    HW232997   2.758   0.264   5.009 -2.0183  0.4408  1.5658
 7122SOL     OW32998   0.486   1.704   8.794  0.1231  0.5606 -0.2056
 7122SOL    HW132999   0.486   1.745   8.881 -2.0107  0.6437 -0.2290
 7122SOL    HW233000   0.470   1.776   8.733 -0.5412  1.3033  0.8310
 7123SOL     OW33001   0.909   1.096  13.077  0.0997  0.2436 -0.4095
 7123SOL    HW133002   0.899   1.178  13.126 -0.5519 -0.7140  1.0357
 7123SOL    HW233003   1.004   1.088  13.067  0.4924  1.0655  2.7271
 7124SOL     OW33004   1.843   3.763  16.720 -0.3154 -0.1380  0.3712
 7124SOL    HW133005   1.798   3.834  16.674 -1.0661 -0.0631  1.2141
 7124SOL    HW233006   1.796   3.763  16.804  2.0619 -1.7542  1.7107
 7125SOL     OW33007   0.234   1.587   9.948 -0.3256  0.0615  0.4247
 7125SOL    HW133008   0.206   1.667   9.993 -1.7253 -0.7388  1.0000
 7125SOL    HW233009   0.186   1.522  10.000 -0.0968 -0.5050 -0.0594
 7126SOL     OW33010   0.269   2.310  11.545 -0.2974  0.0224  0.0414
 7126SOL    HW133011   0.326   2.383  11.572  1.2131 -0.6733 -1.2583
 7126SOL    HW233012   0.280   2.259  11.625 -0.2873 -0.0281  0.0074
 7127SOL     OW33013   2.470   3.795  13.078  0.4981  0.2314 -0.2012
 7127SOL    HW133014   2.446   3.712  13.038  2.6212 -0.4971  0.0653
 7127SOL    HW233015   2.500   3.771  13.166 -0.0219  1.3614  0.2871
 7128SOL     OW33016   3.343   3.743   4.320 -1.0536 -0.4145  0.4075
 7128SOL    HW133017   3.292   3.690   4.259 -0.6160 -0.7870  0.3637
 7128SOL    HW233018   3.316   3.704   4.403 -0.9092 -0.2827  0.5169
 7129SOL     OW33019   2.811   2.868  13.312 -0.0012  0.9837 -0.2888
 7129SOL    HW133020   2.868   2.792  13.304 -0.9672  0.2445 -0.1532
 7129SOL    HW233021   2.857   2.922  13.376 -1.1032  0.3008  1.0821
 7130SOL     OW33022   3.405   4.035   3.413  0.2187  0.5542  0.6602
 7130SOL    HW133023   3.365   3.960   3.457  0.5047  0.3759  0.6124
 7130SOL    HW233024   3.353   4.107   3.449 -0.3040  1.1754 -1.3537
 7131SOL     OW33025   3.350   3.765   1.086 -0.8176 -0.0194  0.3319
 7131SOL    HW133026   3.353   3.690   1.027 -1.1511  0.3412 -0.1328
 7131SOL    HW233027   3.428   3.818   1.072 -1.2909  0.5146 -0.2358
 7132SOL     OW33028   0.862   1.959   4.926  0.1661 -0.2621  0.5519
 7132SOL    HW133029   0.948   1.995   4.949 -0.7875  1.6841  1.0384
 7132SOL    HW233030   0.799   2.022   4.962 -1.0303 -0.6529 -0.8836
 7133SOL     OW33031   4.329   2.125   8.640  0.0247 -0.2417 -0.3055
 7133SOL    HW133032   4.354   2.045   8.592  1.0640 -0.7312  1.0590
 7133SOL    HW233033   4.295   2.172   8.564 -0.5570 -1.8173 -1.0264
 7134SOL     OW33034   2.373   3.031   9.832  0.9350 -0.1965 -0.1700
 7134SOL    HW133035   2.412   3.010   9.747  1.6419 -1.3075  0.4279
 7134SOL    HW233036   2.355   3.125   9.829 -1.8060 -0.6977  0.1379
 7135SOL     OW33037   1.771   3.618  13.144  0.1225  0.3453 -0.1485
 7135SOL    HW133038   1.862   3.642  13.127  0.8447 -0.5122  2.6597
 7135SOL    HW233039   1.788   3.616  13.238  0.8500 -1.5737 -0.3185
 7136SOL     OW33040   1.772   0.609   5.949 -0.3208  0.1497  0.2034
 7136SOL    HW133041   1.766   0.684   5.889 -1.0134 -1.2284 -1.4613
 7136SOL    HW233042   1.782   0.648   6.036  1.7588  0.9543 -0.3972
 7137SOL     OW33043   0.365   2.340   9.545  0.2090  0.6622  0.1192
 7137SOL    HW133044   0.344   2.333   9.639  0.8553  2.6148  0.4220
 7137SOL    HW233045   0.360   2.248   9.520 -2.4903  0.8092  0.0861
 7138SOL     OW33046   0.411   2.473   6.924  0.0008  0.1128  0.0178
 7138SOL    HW133047   0.424   2.543   6.861  1.3315  2.6240  3.0792
 7138SOL    HW233048   0.355   2.516   6.989  0.1430  0.9001 -0.3843
 7139SOL     OW33049   1.676   0.944   6.157 -0.5225 -0.4783  0.1801
 7139SOL    HW133050   1.759   0.991   6.146 -0.2164 -1.0473  0.0502
 7139SOL    HW233051   1.666   0.921   6.249 -0.9395 -0.4297  0.1455
 7140SOL     OW33052   0.558   1.198   7.705 -0.1858  0.2642  0.4148
 7140SOL    HW133053   0.638   1.168   7.748 -0.9433 -2.1040  0.2173
 7140SOL    HW233054   0.559   1.292   7.688 -0.8883 -0.3733 -3.2032
 7141SOL     OW33055   3.958   1.881   1.110  0.3196  0.0769  1.0879
 7141SOL    HW133056   3.870   1.844   1.116  0.6427 -0.8935 -0.3318
 7141SOL    HW233057   3.965   1.908   1.202 -0.3385  1.9516  0.5827
 7142SOL     OW33058   2.827   2.223   4.027 -0.3559  0.2366  0.0645
 7142SOL    HW133059   2.912   2.257   4.054 -0.7141  2.4352 -1.6312
 7142SOL    HW233060   2.788   2.215   4.115 -0.5403 -0.1978 -0.0553
 7143SOL     OW33061   1.870   0.680   9.899 -0.8552  0.2219  0.4753
 7143SOL    HW133062   1.879   0.776   9.899 -1.1783  0.2603 -0.7480
 7143SOL    HW233063   1.800   0.660   9.837  2.3442 -2.3366 -2.2969
 7144SOL     OW33064   1.963   4.571   4.260 -0.2166 -0.2375  0.0324
 7144SOL    HW133065   1.937   4.510   4.329 -0.1481  0.3205  0.5552
 7144SOL    HW233066   1.889   4.572   4.199 -0.9094  1.7756  0.9155
 7145SOL     OW33067   1.936   0.434   4.801 -0.4622  0.3935 -0.0160
 7145SOL    HW133068   1.874   0.371   4.837  1.8983 -0.2431  2.9228
 7145SOL    HW233069   1.880   0.510   4.787  1.2937  1.3822 -1.7118
 7146SOL     OW33070   0.650   2.324  11.442 -0.3255 -0.4085  0.6590
 7146SOL    HW133071   0.694   2.252  11.488  0.3796 -1.8102 -2.2214
 7146SOL    HW233072   0.604   2.376  11.508  0.1715  1.6161 -0.6079
 7147SOL     OW33073   2.247   4.644   9.266  0.3696  0.4756  0.4615
 7147SOL    HW133074   2.282   4.722   9.308  0.5656  0.6513 -0.0252
 7147SOL    HW233075   2.324   4.590   9.249 -0.3177 -0.5492  0.6242
 7148SOL     OW33076   3.200   1.530   2.701 -0.8797  0.0125  0.9014
 7148SOL    HW133077   3.294   1.519   2.717 -0.9351  1.6336  2.3229
 7148SOL    HW233078   3.196   1.453   2.645 -1.1273  0.4386  0.3366
 7149SOL     OW33079   3.756   0.804   2.196  0.0075  0.2797 -0.2279
 7149SOL    HW133080   3.730   0.712   2.202 -1.3630  0.5484 -1.9749
 7149SOL    HW233081   3.683   0.841   2.146 -0.0891 -0.9922 -1.0364
 7150SOL     OW33082   1.629   3.405   7.648  0.1510  0.1575 -0.2903
 7150SOL    HW133083   1.620   3.376   7.557  2.1346  0.8745 -0.7031
 7150SOL    HW233084   1.559   3.347   7.678  1.4240 -0.0828  2.1891
 7151SOL     OW33085   0.662   1.807   6.468 -0.6871 -0.1412 -0.4133
 7151SOL    HW133086   0.651   1.806   6.373  1.6517  0.5885 -0.7171
 7151SOL    HW233087   0.678   1.716   6.495 -2.4586  0.5020  2.7473
 7152SOL     OW33088   0.376   0.181   2.279 -0.1318 -0.0706  0.3616
 7152SOL    HW133089   0.347   0.091   2.264  0.9764 -0.7835  2.4876
 7152SOL    HW233090   0.310   0.233   2.233 -0.6512  0.7218  1.9878
 7153SOL     OW33091   4.378   3.513   9.182 -0.5675 -0.4032  0.3812
 7153SOL    HW133092   4.324   3.451   9.132 -1.0079  0.7056 -0.5122
 7153SOL    HW233093   4.312   3.562   9.230  0.3407  0.4803  0.7243
 7154SOL     OW33094   4.428   4.318   2.419 -0.3504  0.3406 -0.3372
 7154SOL    HW133095   4.410   4.375   2.494  1.9985  2.2625 -1.2013
 7154SOL    HW233096   4.484   4.366   2.358  1.1081  0.5427  1.1545
 7155SOL     OW33097   1.281   2.275   9.906 -0.4582  0.0467  0.6010
 7155SOL    HW133098   1.198   2.239   9.938 -0.6506 -1.0774 -1.1501
 7155SOL    HW233099   1.345   2.227   9.959  0.8126  1.3407  0.2307
 7156SOL     OW33100   0.718   2.691   5.024 -0.6230 -0.2173 -0.4160
 7156SOL    HW133101   0.781   2.716   5.092 -0.7510  1.9507 -1.1239
 7156SOL    HW233102   0.709   2.766   4.966  1.9941  0.0536 -0.4746
 7157SOL     OW33103   1.189   0.087  16.758  0.4800  0.1824 -0.1395
 7157SOL    HW133104   1.129   0.120  16.824  0.4158 -0.3154  0.0544
 7157SOL    HW233105   1.271   0.071  16.806  0.7775  0.5320 -0.5302
 7158SOL     OW33106   1.159   2.749   0.371  0.5452  0.2195  0.2736
 7158SOL    HW133107   1.094   2.681   0.391 -0.9060  0.5388 -3.3885
 7158SOL    HW233108   1.148   2.807   0.446 -0.1481 -2.6149  2.3989
 7159SOL     OW33109   1.851   4.657  17.460  0.1661 -0.1510  0.1503
 7159SOL    HW133110   1.775   4.708  17.488  0.3992  0.0211  0.4752
 7159SOL    HW233111   1.894   4.725  17.408 -1.0200  0.1547 -0.4152
 7160SOL     OW33112   1.612   4.566   7.029 -0.4188 -0.4951 -0.1879
 7160SOL    HW133113   1.658   4.602   6.953 -0.1548  1.9257  1.1146
 7160SOL    HW233114   1.672   4.506   7.071  1.5725  2.4417  1.1824
 7161SOL     OW33115   3.399   4.593   9.394 -0.0679  0.5776  0.4873
 7161SOL    HW133116   3.457   4.542   9.338 -1.3592 -0.7101  0.3293
 7161SOL    HW233117   3.431   4.566   9.480  1.3234  1.9008  0.3864
 7162SOL     OW33118   4.320   3.907   8.130  0.2797 -0.2631  0.6174
 7162SOL    HW133119   4.229   3.908   8.099  0.4506 -0.2187  0.1086
 7162SOL    HW233120   4.340   3.820   8.094  3.9989  1.2730 -1.0183
 7163SOL     OW33121   0.520   1.203   2.272  0.6149 -0.3107 -0.0888
 7163SOL    HW133122   0.611   1.232   2.261  0.1712  0.7458 -0.9641
 7163SOL    HW233123   0.477   1.273   2.224  2.3199 -1.0058 -2.5991
 7164SOL     OW33124   0.206   1.591   1.581  0.4509 -0.2623 -0.2382
 7164SOL    HW133125   0.243   1.554   1.501  1.0855  1.0549 -0.5640
 7164SOL    HW233126   0.285   1.596   1.636 -0.1682 -0.2507  0.6439
 7165SOL     OW33127   3.668   1.263  16.370  0.3395 -0.7000 -0.4864
 7165SOL    HW133128   3.656   1.169  16.370 -1.8930 -0.4202  0.0814
 7165SOL    HW233129   3.737   1.272  16.436 -0.2367 -3.9044  0.5588
 7166SOL     OW33130   3.417   4.510   9.656 -0.6262  0.2727 -0.6219
 7166SOL    HW133131   3.462   4.481   9.735 -0.4212  1.1685 -0.4132
 7166SOL    HW233132   3.356   4.570   9.699 -1.6072 -3.1131  2.6959
 7167SOL     OW33133   0.739   2.147   6.226  0.0019  0.1417 -0.6286
 7167SOL    HW133134   0.673   2.148   6.296  0.4699  2.9728 -0.2393
 7167SOL    HW233135   0.790   2.070   6.252 -0.8896 -0.4008 -0.4976
 7168SOL     OW33136   2.199   3.924   7.101  0.4995  0.3580  0.8805
 7168SOL    HW133137   2.108   3.933   7.073  1.4111 -1.3238 -2.6206
 7168SOL    HW233138   2.182   3.958   7.188 -1.8739 -0.4393  0.7156
 7169SOL     OW33139   3.821   0.669   2.950  0.0056 -0.1884  0.6731
 7169SOL    HW133140   3.839   0.759   2.980  1.7165  0.3027 -1.8821
 7169SOL    HW233141   3.816   0.689   2.857 -1.2393  0.4569  0.8826
 7170SOL     OW33142   3.307   3.416  16.055  0.5503  0.0591 -0.1754
 7170SOL    HW133143   3.278   3.507  16.046 -1.9446 -0.9334 -2.3132
 7170SOL    HW233144   3.342   3.413  16.144 -0.3543  1.4290  0.2262
 7171SOL     OW33145   0.827   2.195   4.223 -0.0086  0.1607 -0.2652
 7171SOL    HW133146   0.746   2.201   4.275  1.2292 -1.0402  1.7977
 7171SOL    HW233147   0.882   2.166   4.296 -2.2045  0.8357  1.6753
 7172SOL     OW33148   4.514   3.074  10.426 -0.1831 -0.4603 -0.3119
 7172SOL    HW133149   4.427   3.104  10.399 -0.3267  0.7369  1.5494
 7172SOL    HW233150   4.559   3.158  10.433 -1.5856  0.3089 -0.5552
 7173SOL     OW33151   3.850   0.726  13.661 -0.2094  0.2013  0.3787
 7173SOL    HW133152   3.899   0.680  13.728  0.1694 -0.2855 -0.2257
 7173SOL    HW233153   3.763   0.717  13.699 -0.2309 -2.0884 -0.2271
 7174SOL     OW33154   0.167   0.786   8.758  0.6287 -0.7381  0.5925
 7174SOL    HW133155   0.263   0.782   8.750  0.4921 -0.5363 -1.1282
 7174SOL    HW233156   0.145   0.879   8.768  1.3173 -0.4825 -0.2269
 7175SOL     OW33157   3.034   4.419   4.976 -0.5169  0.3978 -0.1990
 7175SOL    HW133158   3.070   4.336   4.944  2.9831  1.3356  1.3149
 7175SOL    HW233159   3.055   4.480   4.905  1.5061 -0.8566 -0.6874
 7176SOL     OW33160   4.019   0.644   6.501  0.7760  0.4157 -0.5168
 7176SOL    HW133161   3.998   0.651   6.408 -0.8611  0.3802 -0.1508
 7176SOL    HW233162   4.030   0.549   6.501 -0.7534  0.2469 -0.2562
 7177SOL     OW33163   3.747   1.869   2.758 -0.7996 -0.0118 -0.5201
 7177SOL    HW133164   3.668   1.923   2.762 -0.3226  0.7394 -1.2580
 7177SOL    HW233165   3.801   1.937   2.799 -1.0374 -1.7763  2.7006
 7178SOL     OW33166   0.091   1.472   2.485 -0.5422  0.7650  0.4103
 7178SOL    HW133167   0.065   1.381   2.496  0.3308  0.5611  0.7921
 7178SOL    HW233168   0.158   1.481   2.553  1.2491 -0.1272 -1.2222
 7179SOL     OW33169   0.144   0.043  13.722 -0.4705 -0.3040  0.6348
 7179SOL    HW133170   0.146   0.074  13.813  0.4903 -0.8919  0.8161
 7179SOL    HW233171   0.121   0.124  13.676  1.1690  0.2952  0.8583
 7180SOL     OW33172   1.194   0.156   2.458  0.1290 -0.2795 -0.0541
 7180SOL    HW133173   1.270   0.202   2.424  0.5351 -1.8361 -1.2340
 7180SOL    HW233174   1.199   0.161   2.554 -2.1990  0.3934  0.0500
 7181SOL     OW33175   2.697   2.121   6.296 -0.6006  0.0784  0.6683
 7181SOL    HW133176   2.748   2.059   6.243  0.5055 -0.5156  2.4385
 7181SOL    HW233177   2.703   2.204   6.248  3.6758  0.0419  1.0931
 7182SOL     OW33178   4.461   2.836   0.748 -0.1787 -0.5437  0.2293
 7182SOL    HW133179   4.556   2.843   0.753 -0.2885  0.0215  1.4029
 7182SOL    HW233180   4.439   2.923   0.782  0.9140 -0.4049  0.5646
 7183SOL     OW33181   4.372   2.253  17.393  0.6512 -0.4601  0.3596
 7183SOL    HW133182   4.435   2.273  17.324 -0.4441  0.5369 -0.3524
 7183SOL    HW233183   4.306   2.321  17.379  0.7675 -0.1900  1.1295
 7184SOL     OW33184   3.500   4.365  11.307  0.2458  0.2361 -0.3877
 7184SOL    HW133185   3.557   4.408  11.243  0.2506  0.6136 -0.1267
 7184SOL    HW233186   3.539   4.393  11.389 -0.3789 -2.8194  0.9622
 7185SOL     OW33187   2.248   1.933   0.843  0.1381  0.0850  0.2175
 7185SOL    HW133188   2.285   1.965   0.761 -0.6017  1.7748  0.5421
 7185SOL    HW233189   2.184   1.865   0.822 -0.9394  1.1301  0.1034
 7186SOL     OW33190   0.134   1.334   8.663 -0.5317  0.3212  0.0584
 7186SOL    HW133191   0.143   1.372   8.750  4.0161 -1.0015  0.1397
 7186SOL    HW233192   0.214   1.367   8.624 -1.1199  0.4175 -1.0637
 7187SOL     OW33193   3.647   3.396   7.464  0.1985  0.0515 -0.0908
 7187SOL    HW133194   3.722   3.455   7.457  0.4781 -0.3452 -0.4455
 7187SOL    HW233195   3.695   3.313   7.475 -0.6178 -0.4932 -0.6989
 7188SOL     OW33196   4.177   0.768   4.873  0.1486  0.0240 -0.4703
 7188SOL    HW133197   4.127   0.806   4.800 -1.1830  0.4349  0.6445
 7188SOL    HW233198   4.098   0.730   4.913  0.2286  0.2757 -0.0749
 7189SOL     OW33199   1.622   0.403   4.369 -0.1203  0.0504  0.2661
 7189SOL    HW133200   1.682   0.460   4.416  0.7023  0.3033 -1.0966
 7189SOL    HW233201   1.685   0.341   4.332 -1.5842 -2.7440  2.4837
 7190SOL     OW33202   1.854   2.593  12.592  0.4657 -0.2162  0.2879
 7190SOL    HW133203   1.911   2.662  12.627 -1.3346  1.0853  0.6313
 7190SOL    HW233204   1.920   2.554  12.535  1.5002  1.6517  0.1830
 7191SOL     OW33205   1.452   2.336   6.235 -0.0750 -0.1067 -0.7536
 7191SOL    HW133206   1.363   2.370   6.229  0.2439  0.6043 -1.4322
 7191SOL    HW233207   1.480   2.363   6.147  1.0075 -0.9560 -0.6783
 7192SOL     OW33208   0.132   2.350  10.124  0.2016  0.2098 -0.4297
 7192SOL    HW133209   0.227   2.355  10.112  0.5629 -0.5160  2.0610
 7192SOL    HW233210   0.103   2.403  10.050 -0.3397  1.0181  0.3614
 7193SOL     OW33211   3.361   3.682  13.335 -0.1678 -0.2901  0.0349
 7193SOL    HW133212   3.322   3.727  13.410  2.2554  0.2416  0.9768
 7193SOL    HW233213   3.451   3.678  13.368 -0.0681 -0.3446 -0.2363
 7194SOL     OW33214   0.392   3.842   4.904  0.2426  0.0462  0.0364
 7194SOL    HW133215   0.424   3.872   4.989 -0.2834  2.8812 -0.7608
 7194SOL    HW233216   0.445   3.762   4.897  0.1786 -0.2554  3.2651
 7195SOL     OW33217   2.809   2.563   4.368 -0.0006 -0.2023 -0.2540
 7195SOL    HW133218   2.866   2.486   4.373  2.6696  1.8321  0.5187
 7195SOL    HW233219   2.726   2.523   4.395 -0.6889  1.1798 -0.3242
 7196SOL     OW33220   0.243   1.169   4.889 -0.1358 -0.2062 -0.2835
 7196SOL    HW133221   0.295   1.249   4.877 -1.7956  0.6555 -1.6876
 7196SOL    HW233222   0.159   1.207   4.912  0.3633  1.5151 -1.2723
 7197SOL     OW33223   4.651   1.755   3.232 -0.0734 -0.5162  0.5264
 7197SOL    HW133224   4.635   1.844   3.202 -0.3847  0.0108  2.2419
 7197SOL    HW233225   4.651   1.709   3.149  2.8999 -0.9597  0.7634
 7198SOL     OW33226   2.576   1.702   2.435  0.1480  0.2340 -0.3442
 7198SOL    HW133227   2.667   1.728   2.449  0.1675  0.9450 -1.8682
 7198SOL    HW233228   2.568   1.730   2.344 -0.6316  2.3059  0.3643
 7199SOL     OW33229   0.929   1.554   1.465  0.6450 -0.3478 -0.3582
 7199SOL    HW133230   0.921   1.518   1.553 -0.1252  0.0144 -0.2793
 7199SOL    HW233231   0.931   1.645   1.495 -1.8478 -0.6925  0.8745
 7200SOL     OW33232   0.653   1.183  13.377 -0.1768 -0.5153 -0.0406
 7200SOL    HW133233   0.722   1.241  13.344 -0.4972 -1.9539 -3.2489
 7200SOL    HW233234   0.705   1.140  13.446  0.1157 -0.7452 -0.4048
 7201SOL     OW33235   0.925   0.080   0.252 -0.6084  0.7968  0.0420
 7201SOL    HW133236   0.840   0.116   0.224 -2.1108 -1.5458  1.5474
 7201SOL    HW233237   0.961   0.156   0.297 -1.0195  0.8567  0.2801
 7202SOL     OW33238   0.713   2.998   7.186  0.4294 -0.0843  0.1086
 7202SOL    HW133239   0.746   3.076   7.231  0.2196 -0.7649  1.4270
 7202SOL    HW233240   0.766   3.013   7.107 -1.9289  3.4092 -0.8103
 7203SOL     OW33241   4.442   3.451  15.840  0.2786 -0.2573  0.7983
 7203SOL    HW133242   4.493   3.468  15.761 -0.0330  2.0075  1.0965
 7203SOL    HW233243   4.362   3.440  15.788  0.3542  0.0698  0.6143
 7204SOL     OW33244   1.664   3.101   6.604  0.0564  0.2703  0.0641
 7204SOL    HW133245   1.692   3.070   6.518 -0.0478 -2.4218  1.0192
 7204SOL    HW233246   1.580   3.144   6.590  0.5690  1.5444  0.8821
 7205SOL     OW33247   1.256   4.441  10.290 -0.1371 -0.0093 -0.5744
 7205SOL    HW133248   1.323   4.495  10.249 -0.5531 -1.6580 -3.3874
 7205SOL    HW233249   1.204   4.507  10.337  0.3141  0.4876 -0.7757
 7206SOL     OW33250   0.476   3.003   5.617  0.0998 -1.2418  0.4911
 7206SOL    HW133251   0.501   3.084   5.661 -1.3579  0.3411 -1.5813
 7206SOL    HW233252   0.382   2.996   5.634  0.1155 -2.2918  0.1452
 7207SOL     OW33253   1.938   0.788   6.590  0.0386 -0.0581  0.1872
 7207SOL    HW133254   1.972   0.860   6.537 -1.0789  0.3173 -0.0171
 7207SOL    HW233255   2.011   0.727   6.577 -1.1865 -1.9959  2.3517
 7208SOL     OW33256   0.049   3.237   0.444 -0.0061  0.3569 -0.4317
 7208SOL    HW133257   0.002   3.161   0.408  0.4972 -1.0464  1.8273
 7208SOL    HW233258   4.724   3.304   0.415 -1.7302 -0.9228  0.2617
 7209SOL     OW33259   3.011   4.609   3.221  1.0352 -0.4310  0.7789
 7209SOL    HW133260   3.040   4.577   3.136  0.1908 -0.9692  0.6923
 7209SOL    HW233261   2.922   4.637   3.203  1.5728  1.9253  1.7898
 7210SOL     OW33262   1.115   4.256   8.456 -0.9779 -0.0821 -0.2283
 7210SOL    HW133263   1.040   4.314   8.442 -1.0774  0.4555  2.5691
 7210SOL    HW233264   1.152   4.276   8.370  0.0847 -1.3756 -0.0706
 7211SOL     OW33265   4.037   1.301   9.156 -0.3003 -0.4707 -0.2583
 7211SOL    HW133266   3.952   1.310   9.112 -0.2410  1.9506  0.1251
 7211SOL    HW233267   4.078   1.237   9.098 -1.2658 -1.8848  0.6108
 7212SOL     OW33268   2.581   1.574   3.375  0.6062  0.0270  0.2771
 7212SOL    HW133269   2.654   1.550   3.432 -0.0812  2.0771  1.9983
 7212SOL    HW233270   2.637   1.605   3.304  1.3545 -1.2031  0.3153
 7213SOL     OW33271   1.683   0.334   4.953 -0.0527 -0.2726 -0.5314
 7213SOL    HW133272   1.650   0.311   4.866  0.2181  1.4325 -1.0743
 7213SOL    HW233273   1.601   0.323   5.002  0.4319  0.8921  0.5527
 7214SOL     OW33274   3.751   0.545   6.790  0.4317  0.2902 -0.0004
 7214SOL    HW133275   3.698   0.489   6.733  1.1837 -0.0884 -0.3333
 7214SOL    HW233276   3.696   0.551   6.868 -0.0594  1.7307 -0.4571
 7215SOL     OW33277   3.834   3.690   7.180  0.5999 -0.1211 -0.0996
 7215SOL    HW133278   3.746   3.661   7.155  0.3438  1.5905 -1.1629
 7215SOL    HW233279   3.846   3.624   7.249  0.8343  0.4238  0.3832
 7216SOL     OW33280   3.140   2.008  16.823  0.3848  0.4404  0.3870
 7216SOL    HW133281   3.167   2.091  16.785  2.5527  0.6197  2.3205
 7216SOL    HW233282   3.048   1.998  16.797 -0.2946  4.1352  1.2797
 7217SOL     OW33283   4.429   1.299   3.722  0.7370  0.0750 -0.2756
 7217SOL    HW133284   4.465   1.230   3.778  2.3149  0.5635 -0.6763
 7217SOL    HW233285   4.513   1.328   3.687  0.4991  2.9384  1.5062
 7218SOL     OW33286   2.912   4.445   2.415  0.0429 -0.1363  0.8963
 7218SOL    HW133287   2.946   4.435   2.326  0.9253  0.4207  1.1750
 7218SOL    HW233288   2.893   4.353   2.431  0.9312 -0.4212  0.3081
 7219SOL     OW33289   4.468   1.483   4.832  0.6798  0.0983  0.2437
 7219SOL    HW133290   4.547   1.526   4.862  0.0247  0.7864  0.9859
 7219SOL    HW233291   4.415   1.462   4.909 -0.9678  0.1209 -0.8655
 7220SOL     OW33292   2.603   2.253   9.615 -0.6224 -0.1327  0.3300
 7220SOL    HW133293   2.519   2.288   9.586  0.1233  0.8906 -0.5677
 7220SOL    HW233294   2.605   2.159   9.599  0.1711 -0.4096  2.0447
 7221SOL     OW33295   3.585   2.201   3.145  0.1543  0.1795  0.8351
 7221SOL    HW133296   3.571   2.292   3.172 -0.2595  0.8302 -1.5679
 7221SOL    HW233297   3.501   2.189   3.101  0.0284 -0.4284  1.2462
 7222SOL     OW33298   1.876   0.698   9.442 -0.0142  0.1454  0.1228
 7222SOL    HW133299   1.781   0.707   9.447 -0.0112  0.0114  0.4187
 7222SOL    HW233300   1.909   0.766   9.499  1.8703 -0.6398 -0.0451
 7223SOL     OW33301   2.875   1.997  16.779 -0.2298 -0.5013  0.1249
 7223SOL    HW133302   2.837   1.941  16.846 -0.2681  0.6611  1.0679
 7223SOL    HW233303   2.804   2.058  16.758 -1.1833 -1.5035  0.4359
 7224SOL     OW33304   1.849   3.339   1.404  0.3539  0.2060  0.0405
 7224SOL    HW133305   1.882   3.411   1.351  0.5258 -0.1115 -0.2824
 7224SOL    HW233306   1.927   3.289   1.428 -0.7468 -2.0644 -1.0525
 7225SOL     OW33307   3.474   4.004   8.099  0.1398  0.2918  0.3911
 7225SOL    HW133308   3.565   4.026   8.079  0.0243 -0.4704 -0.9636
 7225SOL    HW233309   3.422   4.043   8.029  0.7044  0.9158  0.3215
 7226SOL     OW33310   3.031   1.673   5.290  0.6001  0.6217  0.3014
 7226SOL    HW133311   3.116   1.716   5.280  1.1817 -1.2113 -2.4645
 7226SOL    HW233312   3.048   1.595   5.238 -1.5115 -0.6477  1.4969
 7227SOL     OW33313   2.649   3.679   2.985 -0.1392 -0.3951 -0.2333
 7227SOL    HW133314   2.641   3.719   3.072  1.3273  2.7572 -1.5177
 7227SOL    HW233315   2.561   3.692   2.950 -0.5686 -2.5286  0.0708
 7228SOL     OW33316   0.606   1.498   8.556  0.0950 -0.0131 -0.4247
 7228SOL    HW133317   0.620   1.434   8.486 -1.0449 -1.0486  0.3005
 7228SOL    HW233318   0.659   1.451   8.621  0.5996 -0.0205 -0.8372
 7229SOL     OW33319   2.112   4.665   3.055 -0.2012  0.0875 -0.4587
 7229SOL    HW133320   2.163   4.728   3.105  2.0216 -2.0044 -0.0927
 7229SOL    HW233321   2.103   4.717   2.975 -0.3952 -1.8675 -1.7173
 7230SOL     OW33322   4.621   2.590  14.628  0.3552  0.7097 -0.2646
 7230SOL    HW133323   4.679   2.613  14.700 -0.4497  1.1167  0.2626
 7230SOL    HW233324   4.574   2.518  14.671  2.7417  0.1075  1.3093
 7231SOL     OW33325   3.518   2.350   5.300 -0.6796  0.2593 -0.3089
 7231SOL    HW133326   3.554   2.439   5.307  1.4205 -0.5294 -0.8760
 7231SOL    HW233327   3.572   2.309   5.232 -2.9749 -2.2853 -0.6055
 7232SOL     OW33328   1.736   4.384  17.432  0.3939  0.2606 -0.1165
 7232SOL    HW133329   1.820   4.344  17.410  1.4241  1.5031  1.4937
 7232SOL    HW233330   1.763   4.476  17.434  0.3749  0.2487  0.9828
 7233SOL     OW33331   4.404   0.947   7.505 -0.0389  0.0629 -0.3823
 7233SOL    HW133332   4.372   0.890   7.575 -2.4329  1.7816 -0.0605
 7233SOL    HW233333   4.341   0.929   7.435 -0.1478 -0.5036 -0.1365
 7234SOL     OW33334   4.725   3.061   8.741 -0.3554  0.3707  0.2240
 7234SOL    HW133335   4.680   2.995   8.688 -0.6670  0.5333  0.2817
 7234SOL    HW233336   4.666   3.071   8.816 -0.3213  3.4815 -0.1607
 7235SOL     OW33337   2.175   0.553   9.544 -0.4561 -0.3105  0.3169
 7235SOL    HW133338   2.124   0.632   9.564 -0.6448 -1.3270  3.7758
 7235SOL    HW233339   2.190   0.507   9.627 -1.3308  3.3131  2.5093
 7236SOL     OW33340   2.164   2.069  16.470 -0.2049  0.4238 -0.2581
 7236SOL    HW133341   2.147   1.992  16.416  0.0399  0.5922 -0.5720
 7236SOL    HW233342   2.173   2.137  16.403 -1.1675  0.9187  0.1218
 7237SOL     OW33343   1.776   0.057   3.012  0.0750 -0.3804  0.1596
 7237SOL    HW133344   1.718   4.726   3.047 -0.1414 -0.7176 -0.8521
 7237SOL    HW233345   1.856   0.044   3.063  1.7437 -1.8959 -2.8570
 7238SOL     OW33346   3.336   0.823   2.120  0.1951  0.5473  0.0348
 7238SOL    HW133347   3.431   0.834   2.115  0.2398  0.4709  0.6354
 7238SOL    HW233348   3.299   0.881   2.187 -2.5961 -1.0233 -0.1515
 7239SOL     OW33349   3.620   0.933   3.635 -0.2628  0.3125 -0.0507
 7239SOL    HW133350   3.694   0.989   3.658 -0.9269  0.5700  1.4968
 7239SOL    HW233351   3.548   0.984   3.673 -0.6832 -1.6679  1.8455
 7240SOL     OW33352   0.315   4.378   8.172  0.0984 -0.8275  0.1112
 7240SOL    HW133353   0.269   4.297   8.149  1.3775 -0.8239 -2.4746
 7240SOL    HW233354   0.408   4.356   8.171 -0.1606 -1.9090 -0.3422
 7241SOL     OW33355   1.982   1.241   0.024 -0.1569  0.0473 -0.3508
 7241SOL    HW133356   1.942   1.183   0.089 -1.4133  0.4785 -0.7428
 7241SOL    HW233357   2.041   1.292   0.079 -2.2410  0.8929  1.1126
 7242SOL     OW33358   2.032   1.673   9.074  0.1102  0.4793  0.6409
 7242SOL    HW133359   2.122   1.660   9.045 -0.2575  0.4352 -0.5208
 7242SOL    HW233360   2.046   1.723   9.154  0.1971 -0.8358  1.4321
 7243SOL     OW33361   3.949   4.197   0.458 -0.4685  0.0790 -0.1344
 7243SOL    HW133362   3.857   4.220   0.468 -0.8883 -0.9490 -1.6581
 7243SOL    HW233363   3.992   4.247   0.527 -1.6027 -3.9136  3.4671
 7244SOL     OW33364   0.213   3.628   4.383 -0.0865  0.4130 -0.2448
 7244SOL    HW133365   0.245   3.567   4.317  0.1563  0.0823  0.1827
 7244SOL    HW233366   0.205   3.707   4.329  0.2561  0.1027 -0.7532
 7245SOL     OW33367   3.620   0.715  11.644  0.4674  0.4583  0.0548
 7245SOL    HW133368   3.692   0.751  11.593 -0.9755  0.7511 -1.7805
 7245SOL    HW233369   3.581   0.795  11.679 -1.1183 -0.3114  0.0685
 7246SOL     OW33370   1.559   2.997   5.951 -0.8508  0.1596 -0.0164
 7246SOL    HW133371   1.472   3.008   5.987  0.0679 -0.6852  2.4948
 7246SOL    HW233372   1.561   3.076   5.898  0.7607 -0.3861 -0.7634
 7247SOL     OW33373   1.120   4.607   4.520  0.0200  0.0800 -0.1442
 7247SOL    HW133374   1.032   4.642   4.539  0.1222  1.5747 -2.3867
 7247SOL    HW233375   1.118   4.520   4.559  1.9108  0.2813  0.4022
 7248SOL     OW33376   3.380   0.401   1.774 -0.5759 -0.1939 -0.2288
 7248SOL    HW133377   3.441   0.465   1.739 -3.4655  1.3377 -2.4787
 7248SOL    HW233378   3.300   0.427   1.729 -1.0761  0.1510  0.8580
 7249SOL     OW33379   4.305   0.950   1.692 -1.1797 -0.0787 -1.1459
 7249SOL    HW133380   4.376   0.976   1.633 -1.2842 -0.4750 -1.4468
 7249SOL    HW233381   4.270   1.037   1.710  1.2008  0.5775  0.2993
 7250SOL     OW33382   2.010   3.021   5.333 -0.2951 -0.0419 -0.5774
 7250SOL    HW133383   1.963   2.969   5.268  1.1145 -1.3599 -0.5292
 7250SOL    HW233384   2.051   2.951   5.383 -0.0263 -0.6583 -1.6428
 7251SOL     OW33385   1.293   4.092   2.231  0.1936  0.2368 -0.2255
 7251SOL    HW133386   1.303   4.147   2.153 -0.2550  1.6840  0.7479
 7251SOL    HW233387   1.199   4.075   2.223  0.2547 -0.5755  0.8174
 7252SOL     OW33388   3.672   0.996  16.383 -0.1562  0.1439 -0.2637
 7252SOL    HW133389   3.583   0.962  16.390  0.6113 -1.1086  3.2971
 7252SOL    HW233390   3.694   1.004  16.476 -0.1050  0.5732 -0.3111
 7253SOL     OW33391   3.556   4.100   8.612 -0.0835 -0.0109 -0.4743
 7253SOL    HW133392   3.498   4.094   8.535 -1.4990 -0.2098  0.6123
 7253SOL    HW233393   3.558   4.194   8.627 -0.2232 -0.2337  0.9351
 7254SOL     OW33394   1.834   0.782   8.873  0.7232 -0.3211  0.2420
 7254SOL    HW133395   1.765   0.840   8.841  0.7935  2.0769  4.4023
 7254SOL    HW233396   1.862   0.843   8.941 -0.0336  0.3350 -0.0440
 7255SOL     OW33397   3.223   2.917   7.733 -0.3318  0.1665 -0.0263
 7255SOL    HW133398   3.145   2.960   7.769  0.0848  1.5532 -0.7818
 7255SOL    HW233399   3.196   2.880   7.649  0.1949 -0.3484  0.0333
 7256SOL     OW33400   2.424   3.230   1.363  0.4149 -0.0684  0.1078
 7256SOL    HW133401   2.359   3.267   1.303 -1.9690 -0.9916  2.1241
 7256SOL    HW233402   2.382   3.252   1.446  0.1948  0.3492 -0.1085
 7257SOL     OW33403   3.069   0.123   7.433  0.0275  0.4691 -0.1102
 7257SOL    HW133404   3.040   0.146   7.345  0.2664 -1.8352 -0.7851
 7257SOL    HW233405   3.110   0.207   7.455  0.6416 -0.1918  1.2739
 7258SOL     OW33406   4.554   4.058  17.112 -0.2452  0.1899 -0.2634
 7258SOL    HW133407   4.499   4.102  17.177  0.3329 -0.5006  0.7117
 7258SOL    HW233408   4.564   4.122  17.042  0.6187 -1.2465 -1.4590
 7259SOL     OW33409   3.616   2.818  10.671  0.0188  0.3862  0.3360
 7259SOL    HW133410   3.586   2.738  10.629  0.3010 -0.1859  1.2470
 7259SOL    HW233411   3.637   2.866  10.591  0.2735 -0.5388 -0.1517
 7260SOL     OW33412   2.992   3.161   5.889 -0.7883  0.4133 -0.6883
 7260SOL    HW133413   2.920   3.122   5.939 -0.4385 -0.4170 -0.8540
 7260SOL    HW233414   3.027   3.223   5.954 -1.4388 -0.6250  0.6550
 7261SOL     OW33415   0.495   4.455   7.548  0.1066 -0.1991  0.3761
 7261SOL    HW133416   0.519   4.518   7.616  1.0563  0.3481 -0.4690
 7261SOL    HW233417   0.477   4.519   7.480  0.9804  0.2945  0.6117
 7262SOL     OW33418   4.447   0.373   1.684  0.0823 -0.0223  0.5312
 7262SOL    HW133419   4.516   0.374   1.618 -1.3431  1.5371 -0.9475
 7262SOL    HW233420   4.448   0.468   1.693 -2.6131 -0.0138  0.7888
 7263SOL     OW33421   1.437   1.172   4.808 -0.1055 -0.1206  0.6689
 7263SOL    HW133422   1.415   1.255   4.849  1.2857 -0.0559  1.2677
 7263SOL    HW233423   1.348   1.164   4.773 -0.7060  0.7851  2.0013
 7264SOL     OW33424   4.597   1.530   5.610  0.5688  0.3045 -0.3039
 7264SOL    HW133425   4.651   1.472   5.556 -1.4868 -2.2766  0.4179
 7264SOL    HW233426   4.664   1.585   5.652 -2.2703  1.0915  3.2062
 7265SOL     OW33427   2.881   2.121  17.429  0.0002  0.2979  0.2786
 7265SOL    HW133428   2.855   2.200  17.380  1.4891  0.7676  0.2433
 7265SOL    HW233429   2.960   2.159  17.467 -0.3982  1.5166 -0.0906
 7266SOL     OW33430   1.910   3.368   6.343  0.1313 -0.4404  0.0229
 7266SOL    HW133431   1.834   3.359   6.400  1.4682  1.9728  2.1642
 7266SOL    HW233432   1.981   3.329   6.395 -0.3052 -0.3184  0.7118
 7267SOL     OW33433   3.533   0.507   8.266  0.5067 -0.0286 -0.0849
 7267SOL    HW133434   3.605   0.502   8.204  1.0306  1.3031  0.4230
 7267SOL    HW233435   3.574   0.559   8.335  0.5443 -1.4237  0.9382
 7268SOL     OW33436   3.163   0.149   5.365 -0.1638  0.6332 -0.1063
 7268SOL    HW133437   3.123   0.076   5.412 -0.0533  0.5474 -0.1459
 7268SOL    HW233438   3.189   0.206   5.437 -0.6246 -0.2954  0.7837
 7269SOL     OW33439   0.682   2.077   7.048 -0.1344  0.7033 -0.2757
 7269SOL    HW133440   0.759   2.113   7.003  0.7043 -0.2242  0.4343
 7269SOL    HW233441   0.621   2.097   6.976 -3.1234  0.7601  2.2820
 7270SOL     OW33442   1.433   3.297   9.162  0.4967  0.0582  0.0584
 7270SOL    HW133443   1.452   3.208   9.190 -1.0684 -0.0026  0.9545
 7270SOL    HW233444   1.338   3.299   9.148  0.9008  1.5061 -2.4484
 7271SOL     OW33445   2.616   2.582   0.290 -0.2524 -0.7289 -0.1626
 7271SOL    HW133446   2.668   2.529   0.350  0.9330  1.0430  0.3676
 7271SOL    HW233447   2.644   2.551   0.204 -1.1771  0.1775 -0.7860
 7272SOL     OW33448   0.735   4.024  15.964 -0.1752  0.2164 -0.0463
 7272SOL    HW133449   0.797   3.979  15.907 -0.1635 -0.1788  0.2838
 7272SOL    HW233450   0.656   3.988  15.923 -0.7943  1.2045  0.2692
 7273SOL     OW33451   0.284   2.337   9.092 -0.5238 -0.8571 -0.1563
 7273SOL    HW133452   0.371   2.296   9.084  0.9257  2.2269  0.0727
 7273SOL    HW233453   0.239   2.277   9.152  0.7958 -0.3364  1.3727
 7274SOL     OW33454   1.495   2.439  11.673  0.6112  0.5181 -0.1263
 7274SOL    HW133455   1.501   2.504  11.742 -1.4488  0.2814  0.2723
 7274SOL    HW233456   1.465   2.361  11.720 -1.3401  1.5331  0.3036
 7275SOL     OW33457   2.790   2.072   0.627 -0.3046  0.2589  0.9472
 7275SOL    HW133458   2.717   2.125   0.660 -0.5826 -0.0691  0.8670
 7275SOL    HW233459   2.845   2.144   0.596  2.6671 -3.1585 -1.6453
 7276SOL     OW33460   4.714   2.879  17.194 -0.4304  0.4430  0.0048
 7276SOL    HW133461   4.727   2.952  17.254 -0.2068 -0.7290  1.3736
 7276SOL    HW233462   4.629   2.847  17.222 -0.7860  0.2697 -1.2681
 7277SOL     OW33463   0.982   1.479  10.382 -0.5923 -0.0577 -0.4065
 7277SOL    HW133464   0.994   1.493  10.288  0.1870  0.3105 -0.2489
 7277SOL    HW233465   0.891   1.506  10.396 -0.0835 -0.6401  4.0088
 7278SOL     OW33466   3.111   3.802   6.822  0.0994  0.4016  0.4554
 7278SOL    HW133467   3.031   3.751   6.840  0.2530 -0.4025 -1.1964
 7278SOL    HW233468   3.073   3.886   6.850  1.2720  0.3920  2.0810
 7279SOL     OW33469   4.316   2.427   5.851 -0.2649 -0.2895 -0.0557
 7279SOL    HW133470   4.289   2.419   5.943 -1.9695  0.1005 -0.5203
 7279SOL    HW233471   4.231   2.396   5.819 -0.2284 -0.1529 -0.2786
 7280SOL     OW33472   3.459   0.791   9.773 -0.1402 -1.0306 -0.0792
 7280SOL    HW133473   3.398   0.734   9.820 -0.7894 -0.1733  0.1291
 7280SOL    HW233474   3.439   0.779   9.681 -0.4371  1.5156 -0.3452
 7281SOL     OW33475   2.802   1.227  11.342  0.4687 -0.1669 -0.5803
 7281SOL    HW133476   2.805   1.218  11.437  1.2302 -0.9990 -0.6742
 7281SOL    HW233477   2.750   1.307  11.339 -0.8278 -1.0605 -1.7055
 7282SOL     OW33478   1.024   0.350  13.391  0.0500 -0.8848 -0.0285
 7282SOL    HW133479   1.020   0.255  13.400 -1.0333 -0.7234  1.2216
 7282SOL    HW233480   1.070   0.364  13.308  1.7427  0.3660  1.1104
 7283SOL     OW33481   1.460   4.142   3.664  0.2650 -0.4461 -0.3702
 7283SOL    HW133482   1.435   4.166   3.574  0.4806 -0.5418 -0.4551
 7283SOL    HW233483   1.503   4.058   3.650 -0.2282 -0.6556 -0.6441
 7284SOL     OW33484   4.634   0.411   4.739  0.1231 -0.4552  0.1347
 7284SOL    HW133485   4.608   0.485   4.794  1.2681  0.2394 -0.2539
 7284SOL    HW233486   4.649   0.444   4.651 -0.1137  0.3198  0.3774
 7285SOL     OW33487   4.572   0.427   1.949  0.1691  0.1236 -0.8922
 7285SOL    HW133488   4.561   0.378   1.868  0.9935 -3.5422  1.2472
 7285SOL    HW233489   4.571   0.516   1.912  0.4453  0.7026  0.4893
 7286SOL     OW33490   2.280   2.854   4.415  0.2561  0.1492  0.0658
 7286SOL    HW133491   2.265   2.945   4.391 -1.0534  0.6485  2.7872
 7286SOL    HW233492   2.333   2.818   4.344  2.7715 -1.6562  2.8569
 7287SOL     OW33493   2.537   4.167  11.686  0.2419  0.5850 -0.2025
 7287SOL    HW133494   2.557   4.133  11.773 -1.0932  0.3134 -0.0125
 7287SOL    HW233495   2.459   4.220  11.703 -1.0338 -1.4487  0.1834
 7288SOL     OW33496   2.045   4.039   7.314 -0.3343 -0.2571 -0.8606
 7288SOL    HW133497   2.118   4.043   7.375  1.2447 -1.2826 -2.6778
 7288SOL    HW233498   1.995   4.117   7.340 -1.9774 -1.5349 -0.1832
 7289SOL     OW33499   2.576   4.342  14.795  0.1905 -0.6039  0.0391
 7289SOL    HW133500   2.615   4.420  14.757 -0.4738 -0.9422 -1.3260
 7289SOL    HW233501   2.487   4.349  14.760  0.1650 -0.7547  0.0723
 7290SOL     OW33502   0.088   0.772  13.810 -0.0040 -0.2022  0.7722
 7290SOL    HW133503   0.155   0.822  13.763  0.2999 -0.9477  0.4187
 7290SOL    HW233504   0.019   0.784  13.746  0.5813 -0.7170  0.0473
 7291SOL     OW33505   3.543   4.471  17.088 -0.1952  0.0537 -0.3739
 7291SOL    HW133506   3.532   4.445  17.180  0.8832  0.6900 -0.0712
 7291SOL    HW233507   3.451   4.475  17.062 -0.5322 -1.8995  0.4733
 7292SOL     OW33508   3.470   2.452   3.312  0.2701  0.3499  0.3183
 7292SOL    HW133509   3.482   2.478   3.220 -1.6182  1.2056  0.3217
 7292SOL    HW233510   3.533   2.515   3.348  0.7428 -0.2442  0.5378
 7293SOL     OW33511   1.834   2.169   3.405  0.2941 -0.3071 -0.4446
 7293SOL    HW133512   1.826   2.104   3.474  0.6210  1.3475  1.1471
 7293SOL    HW233513   1.760   2.151   3.347 -0.1513  0.5549 -0.1470
 7294SOL     OW33514   1.733   2.700  16.290  0.1691  0.5886  0.0259
 7294SOL    HW133515   1.660   2.641  16.274  2.5261 -2.7047  1.4840
 7294SOL    HW233516   1.808   2.646  16.265 -0.5968 -0.9338  1.0784
 7295SOL     OW33517   2.539   2.715  10.901  0.2455 -0.7385  0.3125
 7295SOL    HW133518   2.619   2.728  10.952  1.1210  1.1538 -1.5130
 7295SOL    HW233519   2.576   2.727  10.813 -1.3290  2.4616  0.0844
 7296SOL     OW33520   3.557   1.340   2.619  0.0517  0.4389 -0.3547
 7296SOL    HW133521   3.599   1.426   2.623  0.2809  0.2658  0.8353
 7296SOL    HW233522   3.558   1.332   2.523 -1.1267  0.1588 -0.3444
 7297SOL     OW33523   1.969   0.877   5.483  0.3421 -0.0845  0.2671
 7297SOL    HW133524   2.040   0.895   5.422 -0.4630  0.5390 -0.4787
 7297SOL    HW233525   1.891   0.908   5.437  1.6783  0.7613 -1.4556
 7298SOL     OW33526   0.354   2.663   9.097 -0.2392 -0.2292 -0.2122
 7298SOL    HW133527   0.413   2.657   9.022 -1.1177 -0.7294 -0.8637
 7298SOL    HW233528   0.374   2.581   9.142 -2.3725 -2.8135 -3.9659
 7299SOL     OW33529   0.353   3.159   6.927 -0.2063  0.1617  0.6411
 7299SOL    HW133530   0.278   3.218   6.914 -1.9489 -1.7001  2.2739
 7299SOL    HW233531   0.384   3.157   6.837  2.5530  1.3491  1.5503
 7300SOL     OW33532   1.487   0.762  10.310  0.4808 -0.4848 -0.1076
 7300SOL    HW133533   1.506   0.719  10.393 -2.4622 -1.6424 -0.0202
 7300SOL    HW233534   1.568   0.738  10.267  1.6811  1.0192  1.3122
 7301SOL     OW33535   4.708   2.317   3.810 -1.2101  0.6056  0.2883
 7301SOL    HW133536   4.700   2.384   3.878 -1.7671  2.0448 -1.2122
 7301SOL    HW233537   4.718   2.368   3.730  1.2485  1.5318  1.1859
 7302SOL     OW33538   0.872   0.367   7.777  0.0071  0.3862  0.2875
 7302SOL    HW133539   0.935   0.327   7.837  0.2133  2.0656  1.1683
 7302SOL    HW233540   0.871   0.460   7.799 -0.4900  0.5154 -0.2668
 7303SOL     OW33541   1.323   0.457   7.203 -0.2730  0.2440  0.6608
 7303SOL    HW133542   1.391   0.465   7.270 -0.4582 -1.4741  1.0481
 7303SOL    HW233543   1.245   0.480   7.253 -1.3079 -0.1231 -0.7911
 7304SOL     OW33544   4.599   2.752   7.103  0.0615  0.5937 -0.2385
 7304SOL    HW133545   4.601   2.790   7.190  0.9939  0.8870 -0.3936
 7304SOL    HW233546   4.504   2.738   7.105  0.8676 -5.0009 -0.5043
 7305SOL     OW33547   0.792   2.063  16.995 -0.7049  0.2015 -0.5149
 7305SOL    HW133548   0.708   2.106  16.978 -0.6529  0.8032  0.6940
 7305SOL    HW233549   0.768   1.982  17.040  0.4434  0.9972  1.5575
 7306SOL     OW33550   0.724   4.116   3.814 -0.3448  0.0302  0.1344
 7306SOL    HW133551   0.774   4.184   3.770  1.3762 -1.7068 -0.6083
 7306SOL    HW233552   0.643   4.155   3.845 -0.5884  1.1851 -1.9753
 7307SOL     OW33553   0.280   1.275   0.711 -0.0150 -0.2956 -0.3063
 7307SOL    HW133554   0.203   1.332   0.710  0.4814  0.4071  2.0688
 7307SOL    HW233555   0.248   1.200   0.762 -2.0518  0.7296 -0.0967
 7308SOL     OW33556   2.652   4.546   8.684 -0.0593 -0.0193 -0.2349
 7308SOL    HW133557   2.574   4.573   8.732  0.4721  1.7266 -0.3748
 7308SOL    HW233558   2.686   4.482   8.747 -0.0721  2.4063  2.2451
 7309SOL     OW33559   2.131   3.734   3.144  0.2177  0.0073  0.1502
 7309SOL    HW133560   2.069   3.735   3.217  0.7165  0.8444  0.5666
 7309SOL    HW233561   2.092   3.811   3.102 -0.1076 -0.3029 -0.1085
 7310SOL     OW33562   0.348   0.828   2.408 -0.4727  0.2069 -0.2151
 7310SOL    HW133563   0.360   0.782   2.491  0.8525  1.1118  0.0925
 7310SOL    HW233564   0.265   0.785   2.386 -1.2928  1.3866  0.5999
 7311SOL     OW33565   1.647   1.011   7.318 -0.2755 -0.1818 -0.5675
 7311SOL    HW133566   1.610   1.050   7.239  1.2971  2.2186 -0.1268
 7311SOL    HW233567   1.657   0.919   7.291  1.0624 -0.6028  1.3353
 7312SOL     OW33568   2.429   2.994   1.594 -0.0058 -0.6373  0.9511
 7312SOL    HW133569   2.391   2.954   1.673  2.1034 -0.6217  1.9719
 7312SOL    HW233570   2.382   3.077   1.586 -1.5662 -1.5667  0.4816
 7313SOL     OW33571   0.554   0.750  13.209  0.3856  0.2185 -0.7084
 7313SOL    HW133572   0.617   0.810  13.167  0.0850  1.0692  0.0460
 7313SOL    HW233573   0.502   0.811  13.261 -0.3204 -0.9454 -0.0555
 7314SOL     OW33574   1.670   4.540   4.508  0.2141 -0.0463 -0.3881
 7314SOL    HW133575   1.632   4.580   4.430  0.2625 -0.9740 -0.8942
 7314SOL    HW233576   1.594   4.537   4.566  1.6910 -0.1510  1.5015
 7315SOL     OW33577   4.051   0.848   5.795 -0.2754 -0.1876  0.2690
 7315SOL    HW133578   3.977   0.872   5.739 -1.8965 -1.3701  1.8862
 7315SOL    HW233579   4.032   0.758   5.821 -3.2794  0.5647  0.7401
 7316SOL     OW33580   3.686   4.241   0.457  0.0619  0.0504  0.2153
 7316SOL    HW133581   3.612   4.299   0.474  1.4863  2.0557 -0.4355
 7316SOL    HW233582   3.647   4.158   0.487  0.8649 -0.2379  0.4755
 7317SOL     OW33583   4.295   3.413  12.230 -0.3521  1.1587  0.4431
 7317SOL    HW133584   4.213   3.437  12.273 -0.7250  0.5759  0.0590
 7317SOL    HW233585   4.322   3.504  12.217  0.6827  0.6664 -0.9253
 7318SOL     OW33586   1.491   2.787   3.217 -0.9361 -0.8611 -0.2800
 7318SOL    HW133587   1.419   2.747   3.265 -0.3208 -1.3374  0.2433
 7318SOL    HW233588   1.553   2.820   3.282  0.0063 -2.8856 -0.1596
 7319SOL     OW33589   1.819   2.363   4.749  0.4193 -0.3063 -0.5309
 7319SOL    HW133590   1.895   2.416   4.770 -1.8289  2.2531  1.1970
 7319SOL    HW233591   1.844   2.271   4.744  0.5556 -0.3561  0.9145
 7320SOL     OW33592   2.499   1.203   8.059 -0.4924 -0.2388  0.4632
 7320SOL    HW133593   2.446   1.247   8.125  0.2321 -1.7107  2.0344
 7320SOL    HW233594   2.581   1.249   8.082  0.7375 -1.8813 -0.6613
 7321SOL     OW33595   3.567   1.179   8.921 -0.1865 -0.2563 -0.3522
 7321SOL    HW133596   3.531   1.147   9.004 -0.3897 -0.8857 -0.6843
 7321SOL    HW233597   3.491   1.166   8.864 -0.6494  1.0670 -0.0452
 7322SOL     OW33598   0.772   1.334   2.682 -0.0546 -0.7304 -0.3953
 7322SOL    HW133599   0.781   1.275   2.608 -0.4916 -3.4350  1.7146
 7322SOL    HW233600   0.766   1.279   2.760 -0.3004  0.8793  0.7243
 7323SOL     OW33601   1.329   2.138  13.877  0.8427  0.3005 -0.0676
 7323SOL    HW133602   1.344   2.112  13.786  2.4426  0.3098  0.1900
 7323SOL    HW233603   1.274   2.215  13.863  0.4388  0.0319  0.0602
 7324SOL     OW33604   3.597   4.519  14.635 -0.2978 -0.3722 -0.6919
 7324SOL    HW133605   3.618   4.591  14.576 -0.5371 -0.9172 -1.4394
 7324SOL    HW233606   3.553   4.571  14.702 -0.2330 -1.6148  0.3195
 7325SOL     OW33607   0.385   2.269   2.836 -0.4153  0.3169  0.1527
 7325SOL    HW133608   0.313   2.298   2.781 -0.2298  2.6947  1.1828
 7325SOL    HW233609   0.412   2.192   2.786  0.8165  1.4557 -0.9018
 7326SOL     OW33610   4.589   1.050  15.323 -0.0608 -0.1345 -0.2612
 7326SOL    HW133611   4.553   1.123  15.271  1.4444 -0.1514 -1.3413
 7326SOL    HW233612   4.678   1.081  15.340 -0.7675  2.0671 -0.5708
 7327SOL     OW33613   0.230   4.624   8.986 -0.2792 -0.6887 -0.1641
 7327SOL    HW133614   0.151   4.678   8.999  0.9028  0.7440  1.0237
 7327SOL    HW233615   0.190   4.548   8.945 -3.7722  1.0718 -0.0370
 7328SOL     OW33616   1.317   1.081   7.202 -0.3436  0.7626 -0.0502
 7328SOL    HW133617   1.312   1.022   7.277 -0.9526 -0.4509 -1.0479
 7328SOL    HW233618   1.224   1.093   7.179 -0.6465 -0.3822  0.5705
 7329SOL     OW33619   0.828   0.038   3.084 -0.0590 -0.6751 -0.1602
 7329SOL    HW133620   0.750   0.088   3.060 -0.0409 -0.7478 -0.3730
 7329SOL    HW233621   0.788   4.715   3.147 -2.0766  0.5288 -0.3234
 7330SOL     OW33622   0.027   3.985   4.386 -0.0550  0.0308  0.1265
 7330SOL    HW133623   4.729   3.960   4.300  1.1836 -0.2643 -0.2796
 7330SOL    HW233624   4.700   3.932   4.434 -0.2829  0.0520 -0.1470
 7331SOL     OW33625   1.261   1.367   2.166  0.4223 -0.8009 -0.6596
 7331SOL    HW133626   1.181   1.317   2.153 -0.7914  0.8786  0.2254
 7331SOL    HW233627   1.278   1.335   2.255  0.2274  2.0107  0.4175
 7332SOL     OW33628   2.198   3.122   7.687 -0.1608 -0.1784 -0.1293
 7332SOL    HW133629   2.145   3.187   7.641 -0.1899  1.6925  2.5770
 7332SOL    HW233630   2.147   3.042   7.678  0.9365 -1.0226  1.1282
 7333SOL     OW33631   2.014   3.381   7.984 -0.0559  0.1416 -0.1378
 7333SOL    HW133632   2.015   3.362   8.078  0.5496  1.7023  0.1706
 7333SOL    HW233633   2.041   3.297   7.948 -0.3091  0.1246 -0.2858
 7334SOL     OW33634   2.750   3.592   5.953 -0.3298  0.4682 -0.2845
 7334SOL    HW133635   2.678   3.605   5.892  0.5065 -0.7595 -1.5466
 7334SOL    HW233636   2.699   3.536   6.011 -2.4331  1.1047 -1.5362
 7335SOL     OW33637   2.459   3.873  16.235  0.0546 -0.0938 -0.1700
 7335SOL    HW133638   2.363   3.877  16.231  0.0378  1.2091  1.4523
 7335SOL    HW233639   2.467   3.967  16.220  1.0480 -0.0001  0.9369
 7336SOL     OW33640   4.156   2.897   3.095  0.0946  0.7932  0.0958
 7336SOL    HW133641   4.227   2.893   3.159 -1.3541  0.5141  1.6654
 7336SOL    HW233642   4.206   2.875   3.016  0.6199  1.7988  0.1410
 7337SOL     OW33643   3.055   4.171   3.127 -0.5094  0.3044 -0.2508
 7337SOL    HW133644   3.005   4.090   3.123  0.2216 -0.0593 -1.8465
 7337SOL    HW233645   3.027   4.196   3.215 -1.3259 -0.0576 -0.4019
 7338SOL     OW33646   3.459   0.659  16.630 -0.5616 -0.0093 -0.1790
 7338SOL    HW133647   3.412   0.743  16.633 -1.9477 -0.7733 -0.2399
 7338SOL    HW233648   3.509   0.669  16.550  4.0773 -1.7979  2.5195
 7339SOL     OW33649   2.566   3.804   6.460  0.7367  0.4408 -0.1649
 7339SOL    HW133650   2.483   3.759   6.443  0.0537  1.4464  0.5346
 7339SOL    HW233651   2.583   3.844   6.375 -0.3541 -0.6894 -0.9265
 7340SOL     OW33652   3.988   1.873   2.586 -0.2108  0.1131 -0.1498
 7340SOL    HW133653   4.065   1.897   2.638  0.8242 -2.4609 -0.4949
 7340SOL    HW233654   3.921   1.869   2.654 -0.2088 -1.4145 -0.2289
 7341SOL     OW33655   3.180   0.701   2.416 -0.0551 -0.2120  0.0939
 7341SOL    HW133656   3.233   0.622   2.410  0.1536  0.0624 -1.7514
 7341SOL    HW233657   3.142   0.700   2.328  2.4317 -0.0357 -0.9661
 7342SOL     OW33658   3.594   0.645  13.271 -0.0296  0.1433 -0.6559
 7342SOL    HW133659   3.532   0.583  13.311 -0.3145 -0.6522 -2.3257
 7342SOL    HW233660   3.573   0.715  13.333 -0.4200 -0.6698  0.1375
 7343SOL     OW33661   4.445   0.921  17.069  0.1574  0.0720  0.5721
 7343SOL    HW133662   4.472   0.866  16.995  0.7668 -1.1047  1.6548
 7343SOL    HW233663   4.491   1.004  17.067 -3.9468  2.3284  0.7517
 7344SOL     OW33664   3.061   3.596  10.148  0.1805 -0.0157 -0.0707
 7344SOL    HW133665   3.129   3.535  10.174  1.5686  1.1059 -1.0478
 7344SOL    HW233666   3.085   3.667  10.208  0.1371  0.5031 -0.6648
 7345SOL     OW33667   2.377   0.652  14.250 -0.5478  0.1150 -0.1237
 7345SOL    HW133668   2.359   0.585  14.316  0.4846 -0.0625 -0.0193
 7345SOL    HW233669   2.456   0.619  14.206  0.6571  0.9854  1.3532
 7346SOL     OW33670   1.237   3.245   3.039 -0.0864  0.4966  0.2658
 7346SOL    HW133671   1.199   3.250   2.951  0.5633 -0.2565 -0.0555
 7346SOL    HW233672   1.324   3.282   3.024 -0.7036  0.9288 -2.3122
 7347SOL     OW33673   3.045   1.701   5.551  0.0956  0.2187 -0.0613
 7347SOL    HW133674   3.067   1.613   5.579  1.1951  0.8855  1.1275
 7347SOL    HW233675   3.066   1.702   5.457  0.2951 -2.0677 -0.0366
 7348SOL     OW33676   1.004   2.819   0.933  0.0805 -0.3061  0.1520
 7348SOL    HW133677   1.016   2.912   0.954  0.4707  0.1447 -1.9831
 7348SOL    HW233678   1.095   2.792   0.921 -0.1298  0.2877 -2.9411
 7349SOL     OW33679   3.371   0.945   4.365  0.1904  0.0585 -0.6329
 7349SOL    HW133680   3.301   0.955   4.429  0.1030  0.9608 -0.8668
 7349SOL    HW233681   3.388   1.030   4.324 -0.4892 -0.1924 -1.4259
 7350SOL     OW33682   3.033   3.415  14.624 -0.5758 -0.0416 -0.0081
 7350SOL    HW133683   3.018   3.436  14.532 -2.0396  1.7901  0.6540
 7350SOL    HW233684   3.090   3.486  14.652 -2.4870  1.4726 -0.0028
 7351SOL     OW33685   1.299   2.365   2.338  0.3059 -0.4396  0.3211
 7351SOL    HW133686   1.383   2.321   2.347  0.2125 -0.2376  2.1672
 7351SOL    HW233687   1.329   2.455   2.352 -1.9068  0.5242 -0.9605
 7352SOL     OW33688   4.391   0.962   5.927 -0.2553  0.6680  0.2947
 7352SOL    HW133689   4.436   0.885   5.893  0.6084  0.7130  1.3365
 7352SOL    HW233690   4.389   1.014   5.847  1.9550 -0.9967 -0.8514
 7353SOL     OW33691   1.443   2.597   5.794 -0.3406 -0.1106  0.3522
 7353SOL    HW133692   1.486   2.655   5.858 -1.0609 -0.8315  1.5042
 7353SOL    HW233693   1.353   2.599   5.827 -0.3237  1.4672  0.3148
 7354SOL     OW33694   0.103   1.848   9.703 -0.0871  0.0430  0.4660
 7354SOL    HW133695   0.020   1.803   9.693  1.0633 -1.9824  0.0426
 7354SOL    HW233696   0.076   1.937   9.726  2.4216  0.4701  1.8129
 7355SOL     OW33697   1.229   3.678   9.276 -0.0517  0.3548 -0.1966
 7355SOL    HW133698   1.226   3.733   9.354 -0.3454  0.6957 -0.4478
 7355SOL    HW233699   1.157   3.615   9.280 -0.3934  0.7218 -0.6087
 7356SOL     OW33700   1.292   4.348   6.462  0.2234 -0.2653 -0.1351
 7356SOL    HW133701   1.270   4.255   6.454 -2.2805  0.1355  2.3062
 7356SOL    HW233702   1.376   4.341   6.508 -0.5309 -2.4847  0.9097
 7357SOL     OW33703   2.484   1.471   7.602  0.0604  0.3873  0.2110
 7357SOL    HW133704   2.407   1.441   7.553  0.0928  1.1140 -0.2944
 7357SOL    HW233705   2.456   1.478   7.693 -3.1305 -1.2621 -0.6329
 7358SOL     OW33706   3.190   1.973   1.673  0.3017 -0.4286 -0.9627
 7358SOL    HW133707   3.116   2.033   1.675 -0.2911 -1.2687  2.0477
 7358SOL    HW233708   3.261   2.037   1.678  1.4627 -1.7910 -0.0600
 7359SOL     OW33709   4.497   4.616   9.786 -0.2076  0.3385 -0.6699
 7359SOL    HW133710   4.453   4.662   9.857 -1.7480 -1.0828 -0.7175
 7359SOL    HW233711   4.424   4.558   9.764 -1.7025  1.1822  2.0388
 7360SOL     OW33712   1.494   2.018   6.074 -0.0573 -0.5928 -0.1048
 7360SOL    HW133713   1.566   2.059   6.120 -1.4873  0.5652  1.0699
 7360SOL    HW233714   1.418   2.043   6.127  1.8900 -0.3959  2.5256
 7361SOL     OW33715   2.008   4.019   6.354 -0.7536  0.8911  0.6662
 7361SOL    HW133716   1.931   4.067   6.322 -1.4885  0.0431  1.1525
 7361SOL    HW233717   2.042   3.979   6.274  0.7569  0.0359  1.7419
 7362SOL     OW33718   2.777   3.667  16.882  0.5047  0.1649  0.1885
 7362SOL    HW133719   2.686   3.658  16.851 -0.4494  0.6951  2.8573
 7362SOL    HW233720   2.785   3.762  16.882 -0.5467  0.2659 -0.7214
 7363SOL     OW33721   2.490   1.212   7.009 -0.4947  0.9656 -0.3296
 7363SOL    HW133722   2.430   1.177   7.075 -0.7253 -0.2091 -1.1628
 7363SOL    HW233723   2.451   1.165   6.936 -0.1842  0.0018  0.1279
 7364SOL     OW33724   4.085   4.083   5.012  0.6196 -0.0053 -0.0698
 7364SOL    HW133725   4.111   4.164   5.057 -0.9240  0.8988 -0.8126
 7364SOL    HW233726   4.107   4.019   5.080  2.7968 -0.4070 -1.1457
 7365SOL     OW33727   0.452   0.603   6.550 -0.4546  0.0866  0.3984
 7365SOL    HW133728   0.379   0.636   6.603  0.2350 -0.9157  1.9863
 7365SOL    HW233729   0.516   0.672   6.565 -1.3737  1.5109 -2.2906
 7366SOL     OW33730   2.001   0.225   4.541  0.1368 -0.0549  0.1139
 7366SOL    HW133731   1.967   0.297   4.593  0.8518 -0.8892  1.7503
 7366SOL    HW233732   2.002   0.160   4.611 -1.1812  0.1921  0.3465
 7367SOL     OW33733   1.567   2.159   7.689 -0.2958 -0.4572 -0.4192
 7367SOL    HW133734   1.516   2.081   7.668 -0.2238 -0.9488  1.3040
 7367SOL    HW233735   1.566   2.219   7.614 -0.1946 -1.4873 -1.2390
 7368SOL     OW33736   2.519   3.712   4.332 -0.7417  0.1602 -0.7028
 7368SOL    HW133737   2.610   3.730   4.355 -1.1105 -1.0160  1.5814
 7368SOL    HW233738   2.466   3.789   4.352  1.1740  2.0172 -2.5491
 7369SOL     OW33739   4.503   2.421   6.971 -0.0650 -0.0946  0.7033
 7369SOL    HW133740   4.466   2.506   6.996  0.3901  0.4757 -0.5832
 7369SOL    HW233741   4.546   2.397   7.053  1.7614  2.3666  0.4726
 7370SOL     OW33742   4.064   2.441   8.058 -0.2250 -0.1387 -0.0012
 7370SOL    HW133743   4.036   2.528   8.088  0.7233 -0.2853  1.2987
 7370SOL    HW233744   3.977   2.410   8.031 -0.9651 -0.6662  2.8976
 7371SOL     OW33745   0.375   3.021   2.665  0.0041  0.0185 -0.2332
 7371SOL    HW133746   0.301   3.081   2.655  0.5690  0.7623  0.1116
 7371SOL    HW233747   0.348   2.956   2.599  0.0833  1.7501 -1.9607
 7372SOL     OW33748   2.223   3.038   2.706 -0.0941  0.5953 -0.5578
 7372SOL    HW133749   2.244   2.989   2.785 -0.3760  0.8963 -0.2984
 7372SOL    HW233750   2.135   3.066   2.729  0.3055  0.9679  0.5123
 7373SOL     OW33751   2.523   3.169   8.490  0.0415 -0.1009 -0.6147
 7373SOL    HW133752   2.483   3.086   8.463 -0.8594  0.4447 -0.9340
 7373SOL    HW233753   2.441   3.216   8.503 -0.3648 -1.1922  0.7465
 7374SOL     OW33754   1.307   0.100  12.915 -0.0385 -0.3162  0.0594
 7374SOL    HW133755   1.294   0.021  12.967 -3.7949 -0.6599 -1.4046
 7374SOL    HW233756   1.216   0.128  12.902 -0.3149 -0.5921  1.3658
 7375SOL     OW33757   1.571   0.847   4.007  0.2372  0.5625 -0.0634
 7375SOL    HW133758   1.572   0.929   3.957 -1.0169 -0.4227 -1.7214
 7375SOL    HW233759   1.549   0.792   3.932  2.5574 -1.0840  0.4426
 7376SOL     OW33760   3.148   4.640   2.513 -0.5874  0.5533  0.0500
 7376SOL    HW133761   3.153   4.667   2.604 -0.5848 -1.1584  0.5535
 7376SOL    HW233762   3.062   4.598   2.521 -0.7968  0.5372 -2.2323
 7377SOL     OW33763   2.019   0.318  10.801  0.1000  0.1910  0.8013
 7377SOL    HW133764   1.964   0.377  10.853 -0.4118  0.0405  0.4261
 7377SOL    HW233765   2.011   0.237  10.850  3.8417  2.1425  4.6493
 7378SOL     OW33766   3.458   0.149   5.728  0.4602 -0.0070  0.1618
 7378SOL    HW133767   3.493   0.063   5.749  2.4369  0.7203 -0.0941
 7378SOL    HW233768   3.501   0.204   5.794 -1.1955  0.4479  0.8717
 7379SOL     OW33769   4.194   4.421  10.155 -0.4728 -0.3596 -0.5859
 7379SOL    HW133770   4.159   4.446  10.241 -1.3396  1.0647 -1.3560
 7379SOL    HW233771   4.283   4.401  10.183 -0.7472  0.6145  1.0357
 7380SOL     OW33772   2.618   2.090   6.778 -0.3544  0.4092  0.0257
 7380SOL    HW133773   2.653   2.132   6.857 -0.4497  0.0629  0.2502
 7380SOL    HW233774   2.582   2.164   6.729  0.6111  1.4506  0.8628
 7381SOL     OW33775   3.324   0.884  17.742 -0.0395  0.4470  0.1660
 7381SOL    HW133776   3.234   0.896   0.028  0.3378 -0.0165  1.5126
 7381SOL    HW233777   3.306   0.809  17.686 -1.1535 -0.4784  1.7716
 7382SOL     OW33778   2.174   0.286   4.845 -0.1267  0.7368 -0.4919
 7382SOL    HW133779   2.146   0.194   4.841  0.3433  0.5899 -0.3608
 7382SOL    HW233780   2.096   0.337   4.823 -0.0514  1.4302  0.8315
 7383SOL     OW33781   3.789   4.693   5.893 -0.0754 -0.5407  0.0591
 7383SOL    HW133782   3.776   0.004   5.810 -0.7659 -0.5705  0.1485
 7383SOL    HW233783   3.856   0.009   5.937 -2.2881  1.3872  1.1241
 7384SOL     OW33784   4.424   2.506   4.070  0.0767 -0.1657 -0.0501
 7384SOL    HW133785   4.405   2.457   3.990  2.5049 -1.1040 -0.0630
 7384SOL    HW233786   4.353   2.569   4.056 -0.8277 -1.6929 -2.2034
 7385SOL     OW33787   3.589   1.939  15.903  0.0994  0.1555  0.4696
 7385SOL    HW133788   3.538   1.900  15.974  0.3779  0.7879  1.0207
 7385SOL    HW233789   3.674   1.901  15.926 -0.5416 -1.6730 -0.1676
 7386SOL     OW33790   0.068   0.244   4.974 -0.9190  0.1788 -1.0024
 7386SOL    HW133791   0.059   0.157   4.935  2.7995 -0.8964  0.5213
 7386SOL    HW233792   4.715   0.258   5.004 -1.5760 -1.1144 -2.3679
 7387SOL     OW33793   2.712   2.510   7.659 -1.0566  0.3291  0.4698
 7387SOL    HW133794   2.724   2.508   7.754 -0.6344  2.5601  0.4690
 7387SOL    HW233795   2.791   2.467   7.627 -1.8039 -0.4441 -0.3256
 7388SOL     OW33796   4.520   4.618  17.519  0.5289 -0.2526 -0.4297
 7388SOL    HW133797   4.446   4.557  17.517  1.2657 -1.1582 -0.3926
 7388SOL    HW233798   4.496   4.689  17.460  2.2819  0.3819 -0.3737
 7389SOL     OW33799   4.369   3.160   1.143 -0.0080  0.2383  0.0478
 7389SOL    HW133800   4.382   3.248   1.178  0.5144  0.6707 -1.2166
 7389SOL    HW233801   4.452   3.132   1.182 -0.4320 -1.4753 -0.2645
 7390SOL     OW33802   0.994   3.402  12.049  0.0855 -0.1968  0.1099
 7390SOL    HW133803   1.077   3.446  12.069 -1.5819  1.7993  2.6310
 7390SOL    HW233804   1.013   3.328  12.106  0.3347  0.6600  1.1391
 7391SOL     OW33805   3.972   0.730   7.301 -0.0283 -0.5348  0.2429
 7391SOL    HW133806   4.008   0.701   7.385  0.3838  0.9194  0.5608
 7391SOL    HW233807   3.955   0.644   7.262 -0.8419  0.1000 -0.8025
 7392SOL     OW33808   2.871   1.790  11.948 -0.3957 -0.1717 -0.6049
 7392SOL    HW133809   2.923   1.821  11.874  0.3318 -1.0406 -0.4677
 7392SOL    HW233810   2.857   1.867  12.002 -0.8663 -0.0253 -0.9351
 7393SOL     OW33811   1.549   2.497   6.446  0.5290 -0.2224  0.1497
 7393SOL    HW133812   1.508   2.466   6.526  0.4905  0.3548  0.3528
 7393SOL    HW233813   1.509   2.432   6.389 -1.7309  0.8511  0.5214
 7394SOL     OW33814   2.451   4.148   8.900 -0.4662 -0.1314 -0.3682
 7394SOL    HW133815   2.524   4.208   8.914 -2.8301  2.3785  1.4637
 7394SOL    HW233816   2.486   4.104   8.823  0.4011  0.1988 -0.1554
 7395SOL     OW33817   2.242   0.531   9.135 -0.3654  0.7471  0.1557
 7395SOL    HW133818   2.201   0.448   9.114  0.1335  0.7432 -0.7883
 7395SOL    HW233819   2.164   0.587   9.143 -0.2700  0.8849  0.1252
 7396SOL     OW33820   1.140   3.533   1.357 -0.3828  0.2736 -0.0865
 7396SOL    HW133821   1.166   3.623   1.375 -2.3986  1.1250 -1.3786
 7396SOL    HW233822   1.198   3.484   1.416  1.9383  0.6832 -2.0393
 7397SOL     OW33823   1.529   4.230   2.842 -0.3373 -0.3701 -0.1044
 7397SOL    HW133824   1.582   4.153   2.823 -1.1588 -0.8348 -0.5212
 7397SOL    HW233825   1.591   4.295   2.807  0.2871 -1.5142 -1.1081
 7398SOL     OW33826   1.796   2.555  17.122  0.1058  0.3644 -0.4869
 7398SOL    HW133827   1.839   2.504  17.054  1.0184  0.6467 -0.1190
 7398SOL    HW233828   1.732   2.491  17.154  0.9822 -0.0626  0.4171
 7399SOL     OW33829   3.891   1.236  11.189  0.0076 -0.6670  0.8858
 7399SOL    HW133830   3.887   1.250  11.284  0.6253 -2.5195  1.1705
 7399SOL    HW233831   3.847   1.312  11.152  2.6156  0.2314 -0.3078
 7400SOL     OW33832   3.679   4.293   1.989  0.1205  0.2999 -0.3311
 7400SOL    HW133833   3.618   4.364   2.012 -0.4153 -0.1002 -0.5066
 7400SOL    HW233834   3.742   4.300   2.060 -3.9592  1.1201  3.2464
 7401SOL     OW33835   3.196   0.269   1.159  0.0316  0.0387 -0.5994
 7401SOL    HW133836   3.233   0.189   1.121  1.2072  0.2959  0.0029
 7401SOL    HW233837   3.251   0.270   1.237  1.1559  1.4623 -1.4122
 7402SOL     OW33838   3.539   2.933   2.117 -0.3549  0.2847 -0.3212
 7402SOL    HW133839   3.563   2.978   2.199 -0.0224 -0.0064 -0.2570
 7402SOL    HW233840   3.558   3.007   2.060  1.2606 -0.3169 -0.5661
 7403SOL     OW33841   3.985   0.738   2.498  0.0480 -0.6581 -0.1295
 7403SOL    HW133842   3.917   0.678   2.529  1.0885 -0.4862  2.4108
 7403SOL    HW233843   3.999   0.786   2.580 -2.1725  0.8654 -0.6367
 7404SOL     OW33844   1.119   4.429  12.926 -0.1044  0.1325 -0.3603
 7404SOL    HW133845   1.115   4.399  12.835 -0.9905 -0.0575 -0.2591
 7404SOL    HW233846   1.212   4.421  12.948 -0.2833  3.3275  1.4573
 7405SOL     OW33847   4.007   2.825   6.123 -0.2069  0.1816 -0.0190
 7405SOL    HW133848   3.926   2.841   6.074 -0.5295  0.8027  0.7348
 7405SOL    HW233849   4.067   2.821   6.048 -0.1510 -1.2503  0.1017
 7406SOL     OW33850   4.430   3.986   2.675 -0.4426 -0.3012  0.8674
 7406SOL    HW133851   4.365   4.054   2.661 -2.3301 -2.0764  1.1034
 7406SOL    HW233852   4.369   3.915   2.693 -0.9701  0.2039  1.0832
 7407SOL     OW33853   1.019   2.173   8.536  0.4779 -0.1293 -0.4005
 7407SOL    HW133854   0.999   2.109   8.605  3.5195  1.2383  1.7488
 7407SOL    HW233855   0.961   2.244   8.565  0.0482 -1.8898  3.0977
 7408SOL     OW33856   1.507   2.681   0.773  0.1875  0.2002  0.1216
 7408SOL    HW133857   1.550   2.671   0.858 -1.6606 -1.7634  0.8071
 7408SOL    HW233858   1.585   2.670   0.717  1.1210  0.1724  1.4259
 7409SOL     OW33859   3.098   2.750   2.544  0.2885 -0.5456 -0.4799
 7409SOL    HW133860   3.142   2.668   2.522 -0.9979 -1.8131  1.5816
 7409SOL    HW233861   3.009   2.713   2.543 -0.3656  1.2079 -4.8698
 7410SOL     OW33862   1.074   2.010   2.657 -0.4843 -0.6306  0.1410
 7410SOL    HW133863   1.044   1.935   2.709 -3.2826  2.0653  2.3869
 7410SOL    HW233864   1.150   2.034   2.710 -1.5219 -2.6270  2.5553
 7411SOL     OW33865   0.712   1.413   5.027 -0.1816 -0.5770  0.1595
 7411SOL    HW133866   0.624   1.426   5.064  0.2961 -1.4230  1.6068
 7411SOL    HW233867   0.728   1.501   4.993  1.1336 -0.4638  1.0820
 7412SOL     OW33868   1.568   2.169   0.843 -0.7996 -0.1544 -0.4585
 7412SOL    HW133869   1.623   2.110   0.792  1.2042  1.1101  0.2299
 7412SOL    HW233870   1.516   2.115   0.902  0.6013 -1.3228 -0.3068
 7413SOL     OW33871   0.794   1.161   7.850  0.5953  0.5051  0.2862
 7413SOL    HW133872   0.835   1.081   7.884  0.1611 -0.1305 -0.6851
 7413SOL    HW233873   0.856   1.228   7.877  0.4721  0.1224  1.5511
 7414SOL     OW33874   1.038   3.020  17.682  0.3759  0.3818 -0.7110
 7414SOL    HW133875   1.067   2.935  17.714 -0.9787 -0.6953 -2.3598
 7414SOL    HW233876   1.054   3.075   0.016  0.1534 -0.7749  0.1536
 7415SOL     OW33877   2.447   1.449   6.873  0.0801 -0.3189 -0.4637
 7415SOL    HW133878   2.474   1.447   6.964 -0.9813  0.0615 -0.1428
 7415SOL    HW233879   2.435   1.354   6.864  0.3774 -0.2022 -2.1790
 7416SOL     OW33880   2.395   1.722   5.312 -0.5402  0.4349  0.4926
 7416SOL    HW133881   2.340   1.670   5.253  1.0670  0.4803 -1.0442
 7416SOL    HW233882   2.385   1.681   5.398 -0.3191 -0.3908  0.1242
 7417SOL     OW33883   1.081   2.174   9.613  0.4153 -0.4884  0.3232
 7417SOL    HW133884   1.016   2.114   9.650  0.3496 -0.8519 -0.3714
 7417SOL    HW233885   1.035   2.195   9.531  0.3560  0.1297  0.5191
 7418SOL     OW33886   0.409   1.088  15.918 -0.2295 -0.1748  0.0990
 7418SOL    HW133887   0.446   1.058  15.835  1.4058  2.9615 -0.2788
 7418SOL    HW233888   0.334   1.145  15.899 -0.0108  0.5641  1.4525
 7419SOL     OW33889   3.815   1.837  16.010  0.3107 -0.0520 -0.2015
 7419SOL    HW133890   3.844   1.830  15.919 -1.3482  0.7847 -0.7991
 7419SOL    HW233891   3.826   1.932  16.016 -0.8661  0.0827 -0.1808
 7420SOL     OW33892   1.290   0.505   3.749  0.4655 -0.1541  0.2562
 7420SOL    HW133893   1.276   0.411   3.761 -0.1625  0.0695  1.2803
 7420SOL    HW233894   1.254   0.544   3.829  1.3934 -0.3185  0.7463
 7421SOL     OW33895   2.720   0.011   1.079 -0.2915  0.1774  0.2721
 7421SOL    HW133896   2.790   0.032   1.017  0.3755 -1.8021  0.3680
 7421SOL    HW233897   2.684   4.675   1.028 -0.3081  1.3927 -1.4469
 7422SOL     OW33898   0.715   1.218  16.933 -0.2501  0.1194  0.4768
 7422SOL    HW133899   0.752   1.264  16.858  0.3876  2.1924  2.0823
 7422SOL    HW233900   0.793   1.196  16.984  0.1780  0.8346  0.1328
 7423SOL     OW33901   0.566   4.701   5.121  0.3084  0.1846  0.4950
 7423SOL    HW133902   0.624   0.040   5.134  1.0026 -0.5135  1.4812
 7423SOL    HW233903   0.493   0.012   5.082  0.5142 -0.0808 -0.2100
 7424SOL     OW33904   0.945   2.978   4.773  0.0321  0.1909  0.2913
 7424SOL    HW133905   0.872   3.016   4.822 -0.0146  0.6894 -0.1674
 7424SOL    HW233906   1.020   2.994   4.831  0.2903  1.3701 -0.3678
 7425SOL     OW33907   4.106   2.441  10.423 -0.1321 -0.3307  0.0991
 7425SOL    HW133908   4.020   2.437  10.465  0.1772 -0.4307  0.7267
 7425SOL    HW233909   4.180   2.416  10.478  1.5432  1.0034 -1.5464
 7426SOL     OW33910   3.245   0.840  16.189 -0.6147 -0.4369  0.4918
 7426SOL    HW133911   3.323   0.892  16.174  0.2416 -1.7563  0.3312
 7426SOL    HW233912   3.287   0.772  16.242  0.3473 -0.0396  0.2416
 7427SOL     OW33913   0.125   0.230   1.634  0.4373  0.8595  0.2917
 7427SOL    HW133914   0.065   0.201   1.703  1.0272 -0.3983  0.2838
 7427SOL    HW233915   0.173   0.150   1.614  2.0165  1.3842  2.0072
 7428SOL     OW33916   0.771   4.067  17.679 -0.3027 -0.3149  0.2694
 7428SOL    HW133917   0.763   4.126   0.011  0.1075 -0.5563  0.5041
 7428SOL    HW233918   0.866   4.056  17.676 -0.3755 -0.8698  0.0892
 7429SOL     OW33919   4.190   4.114   4.310  0.0442 -0.0177 -0.5794
 7429SOL    HW133920   4.249   4.043   4.285 -0.5151 -0.0740 -1.7319
 7429SOL    HW233921   4.107   4.068   4.314  0.7841 -1.1966  1.1144
 7430SOL     OW33922   4.315   0.024   7.094 -0.0495 -0.0378  0.5090
 7430SOL    HW133923   4.254   0.012   7.166 -2.1601 -1.3488 -1.4859
 7430SOL    HW233924   4.327   4.665   7.093 -1.0075 -0.1770  1.8500
 7431SOL     OW33925   2.624   0.203   6.303 -0.1814 -0.1079  0.2006
 7431SOL    HW133926   2.537   0.188   6.266  0.7502  1.4233 -2.6859
 7431SOL    HW233927   2.604   0.212   6.396 -2.6330  0.5143 -0.3832
 7432SOL     OW33928   0.865   3.494   2.788 -0.0717  0.0546  0.6882
 7432SOL    HW133929   0.868   3.424   2.854  2.3501  1.2125  1.7949
 7432SOL    HW233930   0.895   3.440   2.714  1.9245  1.2488  0.6319
 7433SOL     OW33931   0.599   1.383  17.137  0.3179 -0.2897  0.3872
 7433SOL    HW133932   0.527   1.433  17.097 -0.1141 -1.0232  0.2516
 7433SOL    HW233933   0.622   1.326  17.064  0.7665  0.0711  0.2523
 7434SOL     OW33934   0.876   4.555   7.320  0.0441 -0.1099 -0.2776
 7434SOL    HW133935   0.950   4.564   7.261  0.2435 -4.4415 -0.7255
 7434SOL    HW233936   0.805   4.606   7.281 -0.9264 -1.7794 -0.7133
 7435SOL     OW33937   3.699   2.554   3.401 -0.7075 -0.3357 -0.1097
 7435SOL    HW133938   3.790   2.526   3.405  0.0206  2.1272  0.1196
 7435SOL    HW233939   3.686   2.613   3.327 -1.8582  3.2586  2.9405
 7436SOL     OW33940   4.286   3.978  11.171 -0.3714 -0.2622 -0.0312
 7436SOL    HW133941   4.291   3.885  11.193 -1.4967 -0.5421 -0.9232
 7436SOL    HW233942   4.247   4.017  11.250 -0.3446  1.8455 -1.0571
 7437SOL     OW33943   3.584   1.721   5.376  0.0503  0.3331  0.7531
 7437SOL    HW133944   3.559   1.807   5.341  0.5315  0.1044 -0.1529
 7437SOL    HW233945   3.643   1.754   5.443 -0.9218  0.1040  1.7295
 7438SOL     OW33946   2.353   1.284  17.590 -0.5278 -0.5352 -0.3026
 7438SOL    HW133947   2.380   1.325  17.672  1.5394 -0.7473 -0.8734
 7438SOL    HW233948   2.302   1.206  17.615 -0.4799  0.1056  1.7865
 7439SOL     OW33949   2.070   2.765   1.992 -0.6185 -0.1723 -0.3351
 7439SOL    HW133950   2.060   2.776   1.897  0.9662  0.7675 -0.3835
 7439SOL    HW233951   2.163   2.752   2.008 -0.5447 -0.3277 -0.8824
 7440SOL     OW33952   0.538   2.174   6.415 -0.7395  0.7828  0.5873
 7440SOL    HW133953   0.490   2.097   6.385  1.3384  0.3338 -1.6255
 7440SOL    HW233954   0.458   2.213   6.449 -1.2568  3.6552 -3.8670
 7441SOL     OW33955   0.225   1.090  12.396 -0.3204  0.0240 -0.1064
 7441SOL    HW133956   0.241   1.111  12.488 -0.7938  0.2517 -0.0764
 7441SOL    HW233957   0.129   1.089  12.392 -0.4711 -0.3080  3.1395
 7442SOL     OW33958   2.316   2.420   3.758  0.9488  0.5602  0.4226
 7442SOL    HW133959   2.306   2.385   3.846 -2.8792 -0.4349 -0.4342
 7442SOL    HW233960   2.410   2.439   3.764  0.6031  2.3439  0.3691
 7443SOL     OW33961   1.233   2.357  14.482 -0.2743 -0.0781  0.0497
 7443SOL    HW133962   1.169   2.420  14.515 -0.2311 -0.0002 -0.0180
 7443SOL    HW233963   1.199   2.341  14.394  2.5836 -3.0544 -0.5259
 7444SOL     OW33964   4.076   4.666  12.594 -0.2773 -0.3586 -0.0907
 7444SOL    HW133965   4.097   4.590  12.539  1.7760  0.8937 -1.0382
 7444SOL    HW233966   4.169   4.688  12.606  0.1807 -1.5831 -1.2756
 7445SOL     OW33967   2.338   2.105   5.223  0.8275  0.1276  0.4705
 7445SOL    HW133968   2.410   2.048   5.196  0.3363 -0.6487  0.7980
 7445SOL    HW233969   2.352   2.096   5.317 -0.6481  1.0564  0.7785
 7446SOL     OW33970   2.279   2.255  12.966 -0.8105  0.1408 -0.3572
 7446SOL    HW133971   2.228   2.314  13.021 -0.9496 -0.4738  0.1781
 7446SOL    HW233972   2.334   2.322  12.924  0.1064  0.4819  1.4129
 7447SOL     OW33973   4.610   0.889   4.599  0.0163  0.0585  0.1712
 7447SOL    HW133974   4.613   0.794   4.603  0.5479 -0.0387 -2.4915
 7447SOL    HW233975   4.515   0.895   4.590 -0.1608  0.2569  2.3198
 7448SOL     OW33976   1.658   3.892   9.197 -0.3395  0.3207  0.0847
 7448SOL    HW133977   1.566   3.916   9.205 -0.1927  1.5845 -2.0647
 7448SOL    HW233978   1.697   3.979   9.204 -0.5949  0.5886 -1.9704
 7449SOL     OW33979   0.414   2.078   2.586 -0.0263 -0.2190  0.0300
 7449SOL    HW133980   0.397   1.985   2.601  0.7482 -0.2386  0.7565
 7449SOL    HW233981   0.365   2.093   2.505  0.3053  1.9756  0.2505
 7450SOL     OW33982   4.002   1.348   2.893 -0.1348  0.0991 -0.1906
 7450SOL    HW133983   4.019   1.290   2.967  0.8299  0.5512 -0.0572
 7450SOL    HW233984   3.938   1.300   2.841 -0.1622  0.4132 -0.4519
 7451SOL     OW33985   2.162   4.196   4.864  0.8323 -0.1054  0.6044
 7451SOL    HW133986   2.103   4.124   4.887 -0.3938 -0.3026 -3.1233
 7451SOL    HW233987   2.170   4.236   4.950  2.1232  0.9228 -0.0059
 7452SOL     OW33988   3.342   2.554  11.512 -0.0566  0.0560 -0.1127
 7452SOL    HW133989   3.318   2.552  11.419  1.2332 -0.1235 -0.4351
 7452SOL    HW233990   3.314   2.466  11.537 -2.2842  0.2704 -1.8047
 7453SOL     OW33991   0.666   0.252   4.686 -0.2843  0.2565  0.8302
 7453SOL    HW133992   0.604   0.303   4.739  0.7709 -0.3295  2.6148
 7453SOL    HW233993   0.703   0.190   4.748 -0.8547 -0.2883  0.6232
 7454SOL     OW33994   0.759   1.269   4.181 -0.1183 -0.3394  0.0426
 7454SOL    HW133995   0.727   1.326   4.252 -0.7846 -0.0220 -0.5118
 7454SOL    HW233996   0.830   1.223   4.226  0.6451 -0.5620 -1.4036
 7455SOL     OW33997   4.060   0.342  11.059  0.2510 -0.6556  0.5188
 7455SOL    HW133998   4.011   0.286  11.119 -0.0615 -1.3540 -0.3890
 7455SOL    HW233999   4.083   0.274  10.995  0.8393 -1.4138  1.5319
 7456SOL     OW34000   4.283   2.763   7.664 -0.1815 -0.4805  0.1629
 7456SOL    HW134001   4.246   2.789   7.749 -2.7390 -1.2199 -0.7261
 7456SOL    HW234002   4.261   2.670   7.659  1.4345 -0.7990 -0.9216
 7457SOL     OW34003   0.613   0.306   7.790 -0.1220 -0.1535 -0.1174
 7457SOL    HW134004   0.606   0.235   7.854  3.1875 -1.2768 -1.0272
 7457SOL    HW234005   0.708   0.316   7.796 -0.0907 -1.0985  1.1452
 7458SOL     OW34006   1.046   2.037   3.896  0.1379  0.6638 -0.2035
 7458SOL    HW134007   1.128   1.988   3.899 -0.4075 -0.1644  1.4788
 7458SOL    HW234008   0.983   1.973   3.930  0.2607  0.1933 -0.8789
 7459SOL     OW34009   1.181   2.119   2.300  0.6987  0.0864 -0.5397
 7459SOL    HW134010   1.226   2.195   2.336 -1.7385  1.9516 -1.4039
 7459SOL    HW234011   1.122   2.169   2.243  0.3064 -1.0947 -1.1750
 7460SOL     OW34012   0.321   0.731   3.858 -0.5340  0.5332  0.5604
 7460SOL    HW134013   0.388   0.796   3.840  1.2125 -1.3918  0.2151
 7460SOL    HW234014   0.331   0.670   3.786  0.4591 -2.2762  3.0744
 7461SOL     OW34015   4.391   1.437   0.650 -0.1942  0.3818  0.4226
 7461SOL    HW134016   4.375   1.343   0.638 -1.4014  0.5666  0.5938
 7461SOL    HW234017   4.359   1.451   0.739 -0.1905  1.4797  0.2525
 7462SOL     OW34018   3.905   3.175   2.236 -0.3215  0.0098 -0.2032
 7462SOL    HW134019   3.997   3.197   2.218 -0.7131  0.0997 -2.0657
 7462SOL    HW234020   3.857   3.251   2.204 -2.1582 -0.9008  0.3945
 7463SOL     OW34021   0.129   0.767   1.741  0.2714 -0.2014  0.2412
 7463SOL    HW134022   0.151   0.675   1.727  0.9189  0.0812 -0.5773
 7463SOL    HW234023   0.193   0.769   1.812 -0.1982 -0.4732  0.6728
 7464SOL     OW34024   0.924   0.795   6.723  0.0109 -0.5409 -0.0453
 7464SOL    HW134025   0.979   0.717   6.728  2.1500  0.8054 -2.5626
 7464SOL    HW234026   0.853   0.774   6.784 -1.2300  0.4888 -1.1380
 7465SOL     OW34027   2.134   3.311   2.440  0.2660 -0.2352 -0.3173
 7465SOL    HW134028   2.071   3.351   2.380 -0.9303  0.8400  1.6601
 7465SOL    HW234029   2.207   3.306   2.379 -2.9979 -0.8981 -4.1753
 7466SOL     OW34030   0.288   2.949   7.804 -0.4034  0.7335 -0.1840
 7466SOL    HW134031   0.271   2.855   7.815 -0.6203  0.7853 -0.0870
 7466SOL    HW234032   0.299   2.965   7.898 -0.2280  2.4195 -0.4927
 7467SOL     OW34033   1.489   3.270  14.160  0.7777 -0.7195  0.3154
 7467SOL    HW134034   1.429   3.246  14.231  1.2858  0.4305  1.1133
 7467SOL    HW234035   1.572   3.228  14.180 -0.9563 -4.4091 -0.1601
 7468SOL     OW34036   0.727   1.541   6.575  0.0929 -0.2843 -0.1918
 7468SOL    HW134037   0.783   1.573   6.645  0.6123  0.5987 -0.9995
 7468SOL    HW234038   0.749   1.448   6.578  1.4897  0.0717  0.6269
 7469SOL     OW34039   3.250   4.719   1.077  0.1152 -0.2439  0.7930
 7469SOL    HW134040   3.303   4.645   1.047  1.0149  0.5704  0.3803
 7469SOL    HW234041   3.239   4.684   1.165 -1.5957 -0.2697  0.5546
 7470SOL     OW34042   0.445   2.218  12.684  0.0840 -0.4548 -0.3660
 7470SOL    HW134043   0.374   2.177  12.634  1.0023 -1.6119 -0.7239
 7470SOL    HW234044   0.498   2.139  12.680  0.5821 -0.1212 -0.3165
 7471SOL     OW34045   0.221   0.262   7.597 -0.1958  0.2149 -0.5545
 7471SOL    HW134046   0.238   0.345   7.554 -1.9439  1.4098  1.0808
 7471SOL    HW234047   0.258   0.204   7.529  1.3357  0.5385 -0.0094
 7472SOL     OW34048   1.489   1.260   8.256  0.1001 -0.0314 -0.0078
 7472SOL    HW134049   1.540   1.190   8.298  0.8697 -0.6180 -1.9115
 7472SOL    HW234050   1.455   1.212   8.181  1.3458 -2.4307  0.9514
 7473SOL     OW34051   4.175   2.313   2.829  0.1416  0.2607  0.2498
 7473SOL    HW134052   4.234   2.271   2.767  0.4976  1.6922 -0.3766
 7473SOL    HW234053   4.248   2.350   2.878 -1.0953  1.3422  1.2749
 7474SOL     OW34054   2.985   0.961   8.305 -0.1201  0.6646 -0.2169
 7474SOL    HW134055   2.972   0.929   8.216  1.5287 -2.2772  0.6135
 7474SOL    HW234056   3.071   0.925   8.325  0.1752  1.9737  0.8870
 7475SOL     OW34057   4.125   3.234  11.376  0.1126  0.0562  0.3421
 7475SOL    HW134058   4.161   3.193  11.297 -0.0929  1.4218 -0.4445
 7475SOL    HW234059   4.203   3.282  11.405 -2.0060  2.1408  2.5629
 7476SOL     OW34060   2.472   1.867  14.534  0.1013 -0.1845  0.0967
 7476SOL    HW134061   2.389   1.820  14.542 -0.8220  1.2275 -1.3760
 7476SOL    HW234062   2.463   1.912  14.450  1.3223 -3.1600 -1.6395
 7477SOL     OW34063   4.649   1.766   4.403  0.4400 -0.5718  0.2887
 7477SOL    HW134064   4.683   1.849   4.436  2.2775 -0.3909 -2.0910
 7477SOL    HW234065   4.706   1.744   4.329 -0.3431 -1.1412 -0.1521
 7478SOL     OW34066   0.582   1.429   5.670 -0.0667 -0.0499 -0.8271
 7478SOL    HW134067   0.659   1.474   5.705 -1.5314  2.5650 -0.9924
 7478SOL    HW234068   0.508   1.482   5.699 -1.1220 -1.9795  0.0520
 7479SOL     OW34069   3.949   2.731  11.527  0.4206  0.0915  0.3728
 7479SOL    HW134070   3.945   2.743  11.622 -1.3895 -2.3844  0.6064
 7479SOL    HW234071   3.883   2.795  11.501  0.5657 -0.4654 -1.3911
 7480SOL     OW34072   0.392   0.005  14.870 -0.0483 -0.5580  0.5373
 7480SOL    HW134073   0.441   4.660  14.878  1.8614  0.5571  0.1619
 7480SOL    HW234074   0.373   0.002  14.776  1.9712 -0.3231  0.1281
 7481SOL     OW34075   1.948   4.235   2.850  0.4194 -0.1007 -0.0051
 7481SOL    HW134076   1.874   4.285   2.817 -0.8942 -0.9717  1.5910
 7481SOL    HW234077   1.972   4.301   2.915 -4.1761  1.0536  0.5544
 7482SOL     OW34078   1.008   1.245  14.311  0.2626  0.0918 -0.2083
 7482SOL    HW134079   1.042   1.331  14.285  0.8178  0.2935  1.1647
 7482SOL    HW234080   1.016   1.249  14.407  1.2381  1.3064 -0.3234
 7483SOL     OW34081   4.376   4.185  16.717  0.8341  0.0458  0.0299
 7483SOL    HW134082   4.465   4.163  16.744  0.8128  0.2457  0.2697
 7483SOL    HW234083   4.333   4.219  16.796 -3.2918 -1.5684 -1.5157
 7484SOL     OW34084   1.249   3.622   6.916  0.0709  0.2850  0.3054
 7484SOL    HW134085   1.257   3.528   6.934  2.9271  0.3082 -0.8495
 7484SOL    HW234086   1.184   3.625   6.846 -0.9893  1.9368  1.3406
 7485SOL     OW34087   3.202   1.454   5.643 -0.3586 -0.4214  0.0329
 7485SOL    HW134088   3.295   1.447   5.625 -0.4869  1.2880 -1.2275
 7485SOL    HW234089   3.201   1.458   5.739 -1.0983  2.5142 -0.0947
 7486SOL     OW34090   0.281   0.914  13.690  0.0399  0.0119  0.2362
 7486SOL    HW134091   0.375   0.932  13.691 -0.0743  0.8421 -3.0062
 7486SOL    HW234092   0.249   0.991  13.644 -0.2826 -0.1619  0.1674
 7487SOL     OW34093   0.518   0.914   3.744 -0.3838 -0.2880  0.1146
 7487SOL    HW134094   0.512   1.009   3.746  0.9298 -0.2261  0.7841
 7487SOL    HW234095   0.613   0.902   3.751 -0.1840  0.3107 -1.6257
 7488SOL     OW34096   1.976   1.532   3.174  0.5558  0.1310 -0.0824
 7488SOL    HW134097   1.904   1.539   3.236  1.1554  0.1741  0.6086
 7488SOL    HW234098   1.923   1.553   3.097  1.3587  1.4699 -0.2619
 7489SOL     OW34099   2.625   4.445   2.469 -0.5778  0.5518  0.1330
 7489SOL    HW134100   2.708   4.406   2.498 -0.6500 -0.8728 -1.5659
 7489SOL    HW234101   2.615   4.394   2.389 -1.0107 -1.1723  1.3081
 7490SOL     OW34102   1.143   4.280   2.982 -0.4158 -0.0618  0.4134
 7490SOL    HW134103   1.186   4.364   3.002 -1.5813  1.2579 -2.7164
 7490SOL    HW234104   1.209   4.220   3.018 -0.8171 -1.0278 -0.4847
 7491SOL     OW34105   1.020   3.357   5.143 -0.0042  0.5956  0.4113
 7491SOL    HW134106   1.092   3.381   5.085  0.5464 -1.7789  0.1107
 7491SOL    HW234107   1.009   3.435   5.197 -0.2300  0.0464  1.1656
 7492SOL     OW34108   4.034   2.811   1.013  0.0855 -0.0002 -0.2338
 7492SOL    HW134109   4.078   2.757   1.079 -2.3712 -0.8078  0.7454
 7492SOL    HW234110   4.084   2.891   1.026  2.1138 -1.3357  0.0743
 7493SOL     OW34111   4.534   3.266   9.121  0.2295  0.5667  0.3851
 7493SOL    HW134112   4.522   3.251   9.214 -0.6291  2.1241  0.5402
 7493SOL    HW234113   4.472   3.337   9.104  0.5743  0.9998  0.9258
 7494SOL     OW34114   1.405   4.142   0.634  0.0313  0.1463  0.8133
 7494SOL    HW134115   1.383   4.232   0.609  2.9102  0.7468  0.3530
 7494SOL    HW234116   1.321   4.106   0.661  0.1917 -0.8905 -0.0830
 7495SOL     OW34117   3.055   4.273   6.186  0.0473 -0.2447  0.1571
 7495SOL    HW134118   2.985   4.209   6.205  1.2176 -1.3877  0.6227
 7495SOL    HW234119   3.090   4.287   6.274  0.3952  0.3240 -0.0809
 7496SOL     OW34120   3.652   2.502   5.552 -0.1368 -0.2226 -0.1764
 7496SOL    HW134121   3.604   2.423   5.529  1.6999 -1.6299  0.8395
 7496SOL    HW234122   3.592   2.559   5.600 -0.9641  0.3367 -1.8858
 7497SOL     OW34123   3.435   0.483   7.195 -0.4218  0.0239  0.0633
 7497SOL    HW134124   3.477   0.445   7.272  1.9142  0.4552 -0.9860
 7497SOL    HW234125   3.353   0.511   7.236 -0.2750 -0.7716  0.9114
 7498SOL     OW34126   2.823   0.848  14.633  1.5736  0.1752 -0.2578
 7498SOL    HW134127   2.778   0.864  14.550  0.4514  0.8548  0.4792
 7498SOL    HW234128   2.761   0.874  14.701  0.4805 -0.2554 -1.0872
 7499SOL     OW34129   1.397   1.912   7.237  0.2220  0.5122 -0.3641
 7499SOL    HW134130   1.429   2.002   7.247 -1.8483  1.1372  0.7384
 7499SOL    HW234131   1.459   1.867   7.294 -0.0426 -0.0107 -0.4910
 7500SOL     OW34132   4.146   3.169   7.708 -0.2167  0.1982  0.2483
 7500SOL    HW134133   4.118   3.173   7.799  0.8924 -0.2555  0.6023
 7500SOL    HW234134   4.218   3.108   7.720 -2.1914 -1.9304  1.2087
 7501SOL     OW34135   4.145   3.570  10.889  0.1537  0.1468  0.2163
 7501SOL    HW134136   4.103   3.626  10.824 -1.0375 -0.4604  0.4560
 7501SOL    HW234137   4.185   3.498  10.840  1.5195  0.4925  0.8249
 7502SOL     OW34138   2.821   4.672   4.518  0.9509  0.1311 -0.2740
 7502SOL    HW134139   2.868   4.591   4.501  1.1350  0.5000 -1.5504
 7502SOL    HW234140   2.896   4.729   4.529 -0.8944  2.0415  2.3147
 7503SOL     OW34141   4.429   4.452   5.111 -0.4815  0.2398 -0.1223
 7503SOL    HW134142   4.372   4.512   5.064 -0.9862 -0.5035 -0.4501
 7503SOL    HW234143   4.456   4.390   5.043 -0.5154 -1.1069  1.0805
 7504SOL     OW34144   4.363   3.336   1.396 -0.1750 -0.2380  0.4056
 7504SOL    HW134145   4.421   3.390   1.342 -1.1603  1.0761  0.6357
 7504SOL    HW234146   4.425   3.266   1.413 -0.4724 -0.4953  0.4301
 7505SOL     OW34147   4.436   3.284  17.477  0.2010  0.4754 -0.3272
 7505SOL    HW134148   4.410   3.195  17.456  0.5990  0.3157 -0.1398
 7505SOL    HW234149   4.351   3.327  17.463 -1.2030 -2.0547  0.4489
 7506SOL     OW34150   2.480   4.369   5.936  0.0744 -0.2194 -0.1171
 7506SOL    HW134151   2.517   4.453   5.964  0.3030 -0.3887  0.0917
 7506SOL    HW234152   2.499   4.370   5.842  1.0490  0.9668  0.0889
 7507SOL     OW34153   1.108   0.919   7.556  0.2348 -0.1269  0.8820
 7507SOL    HW134154   1.171   0.941   7.488  0.7562 -2.5654  0.5683
 7507SOL    HW234155   1.028   0.898   7.508  0.3674 -0.9029  1.0006
 7508SOL     OW34156   0.441   4.214   6.876  0.2707 -0.2199 -0.3550
 7508SOL    HW134157   0.397   4.256   6.950 -0.3230  0.9500 -1.3709
 7508SOL    HW234158   0.529   4.252   6.879  0.2707 -0.4433  2.6412
 7509SOL     OW34159   3.872   1.690  14.724  0.5679  0.1083 -0.6513
 7509SOL    HW134160   3.801   1.645  14.768  0.0702  2.6442  1.1064
 7509SOL    HW234161   3.945   1.628  14.727  0.7759  0.4362  1.1121
 7510SOL     OW34162   3.529   2.708  15.269 -0.1377  0.3599 -0.1960
 7510SOL    HW134163   3.478   2.782  15.237 -1.3643  0.9179  3.0000
 7510SOL    HW234164   3.503   2.635  15.214 -0.6699  0.3810  0.0308
 7511SOL     OW34165   3.598   0.979  10.120 -0.8512 -0.0076  0.5352
 7511SOL    HW134166   3.642   1.045  10.174  1.8661 -0.6102 -0.9607
 7511SOL    HW234167   3.668   0.916  10.106 -2.3884 -1.1803 -1.8650
 7512SOL     OW34168   1.759   2.280  11.899  0.2489  0.1900  0.5344
 7512SOL    HW134169   1.690   2.269  11.964 -1.2181  2.0141 -0.7170
 7512SOL    HW234170   1.840   2.253  11.942  1.6490  2.4397 -0.6899
 7513SOL     OW34171   3.995   3.984   8.755  0.1985  0.0997  0.1435
 7513SOL    HW134172   3.967   3.934   8.679 -1.4063 -0.2100  0.9548
 7513SOL    HW234173   4.090   3.970   8.752  0.1053 -0.9789  2.0631
 7514SOL     OW34174   1.541   2.238   2.882  0.5111  0.0452 -0.3992
 7514SOL    HW134175   1.611   2.227   2.945 -0.0431  0.0701  0.2217
 7514SOL    HW234176   1.492   2.311   2.921 -3.1700 -1.4227 -2.2409
 7515SOL     OW34177   2.016   0.278   0.163 -0.4050  0.2961 -0.1689
 7515SOL    HW134178   1.997   0.196   0.208  1.3268  0.1496  0.2850
 7515SOL    HW234179   1.989   0.339   0.231 -0.1619  2.6703 -2.1859
 7516SOL     OW34180   2.468   1.049   0.416  0.0973  0.3101  0.2198
 7516SOL    HW134181   2.546   0.994   0.407  0.0928  0.1035  1.4236
 7516SOL    HW234182   2.517   1.104   0.476 -0.4186 -0.7324  1.6000
 7517SOL     OW34183   1.670   2.763  16.554 -0.1995  0.1290 -0.3582
 7517SOL    HW134184   1.673   2.715  16.471 -1.2138 -0.5782  0.0103
 7517SOL    HW234185   1.730   2.706  16.601 -1.1971 -0.8687 -0.2937
 7518SOL     OW34186   0.744   4.501   3.802  0.1439 -0.0728 -0.4784
 7518SOL    HW134187   0.821   4.523   3.855  0.7204  0.3608 -1.4917
 7518SOL    HW234188   0.720   4.431   3.863  2.1321  1.8007  2.5019
 7519SOL     OW34189   3.420   3.360   1.168  0.5602  0.3609 -0.2949
 7519SOL    HW134190   3.459   3.356   1.081 -1.5491 -1.1475 -1.1721
 7519SOL    HW234191   3.488   3.402   1.220 -1.3547  1.0824  1.6300
 7520SOL     OW34192   0.322   3.385  12.945  0.1079 -0.2606 -0.1231
 7520SOL    HW134193   0.361   3.310  12.990 -1.9015 -0.9071  0.5834
 7520SOL    HW234194   0.234   3.346  12.948 -0.3546  0.7271 -0.8042
 7521SOL     OW34195   4.589   0.843   9.421  0.1936  0.1802 -0.2928
 7521SOL    HW134196   4.535   0.890   9.357 -0.8770 -0.3849  0.2062
 7521SOL    HW234197   4.558   0.881   9.503 -2.8484 -0.1348 -1.3143
 7522SOL     OW34198   3.645   2.608  16.514 -0.2115 -0.3203 -0.3438
 7522SOL    HW134199   3.708   2.537  16.527 -2.1041 -2.1629 -1.4723
 7522SOL    HW234200   3.669   2.646  16.430 -0.2220  1.4943  0.4676
 7523SOL     OW34201   1.166   1.527  12.610  0.6272  0.1867  0.0145
 7523SOL    HW134202   1.249   1.562  12.643 -0.5753  0.2934  2.9686
 7523SOL    HW234203   1.107   1.596  12.642 -1.8040 -1.7603 -0.3265
 7524SOL     OW34204   4.194   0.403   8.385  0.2919  0.0683  0.3705
 7524SOL    HW134205   4.133   0.348   8.434 -2.1791  1.9515 -0.5206
 7524SOL    HW234206   4.272   0.349   8.392  0.9031  1.3305  3.1616
 7525SOL     OW34207   3.271   0.918  10.443 -0.1698  0.6240  0.3991
 7525SOL    HW134208   3.333   0.892  10.375 -2.0583  0.1035 -1.1373
 7525SOL    HW234209   3.208   0.846  10.449  1.0385 -0.3967  0.5577
 7526SOL     OW34210   0.207   4.688   2.451  0.0259 -0.0919 -0.4696
 7526SOL    HW134211   0.301   4.686   2.433  0.0284 -1.4038 -0.3191
 7526SOL    HW234212   0.207   4.675   2.546 -2.1787  2.1853 -0.1704
 7527SOL     OW34213   0.628   0.302   9.497 -1.0603 -0.4720  0.1862
 7527SOL    HW134214   0.650   0.332   9.409  0.1968  0.5563  0.8469
 7527SOL    HW234215   0.561   0.367   9.519 -1.2947 -0.5791 -0.2136
 7528SOL     OW34216   1.972   1.746   8.593 -0.0497 -0.2440 -0.0212
 7528SOL    HW134217   2.002   1.827   8.635 -0.9869 -1.1020  2.2940
 7528SOL    HW234218   1.888   1.766   8.551  0.8808 -2.3216 -2.8435
 7529SOL     OW34219   3.830   1.338  10.829 -0.5793  0.2852 -0.3589
 7529SOL    HW134220   3.770   1.403  10.793  0.1476  0.3616 -1.4551
 7529SOL    HW234221   3.895   1.398  10.864 -2.3779  1.6070  0.6979
 7530SOL     OW34222   0.073   2.709  12.920 -0.2935 -0.2456 -0.2851
 7530SOL    HW134223   0.073   2.804  12.905 -0.4190 -0.2348 -0.2176
 7530SOL    HW234224   4.716   2.691  12.932 -0.5335  2.6039  2.1175
 7531SOL     OW34225   1.426   0.245   5.102 -0.3145  0.0363 -0.2701
 7531SOL    HW134226   1.467   0.263   5.187 -3.8649  3.3790  0.6863
 7531SOL    HW234227   1.337   0.268   5.129 -0.0253 -0.6654  1.2701
 7532SOL     OW34228   4.397   1.977   8.086  0.4302 -0.7154 -0.6762
 7532SOL    HW134229   4.319   1.971   8.031  0.8704  1.0525 -1.4822
 7532SOL    HW234230   4.449   2.026   8.023  0.9195 -0.9654 -0.4655
 7533SOL     OW34231   1.051   1.543   8.565 -0.6744 -0.5975  0.2034
 7533SOL    HW134232   0.962   1.532   8.598 -1.2257  2.1027 -0.3867
 7533SOL    HW234233   1.048   1.600   8.487 -0.1601  0.4983  0.9821
 7534SOL     OW34234   4.134   1.383  14.098  0.3396 -0.7201 -0.3472
 7534SOL    HW134235   4.210   1.399  14.042  1.8243  0.0401  1.8952
 7534SOL    HW234236   4.095   1.470  14.102 -1.5735 -1.6255  0.7029
 7535SOL     OW34237   3.819   1.256   3.816 -0.0306 -0.1393  0.3012
 7535SOL    HW134238   3.770   1.184   3.855  0.7882 -1.9718 -2.0903
 7535SOL    HW234239   3.830   1.223   3.727 -0.5771 -0.1577  0.2396
 7536SOL     OW34240   0.834   1.802  11.949 -0.2463  0.0764 -0.5720
 7536SOL    HW134241   0.862   1.868  11.885  0.1374  0.6219  0.1578
 7536SOL    HW234242   0.868   1.716  11.923  1.1604  0.4920 -0.1273
 7537SOL     OW34243   1.002   0.925  11.154 -0.4233  0.0696  0.0926
 7537SOL    HW134244   1.039   0.956  11.236 -2.2893 -1.2928  1.4649
 7537SOL    HW234245   0.906   0.921  11.158 -0.5600  0.8427 -2.9031
 7538SOL     OW34246   0.528   2.974  15.372 -0.2660 -0.1274  0.0266
 7538SOL    HW134247   0.521   2.892  15.322  1.0233 -0.6191  0.6663
 7538SOL    HW234248   0.618   2.960  15.402 -0.8759 -1.2051  1.3410
 7539SOL     OW34249   4.194   3.428  17.424  0.2092  0.4358 -0.3571
 7539SOL    HW134250   4.187   3.497  17.490 -0.7359 -0.3945  0.4153
 7539SOL    HW234251   4.107   3.387  17.429 -1.0009  3.4722  3.0866
 7540SOL     OW34252   1.932   3.586   4.567 -0.5645  0.0791  0.0298
 7540SOL    HW134253   1.886   3.544   4.494 -1.5894 -1.9467  1.7956
 7540SOL    HW234254   2.017   3.606   4.528 -0.7430  0.9067  0.0738
 7541SOL     OW34255   0.402   4.649   4.511  0.4184 -0.1745  0.4071
 7541SOL    HW134256   0.464   4.707   4.467 -0.8356  0.1810 -0.8922
 7541SOL    HW234257   0.425   4.561   4.481 -3.7248 -1.0104 -0.2698
 7542SOL     OW34258   3.772   0.237   8.302 -0.4240 -0.5326  0.6198
 7542SOL    HW134259   3.862   0.253   8.333 -0.3379  2.8986 -1.5155
 7542SOL    HW234260   3.771   0.295   8.226  1.5651 -3.1565 -1.4227
 7543SOL     OW34261   3.448   3.887   6.488  0.1390 -0.0889 -0.6902
 7543SOL    HW134262   3.395   3.817   6.526 -1.5456  1.6637  0.1742
 7543SOL    HW234263   3.506   3.911   6.560 -0.3615 -0.6294 -0.1137
 7544SOL     OW34264   0.780   1.926   2.945 -0.3763 -0.1773  0.5652
 7544SOL    HW134265   0.855   1.884   2.903 -0.4316 -2.0603  2.3382
 7544SOL    HW234266   0.723   1.852   2.966 -2.2222  1.7624  2.4851
 7545SOL     OW34267   0.924   1.096   4.404 -0.1463 -0.2333  0.1070
 7545SOL    HW134268   0.940   1.156   4.477 -2.2273  1.3564 -0.7800
 7545SOL    HW234269   0.874   1.021   4.436 -0.8608  1.0301  1.9451
 7546SOL     OW34270   0.145   1.095  13.527  0.0765 -0.3763 -0.1276
 7546SOL    HW134271   0.107   1.169  13.575 -0.3995 -1.4729  1.2033
 7546SOL    HW234272   0.143   1.138  13.442  0.1815  0.6871  0.4067
 7547SOL     OW34273   4.463   0.377   6.933 -0.0954 -0.3313  0.7774
 7547SOL    HW134274   4.446   0.440   6.863  2.7555 -0.4845 -0.0412
 7547SOL    HW234275   4.434   0.428   7.009 -1.1615  0.0006  0.1486
 7548SOL     OW34276   1.619   2.970   6.325  0.3133  0.2255 -0.1532
 7548SOL    HW134277   1.701   2.921   6.315  1.2775  1.8323 -0.0626
 7548SOL    HW234278   1.557   2.901   6.349 -0.8118  1.1535 -0.3895
 7549SOL     OW34279   1.097   0.529   9.562 -0.1193  0.0564 -0.6069
 7549SOL    HW134280   1.005   0.551   9.547  0.1954  0.9478 -1.2294
 7549SOL    HW234281   1.124   0.476   9.486  1.7514 -0.4801  0.4357
 7550SOL     OW34282   0.568   1.357   0.103 -0.3526  0.1872  0.2050
 7550SOL    HW134283   0.610   1.358   0.017 -1.0275 -2.0505 -0.1656
 7550SOL    HW234284   0.617   1.422   0.153 -2.8960  0.3711  2.4433
 7551SOL     OW34285   2.955   0.898  10.010  0.2603  0.2191  0.2336
 7551SOL    HW134286   3.000   0.823  10.048  0.8638  0.3147 -0.3040
 7551SOL    HW234287   3.024   0.943   9.963 -0.3141  1.0398  0.1758
 7552SOL     OW34288   1.190   0.206  10.899 -0.5186  0.6678  0.3907
 7552SOL    HW134289   1.163   0.188  10.989 -0.4019  2.1738  0.7281
 7552SOL    HW234290   1.228   0.294  10.903 -1.5940  1.1218  0.7107
 7553SOL     OW34291   2.408   0.954   5.462  0.8165  0.7086  0.5107
 7553SOL    HW134292   2.467   1.013   5.509  0.6804  0.5014  0.9479
 7553SOL    HW234293   2.471   0.903   5.411  0.7438 -0.5203  1.6231
 7554SOL     OW34294   2.991   2.103   1.081  0.3204  0.2197  0.0980
 7554SOL    HW134295   3.051   2.051   1.027 -1.2400 -1.6255  0.1228
 7554SOL    HW234296   3.015   2.193   1.061 -0.8282  0.0597 -2.0208
 7555SOL     OW34297   0.910   1.868  13.796  0.0740  0.0482  0.2824
 7555SOL    HW134298   0.969   1.793  13.782 -0.5757 -0.0234 -2.1019
 7555SOL    HW234299   0.821   1.834  13.797  0.4767 -1.0641 -1.5593
 7556SOL     OW34300   1.718   3.446  16.515  0.1355 -0.7635 -0.1757
 7556SOL    HW134301   1.735   3.437  16.421 -1.5950  1.4052 -0.6809
 7556SOL    HW234302   1.653   3.516  16.515 -0.6889 -1.5292 -1.8647
 7557SOL     OW34303   1.489   3.568  16.434 -0.1565 -0.3579 -0.1656
 7557SOL    HW134304   1.394   3.563  16.421 -0.2860  0.1279  0.5470
 7557SOL    HW234305   1.506   3.626  16.360  0.2825  1.6792  1.5175
 7558SOL     OW34306   0.836   0.400   3.045  0.4759  0.0644 -0.0715
 7558SOL    HW134307   0.898   0.362   3.107 -0.4515  1.6637  1.8036
 7558SOL    HW234308   0.878   0.481   3.016 -1.7148  0.1454 -3.0720
 7559SOL     OW34309   3.171   4.377   7.503  0.2113  0.4143 -0.5689
 7559SOL    HW134310   3.265   4.363   7.509 -0.0901 -0.9828  0.9921
 7559SOL    HW234311   3.154   4.465   7.469 -0.1559  0.8934  0.8221
 7560SOL     OW34312   2.183   4.292   2.321  0.3039  0.0837  0.4288
 7560SOL    HW134313   2.104   4.249   2.288  0.3651  0.9360 -0.8141
 7560SOL    HW234314   2.215   4.234   2.390  3.8137  0.1557 -1.1569
 7561SOL     OW34315   2.167   3.167   8.831  0.6785  0.3702  0.2394
 7561SOL    HW134316   2.100   3.229   8.857  2.0270  2.0899 -0.4166
 7561SOL    HW234317   2.246   3.211   8.862  1.3461 -0.5583 -0.1351
 7562SOL     OW34318   2.008   1.826   7.900 -0.6235  0.1961 -0.1974
 7562SOL    HW134319   1.986   1.918   7.911 -0.0936  0.0401  2.1841
 7562SOL    HW234320   2.056   1.822   7.983  1.7394  2.0356 -1.4537
 7563SOL     OW34321   2.037   4.519   9.131  0.3687  0.6597 -0.4943
 7563SOL    HW134322   2.098   4.564   9.190  1.1955  0.2598 -1.0303
 7563SOL    HW234323   2.089   4.440   9.114 -1.2944 -0.5877  0.3069
 7564SOL     OW34324   1.348   2.004  16.075 -0.4418  0.4955 -0.7374
 7564SOL    HW134325   1.349   1.970  16.164 -1.3069 -1.0015 -1.3055
 7564SOL    HW234326   1.377   2.093  16.096  2.8627 -0.7707  0.0177
 7565SOL     OW34327   0.678   0.281  12.847 -0.3773 -0.1214 -0.3516
 7565SOL    HW134328   0.598   0.228  12.856 -1.1553  1.4269  1.8803
 7565SOL    HW234329   0.653   0.370  12.821 -0.4345 -0.7343 -2.3658
 7566SOL     OW34330   4.339   0.782   2.705  0.0065 -0.3429  0.0916
 7566SOL    HW134331   4.434   0.780   2.712  0.0425  1.7324  0.1938
 7566SOL    HW234332   4.313   0.691   2.691 -0.1321 -0.5096  1.4503
 7567SOL     OW34333   1.840   2.387   2.205  0.0244  0.2939  0.3073
 7567SOL    HW134334   1.750   2.373   2.237  0.4636 -1.1243  0.9016
 7567SOL    HW234335   1.839   2.479   2.178  0.8646  0.7741  1.8555
 7568SOL     OW34336   3.789   1.664   7.972 -0.0537  0.3488 -0.1834
 7568SOL    HW134337   3.876   1.702   7.963  0.6149 -0.8227  1.3192
 7568SOL    HW234338   3.746   1.734   8.022 -2.2492 -0.8029 -0.4690
 7569SOL     OW34339   0.642   4.160   8.561  0.2929 -0.7009 -0.4027
 7569SOL    HW134340   0.554   4.149   8.598  0.2982 -2.0702 -0.8151
 7569SOL    HW234341   0.620   4.199   8.477  0.9832  1.2323  0.3151
 7570SOL     OW34342   4.399   3.836   6.330  0.4954  0.4608  0.2476
 7570SOL    HW134343   4.439   3.761   6.374  0.6399  0.1338 -0.4371
 7570SOL    HW234344   4.337   3.859   6.399 -1.1835  1.8534 -1.7420
 7571SOL     OW34345   3.359   1.897   8.990  0.0719 -0.4271 -0.1680
 7571SOL    HW134346   3.375   1.921   9.081 -0.1582  1.0083 -0.4985
 7571SOL    HW234347   3.451   1.883   8.967 -0.2235  1.4267 -2.5384
 7572SOL     OW34348   0.049   1.968   6.281 -0.6533 -0.4003 -0.4555
 7572SOL    HW134349   4.693   1.974   6.305 -0.6344 -2.4052  0.1453
 7572SOL    HW234350   0.072   1.913   6.357  3.0524 -0.1359 -1.3626
 7573SOL     OW34351   0.042   3.050   4.984 -0.5781 -0.5844  0.1194
 7573SOL    HW134352   0.090   3.131   4.964 -0.7914  0.2335  3.0026
 7573SOL    HW234353   4.691   3.081   5.008 -0.3815  1.1035 -1.3236
 7574SOL     OW34354   1.619   3.643  12.915  0.1224  0.2201 -0.1625
 7574SOL    HW134355   1.662   3.647  13.001 -0.3331  0.5497  0.0495
 7574SOL    HW234356   1.657   3.560  12.887 -0.7220 -0.3681  0.4317
 7575SOL     OW34357   2.448   1.576  13.578  0.5361 -0.7070  0.4025
 7575SOL    HW134358   2.382   1.645  13.575  0.4859 -0.7703 -0.0251
 7575SOL    HW234359   2.421   1.517  13.507  0.0949 -0.4593  0.3646
 7576SOL     OW34360   4.622   4.007  11.074  0.8769 -0.0360  0.2221
 7576SOL    HW134361   4.699   4.012  11.130  0.6631 -1.3194  0.6242
 7576SOL    HW234362   4.641   3.924  11.030 -0.4153 -0.3776  0.3093
 7577SOL     OW34363   1.438   2.673  13.550 -0.4415  0.1260 -0.1364
 7577SOL    HW134364   1.499   2.626  13.493 -0.0667  0.8778 -0.3503
 7577SOL    HW234365   1.375   2.601  13.544  0.0817 -0.3397 -0.0782
 7578SOL     OW34366   2.364   4.002  11.352  0.6849 -0.2300 -0.1472
 7578SOL    HW134367   2.331   3.987  11.264 -0.3332  0.1767  0.1671
 7578SOL    HW234368   2.283   4.001  11.403  1.9876  2.2004  1.9843
 7579SOL     OW34369   2.365   1.578   8.446 -0.2642  0.2642 -0.1948
 7579SOL    HW134370   2.280   1.601   8.407 -1.5634 -0.5026  2.1579
 7579SOL    HW234371   2.406   1.661   8.424  1.5465 -0.7443 -0.6108
 7580SOL     OW34372   2.417   2.869   2.310  0.8313 -0.7027 -0.5821
 7580SOL    HW134373   2.351   2.816   2.353 -1.0951  3.2024  1.2420
 7580SOL    HW234374   2.439   2.933   2.378  1.5995 -0.9745 -0.5681
 7581SOL     OW34375   1.475   2.926   1.030  0.1921 -0.2054  0.3711
 7581SOL    HW134376   1.467   2.978   0.950 -0.0893  0.5653  0.8926
 7581SOL    HW234377   1.543   2.867   0.999 -0.9875 -0.1757 -2.2507
 7582SOL     OW34378   3.724   3.339   5.932  0.5884 -0.1010  0.3977
 7582SOL    HW134379   3.746   3.354   6.024 -1.3077  0.5297  0.7567
 7582SOL    HW234380   3.732   3.428   5.899  0.2433 -0.5706 -0.9329
 7583SOL     OW34381   3.730   3.810   1.324  0.2312 -0.5559  0.1784
 7583SOL    HW134382   3.751   3.790   1.415 -0.0788 -1.0451  0.1412
 7583SOL    HW234383   3.653   3.863   1.344 -0.5155 -1.3216 -0.6621
 7584SOL     OW34384   1.739   3.631   3.063  0.1218 -0.4212  0.4684
 7584SOL    HW134385   1.731   3.722   3.094 -1.8060 -0.1332 -0.8385
 7584SOL    HW234386   1.676   3.621   2.992  0.9778 -0.9679 -0.2108
 7585SOL     OW34387   0.362   4.033   3.808  0.3465 -1.2791 -0.1563
 7585SOL    HW134388   0.276   4.074   3.799  0.4394 -0.9672  0.3577
 7585SOL    HW234389   0.373   4.027   3.903  2.3276 -3.1645 -0.5262
 7586SOL     OW34390   3.087   0.659   6.740 -0.6604  0.9994 -0.1400
 7586SOL    HW134391   3.022   0.628   6.803 -0.0185 -0.8530 -0.4045
 7586SOL    HW234392   3.063   0.752   6.737 -1.0419  0.9293  0.6364
 7587SOL     OW34393   4.389   3.006   2.473 -0.0610 -0.3037 -0.1420
 7587SOL    HW134394   4.375   3.074   2.539 -0.3936  1.3897 -1.9269
 7587SOL    HW234395   4.484   2.996   2.479 -0.2477 -1.1202  1.1939
 7588SOL     OW34396   2.341   4.374   9.354 -0.1738 -0.2925 -0.2795
 7588SOL    HW134397   2.300   4.396   9.438  4.2771  2.6452  1.0722
 7588SOL    HW234398   2.268   4.334   9.306 -0.4739  0.2199 -0.2534
 7589SOL     OW34399   0.288   3.829   2.188  0.6661  0.2579  0.0497
 7589SOL    HW134400   0.318   3.752   2.236  1.1781  0.0471 -0.6061
 7589SOL    HW234401   0.354   3.840   2.119 -0.9161 -0.5498 -1.5950
 7590SOL     OW34402   1.317   3.893  11.864 -0.7300 -0.1301 -0.6381
 7590SOL    HW134403   1.392   3.951  11.878  0.1053 -1.0630 -1.2473
 7590SOL    HW234404   1.244   3.954  11.867 -0.3556  0.1832  2.1447
 7591SOL     OW34405   0.757   1.247   9.753  0.3503 -0.0006 -0.4452
 7591SOL    HW134406   0.672   1.243   9.797  1.1206 -1.1507  0.9260
 7591SOL    HW234407   0.736   1.231   9.661  2.5950 -2.3337 -0.5489
 7592SOL     OW34408   0.147   3.504   0.210  0.4947 -0.5366 -0.0351
 7592SOL    HW134409   0.166   3.593   0.241 -0.0300 -0.3860 -0.1424
 7592SOL    HW234410   0.113   3.526   0.124 -0.0688 -0.3982  0.2217
 7593SOL     OW34411   0.714   3.145   4.421  0.3364  0.1552 -0.1136
 7593SOL    HW134412   0.655   3.185   4.485  1.3377  0.1193  0.8337
 7593SOL    HW234413   0.648   3.105   4.365  1.4837  1.5919 -2.4621
 7594SOL     OW34414   0.191   0.173  14.983 -0.1768  0.1231  0.6933
 7594SOL    HW134415   0.132   0.207  14.916  0.8988 -0.0581 -0.3349
 7594SOL    HW234416   0.258   0.122  14.937  1.1757  3.0603 -0.6105
 7595SOL     OW34417   3.586   3.263   5.091 -0.0906  0.1613  0.0860
 7595SOL    HW134418   3.520   3.311   5.140 -2.0782 -1.8296 -0.6045
 7595SOL    HW234419   3.549   3.175   5.083 -0.1758  0.1973  0.0855
 7596SOL     OW34420   3.948   3.397  17.537  1.0453 -0.0544  0.1726
 7596SOL    HW134421   3.858   3.363  17.540  1.3882 -1.0233 -0.5155
 7596SOL    HW234422   3.994   3.316  17.560 -0.3390 -1.0932 -0.7073
 7597SOL     OW34423   1.216   2.309   4.446  0.1141 -0.2419  0.0016
 7597SOL    HW134424   1.155   2.247   4.407 -1.5833  0.5171  1.5046
 7597SOL    HW234425   1.157   2.373   4.484  0.8756 -0.2221  1.1517
 7598SOL     OW34426   2.830   4.026   3.277  0.4065 -0.3004 -0.1159
 7598SOL    HW134427   2.736   4.046   3.282  0.9103  1.5543  2.0977
 7598SOL    HW234428   2.821   3.931   3.268  1.7989 -0.3558 -0.9657
 7599SOL     OW34429   0.301   2.883   4.117 -0.2903 -0.0054 -0.5302
 7599SOL    HW134430   0.395   2.883   4.098  0.0075 -0.3084  0.9566
 7599SOL    HW234431   0.261   2.938   4.049 -3.2034 -1.5607 -0.0909
 7600SOL     OW34432   1.887   4.499  11.427 -0.2256  0.3966 -0.2171
 7600SOL    HW134433   1.965   4.452  11.455 -0.1829  1.7049  1.8818
 7600SOL    HW234434   1.884   4.551  11.507 -0.0051  2.4050 -1.5053
 7601SOL     OW34435   2.892   3.223   8.709  0.2705 -0.7779  0.0792
 7601SOL    HW134436   2.853   3.144   8.672 -2.0980  0.6053 -0.4297
 7601SOL    HW234437   2.838   3.234   8.787 -2.5174  1.2463 -2.0904
 7602SOL     OW34438   1.015   2.558   5.177 -0.1368 -0.3741 -0.0822
 7602SOL    HW134439   0.998   2.593   5.089 -0.9825  0.1604  0.2986
 7602SOL    HW234440   1.082   2.491   5.166  0.1072 -0.1761  0.2201
 7603SOL     OW34441   3.895   0.542   7.126 -0.7616 -0.4953 -0.8146
 7603SOL    HW134442   3.806   0.563   7.098 -0.0152  1.1510 -1.9003
 7603SOL    HW234443   3.914   0.477   7.059  1.2517  0.8468 -1.5409
 7604SOL     OW34444   0.479   1.519   5.129  0.4719  0.0834  0.2459
 7604SOL    HW134445   0.414   1.525   5.199 -0.0413 -0.3608 -0.1821
 7604SOL    HW234446   0.542   1.587   5.151  0.2685  0.7500 -1.2490
 7605SOL     OW34447   0.658   1.691   2.954  0.1706  0.3577 -0.0797
 7605SOL    HW134448   0.687   1.622   3.014  0.0371  0.2744 -0.1128
 7605SOL    HW234449   0.589   1.644   2.907 -0.1114  0.8235 -0.1268
 7606SOL     OW34450   2.861   0.563   8.327 -0.9325 -0.3106  0.4989
 7606SOL    HW134451   2.813   0.624   8.271  0.7242 -0.4893 -1.1174
 7606SOL    HW234452   2.824   0.575   8.414  0.4992 -0.1000  1.0728
 7607SOL     OW34453   1.636   1.248  13.258 -0.2607 -0.2151 -0.1649
 7607SOL    HW134454   1.702   1.300  13.303 -0.4094  0.2493 -0.4852
 7607SOL    HW234455   1.673   1.250  13.170  0.6628 -3.6954  0.1308
 7608SOL     OW34456   4.396   1.850  15.111 -0.7280  0.7931 -0.5614
 7608SOL    HW134457   4.361   1.766  15.084  1.1506  0.2754 -1.3901
 7608SOL    HW234458   4.320   1.906  15.097  0.7754  2.6211 -1.4847
 7609SOL     OW34459   1.454   2.811  12.592 -0.4799 -0.2372  1.0770
 7609SOL    HW134460   1.537   2.821  12.545 -1.2668  2.2546  0.2399
 7609SOL    HW234461   1.405   2.751  12.535 -1.1462  3.6252 -2.3669
 7610SOL     OW34462   3.094   4.039   2.319 -0.5234 -0.2602  0.2453
 7610SOL    HW134463   3.041   4.062   2.396 -2.1056 -1.2119 -0.5545
 7610SOL    HW234464   3.158   3.990   2.371 -0.3384  0.7201  0.9441
 7611SOL     OW34465   2.644   3.499   6.789  0.4375  0.1242 -0.1769
 7611SOL    HW134466   2.555   3.529   6.809  0.3581  0.2311 -0.6748
 7611SOL    HW234467   2.658   3.438   6.861 -0.4964 -1.6068 -1.4608
 7612SOL     OW34468   2.315   1.978   8.666  0.5671  0.1124 -0.0892
 7612SOL    HW134469   2.315   1.889   8.701 -2.2807  1.0809  2.3629
 7612SOL    HW234470   2.410   1.979   8.651  0.7479  0.3706  1.0589
 7613SOL     OW34471   2.231   1.290   8.585 -0.0382 -0.0898 -0.2972
 7613SOL    HW134472   2.217   1.375   8.627  0.1054 -0.1439 -0.1446
 7613SOL    HW234473   2.204   1.317   8.497  0.0231  1.9335  0.3128
 7614SOL     OW34474   1.701   4.364   2.286  0.9458  0.3348  0.5928
 7614SOL    HW134475   1.659   4.431   2.233  0.0118 -1.2394 -0.6579
 7614SOL    HW234476   1.629   4.344   2.346 -1.1744 -0.5413 -2.2675
 7615SOL     OW34477   1.192   1.098   4.737  0.0350  0.5460  0.6275
 7615SOL    HW134478   1.142   1.042   4.797  0.0744 -1.0501 -0.8186
 7615SOL    HW234479   1.182   1.050   4.655  0.0174 -0.6998  1.3467
 7616SOL     OW34480   0.821   1.095  15.002  0.0438  0.0155 -0.0229
 7616SOL    HW134481   0.780   1.021  15.048 -1.1239  2.5620  3.0313
 7616SOL    HW234482   0.886   1.125  15.064 -0.0105  0.2860 -0.0989
 7617SOL     OW34483   2.096   0.488   7.197  0.8873  0.5635 -0.0272
 7617SOL    HW134484   2.005   0.516   7.193  0.0954 -1.6776  2.0765
 7617SOL    HW234485   2.119   0.528   7.280 -0.9460  1.7284 -0.0766
 7618SOL     OW34486   0.617   2.835   0.690 -0.2777  0.4337  0.6965
 7618SOL    HW134487   0.537   2.885   0.704  0.7062  2.2960 -0.4272
 7618SOL    HW234488   0.583   2.753   0.655 -0.1957  1.5900 -2.0579
 7619SOL     OW34489   4.421   0.090   6.539  0.0413  0.2039 -0.3436
 7619SOL    HW134490   4.455   0.160   6.595 -1.2417 -1.8985  3.0153
 7619SOL    HW234491   4.424   0.136   6.455  0.1900  0.0422 -0.4278
 7620SOL     OW34492   3.267   3.254   5.068 -0.1655 -0.3779  0.1268
 7620SOL    HW134493   3.185   3.206   5.079 -0.4302  0.2728  0.9684
 7620SOL    HW234494   3.258   3.328   5.127  3.3341  0.1708 -0.0233
 7621SOL     OW34495   2.738   2.423   0.461 -0.2544 -0.0062  0.1772
 7621SOL    HW134496   2.813   2.475   0.489 -0.2238  0.6299 -1.0818
 7621SOL    HW234497   2.695   2.449   0.542  2.0704  1.4609  0.9505
 7622SOL     OW34498   2.021   0.909   7.537  0.0655  0.2445 -0.2963
 7622SOL    HW134499   2.073   0.973   7.584 -0.0378  0.4844 -0.5092
 7622SOL    HW234500   1.931   0.928   7.563 -0.1157  1.7745 -2.0535
 7623SOL     OW34501   3.276   2.807   1.659  0.2053  0.0322 -0.0094
 7623SOL    HW134502   3.355   2.762   1.628  0.6395 -0.0400  1.1994
 7623SOL    HW234503   3.213   2.743   1.625 -0.4603  0.3711  0.5696
 7624SOL     OW34504   0.611   3.538  15.023  0.5075 -0.4977  0.3400
 7624SOL    HW134505   0.636   3.508  14.936 -1.2529 -0.3323 -0.2361
 7624SOL    HW234506   0.602   3.632  15.007  0.4396 -0.5352  0.1619
 7625SOL     OW34507   1.526   3.643   2.831  0.2110 -0.4390 -0.4512
 7625SOL    HW134508   1.452   3.702   2.816 -0.9376 -1.9198 -0.6497
 7625SOL    HW234509   1.568   3.646   2.745 -0.1443  3.0888 -0.5349
 7626SOL     OW34510   1.562   1.454   9.967 -0.2693 -0.5150  0.7224
 7626SOL    HW134511   1.563   1.549   9.974  0.4201 -0.3010 -2.1462
 7626SOL    HW234512   1.599   1.420  10.048 -1.0673 -0.5076  1.0912
 7627SOL     OW34513   0.226   0.837  13.349  0.4813 -0.2693 -0.1794
 7627SOL    HW134514   0.295   0.883  13.395 -1.0171  0.7426  1.0666
 7627SOL    HW234515   0.259   0.747  13.353  0.3604 -0.3166 -0.2377
 7628SOL     OW34516   1.627   3.656   7.547 -0.1073  0.0355  0.0349
 7628SOL    HW134517   1.612   3.567   7.578  0.4457 -0.0050  0.1751
 7628SOL    HW234518   1.671   3.696   7.622 -0.6665  0.8319 -0.0551
 7629SOL     OW34519   3.211   2.909   0.220 -0.3773 -0.5014  0.4573
 7629SOL    HW134520   3.296   2.950   0.210 -1.4912  1.7998  0.3722
 7629SOL    HW234521   3.229   2.874   0.307  0.5780 -0.0733  0.4285
 7630SOL     OW34522   0.839   0.230   2.280  0.2243  0.4316  0.0262
 7630SOL    HW134523   0.763   0.257   2.331 -0.1651  0.2404 -0.4640
 7630SOL    HW234524   0.856   0.145   2.321  2.4372  1.2646  0.8354
 7631SOL     OW34525   2.433   3.425   6.407 -0.5523  0.3699  0.1760
 7631SOL    HW134526   2.525   3.434   6.433 -0.0250 -3.0251 -0.5965
 7631SOL    HW234527   2.415   3.501   6.351  3.9396  0.2396 -1.4200
 7632SOL     OW34528   2.202   1.132   6.018  0.3897  0.0260 -0.1348
 7632SOL    HW134529   2.158   1.197   5.963 -0.0998  0.2646  0.5334
 7632SOL    HW234530   2.204   1.061   5.954 -0.8073 -1.3782  1.3880
 7633SOL     OW34531   1.720   0.207   9.259  0.1707  0.1335  0.5548
 7633SOL    HW134532   1.716   0.117   9.292  0.6217  0.3004  1.0701
 7633SOL    HW234533   1.770   0.260   9.321 -2.9424  0.0128  3.1604
 7634SOL     OW34534   2.391   3.957   9.098  0.3410 -0.5272 -0.1715
 7634SOL    HW134535   2.421   4.029   9.043 -3.7454  0.7129 -0.8125
 7634SOL    HW234536   2.433   3.994   9.176 -2.3253  1.2980  0.3874
 7635SOL     OW34537   1.038   1.043  15.242 -0.4358  0.6193 -0.0169
 7635SOL    HW134538   1.074   1.010  15.324 -0.9391  0.9708  0.3493
 7635SOL    HW234539   0.959   1.077  15.286 -1.3363 -0.8607 -0.4981
 7636SOL     OW34540   0.618   2.351   3.661  0.1322  0.0470 -0.0267
 7636SOL    HW134541   0.671   2.345   3.582  1.1807 -0.1584  0.7015
 7636SOL    HW234542   0.626   2.260   3.688 -3.3925 -0.3228 -0.1469
 7637SOL     OW34543   3.826   3.833  14.040  0.1476  0.4105 -0.4691
 7637SOL    HW134544   3.763   3.860  13.973  0.4530 -1.6582 -1.6080
 7637SOL    HW234545   3.911   3.861  14.008  0.0789  0.4045 -0.6569
 7638SOL     OW34546   3.794   2.102   2.936 -0.2424  0.1218  0.3072
 7638SOL    HW134547   3.748   2.062   3.010 -1.0644  0.9769  0.2587
 7638SOL    HW234548   3.763   2.192   2.931 -1.2710 -0.3233 -1.0078
 7639SOL     OW34549   0.390   1.878   2.182  0.2211 -0.2250 -0.0446
 7639SOL    HW134550   0.407   1.795   2.228 -2.3899 -1.3858 -1.2010
 7639SOL    HW234551   0.341   1.930   2.246  2.2296  1.9407 -0.2728
 7640SOL     OW34552   1.643   3.138  12.512  0.4328  0.2822 -0.3421
 7640SOL    HW134553   1.633   3.156  12.605  0.4713 -1.2964 -0.0310
 7640SOL    HW234554   1.675   3.048  12.521 -0.9924 -0.5290 -3.2653
 7641SOL     OW34555   0.813   1.159   0.191 -0.0458 -0.3254  0.0686
 7641SOL    HW134556   0.719   1.178   0.191 -0.0517 -0.3549 -1.6083
 7641SOL    HW234557   0.847   1.248   0.191 -0.0435 -0.3294 -1.5049
 7642SOL     OW34558   4.717   1.666   4.904 -0.2812  0.0884 -0.0043
 7642SOL    HW134559   4.671   1.741   4.866 -1.7839 -1.4066 -1.1516
 7642SOL    HW234560   0.062   1.665   4.853 -0.9023  0.9321 -1.0251
 7643SOL     OW34561   0.013   3.983   7.872 -0.5335 -0.2251  0.0739
 7643SOL    HW134562   0.042   4.008   7.785 -1.6978 -1.2540 -0.6151
 7643SOL    HW234563   0.006   3.888   7.865 -1.2547 -0.0773 -1.0848
 7644SOL     OW34564   3.867   4.130   8.320  0.2511 -0.3586  0.2990
 7644SOL    HW134565   3.869   4.064   8.390  0.0818 -0.0517  0.5898
 7644SOL    HW234566   3.953   4.168   8.301  0.1519 -0.9042 -1.1943
 7645SOL     OW34567   0.635   0.679   7.361  0.1446 -0.1405  0.4961
 7645SOL    HW134568   0.576   0.751   7.385  0.2422 -0.4045  1.5563
 7645SOL    HW234569   0.599   0.614   7.422 -2.3469  0.6494 -0.1227
 7646SOL     OW34570   0.378   0.068   9.163 -0.1519 -0.3084 -0.3713
 7646SOL    HW134571   0.362   4.718   9.125 -1.2639  0.5967 -1.9256
 7646SOL    HW234572   0.378   0.117   9.081  2.8579  0.0993 -0.1318
 7647SOL     OW34573   1.236   4.617   5.435  0.2012  0.0759 -0.5353
 7647SOL    HW134574   1.207   4.653   5.351 -1.3352  1.0355  0.4024
 7647SOL    HW234575   1.235   4.701   5.481  2.8858 -0.5474  0.6760
 7648SOL     OW34576   1.185   3.530  17.386 -0.1355  0.0327  0.6371
 7648SOL    HW134577   1.132   3.606  17.362  0.5378  0.3573  0.1920
 7648SOL    HW234578   1.198   3.479  17.306 -0.4661  0.6449  0.2002
 7649SOL     OW34579   3.523   3.934   9.500  0.0230 -0.2119 -0.4584
 7649SOL    HW134580   3.462   3.860   9.510  1.9362 -1.8279 -0.8367
 7649SOL    HW234581   3.476   4.002   9.548  1.8624  0.9820 -0.3885
 7650SOL     OW34582   1.132   0.484   8.676  0.2794  0.0940  0.4935
 7650SOL    HW134583   1.124   0.565   8.727  0.8984  0.9040 -0.7050
 7650SOL    HW234584   1.167   0.514   8.592 -1.6744 -1.7594 -0.9474
 7651SOL     OW34585   3.286   0.683   9.951  0.3030  0.5372  0.2657
 7651SOL    HW134586   3.328   0.609   9.994 -1.0917  0.5996  1.7631
 7651SOL    HW234587   3.231   0.708  10.025 -0.1797  0.1100  0.0523
 7652SOL     OW34588   3.200   3.273   4.456  0.4181 -0.4730 -0.0245
 7652SOL    HW134589   3.171   3.255   4.367  3.7201 -1.8373 -0.7848
 7652SOL    HW234590   3.253   3.194   4.466  2.2734  0.8905  0.8983
 7653SOL     OW34591   2.613   3.245   3.132  0.1885  0.2170 -1.0188
 7653SOL    HW134592   2.563   3.192   3.070  0.5075 -2.2107  0.7535
 7653SOL    HW234593   2.696   3.245   3.085  0.2380 -0.2489 -0.9399
 7654SOL     OW34594   0.401   1.992   6.260  0.3592 -0.2944  0.3213
 7654SOL    HW134595   0.331   2.047   6.225  1.7624  0.2556 -1.5908
 7654SOL    HW234596   0.392   1.909   6.213  1.8888 -0.0161 -0.4534
 7655SOL     OW34597   2.697   2.631  17.466 -0.3051 -0.2706  0.2926
 7655SOL    HW134598   2.662   2.656  17.380  0.6007  1.4149  0.3942
 7655SOL    HW234599   2.750   2.710  17.480 -2.2494  1.1862 -0.6207
 7656SOL     OW34600   4.057   0.206   4.280  0.0459 -0.5645  0.2384
 7656SOL    HW134601   4.152   0.196   4.275  0.1269  0.1102  0.3560
 7656SOL    HW234602   4.049   0.241   4.369  0.8316  2.5093 -0.8916
 7657SOL     OW34603   2.177   0.987   2.604 -0.2566 -0.1526  0.3549
 7657SOL    HW134604   2.269   0.963   2.617 -0.4534 -1.6659 -1.0338
 7657SOL    HW234605   2.160   0.967   2.512 -0.3035 -0.9953  0.5468
 7658SOL     OW34606   2.271   3.269  14.994 -0.0834 -0.4483 -0.0206
 7658SOL    HW134607   2.239   3.348  15.039  2.4594  0.6504 -0.1431
 7658SOL    HW234608   2.215   3.275  14.916 -1.7940 -3.6954  0.9552
 7659SOL     OW34609   3.856   2.829   6.373 -0.2731 -0.3662 -0.1259
 7659SOL    HW134610   3.884   2.800   6.287 -1.3880  0.6396 -0.8194
 7659SOL    HW234611   3.903   2.911   6.384 -2.6782  0.9174  0.6730
 7660SOL     OW34612   2.860   0.462  16.073  0.7320 -0.5022 -0.3284
 7660SOL    HW134613   2.942   0.504  16.047  0.7535 -0.4143 -0.1208
 7660SOL    HW234614   2.867   0.490  16.164  1.2849 -1.1397 -0.1734
 7661SOL     OW34615   2.431   4.182   8.408 -0.0120 -0.0795 -0.0612
 7661SOL    HW134616   2.352   4.169   8.460 -0.2839  2.6465  0.2140
 7661SOL    HW234617   2.392   4.196   8.321 -3.7958 -0.0407  1.6274
 7662SOL     OW34618   3.173   0.515   5.852  0.1934  0.1739 -0.3826
 7662SOL    HW134619   3.136   0.595   5.889  0.6502  0.2149 -0.0228
 7662SOL    HW234620   3.092   0.493   5.806  0.2190 -0.8774  0.0763
 7663SOL     OW34621   2.366   3.929   1.232 -0.0281 -0.0393  0.0596
 7663SOL    HW134622   2.405   3.852   1.191 -2.2221 -0.6095 -0.9203
 7663SOL    HW234623   2.414   3.997   1.185  0.7881 -0.4161  0.3503
 7664SOL     OW34624   3.888   3.868   7.745  0.0458 -0.2721  0.0179
 7664SOL    HW134625   3.793   3.856   7.753  0.1824 -0.9111  0.6865
 7664SOL    HW234626   3.917   3.778   7.731  0.4692 -0.2472  0.7438
 7665SOL     OW34627   0.593   0.724  15.630 -0.6385 -0.3585  0.0962
 7665SOL    HW134628   0.623   0.646  15.677 -0.3793 -0.5499 -0.3884
 7665SOL    HW234629   0.679   0.766  15.620 -0.0458 -1.2378  1.4812
 7666SOL     OW34630   4.603   1.163   0.797 -0.5383  0.0497 -0.0511
 7666SOL    HW134631   4.675   1.159   0.860  1.0932  2.3650 -1.7428
 7666SOL    HW234632   4.650   1.200   0.722 -0.5640 -0.4813 -0.3266
 7667SOL     OW34633   2.924   3.366   2.414  0.2179 -0.0179  0.1017
 7667SOL    HW134634   2.889   3.343   2.500  0.3082  1.3542  0.5037
 7667SOL    HW234635   2.851   3.418   2.379  0.1758  0.0603  0.3085
 7668SOL     OW34636   0.378   3.480  16.542  0.3818 -0.2946 -0.4063
 7668SOL    HW134637   0.428   3.465  16.462  0.0069  1.4188 -0.9623
 7668SOL    HW234638   0.314   3.548  16.522  0.9886  0.6025  0.7169
 7669SOL     OW34639   3.549   3.465   8.108 -0.0959 -0.9011  0.3783
 7669SOL    HW134640   3.488   3.505   8.170 -0.8669  1.2495 -1.7240
 7669SOL    HW234641   3.504   3.386   8.079  0.3953 -0.2520 -2.2111
 7670SOL     OW34642   0.444   0.637   6.925  0.2823  0.4255 -0.0390
 7670SOL    HW134643   0.375   0.621   6.860  0.4296 -0.1135 -0.0617
 7670SOL    HW234644   0.451   0.551   6.968  0.2381  1.1364  1.3754
 7671SOL     OW34645   1.201   3.511   2.857 -0.0236 -0.2631  0.0869
 7671SOL    HW134646   1.155   3.535   2.776  2.1499  3.3888 -0.0508
 7671SOL    HW234647   1.229   3.594   2.895  0.0678  0.2498 -1.0873
 7672SOL     OW34648   0.485   1.808   6.858  0.2286  0.5090  0.1698
 7672SOL    HW134649   0.465   1.869   6.929 -2.1178 -0.6766  0.5066
 7672SOL    HW234650   0.517   1.733   6.907 -1.6033 -2.4655 -3.1542
 7673SOL     OW34651   2.302   1.381  17.353  0.2975  0.2281 -0.2139
 7673SOL    HW134652   2.321   1.339  17.437  1.9675  0.3861 -0.5156
 7673SOL    HW234653   2.244   1.453  17.379 -2.2583 -2.3026  1.1141
 7674SOL     OW34654   3.850   2.434  14.251  0.1049  0.1349 -0.5914
 7674SOL    HW134655   3.846   2.501  14.319  0.6280 -0.3612 -0.0748
 7674SOL    HW234656   3.827   2.493  14.178  1.3370  1.6821  0.2829
 7675SOL     OW34657   0.020   3.152   3.324 -0.5546 -0.1775  0.6159
 7675SOL    HW134658   0.101   3.172   3.371 -0.7986  1.8628  0.1566
 7675SOL    HW234659   4.726   3.243   3.331  2.4323  0.7758  1.0950
 7676SOL     OW34660   0.195   0.097   5.863  0.2121 -0.6011  0.0314
 7676SOL    HW134661   0.120   0.155   5.851  1.1118  0.3191 -1.1168
 7676SOL    HW234662   0.261   0.165   5.857  0.0856 -0.4164  0.8525
 7677SOL     OW34663   0.280   2.197   5.331  0.2004  0.0556 -0.0550
 7677SOL    HW134664   0.198   2.245   5.315 -0.5437 -0.6525  1.6099
 7677SOL    HW234665   0.297   2.242   5.413  0.6827  1.3916 -0.8970
 7678SOL     OW34666   3.795   4.299   9.239 -0.5189 -0.7644 -0.1285
 7678SOL    HW134667   3.735   4.250   9.295 -1.5079  1.3892  0.7176
 7678SOL    HW234668   3.769   4.276   9.150 -1.9677 -0.1385  0.1237
 7679SOL     OW34669   0.383   3.427  17.076  0.4477  0.0567  0.2185
 7679SOL    HW134670   0.428   3.347  17.049  0.6445  0.7773 -1.6369
 7679SOL    HW234671   0.372   3.464  16.988 -0.9898  1.5667  1.0288
 7680SOL     OW34672   2.130   0.100   6.363 -0.2909 -0.6910 -0.7519
 7680SOL    HW134673   2.137   0.008   6.390  1.6668  0.4327  2.5925
 7680SOL    HW234674   2.040   0.105   6.332 -0.6289 -1.5006  0.0987
 7681SOL     OW34675   1.191   3.979   5.148 -0.2563 -0.0682  0.8129
 7681SOL    HW134676   1.278   4.002   5.114 -0.1249 -0.8143  0.6534
 7681SOL    HW234677   1.140   4.048   5.106 -1.1632 -1.0622  0.3132
 7682SOL     OW34678   1.193   0.904   5.619  0.5366 -0.3664 -0.3265
 7682SOL    HW134679   1.141   0.861   5.687  1.2512  0.3302  0.6596
 7682SOL    HW234680   1.168   0.997   5.627 -1.2157 -0.5587 -3.6953
 7683SOL     OW34681   3.069   3.454   6.814  0.6724 -0.3243  0.1213
 7683SOL    HW134682   3.047   3.475   6.904  0.6192  1.8867 -0.4205
 7683SOL    HW234683   3.085   3.359   6.816 -1.1907 -0.6733 -1.0754
 7684SOL     OW34684   4.367   4.181   6.229  0.4554  0.0195  0.0315
 7684SOL    HW134685   4.336   4.270   6.245 -1.6082 -0.7837  0.5013
 7684SOL    HW234686   4.282   4.144   6.208 -0.1158  1.8195 -0.7724
 7685SOL     OW34687   0.689   0.744   2.886  0.2012  0.5942 -0.1974
 7685SOL    HW134688   0.656   0.810   2.825 -0.4755  2.0196  1.7247
 7685SOL    HW234689   0.780   0.774   2.895  0.9772 -1.7983  0.0361
 7686SOL     OW34690   4.590   4.380   3.855  0.0503 -0.7803  0.5021
 7686SOL    HW134691   4.613   4.385   3.762  0.5549 -0.3681  0.6484
 7686SOL    HW234692   4.597   4.470   3.886 -1.2236  0.4735 -2.7865
 7687SOL     OW34693   2.083   3.953   2.229 -0.1920  0.5327 -0.1473
 7687SOL    HW134694   2.023   3.958   2.303 -1.7069  3.3347 -1.5514
 7687SOL    HW234695   2.093   3.858   2.231  0.2503  0.6282  1.6155
 7688SOL     OW34696   3.337   2.021  11.615  0.3949  0.5508  0.4066
 7688SOL    HW134697   3.355   2.113  11.599  0.0447  0.6641  0.6719
 7688SOL    HW234698   3.257   2.015  11.563  0.3575  0.6786  0.4500
 7689SOL     OW34699   3.698   0.770   7.438 -0.2312 -0.2655  0.2880
 7689SOL    HW134700   3.793   0.765   7.423 -0.1428 -1.0601  1.0871
 7689SOL    HW234701   3.690   0.865   7.437  3.1313  0.0338  1.2465
 7690SOL     OW34702   1.622   4.632   0.880  0.3303 -0.1492 -0.4934
 7690SOL    HW134703   1.610   4.541   0.850  0.6507 -0.1799 -0.5242
 7690SOL    HW234704   1.717   4.633   0.893  0.7664 -0.4846 -3.5430
 7691SOL     OW34705   1.771   2.868   7.743  0.1174  0.3159 -0.1057
 7691SOL    HW134706   1.850   2.922   7.731  1.3904 -1.0885  1.8671
 7691SOL    HW234707   1.809   2.790   7.783 -0.4602 -0.5977 -1.3686
 7692SOL     OW34708   3.625   2.353  11.880  0.4239 -0.4890  0.0835
 7692SOL    HW134709   3.659   2.387  11.796 -0.6937  0.5067  0.0317
 7692SOL    HW234710   3.623   2.425  11.942 -0.4758  0.0036 -0.5088
 7693SOL     OW34711   4.486   1.621  10.452 -0.6297 -0.1941  0.0692
 7693SOL    HW134712   4.479   1.578  10.537  0.3423  0.3535  0.4327
 7693SOL    HW234713   4.473   1.543  10.397  2.3702 -0.7327  0.0947
 7694SOL     OW34714   2.371   4.155   7.745  0.5179 -0.2295  0.3730
 7694SOL    HW134715   2.390   4.090   7.812  2.2187 -0.8305 -0.6879
 7694SOL    HW234716   2.428   4.120   7.677 -0.2291  0.7079 -0.7488
 7695SOL     OW34717   3.135   4.663   7.066  0.1577  0.4080 -0.3097
 7695SOL    HW134718   3.131   4.657   6.971 -2.4517  2.9233 -0.3521
 7695SOL    HW234719   3.184   4.581   7.076 -0.7679 -0.2466 -1.1246
 7696SOL     OW34720   0.308   3.697   3.516  0.0975  0.2978  0.2143
 7696SOL    HW134721   0.330   3.724   3.427 -2.3371 -2.3939 -1.2168
 7696SOL    HW234722   0.269   3.612   3.494 -1.8851  1.5410 -1.1430
 7697SOL     OW34723   4.203   4.205   3.430  0.1246  0.3532  0.2472
 7697SOL    HW134724   4.147   4.144   3.479 -0.1116  0.2896 -0.1006
 7697SOL    HW234725   4.145   4.261   3.378  2.4864  0.0225 -2.7566
 7698SOL     OW34726   2.729   2.602   1.170  0.1504 -0.2834 -0.8453
 7698SOL    HW134727   2.824   2.604   1.184  0.1235  0.2918 -0.7361
 7698SOL    HW234728   2.723   2.698   1.172  2.0426 -0.1752  0.2383
 7699SOL     OW34729   3.285   3.517  12.600  0.4300  0.4044  0.1448
 7699SOL    HW134730   3.197   3.497  12.567  0.6750  0.5117 -0.5558
 7699SOL    HW234731   3.340   3.527  12.523  0.7392 -1.3837  0.1171
 7700SOL     OW34732   3.208   2.803   3.760  0.1975  0.2756 -0.7886
 7700SOL    HW134733   3.245   2.739   3.699  0.3974 -0.2914 -0.0675
 7700SOL    HW234734   3.174   2.749   3.831  0.0487  0.4035 -0.7621
 7701SOL     OW34735   1.865   2.616   2.448 -0.6348  0.0667 -0.1162
 7701SOL    HW134736   1.898   2.686   2.506 -0.3199  1.7274 -2.2826
 7701SOL    HW234737   1.899   2.542   2.499 -0.8855 -0.2014 -0.3405
 7702SOL     OW34738   2.913   2.995   2.482  0.3518  0.0461  0.0641
 7702SOL    HW134739   2.959   2.921   2.522  2.3233  0.6138 -1.1451
 7702SOL    HW234740   2.963   3.063   2.528 -0.5293  0.5493  0.2750
 7703SOL     OW34741   0.264   2.320   3.851  0.5685 -0.2833 -0.2020
 7703SOL    HW134742   0.179   2.280   3.835 -0.3989  1.0447  1.6106
 7703SOL    HW234743   0.265   2.321   3.946 -2.1355 -2.2968 -0.1638
 7704SOL     OW34744   3.502   3.220   8.481 -0.0823  0.4311  0.0830
 7704SOL    HW134745   3.432   3.254   8.536  0.7141 -0.0572  1.4099
 7704SOL    HW234746   3.494   3.128   8.508  2.5155 -0.3997 -2.0298
 7705SOL     OW34747   1.980   1.676  11.914  0.0191 -0.5674 -0.0760
 7705SOL    HW134748   1.912   1.740  11.892  1.6952  1.0273 -0.5595
 7705SOL    HW234749   2.064   1.720  11.912  1.3684 -3.1215  0.1485
 7706SOL     OW34750   3.843   2.211   1.356  0.3032  0.0848 -0.0675
 7706SOL    HW134751   3.751   2.184   1.358  0.1157  0.8676  1.6758
 7706SOL    HW234752   3.878   2.127   1.388  1.9439 -0.4601 -3.2614
 7707SOL     OW34753   0.495   0.189   4.438  0.3297  0.2920  0.1114
 7707SOL    HW134754   0.564   0.225   4.493  0.2240  0.3260  0.2234
 7707SOL    HW234755   0.448   0.262   4.397  0.2783  0.7959  1.0684
 7708SOL     OW34756   2.362   3.593   3.209 -0.3077 -0.5698 -0.4089
 7708SOL    HW134757   2.420   3.586   3.134  0.2805 -3.5879  0.3226
 7708SOL    HW234758   2.289   3.643   3.171 -0.7901 -0.7237  0.3151
 7709SOL     OW34759   3.020   0.220   2.068  0.4315  0.3297  0.4192
 7709SOL    HW134760   3.112   0.204   2.047  0.6845 -0.0853  1.8315
 7709SOL    HW234761   2.991   0.190   1.982 -2.9364  1.5551  1.1183
 7710SOL     OW34762   1.162   0.524  15.359  0.0514 -0.0692 -0.1275
 7710SOL    HW134763   1.189   0.514  15.268  1.9389  0.8612  0.3208
 7710SOL    HW234764   1.246   0.533  15.404 -0.3008  1.5918  0.2016
 7711SOL     OW34765   1.422   3.912  12.239  0.0400  0.2932 -0.3992
 7711SOL    HW134766   1.347   3.852  12.236  0.6196 -0.4000 -0.9432
 7711SOL    HW234767   1.480   3.867  12.178  0.5742  1.1556 -0.5312
 7712SOL     OW34768   4.145   0.600   3.854 -0.6683  0.3801 -0.1000
 7712SOL    HW134769   4.208   0.559   3.794  0.2317 -0.8412  1.6541
 7712SOL    HW234770   4.061   0.574   3.818 -0.3261 -0.4073 -0.3326
 7713SOL     OW34771   2.831   1.334   4.900  0.0620  0.1712  0.2582
 7713SOL    HW134772   2.874   1.355   4.818 -1.3789 -1.1797 -0.8472
 7713SOL    HW234773   2.760   1.399   4.910  0.3686  0.7216 -1.1577
 7714SOL     OW34774   1.199   0.944   3.070  0.0732  0.8849 -0.3763
 7714SOL    HW134775   1.237   0.914   3.152 -0.3966  4.2651  1.1043
 7714SOL    HW234776   1.242   0.883   3.010 -1.8458 -1.0381  0.2054
 7715SOL     OW34777   1.432   0.525   2.621  0.7673 -0.1535 -0.1744
 7715SOL    HW134778   1.360   0.565   2.669  1.0479  0.0653  0.0695
 7715SOL    HW234779   1.470   0.473   2.692  1.7003 -1.6776 -1.7815
 7716SOL     OW34780   3.081   2.601   5.043  0.0748 -0.0322 -0.1527
 7716SOL    HW134781   3.160   2.624   5.092 -1.2161  0.3040  1.7473
 7716SOL    HW234782   3.110   2.541   4.974  0.6748  1.4250 -1.1561
 7717SOL     OW34783   3.464   4.106   4.270 -0.4919 -0.0003 -0.2445
 7717SOL    HW134784   3.433   4.135   4.184  3.0841  0.7855 -1.2482
 7717SOL    HW234785   3.519   4.031   4.247  2.3951  1.8441  0.7058
 7718SOL     OW34786   4.203   1.446   5.303  0.1576  0.3088 -0.6553
 7718SOL    HW134787   4.137   1.472   5.368  0.3988 -0.0014 -0.2888
 7718SOL    HW234788   4.278   1.469   5.357  1.0242 -0.9839 -1.3026
 7719SOL     OW34789   0.650   3.130  12.576 -0.4921 -0.1733  0.1018
 7719SOL    HW134790   0.580   3.196  12.584 -1.3465 -0.8714 -1.5837
 7719SOL    HW234791   0.604   3.062  12.528  0.8862 -0.9549 -0.0955
 7720SOL     OW34792   1.220   0.188   5.530 -0.0011  0.5066 -0.0312
 7720SOL    HW134793   1.130   0.164   5.509  1.4280 -2.4120 -2.8695
 7720SOL    HW234794   1.227   0.166   5.623  0.8248 -1.2781 -0.4937
 7721SOL     OW34795   4.477   1.886   7.696  0.0716 -0.2602 -0.2954
 7721SOL    HW134796   4.472   1.801   7.654 -0.1395 -0.4306  0.0760
 7721SOL    HW234797   4.469   1.954   7.629  0.0049  0.6678  0.6381
 7722SOL     OW34798   4.142   1.390   1.855 -0.7119  0.5113  0.5853
 7722SOL    HW134799   4.082   1.411   1.783  0.3876  0.3307 -0.3739
 7722SOL    HW234800   4.142   1.470   1.907 -3.3695  1.1676 -0.4062
 7723SOL     OW34801   0.254   0.743   2.727 -0.2433 -0.2735  0.3235
 7723SOL    HW134802   0.255   0.785   2.813  0.5399 -0.4549  0.4052
 7723SOL    HW234803   0.326   0.682   2.743  0.7387  1.4623  2.5357
 7724SOL     OW34804   4.109   2.161   2.288  0.3147 -0.1648 -0.0176
 7724SOL    HW134805   4.197   2.149   2.323  0.8482  2.5676 -0.4595
 7724SOL    HW234806   4.081   2.235   2.343 -0.0288  1.1289 -1.9534
 7725SOL     OW34807   3.770   2.162   6.090  0.0440  0.3058  0.0267
 7725SOL    HW134808   3.810   2.078   6.112 -0.3144  0.4429  1.2002
 7725SOL    HW234809   3.702   2.148   6.024 -1.5570  0.4612  1.6432
 7726SOL     OW34810   4.239   3.826   1.745 -0.2122  0.3176  0.5328
 7726SOL    HW134811   4.208   3.796   1.830 -0.8724 -0.1738  0.1165
 7726SOL    HW234812   4.172   3.805   1.680 -1.2910  0.2848  1.6455
 7727SOL     OW34813   3.442   3.747   5.621  0.1332 -0.5176  0.2377
 7727SOL    HW134814   3.435   3.666   5.671 -0.2654 -1.6849 -1.6902
 7727SOL    HW234815   3.370   3.800   5.654  1.9494  1.9633  0.2200
 7728SOL     OW34816   2.525   3.854  13.349  0.2594  0.0830 -0.1518
 7728SOL    HW134817   2.547   3.947  13.357 -0.2974 -0.0095  2.4209
 7728SOL    HW234818   2.458   3.849  13.416  1.9453  0.3581  1.5459
 7729SOL     OW34819   3.236   0.327   0.526  0.1160  0.1716 -0.2197
 7729SOL    HW134820   3.196   0.398   0.476 -0.0365  0.2171 -0.0307
 7729SOL    HW234821   3.324   0.364   0.533  0.8986 -1.6225 -0.5231
 7730SOL     OW34822   4.664   3.393  11.281  0.2013  0.3968 -0.3208
 7730SOL    HW134823   4.597   3.326  11.291  0.6953 -0.0265  0.1338
 7730SOL    HW234824   4.616   3.453  11.224 -1.5120 -0.1225  0.5732
 7731SOL     OW34825   1.936   4.229   2.258  0.7586 -0.4986 -0.2491
 7731SOL    HW134826   1.859   4.287   2.255  1.8065  0.9115  0.3215
 7731SOL    HW234827   1.894   4.145   2.272 -1.0203  0.4997  0.4762
 7732SOL     OW34828   2.653   0.565   1.615  0.0327 -0.5983  0.1491
 7732SOL    HW134829   2.558   0.579   1.622  0.2459  1.4635 -1.1793
 7732SOL    HW234830   2.687   0.635   1.670 -2.2764  0.0158  0.8076
 7733SOL     OW34831   4.094   3.444   5.748  1.0300 -0.1085 -0.1070
 7733SOL    HW134832   4.120   3.370   5.802 -1.6914 -1.3532 -0.5016
 7733SOL    HW234833   4.168   3.445   5.688  1.4223  0.1653  0.3858
 7734SOL     OW34834   4.476   0.532   5.840  0.2401 -0.2792  0.3976
 7734SOL    HW134835   4.471   0.531   5.745 -0.9336 -1.3022  0.4756
 7734SOL    HW234836   4.452   0.440   5.848  1.4522 -0.5051  1.5671
 7735SOL     OW34837   4.312   2.585   3.734  0.1166  0.2232  0.2426
 7735SOL    HW134838   4.386   2.635   3.699  0.1727  0.4627  0.7012
 7735SOL    HW234839   4.236   2.641   3.719  0.7862  0.2955 -2.9000
 7736SOL     OW34840   2.065   3.281   1.132  0.1725 -0.2969 -0.5398
 7736SOL    HW134841   2.040   3.212   1.070  1.0088 -1.3928  0.3457
 7736SOL    HW234842   1.975   3.297   1.160  0.8510  0.5917  1.0861
 7737SOL     OW34843   2.121   0.681   7.407 -0.3501  0.2019  0.5072
 7737SOL    HW134844   2.084   0.751   7.462  0.3063  1.0947 -0.1856
 7737SOL    HW234845   2.212   0.682   7.435  0.5520 -0.2518 -2.4323
 7738SOL     OW34846   1.904   0.438   8.263 -0.4148  0.6526  0.3518
 7738SOL    HW134847   1.889   0.505   8.330  2.6349  1.9115 -0.2218
 7738SOL    HW234848   1.914   0.363   8.321 -1.7557 -0.7100 -1.1836
 7739SOL     OW34849   4.118   2.626   0.025  0.1876  0.0982  0.4436
 7739SOL    HW134850   4.182   2.693   0.003  1.0606 -1.3037 -1.2588
 7739SOL    HW234851   4.118   2.631   0.121 -0.2493  1.5605  0.3736
 7740SOL     OW34852   4.329   0.121   2.245 -0.1919 -0.3917  0.1272
 7740SOL    HW134853   4.321   0.184   2.317  0.8305 -1.2901  1.0325
 7740SOL    HW234854   4.394   0.063   2.285 -0.0236  1.0633  2.0083
 7741SOL     OW34855   0.204   3.077   5.897 -0.2312 -0.9011  0.2465
 7741SOL    HW134856   0.205   3.170   5.921  1.3676 -1.0880  0.8972
 7741SOL    HW234857   0.127   3.077   5.841  0.4616 -3.0082 -0.7058
 7742SOL     OW34858   2.633   1.087   2.497 -0.3896  0.2732 -0.1874
 7742SOL    HW134859   2.619   1.078   2.403 -0.4062  0.1307 -0.1711
 7742SOL    HW234860   2.711   1.143   2.491 -0.4382  0.3579 -0.0444
 7743SOL     OW34861   0.121   2.960  16.091 -0.2974 -0.2448 -0.0616
 7743SOL    HW134862   0.158   2.978  16.178  2.3507  3.3888 -1.9519
 7743SOL    HW234863   0.126   2.864  16.090  2.4509 -0.1144  0.5154
 7744SOL     OW34864   4.367   1.101   6.148  0.2748 -0.0900 -0.4559
 7744SOL    HW134865   4.385   1.028   6.089  2.5541  1.2762 -1.4645
 7744SOL    HW234866   4.385   1.058   6.231 -0.7357  0.2002 -0.0822
 7745SOL     OW34867   2.811   0.784   2.578  0.3877  1.1872  0.0935
 7745SOL    HW134868   2.843   0.840   2.507  2.6550 -1.1472 -0.7147
 7745SOL    HW234869   2.896   0.763   2.617  0.9794  3.8173  0.2693
 7746SOL     OW34870   4.471   3.107   1.496 -0.4099 -0.0590 -0.5452
 7746SOL    HW134871   4.502   3.058   1.420  1.2632  0.6455 -0.3237
 7746SOL    HW234872   4.437   3.038   1.553  0.4032 -1.2609 -1.5348
 7747SOL     OW34873   1.987   1.728   3.906 -0.1362 -0.3119 -0.2179
 7747SOL    HW134874   1.921   1.766   3.847  0.6437  2.2825  0.5552
 7747SOL    HW234875   2.041   1.689   3.838  0.6544 -0.5841  0.5640
 7748SOL     OW34876   1.475   4.560   3.376  0.4147 -0.1587  0.0972
 7748SOL    HW134877   1.388   4.521   3.385  0.4206 -0.1091  0.3659
 7748SOL    HW234878   1.509   4.595   3.458 -2.2150  0.2821  1.0179
 7749SOL     OW34879   1.169   1.668   5.556  0.5875  0.5012 -0.9077
 7749SOL    HW134880   1.253   1.653   5.513  1.6885  1.3273  0.9295
 7749SOL    HW234881   1.109   1.684   5.483 -0.4403  0.5449 -0.0562
 7750SOL     OW34882   2.455   4.259   1.142  0.0675 -0.2768 -0.5017
 7750SOL    HW134883   2.522   4.320   1.110  1.3825 -0.2071  2.3795
 7750SOL    HW234884   2.520   4.194   1.170 -0.3951 -0.6126 -0.2098
 7751SOL     OW34885   1.652   1.960   6.737 -0.3795  0.2120 -0.3438
 7751SOL    HW134886   1.595   2.024   6.780  2.4873  1.5781  1.3855
 7751SOL    HW234887   1.601   1.881   6.753  0.6433 -0.7485 -1.7922
 7752SOL     OW34888   4.613   2.675   6.527 -0.1131 -0.2457 -0.0742
 7752SOL    HW134889   4.690   2.641   6.573 -0.5018  0.2790  0.9785
 7752SOL    HW234890   4.627   2.770   6.529  1.9719 -0.5556 -0.9663
 7753SOL     OW34891   1.007   3.375   6.217  0.1734 -0.2864  0.7682
 7753SOL    HW134892   1.003   3.418   6.132  1.2884  0.0887  0.9045
 7753SOL    HW234893   1.030   3.453   6.268 -1.1771  0.5926  0.0523
 7754SOL     OW34894   0.566   4.007   5.646  0.2722  0.1492 -0.1979
 7754SOL    HW134895   0.610   3.963   5.719 -0.0563 -0.6497 -0.4743
 7754SOL    HW234896   0.474   3.978   5.652  0.2100  0.4989  0.5236
 7755SOL     OW34897   2.448   4.006   7.988  0.1324  0.1040  0.3513
 7755SOL    HW134898   2.486   4.092   8.005  1.7424 -0.6647  0.6581
 7755SOL    HW234899   2.526   3.957   8.015  1.3281  2.2321  0.8003
 7756SOL     OW34900   0.450   3.924  12.769 -0.1817 -0.0020  0.1977
 7756SOL    HW134901   0.539   3.946  12.794 -1.6783  1.8539  3.8999
 7756SOL    HW234902   0.429   3.882  12.852 -3.8394  1.0969 -0.1797
 7757SOL     OW34903   1.710   3.581  14.241  0.0639 -0.4773 -0.0063
 7757SOL    HW134904   1.738   3.633  14.165  1.3982  0.2777  0.9932
 7757SOL    HW234905   1.625   3.557  14.204  0.1384 -0.6189 -0.0837
 7758SOL     OW34906   1.796   4.588  12.721  0.3880 -0.6152 -0.1975
 7758SOL    HW134907   1.719   4.635  12.754  0.4488  0.0059 -0.9256
 7758SOL    HW234908   1.861   4.605  12.789  1.4308 -1.6707 -0.9294
 7759SOL     OW34909   3.287   0.721  12.249 -0.7460 -0.2423 -0.5236
 7759SOL    HW134910   3.264   0.802  12.295  1.1181 -1.4599  2.5330
 7759SOL    HW234911   3.340   0.670  12.310  1.2064  0.2226 -1.7979
 7760SOL     OW34912   0.285   4.125  16.946 -0.5141  0.1874 -0.5810
 7760SOL    HW134913   0.321   4.070  16.877 -0.9255 -0.9835  0.1323
 7760SOL    HW234914   0.329   4.088  17.023  0.2380  0.3473 -0.9373
 7761SOL     OW34915   3.609   3.398   0.958 -0.1861 -1.0559 -0.2044
 7761SOL    HW134916   3.685   3.394   1.016 -0.5733  0.3248  0.4043
 7761SOL    HW234917   3.649   3.394   0.872  0.9481 -2.9894  0.4237
 7762SOL     OW34918   1.056   4.481   3.657 -0.2152 -0.4332  0.5649
 7762SOL    HW134919   1.023   4.391   3.656  0.7292 -0.8048  1.9197
 7762SOL    HW234920   1.034   4.516   3.744 -0.9545  0.2385  0.1080
 7763SOL     OW34921   2.799   3.392   5.627 -0.2304  0.1319  0.2620
 7763SOL    HW134922   2.716   3.377   5.673 -1.0968  1.0380 -0.9786
 7763SOL    HW234923   2.864   3.406   5.695 -0.1886  1.4091 -0.0284
 7764SOL     OW34924   3.612   3.171   5.680  0.1194  0.1663  0.7082
 7764SOL    HW134925   3.649   3.220   5.753 -0.4302  2.4479 -0.5422
 7764SOL    HW234926   3.667   3.095   5.696 -0.1433 -0.3770 -0.9538
 7765SOL     OW34927   4.053   3.100   3.310  0.2618 -0.2347 -0.1266
 7765SOL    HW134928   4.125   3.039   3.322  0.8214  0.3470 -0.4742
 7765SOL    HW234929   3.977   3.049   3.338 -0.1568  0.5832  0.2240
 7766SOL     OW34930   3.630   2.704   9.981 -0.5003 -0.4009 -0.2157
 7766SOL    HW134931   3.697   2.680   9.917 -1.1472 -2.7122 -0.0652
 7766SOL    HW234932   3.557   2.655   9.943 -1.3786  0.6946  0.0634
 7767SOL     OW34933   4.724   2.695  13.733 -0.4026  0.7695  0.0701
 7767SOL    HW134934   0.009   2.662  13.821 -0.8767  0.6561  0.1433
 7767SOL    HW234935   0.071   2.739  13.715  0.1102 -1.4884 -3.1565
 7768SOL     OW34936   3.155   0.664   5.385 -0.6245  0.5308  0.5834
 7768SOL    HW134937   3.170   0.669   5.480  0.9196 -0.7815  0.3907
 7768SOL    HW234938   3.071   0.710   5.381  0.2411  1.7699 -3.6232
 7769SOL     OW34939   2.102   0.925   9.115 -0.1470 -0.0527  0.1600
 7769SOL    HW134940   2.157   0.901   9.190 -0.0102  1.2032  0.4526
 7769SOL    HW234941   2.049   0.845   9.116  0.5904 -0.5287  1.4102
 7770SOL     OW34942   2.815   2.829   1.530  0.4148 -0.4688  0.1060
 7770SOL    HW134943   2.799   2.909   1.481  0.1592  0.0658  1.0676
 7770SOL    HW234944   2.770   2.761   1.480 -0.7527  0.3678  0.0179
 7771SOL     OW34945   1.300   4.356   4.855  0.4026  0.5004 -0.4563
 7771SOL    HW134946   1.213   4.394   4.838  0.4346  0.4476 -0.7482
 7771SOL    HW234947   1.362   4.427   4.838  0.6940 -0.0964 -1.8988
 7772SOL     OW34948   2.204   1.496   5.319 -0.2083 -0.7109  0.2794
 7772SOL    HW134949   2.196   1.407   5.353 -0.4367 -0.6319  0.4254
 7772SOL    HW234950   2.120   1.520   5.282 -1.3405 -0.8553  2.7939
 7773SOL     OW34951   0.292   0.566   9.651  0.2309 -0.3607 -0.3543
 7773SOL    HW134952   0.254   0.488   9.611  1.6459 -0.5069 -1.4157
 7773SOL    HW234953   0.214   0.598   9.697  1.4023 -0.0528  1.4320
 7774SOL     OW34954   4.684   3.143   5.780  0.0307  0.4768 -0.3803
 7774SOL    HW134955   4.638   3.060   5.782  0.8469  0.0535  0.5489
 7774SOL    HW234956   4.683   3.170   5.872 -1.9955  1.3719 -0.6532
 7775SOL     OW34957   2.988   4.265   8.024 -0.1417 -0.3298 -0.5832
 7775SOL    HW134958   3.001   4.288   7.932  2.6617  0.9764  0.1502
 7775SOL    HW234959   2.997   4.349   8.070  1.0396 -1.1025  0.5816
 7776SOL     OW34960   2.393   1.479   7.898  0.0831 -0.5223 -0.1556
 7776SOL    HW134961   2.483   1.468   7.929  0.0853 -1.7105 -0.5785
 7776SOL    HW234962   2.348   1.514   7.975 -1.2863 -0.9606 -0.7655
 7777SOL     OW34963   1.678   2.359  16.779 -0.1175 -0.2986 -0.2260
 7777SOL    HW134964   1.716   2.275  16.756  0.8655 -0.2121  1.1093
 7777SOL    HW234965   1.756   2.404  16.811 -0.1659 -0.5427  0.2353
 7778SOL     OW34966   1.660   1.559   5.241  1.1886  0.5680  0.1654
 7778SOL    HW134967   1.622   1.472   5.229 -0.3148  0.9539  2.2349
 7778SOL    HW234968   1.637   1.593   5.155  0.1232  2.1016  1.0603
 7779SOL     OW34969   4.659   4.233  11.742  0.1018 -0.5174  0.1629
 7779SOL    HW134970   4.679   4.311  11.691 -1.6122 -1.7112 -2.3664
 7779SOL    HW234971   4.712   4.167  11.695  1.0403 -1.9114  3.1956
 7780SOL     OW34972   1.617   3.085   3.496  0.1976  0.3267  0.0439
 7780SOL    HW134973   1.590   3.173   3.520 -0.2095 -0.0493  0.9470
 7780SOL    HW234974   1.704   3.094   3.456 -0.4453 -2.2382 -1.9757
 7781SOL     OW34975   1.658   0.978  12.018  0.1629  0.1124 -0.1189
 7781SOL    HW134976   1.751   0.981  11.992  0.1182  0.8246 -0.2124
 7781SOL    HW234977   1.612   1.029  11.951 -1.7064 -1.8795 -0.3299
 7782SOL     OW34978   4.268   3.925   2.105  0.6574  0.5960  0.0615
 7782SOL    HW134979   4.258   4.021   2.106  0.0796  0.5423 -0.5266
 7782SOL    HW234980   4.296   3.902   2.194  0.5126 -0.4093 -0.1543
 7783SOL     OW34981   2.451   4.663   3.250 -0.5856 -0.2860  0.0721
 7783SOL    HW134982   2.437   4.600   3.179  1.8645 -0.0974 -0.5778
 7783SOL    HW234983   2.364   4.703   3.249 -2.2636 -3.8585  2.3249
 7784SOL     OW34984   4.082   2.117   8.260 -0.0731  0.3665  0.6848
 7784SOL    HW134985   4.092   2.145   8.169  1.6761 -2.2671  0.0590
 7784SOL    HW234986   4.055   2.026   8.247  1.3898 -0.0657  0.6059
 7785SOL     OW34987   3.801   4.425   6.070  0.0176  0.3581 -0.3910
 7785SOL    HW134988   3.831   4.436   6.160 -0.1615 -2.6361  0.0477
 7785SOL    HW234989   3.860   4.479   6.019 -0.2787  2.2591  1.2739
 7786SOL     OW34990   3.461   2.678   6.301 -0.5668  0.1858 -0.1974
 7786SOL    HW134991   3.430   2.750   6.246 -0.3476 -0.0147 -0.5768
 7786SOL    HW234992   3.544   2.672   6.254  0.2705 -2.5667  1.6514
 7787SOL     OW34993   2.291   2.717  15.877  0.3123 -0.0576 -0.7221
 7787SOL    HW134994   2.301   2.782  15.808 -0.8222  0.5926 -0.2775
 7787SOL    HW234995   2.382   2.723  15.907 -0.5135  1.3907  1.4478
 7788SOL     OW34996   1.276   4.068   6.415  0.4468  0.0625 -0.0774
 7788SOL    HW134997   1.280   4.009   6.490  2.6178  0.7824  0.3600
 7788SOL    HW234998   1.304   4.011   6.343  0.0072 -0.1167 -0.1086
 7789SOL     OW34999   0.355   2.177   0.268  0.8271 -0.3071 -0.1855
 7789SOL    HW135000   0.396   2.263   0.260 -1.8713  1.2468  3.0637
 7789SOL    HW235001   0.429   2.139   0.316  2.3823  2.6993 -0.1784
 7790SOL     OW35002   3.601   0.957   1.995 -0.0336  0.5961  0.1409
 7790SOL    HW135003   3.529   0.961   1.932  1.0218 -0.0833 -1.0918
 7790SOL    HW235004   3.676   0.972   1.938 -0.8981 -1.9073 -1.6314
 7791SOL     OW35005   1.830   1.821  12.554  0.1537 -0.1227  0.2958
 7791SOL    HW135006   1.906   1.772  12.587  0.1324 -0.4013 -0.0649
 7791SOL    HW235007   1.841   1.898  12.609  2.1790 -1.1958  1.3982
 7792SOL     OW35008   0.238   1.544  12.569 -0.1425  0.2589 -0.2607
 7792SOL    HW135009   0.281   1.498  12.497  0.7485  1.0090 -0.2018
 7792SOL    HW235010   0.278   1.630  12.555 -1.7207  0.8460 -1.1388
 7793SOL     OW35011   3.269   0.371  10.913  0.2829  0.5212 -0.1711
 7793SOL    HW135012   3.281   0.466  10.906 -1.1868  0.5205 -2.4576
 7793SOL    HW235013   3.318   0.356  10.994 -0.6299  1.6070  0.5870
 7794SOL     OW35014   3.675   3.938  17.006  0.2611 -0.0615 -0.2365
 7794SOL    HW135015   3.661   3.868  16.942 -0.7423 -0.6499  0.6176
 7794SOL    HW235016   3.704   4.007  16.947 -3.4276  2.3746  0.8000
 7795SOL     OW35017   3.932   0.662   4.963 -0.6754  0.4287  0.3432
 7795SOL    HW135018   3.843   0.695   4.978 -1.1354 -1.1570  1.1779
 7795SOL    HW235019   3.920   0.589   5.024 -0.0264  0.5131  0.5658
 7796SOL     OW35020   2.295   1.336  16.048  0.0439 -0.1325  0.5045
 7796SOL    HW135021   2.270   1.387  15.971  1.5408 -1.4593 -0.8518
 7796SOL    HW235022   2.312   1.251  16.008  1.2949  0.9525 -1.2709
 7797SOL     OW35023   3.048   0.630  16.691  0.3678  0.0139  0.5126
 7797SOL    HW135024   2.991   0.562  16.728  2.6296 -1.3611  1.4349
 7797SOL    HW235025   3.131   0.583  16.682 -0.2934 -1.0727 -0.0355
 7798SOL     OW35026   1.484   3.121  17.680  0.2905 -0.2433  0.0860
 7798SOL    HW135027   1.474   3.049  17.742  0.0765  0.0863  0.4385
 7798SOL    HW235028   1.495   3.197  17.737  0.9443 -0.3059  0.0443
 7799SOL     OW35029   1.641   1.569   9.380 -0.4199 -0.2909 -0.5396
 7799SOL    HW135030   1.634   1.573   9.475 -0.9148 -0.5565 -0.5690
 7799SOL    HW235031   1.616   1.479   9.362 -0.4412 -0.3284 -0.3182
 7800SOL     OW35032   0.130   3.594   2.146  0.0288 -0.5360 -0.1517
 7800SOL    HW135033   0.056   3.635   2.101  1.1503  0.5341 -1.0301
 7800SOL    HW235034   0.167   3.674   2.183  0.1841 -2.0258  2.8733
 7801SOL     OW35035   3.714   1.331  15.640 -0.4427 -0.4093 -0.0718
 7801SOL    HW135036   3.676   1.406  15.593  1.9876  0.3441 -0.8679
 7801SOL    HW235037   3.697   1.263  15.576  0.4589 -0.8874  0.1978
 7802SOL     OW35038   3.750   2.768   0.055 -0.1964 -0.7082 -0.1241
 7802SOL    HW135039   3.769   2.675   0.047  1.0845 -0.4815  0.3205
 7802SOL    HW235040   3.807   2.805  17.731 -0.8818  2.0106  0.7992
 7803SOL     OW35041   0.860   2.057   3.176  0.2035  0.2139 -0.1924
 7803SOL    HW135042   0.905   2.133   3.138 -0.0011 -1.4175 -3.6282
 7803SOL    HW235043   0.834   2.028   3.089 -0.1488  1.1950 -0.4057
 7804SOL     OW35044   0.821   4.460  13.446 -0.0433 -0.5796 -0.1260
 7804SOL    HW135045   0.816   4.556  13.441 -0.5135 -0.6762 -1.3606
 7804SOL    HW235046   0.732   4.433  13.424 -0.1787  0.5379 -0.9297
 7805SOL     OW35047   0.601   3.832  10.686  0.0144 -0.0895 -0.6659
 7805SOL    HW135048   0.570   3.743  10.705  2.3415 -0.9918 -1.0700
 7805SOL    HW235049   0.613   3.863  10.776  0.5840 -1.3812 -0.3003
 7806SOL     OW35050   1.796   3.296   1.056 -0.3126  0.1703 -0.4603
 7806SOL    HW135051   1.757   3.244   0.986 -0.6702 -1.9514  1.3212
 7806SOL    HW235052   1.735   3.370   1.061 -0.1921  0.3433 -1.5402
 7807SOL     OW35053   4.294   4.320  14.692 -0.3818 -0.7385  0.2220
 7807SOL    HW135054   4.311   4.277  14.776  0.8668 -0.6913 -0.0054
 7807SOL    HW235055   4.373   4.307  14.640 -0.9620  1.5848 -1.2467
 7808SOL     OW35056   4.408   0.709   3.915  0.1421  0.2484 -0.4941
 7808SOL    HW135057   4.421   0.804   3.917 -1.9700  0.6179 -3.7245
 7808SOL    HW235058   4.375   0.690   3.827 -0.9880 -0.0915  0.0014
 7809SOL     OW35059   3.269   2.647   0.076  0.0894 -0.7498  0.4503
 7809SOL    HW135060   3.350   2.629   0.029 -0.6760  1.7339 -1.8004
 7809SOL    HW235061   3.218   2.695   0.011  3.0428  1.2271 -0.3802
 7810SOL     OW35062   3.854   3.037   1.021 -0.4400 -0.6608  0.2813
 7810SOL    HW135063   3.932   2.985   1.002  0.2667 -0.4822  2.7136
 7810SOL    HW235064   3.886   3.091   1.094 -0.2244 -1.7618  0.9953
 7811SOL     OW35065   2.787   3.485   2.818 -0.1143 -0.5988  0.4551
 7811SOL    HW135066   2.877   3.516   2.824  0.2424 -1.5889  0.3297
 7811SOL    HW235067   2.745   3.543   2.881 -2.3545 -2.2182  0.4387
 7812SOL     OW35068   2.392   2.970   7.825  0.1337 -0.3384  0.1103
 7812SOL    HW135069   2.344   3.012   7.753 -1.2597  0.6375  1.6323
 7812SOL    HW235070   2.435   3.039   7.875  0.9656 -1.2246  0.6166
 7813SOL     OW35071   2.234   3.313   6.008 -0.0701  0.2056  0.1703
 7813SOL    HW135072   2.144   3.305   6.037 -1.4744  1.6763 -3.8157
 7813SOL    HW235073   2.249   3.239   5.948  0.0069 -0.8234  1.4539
 7814SOL     OW35074   4.705   2.238   9.029  0.3914 -0.2020 -0.0095
 7814SOL    HW135075   0.058   2.206   9.012  0.6798  0.4817  0.2180
 7814SOL    HW235076   4.674   2.255   8.940  0.8132  1.3262  0.1457
 7815SOL     OW35077   1.582   2.353   5.991 -0.0146  0.0971 -0.5465
 7815SOL    HW135078   1.523   2.409   5.940 -0.1942 -0.9768 -1.5191
 7815SOL    HW235079   1.666   2.388   5.962  0.3068 -0.7931 -0.7158
 7816SOL     OW35080   1.670   2.026   0.526 -0.0778  0.1900  0.4182
 7816SOL    HW135081   1.729   1.956   0.553  1.1844  0.6947 -1.0685
 7816SOL    HW235082   1.589   1.974   0.517  0.3068 -0.6322  1.7013
 7817SOL     OW35083   1.480   1.710  15.159  0.7215 -0.2667 -0.3666
 7817SOL    HW135084   1.407   1.772  15.154  2.0229  1.5160  2.4253
 7817SOL    HW235085   1.548   1.760  15.113  0.7281 -2.0545 -2.3084
 7818SOL     OW35086   0.847   3.053   6.073  0.7728  0.4402  0.4254
 7818SOL    HW135087   0.898   3.072   5.994  0.0413 -2.6335 -0.7766
 7818SOL    HW235088   0.761   3.090   6.052  1.2144  1.2211 -0.0173
 7819SOL     OW35089   3.922   0.790   5.353  0.7369 -0.5410 -0.2563
 7819SOL    HW135090   3.889   0.769   5.440 -1.2416  0.3827 -0.7719
 7819SOL    HW235091   3.851   0.750   5.303 -0.8322  1.7901  0.1139
 7820SOL     OW35092   2.316   4.627   6.064 -0.6389  0.1994  0.2969
 7820SOL    HW135093   2.339   4.568   6.135  0.5363 -1.1500 -1.2036
 7820SOL    HW235094   2.231   4.590   6.041 -1.0425  1.9043 -1.0131
 7821SOL     OW35095   1.530   1.882   3.007  0.1253 -0.3373 -0.0241
 7821SOL    HW135096   1.442   1.901   3.039  0.1161 -1.6290  0.7171
 7821SOL    HW235097   1.561   1.814   3.067 -0.4277 -0.5488  0.0140
 7822SOL     OW35098   3.433   4.377   9.160  0.3439  0.0668 -0.3519
 7822SOL    HW135099   3.355   4.430   9.145 -0.3091 -0.7234  0.2522
 7822SOL    HW235100   3.501   4.424   9.112  0.7193 -1.1238 -0.9865
 7823SOL     OW35101   1.893   1.953  14.262  0.6523 -0.1715 -0.1461
 7823SOL    HW135102   1.897   2.036  14.308 -0.3682  0.3710 -1.0366
 7823SOL    HW235103   1.954   1.967  14.190  1.2052  0.4818  0.4590
 7824SOL     OW35104   3.082   0.691   9.536 -0.0040 -0.2544  0.1918
 7824SOL    HW135105   3.048   0.697   9.447  1.0149  2.0129 -0.0330
 7824SOL    HW235106   3.177   0.694   9.525 -0.1103 -1.4538 -1.0794
 7825SOL     OW35107   0.884   0.041   4.232 -0.1115 -0.0113 -0.2302
 7825SOL    HW135108   0.793   0.011   4.231 -0.1165 -0.0248  0.3085
 7825SOL    HW235109   0.899   0.046   4.327  1.5892 -1.1355 -0.4397
 7826SOL     OW35110   4.052   1.886   3.029  0.0578  0.2251  0.0645
 7826SOL    HW135111   4.049   1.974   3.067 -0.9143  0.7135 -1.1404
 7826SOL    HW235112   4.105   1.894   2.951 -0.7208 -3.2551 -0.8072
 7827SOL     OW35113   1.806   1.382  10.099 -0.2770  0.5786 -0.0332
 7827SOL    HW135114   1.760   1.439  10.160  0.6376  0.8402  0.4145
 7827SOL    HW235115   1.894   1.414  10.119 -0.2595  0.1656  0.5137
 7828SOL     OW35116   1.850   1.238  11.905  0.0734  0.1375  0.1701
 7828SOL    HW135117   1.814   1.321  11.937  0.3339 -0.0259  0.9005
 7828SOL    HW235118   1.842   1.253  11.811 -0.4054 -1.9391 -0.1051
 7829SOL     OW35119   1.721   0.213  10.714 -0.4090 -0.0645  0.3671
 7829SOL    HW135120   1.733   0.224  10.808 -2.2496 -0.9575  0.7114
 7829SOL    HW235121   1.797   0.257  10.675 -0.1597 -0.9704 -0.1890
 7830SOL     OW35122   0.816   2.842   4.147 -0.3630  0.2653  0.0062
 7830SOL    HW135123   0.766   2.833   4.228 -0.5737 -2.2523 -0.4070
 7830SOL    HW235124   0.905   2.826   4.177  0.2521  1.3599 -1.2418
 7831SOL     OW35125   2.264   0.396   8.353  0.0101 -0.5897  0.1556
 7831SOL    HW135126   2.228   0.451   8.422  0.5501 -0.1393  0.0761
 7831SOL    HW235127   2.303   0.462   8.296  0.9324 -1.0618  0.2521
 7832SOL     OW35128   3.251   0.589   9.308 -0.0590 -0.3996 -0.3701
 7832SOL    HW135129   3.249   0.575   9.213  0.9646 -0.1375 -0.4354
 7832SOL    HW235130   3.228   0.500   9.335  0.8716 -0.3446  0.5957
 7833SOL     OW35131   3.538   2.224  15.630 -0.0018 -0.7430 -0.5075
 7833SOL    HW135132   3.585   2.142  15.647  0.0118 -1.2141 -2.7729
 7833SOL    HW235133   3.578   2.246  15.546  1.7633  2.4622  1.1440
 7834SOL     OW35134   3.893   3.666   0.695  0.1954 -0.3505  0.7396
 7834SOL    HW135135   3.945   3.744   0.713 -0.7026  0.1363  1.2340
 7834SOL    HW235136   3.819   3.688   0.752  0.4482  1.8678  0.2120
 7835SOL     OW35137   2.435   3.364   4.172  0.3773  0.5620  0.0538
 7835SOL    HW135138   2.499   3.410   4.118  1.2624 -0.0846  0.5617
 7835SOL    HW235139   2.450   3.272   4.151 -2.9646 -0.2700  1.3194
 7836SOL     OW35140   4.220   2.374   3.862 -0.0292 -0.1493 -0.7509
 7836SOL    HW135141   4.130   2.401   3.843  0.0434 -0.1107 -1.0360
 7836SOL    HW235142   4.259   2.452   3.823 -0.8855  0.9513  0.5817
 7837SOL     OW35143   0.143   1.659   9.449  0.5399 -0.8372  0.3043
 7837SOL    HW135144   0.191   1.654   9.532  0.7954  2.9092  0.4108
 7837SOL    HW235145   0.051   1.669   9.472  0.3049 -1.2759 -0.4679
 7838SOL     OW35146   1.304   0.986   2.632  0.1207 -0.3171 -0.0702
 7838SOL    HW135147   1.311   1.080   2.648  0.5508 -0.2522 -0.6468
 7838SOL    HW235148   1.208   0.993   2.631 -0.0918 -2.7465  1.7288
 7839SOL     OW35149   3.410   0.272   1.336  0.1768  0.3464 -0.1363
 7839SOL    HW135150   3.502   0.280   1.360 -0.0628  1.3429  0.4677
 7839SOL    HW235151   3.384   0.360   1.364  1.5810  1.1258 -1.2941
 7840SOL     OW35152   0.452   2.154  13.576 -0.4563  0.0780 -0.6720
 7840SOL    HW135153   0.395   2.078  13.563 -0.3327 -0.0438 -0.4995
 7840SOL    HW235154   0.386   2.218  13.605 -0.5757  0.1629 -1.1409
 7841SOL     OW35155   0.776   4.203   5.613  0.4542  0.0374  0.0338
 7841SOL    HW135156   0.730   4.286   5.600  1.7975  0.6067 -1.0332
 7841SOL    HW235157   0.703   4.141   5.620 -0.1085  0.6009 -0.9074
 7842SOL     OW35158   4.313   1.495   9.274  0.9235 -0.3209 -0.0630
 7842SOL    HW135159   4.233   1.544   9.291  2.3278  2.1860 -0.7292
 7842SOL    HW235160   4.277   1.410   9.299 -0.6521  0.3066 -0.2018
 7843SOL     OW35161   2.743   1.972   7.695  0.4257  0.6060 -0.1078
 7843SOL    HW135162   2.832   1.944   7.717 -0.1028 -0.0295  1.2077
 7843SOL    HW235163   2.686   1.934   7.761  0.1012  0.0940 -0.6808
 7844SOL     OW35164   2.772   3.339   3.385 -0.1891  0.0168  0.0800
 7844SOL    HW135165   2.784   3.248   3.411  1.8101  1.0474  2.8422
 7844SOL    HW235166   2.731   3.328   3.299 -1.1684 -0.3096  0.5783
 7845SOL     OW35167   0.014   1.202   2.510  0.1995  0.3066 -0.1827
 7845SOL    HW135168   0.090   1.152   2.539 -0.6713 -0.6805  0.4408
 7845SOL    HW235169   0.024   1.194   2.415  0.8794 -1.1557  0.0160
 7846SOL     OW35170   0.544   3.321   8.189 -0.2067  0.8435  0.5258
 7846SOL    HW135171   0.584   3.408   8.188 -0.1099  0.7822 -1.1867
 7846SOL    HW235172   0.580   3.290   8.272  1.1460 -0.2776 -0.4819
 7847SOL     OW35173   4.195   3.399   4.973 -0.0190 -0.8453  0.3433
 7847SOL    HW135174   4.100   3.397   4.988  0.3046 -0.1343  2.4735
 7847SOL    HW235175   4.192   3.412   4.878  1.0746 -0.4397  0.3664
 7848SOL     OW35176   2.453   2.702   4.558 -0.4103 -0.3839  0.0793
 7848SOL    HW135177   2.539   2.697   4.518  0.0735 -3.2276  1.4803
 7848SOL    HW235178   2.410   2.770   4.505  0.5943 -0.7004 -1.1410
 7849SOL     OW35179   3.676   1.232   5.586 -0.1285  0.3777 -0.3195
 7849SOL    HW135180   3.690   1.138   5.583 -0.8499  0.2313  1.0803
 7849SOL    HW235181   3.724   1.259   5.664  0.9048 -0.5643 -0.6321
 7850SOL     OW35182   0.926   3.042  16.550  0.3411  0.0463 -0.3572
 7850SOL    HW135183   1.009   3.000  16.527  1.6397  3.2363 -1.4579
 7850SOL    HW235184   0.861   2.982  16.511  1.6283 -1.6614  0.1232
 7851SOL     OW35185   0.450   0.892   3.207  0.3590 -0.9943 -0.3535
 7851SOL    HW135186   0.424   0.866   3.296 -0.1498  0.1127 -0.1849
 7851SOL    HW235187   0.538   0.925   3.224  0.1495 -0.3041 -0.6010
 7852SOL     OW35188   3.009   2.721   5.830 -0.8133  0.2372 -0.3909
 7852SOL    HW135189   2.915   2.738   5.829 -1.0655 -1.2165 -1.2397
 7852SOL    HW235190   3.034   2.789   5.768  0.9216  0.5151  0.6037
 7853SOL     OW35191   2.404   2.929   4.730 -0.0279  0.4367 -0.5635
 7853SOL    HW135192   2.380   2.851   4.680 -1.8748  2.0681 -2.2544
 7853SOL    HW235193   2.333   2.934   4.793  2.4599  3.6627  1.9617
 7854SOL     OW35194   2.275   0.738   6.427  0.3479  0.3901  0.4207
 7854SOL    HW135195   2.257   0.800   6.357  1.5326 -0.1782 -0.3873
 7854SOL    HW235196   2.351   0.703   6.380 -0.8561 -1.1245 -0.3568
 7855SOL     OW35197   2.931   0.776  14.954  0.4659  0.3277 -0.1443
 7855SOL    HW135198   2.912   0.683  14.946  0.5808  0.2633  0.3827
 7855SOL    HW235199   3.006   0.785  14.895  0.5200  1.5515  0.1091
 7856SOL     OW35200   3.712   2.154   3.380  0.1507 -0.6573 -0.3150
 7856SOL    HW135201   3.711   2.063   3.352  0.5622 -1.2435  1.6492
 7856SOL    HW235202   3.690   2.188   3.293 -0.6712 -4.2979 -1.5358
 7857SOL     OW35203   2.091   2.574  12.465 -0.0076  0.3025 -0.0548
 7857SOL    HW135204   2.147   2.615  12.399  0.7058  1.4226  1.2474
 7857SOL    HW235205   2.152   2.503  12.483 -0.1324  0.8443  2.4947
 7858SOL     OW35206   2.118   2.184  16.940  0.1412 -0.8753 -0.0046
 7858SOL    HW135207   2.189   2.152  16.995  1.4005  3.6696  1.0033
 7858SOL    HW235208   2.145   2.140  16.859 -2.3451 -1.8179 -0.3345
 7859SOL     OW35209   0.596   3.183   9.709 -0.2821 -0.1885  0.0797
 7859SOL    HW135210   0.509   3.160   9.741 -0.4667 -0.4682 -0.6105
 7859SOL    HW235211   0.589   3.138   9.625  2.0258 -0.3287 -0.0310
 7860SOL     OW35212   3.575   1.634   8.859 -0.1855 -0.0921 -0.4242
 7860SOL    HW135213   3.643   1.572   8.886 -0.0865 -0.6704 -1.9888
 7860SOL    HW235214   3.499   1.581   8.834 -2.2005  2.8831 -0.5281
 7861SOL     OW35215   3.025   1.307   8.679 -0.2308 -0.4871 -0.0900
 7861SOL    HW135216   3.000   1.218   8.655  0.3092 -0.2573 -1.5485
 7861SOL    HW235217   2.936   1.338   8.690 -0.8210 -2.4469  0.7028
 7862SOL     OW35218   3.000   3.826  11.591  0.4353 -0.5477  0.4404
 7862SOL    HW135219   2.935   3.842  11.522 -1.7414 -2.7009  2.0036
 7862SOL    HW235220   3.002   3.908  11.641 -1.2614  0.8112 -1.7247
 7863SOL     OW35221   3.922   3.561   1.753  0.3257 -0.0115 -0.2859
 7863SOL    HW135222   3.988   3.493   1.765  1.5140  1.1748 -0.0780
 7863SOL    HW235223   3.931   3.595   1.842  1.4216 -1.1691  0.0480
 7864SOL     OW35224   0.500   0.008   6.740  0.5217 -0.0653 -0.0093
 7864SOL    HW135225   0.590   0.016   6.771  0.5359  0.9918 -0.3242
 7864SOL    HW235226   0.496   4.661   6.693  2.6635  0.6317 -1.3983
 7865SOL     OW35227   0.330   0.770  17.723  0.1669  0.5041 -0.1270
 7865SOL    HW135228   0.369   0.693  17.680  1.5407 -0.1494  2.2825
 7865SOL    HW235229   0.271   0.732   0.045  1.3991  0.0984  0.7415
 7866SOL     OW35230   2.399   0.732  15.889  0.1165 -0.1285 -0.0145
 7866SOL    HW135231   2.488   0.699  15.902  0.3184 -0.0725 -1.3105
 7866SOL    HW235232   2.365   0.708  15.976 -0.6639  1.6603  0.1730
 7867SOL     OW35233   1.900   0.724  16.034 -0.1707 -0.4395 -0.0424
 7867SOL    HW135234   1.911   0.629  16.022 -2.1874 -0.4832 -1.4931
 7867SOL    HW235235   1.830   0.746  15.973 -0.7850  0.1249  0.8799
 7868SOL     OW35236   0.007   1.590   2.188 -0.1511  0.1033  0.4763
 7868SOL    HW135237   4.675   1.646   2.224 -0.2323  0.6981 -0.6042
 7868SOL    HW235238   4.711   1.503   2.213  1.3328 -0.0593  1.7967
 7869SOL     OW35239   0.782   3.060   6.931 -0.4849  0.0125 -0.3984
 7869SOL    HW135240   0.738   2.995   6.876 -1.7569  1.9596 -1.6722
 7869SOL    HW235241   0.730   3.141   6.928 -0.4373  0.0070 -1.2550
 7870SOL     OW35242   3.446   3.102  17.394 -0.1284  0.9500  0.5724
 7870SOL    HW135243   3.540   3.095  17.407 -0.3834 -1.0934  1.3762
 7870SOL    HW235244   3.418   3.073  17.481 -2.8691 -1.9473 -1.2444
 7871SOL     OW35245   3.121   1.036  16.339 -0.8547 -0.4397 -0.7205
 7871SOL    HW135246   3.149   0.959  16.289 -0.2357 -1.4700  1.2425
 7871SOL    HW235247   3.070   0.987  16.403 -1.4101  1.4255  0.2488
 7872SOL     OW35248   0.382   1.984   8.313 -0.1084 -0.0190 -0.8523
 7872SOL    HW135249   0.477   1.974   8.303 -0.0823  1.4650 -2.3026
 7872SOL    HW235250   0.354   1.901   8.350 -2.1762  0.2881 -1.6998
 7873SOL     OW35251   3.275   2.319   2.838 -0.2892 -0.0133  0.4977
 7873SOL    HW135252   3.204   2.370   2.876  0.2990  2.4829 -1.7314
 7873SOL    HW235253   3.310   2.389   2.783  0.2493  0.0514  0.9141
 7874SOL     OW35254   4.707   0.103  16.108  0.5963  0.2062  0.5039
 7874SOL    HW135255   0.004   0.120  16.020  1.4866  0.6042  0.9152
 7874SOL    HW235256   0.046   0.141  16.154 -0.4809 -0.0147  2.4502
 7875SOL     OW35257   0.092   0.228   2.602 -0.4579  0.2731  0.5614
 7875SOL    HW135258   0.160   0.292   2.621  0.3174 -0.2931 -0.3014
 7875SOL    HW235259   0.136   0.148   2.631 -0.7522 -0.1690 -0.2175
 7876SOL     OW35260   2.376   1.723   2.984  0.6538 -0.1822 -0.0257
 7876SOL    HW135261   2.337   1.682   2.906  0.5261  0.2093 -0.1641
 7876SOL    HW235262   2.299   1.769   3.017  1.2606  0.0151  1.1189
 7877SOL     OW35263   0.276   1.670  15.368  0.7444 -0.0043  0.3820
 7877SOL    HW135264   0.209   1.733  15.342  1.7699  0.1264 -1.9327
 7877SOL    HW235265   0.352   1.718  15.335  0.8391 -2.0715 -2.3471
 7878SOL     OW35266   4.397   1.523  15.283 -0.5688 -0.5735 -0.2574
 7878SOL    HW135267   4.328   1.459  15.305  1.5956 -2.1741  1.9172
 7878SOL    HW235268   4.359   1.563  15.205 -0.6957 -1.2588 -0.5509
 7879SOL     OW35269   4.352   2.683   1.725  0.1188  0.5865  0.5556
 7879SOL    HW135270   4.268   2.715   1.693  0.6346  1.5971  0.2240
 7879SOL    HW235271   4.404   2.637   1.659  1.0255  0.7182  1.1734
 7880SOL     OW35272   3.669   4.348   6.514  0.0257  0.1987 -0.2464
 7880SOL    HW135273   3.693   4.282   6.448  2.0415  0.9710 -0.2836
 7880SOL    HW235274   3.583   4.359   6.474  0.9017  1.7107 -1.7102
 7881SOL     OW35275   3.038   1.306  12.980 -0.2243  0.1736  0.1451
 7881SOL    HW135276   2.968   1.315  12.916 -0.3398 -1.3477  0.0475
 7881SOL    HW235277   2.988   1.275  13.056 -0.8785  0.0574 -0.3326
 7882SOL     OW35278   1.957   0.201  17.646  0.0936 -0.2904 -0.2494
 7882SOL    HW135279   1.984   0.225  17.735 -1.6583 -3.0319  1.0402
 7882SOL    HW235280   1.873   0.247  17.642 -0.0320 -0.6959 -2.1577
 7883SOL     OW35281   1.194   3.271   1.658  0.1699 -0.2232 -0.2041
 7883SOL    HW135282   1.149   3.229   1.584  0.4598 -3.1390  1.2468
 7883SOL    HW235283   1.186   3.203   1.725 -1.8541  0.3599  0.1204
 7884SOL     OW35284   0.354   2.982   3.458 -0.1403 -0.8482  0.1212
 7884SOL    HW135285   0.439   3.025   3.449 -0.4979  0.2771  2.2671
 7884SOL    HW235286   0.300   3.059   3.444  0.6277 -0.3025  0.1765
 7885SOL     OW35287   3.266   4.630   3.483 -0.0033  0.0444 -0.1918
 7885SOL    HW135288   3.273   4.586   3.567  0.3645 -1.1205 -0.8338
 7885SOL    HW235289   3.335   4.696   3.489  0.9220 -0.8244 -1.1878
 7886SOL     OW35290   1.393   2.993   5.601  0.8224  0.5710 -0.1626
 7886SOL    HW135291   1.485   2.967   5.591  0.7191  0.1401 -0.0048
 7886SOL    HW235292   1.356   2.987   5.513 -1.5137  0.5056  0.8192
 7887SOL     OW35293   3.908   0.863  15.076 -0.2101 -0.1525  0.0591
 7887SOL    HW135294   3.927   0.870  14.982  3.2758 -1.7892  0.6159
 7887SOL    HW235295   3.826   0.818  15.092 -0.0352 -0.2661  0.6459
 7888SOL     OW35296   0.352   1.022   5.289  0.6345  0.8293 -0.3776
 7888SOL    HW135297   0.416   1.016   5.218 -1.3491  2.3151 -2.3219
 7888SOL    HW235298   0.390   1.091   5.343  0.9018 -0.2267  0.7751
 7889SOL     OW35299   3.098   2.057   9.003 -0.0607  0.1930 -0.0165
 7889SOL    HW135300   3.074   2.149   9.012 -1.8356 -0.3615  1.0213
 7889SOL    HW235301   3.194   2.052   9.002 -0.1024 -0.9799  1.4933
 7890SOL     OW35302   2.652   0.137   9.437 -0.1100  0.0307 -0.2979
 7890SOL    HW135303   2.635   0.072   9.506  2.6588 -0.9068 -0.5248
 7890SOL    HW235304   2.702   0.092   9.370 -0.2815  2.5623 -2.1333
 7891SOL     OW35305   2.044   3.964   2.988  0.4920 -0.1689 -0.3193
 7891SOL    HW135306   2.009   3.904   2.923 -0.1867  0.6409 -0.6998
 7891SOL    HW235307   2.069   4.037   2.932 -1.9663  0.9695  0.0462
 7892SOL     OW35308   4.693   4.519   2.737  0.2053  0.1291 -0.4333
 7892SOL    HW135309   4.608   4.498   2.775  0.1751  1.6561  0.3074
 7892SOL    HW235310   4.686   4.613   2.720 -1.0174  0.4614  1.9306
 7893SOL     OW35311   3.248   2.021   8.046  0.4287  0.1612 -0.3840
 7893SOL    HW135312   3.161   2.022   8.086  0.8697 -0.1795  0.6006
 7893SOL    HW235313   3.300   2.038   8.125  1.1148  0.2561 -0.8535
 7894SOL     OW35314   1.927   1.220  12.203 -0.5925  0.8952  0.0802
 7894SOL    HW135315   1.839   1.209  12.241 -0.3383 -1.7268 -0.0918
 7894SOL    HW235316   1.906   1.237  12.111 -0.1862  0.8062 -0.0252
 7895SOL     OW35317   4.637   0.913   3.035  0.1576 -0.3338 -0.0798
 7895SOL    HW135318   4.667   0.920   3.126  2.1155  1.8277 -0.9151
 7895SOL    HW235319   4.569   0.980   3.034  0.8283  0.3373 -0.3415
 7896SOL     OW35320   4.626   4.216   2.958 -0.2153 -0.3625  0.1937
 7896SOL    HW135321   4.645   4.184   2.869  3.2155 -0.5686  0.9884
 7896SOL    HW235322   4.621   4.136   3.010 -0.5091 -0.7095 -0.3716
 7897SOL     OW35323   4.342   4.085  10.098 -0.2980  0.0637 -0.0189
 7897SOL    HW135324   4.306   4.152  10.040  2.3843  0.4872 -1.1734
 7897SOL    HW235325   4.434   4.102  10.119 -0.2248 -0.1028 -0.1964
 7898SOL     OW35326   2.327   4.656   1.091 -0.2284  0.2914 -0.6569
 7898SOL    HW135327   2.402   4.607   1.058 -1.4973 -2.9932  1.4112
 7898SOL    HW235328   2.332   4.652   1.186  0.3190 -0.6729 -0.7223
 7899SOL     OW35329   2.162   2.765   9.175 -0.2372  0.2561 -0.0961
 7899SOL    HW135330   2.138   2.791   9.086  0.9361 -0.4291 -0.6145
 7899SOL    HW235331   2.168   2.670   9.164  2.6030  0.2394  1.8379
 7900SOL     OW35332   1.898   2.808   4.463 -0.5821  0.7304 -0.0713
 7900SOL    HW135333   1.955   2.884   4.448 -0.7833  1.2261  1.6607
 7900SOL    HW235334   1.839   2.829   4.390  1.1056  1.8065 -1.1475
 7901SOL     OW35335   0.095   4.554  14.872 -0.6296 -0.2174  0.0586
 7901SOL    HW135336   0.171   4.548  14.816 -0.6748 -1.0688  0.0843
 7901SOL    HW235337   0.021   4.515  14.825 -2.2343 -0.8337  3.0950
 7902SOL     OW35338   4.395   4.199   3.729 -0.2123 -0.0968 -0.0647
 7902SOL    HW135339   4.461   4.263   3.755 -0.0894  0.2277 -1.1377
 7902SOL    HW235340   4.369   4.166   3.814  4.0753  0.9683  1.6718
 7903SOL     OW35341   0.925   2.165   9.394 -0.7745 -0.0755 -0.6508
 7903SOL    HW135342   0.942   2.071   9.382 -1.1918 -0.5477  2.2788
 7903SOL    HW235343   0.948   2.191   9.305 -2.7191  0.2761 -1.0618
 7904SOL     OW35344   0.787   2.859   6.722 -0.3192  0.1252 -0.0567
 7904SOL    HW135345   0.732   2.794   6.677  0.3395 -0.9278  0.6498
 7904SOL    HW235346   0.824   2.902   6.645  0.4031 -2.7898 -1.3606
 7905SOL     OW35347   0.551   0.310  13.196  0.2054 -0.3407  0.7589
 7905SOL    HW135348   0.507   0.390  13.167 -0.8451 -0.8981  0.8140
 7905SOL    HW235349   0.530   0.303  13.289 -3.6932  1.4661  0.0230
 7906SOL     OW35350   0.462   4.198  14.916  0.0779  0.1726  0.1158
 7906SOL    HW135351   0.396   4.206  14.985  0.4912 -1.1686  0.6574
 7906SOL    HW235352   0.428   4.266  14.858 -1.9936  0.8031  2.0695
 7907SOL     OW35353   4.241   2.515   7.240  0.2643 -0.2670 -0.0171
 7907SOL    HW135354   4.253   2.427   7.275  1.7197 -1.4876 -3.6746
 7907SOL    HW235355   4.152   2.533   7.270  0.1926 -1.3194  0.3777
 7908SOL     OW35356   4.709   1.479   6.024  0.1179  0.2724 -0.1064
 7908SOL    HW135357   4.693   1.462   6.117  0.4251  1.3148  0.1367
 7908SOL    HW235358   4.644   1.418   5.990  0.8622 -1.1695  1.0752
 7909SOL     OW35359   0.481   3.427  15.223  0.0039 -0.4008 -0.1178
 7909SOL    HW135360   0.530   3.485  15.165  1.3595 -3.7912 -2.3080
 7909SOL    HW235361   0.530   3.436  15.305  1.1255  2.1232 -1.0474
 7910SOL     OW35362   2.737   4.456   7.941 -0.1584 -0.0078 -0.4692
 7910SOL    HW135363   2.679   4.532   7.934  0.2178  0.1257 -2.1966
 7910SOL    HW235364   2.810   4.496   7.988  0.5074 -1.6221 -0.1314
 7911SOL     OW35365   1.356   4.598   9.089  0.5587  0.5077 -0.0640
 7911SOL    HW135366   1.281   4.656   9.081  0.7340  0.9534  1.7026
 7911SOL    HW235367   1.424   4.663   9.072 -0.4589  0.9838 -2.3834
 7912SOL     OW35368   4.229   0.885  10.577  0.3673 -0.5387 -0.1017
 7912SOL    HW135369   4.150   0.894  10.525  0.7542  0.8549 -0.4604
 7912SOL    HW235370   4.253   0.976  10.596  2.1467 -0.7576 -1.2985
 7913SOL     OW35371   2.993   1.918  15.299  0.0057  0.1860  0.0136
 7913SOL    HW135372   2.965   1.921  15.391 -1.4499 -1.7163 -0.3709
 7913SOL    HW235373   2.954   2.000  15.267  0.1622  0.8222  1.4213
 7914SOL     OW35374   4.432   3.082  14.299  0.3566  0.7392  0.2959
 7914SOL    HW135375   4.507   3.090  14.358  0.2441  0.0066  0.5320
 7914SOL    HW235376   4.457   3.011  14.240  0.2771  2.7163 -2.1474
 7915SOL     OW35377   1.315   0.760   0.160 -0.3022 -0.0080 -0.2583
 7915SOL    HW135378   1.304   0.765   0.255  0.8090  3.3005 -0.3056
 7915SOL    HW235379   1.230   0.799   0.141 -0.0156  1.2825  1.0649
 7916SOL     OW35380   2.188   0.315  17.339  0.4421 -0.2454  0.1283
 7916SOL    HW135381   2.120   0.310  17.272  2.0644  1.7467 -1.6589
 7916SOL    HW235382   2.179   0.228  17.378 -3.1572  0.5137  0.9908
 7917SOL     OW35383   1.344   3.599   8.627  0.2056  0.3177 -0.2772
 7917SOL    HW135384   1.344   3.510   8.591 -0.2733  0.4953 -0.7170
 7917SOL    HW235385   1.274   3.584   8.692 -0.3087 -0.0505 -0.9140
 7918SOL     OW35386   1.494   2.523   6.800 -0.0195 -0.3887  0.2184
 7918SOL    HW135387   1.484   2.607   6.845  2.0560  0.4484 -0.8482
 7918SOL    HW235388   1.411   2.482   6.823 -1.4189  3.0013  1.1656
 7919SOL     OW35389   2.768   1.725   2.215  0.5037  0.4904 -0.8640
 7919SOL    HW135390   2.799   1.742   2.304 -1.2861  0.3932 -0.2187
 7919SOL    HW235391   2.747   1.632   2.207  1.0935  0.3248 -0.4886
 7920SOL     OW35392   4.022   1.845  16.438  0.3506  0.3813 -0.2190
 7920SOL    HW135393   4.046   1.781  16.371  2.8888  0.2428  0.8389
 7920SOL    HW235394   3.936   1.815  16.467 -0.5732  1.0895 -2.1853
 7921SOL     OW35395   3.768   1.929   7.639 -0.0356 -0.3355 -0.2043
 7921SOL    HW135396   3.674   1.947   7.639  0.2377  1.1566  1.7513
 7921SOL    HW235397   3.804   1.997   7.583 -0.0079 -0.6150 -0.5261
 7922SOL     OW35398   1.943   4.727   6.647  0.4112 -0.2602  0.4381
 7922SOL    HW135399   2.006   4.690   6.585  2.3592 -0.4049  2.5483
 7922SOL    HW235400   1.875   0.015   6.583  1.1341  0.0109 -0.2323
 7923SOL     OW35401   3.697   0.533   3.300  0.6738 -0.2077  0.3971
 7923SOL    HW135402   3.631   0.563   3.238 -1.1798 -2.8722  1.0663
 7923SOL    HW235403   3.677   0.588   3.376 -1.3457  0.7002 -0.8102
 7924SOL     OW35404   4.035   0.922   6.384 -0.0489  0.3806  0.2932
 7924SOL    HW135405   4.026   0.920   6.288  0.6176  2.8617  0.1871
 7924SOL    HW235406   4.043   0.827   6.397 -0.3983  0.2110 -0.6811
 7925SOL     OW35407   4.667   4.449   0.457 -0.2901 -0.2852 -0.2311
 7925SOL    HW135408   4.624   4.402   0.528  1.6836 -1.2704  0.3212
 7925SOL    HW235409   4.598   4.454   0.391 -0.4563  1.5065  0.0850
 7926SOL     OW35410   1.150   1.375   5.918 -0.0743 -0.3013 -0.5381
 7926SOL    HW135411   1.175   1.399   6.007  0.2369  1.4058 -1.0707
 7926SOL    HW235412   1.131   1.282   5.920  2.2147 -0.7677 -0.6837
 7927SOL     OW35413   3.984   3.166  11.646 -0.7725  0.0989 -0.3381
 7927SOL    HW135414   4.020   3.154  11.558 -1.0656 -1.4951 -0.2492
 7927SOL    HW235415   4.062   3.144  11.697 -1.1983  0.5915  0.5249
 7928SOL     OW35416   4.313   1.716   2.084 -0.0396 -0.2301  0.1710
 7928SOL    HW135417   4.372   1.686   2.153 -0.2177  3.6317  2.0676
 7928SOL    HW235418   4.328   1.811   2.080 -2.6012  0.2341  1.7003
 7929SOL     OW35419   1.354   1.820   0.239 -0.4214  0.8402 -0.4092
 7929SOL    HW135420   1.386   1.869   0.315 -0.4389  0.4104 -0.1249
 7929SOL    HW235421   1.438   1.800   0.199 -0.5893  1.4168 -1.0509
 7930SOL     OW35422   0.580   4.533  11.076 -0.4316 -0.2155 -0.4726
 7930SOL    HW135423   0.573   4.437  11.078  0.8848 -0.2607  2.0143
 7930SOL    HW235424   0.645   4.550  11.009 -0.3326 -2.2672 -0.9078
 7931SOL     OW35425   3.345   4.076   6.297  0.2010  0.5134 -0.0322
 7931SOL    HW135426   3.389   4.022   6.363  0.8399  0.7636 -0.2525
 7931SOL    HW235427   3.361   4.021   6.220  0.1632 -1.8682  1.6601
 7932SOL     OW35428   1.210   0.510  10.292 -0.3231 -0.8935  0.3021
 7932SOL    HW135429   1.280   0.472  10.346  0.9944  1.6404  0.3729
 7932SOL    HW235430   1.246   0.515  10.204 -0.7953 -0.6463  0.1245
 7933SOL     OW35431   0.048   3.330  12.953 -0.4453  0.7721  0.9684
 7933SOL    HW135432   0.050   3.251  13.006 -1.0729  1.2468  1.6966
 7933SOL    HW235433   0.018   3.393  13.018  1.2412  1.7701  0.7921
 7934SOL     OW35434   3.061   1.725   4.577  0.3078 -0.5184 -0.0756
 7934SOL    HW135435   3.052   1.818   4.557  1.5761 -0.3765 -0.0187
 7934SOL    HW235436   3.113   1.703   4.500 -0.3747 -1.4991 -0.2504
 7935SOL     OW35437   2.824   0.086  12.128 -0.0933 -0.0233  0.2242
 7935SOL    HW135438   2.858   0.158  12.075 -1.4192  1.1618  0.9966
 7935SOL    HW235439   2.729   0.097  12.137 -0.3401 -0.9785 -1.1389
 7936SOL     OW35440   2.097   1.819   9.302 -0.3072  0.2029 -0.4424
 7936SOL    HW135441   2.166   1.778   9.354  0.1619  2.6071  0.8383
 7936SOL    HW235442   2.021   1.831   9.358  0.9652 -0.2554  1.3636
 7937SOL     OW35443   2.897   1.348   5.648 -0.5972  0.5483  0.3615
 7937SOL    HW135444   2.824   1.350   5.586  0.7754 -2.5166 -1.3529
 7937SOL    HW235445   2.965   1.338   5.581 -0.0432  1.0681  0.8466
 7938SOL     OW35446   4.189   3.527   1.488 -0.1434 -0.1709 -0.2933
 7938SOL    HW135447   4.241   3.463   1.537  0.6330  0.0859 -0.7799
 7938SOL    HW235448   4.188   3.485   1.401  1.0001 -0.9262  0.0640
 7939SOL     OW35449   0.277   3.029  12.912 -0.2131 -0.0245 -0.0447
 7939SOL    HW135450   0.208   3.050  12.975 -1.1926 -0.6312 -0.9049
 7939SOL    HW235451   0.328   2.965  12.961  0.3641  1.1644  0.8925
 7940SOL     OW35452   0.897   3.813   6.585  0.0876  0.1871 -0.1642
 7940SOL    HW135453   0.908   3.873   6.511  0.6004  2.0107  1.3966
 7940SOL    HW235454   0.806   3.822   6.615  1.1349  1.2909  2.6449
 7941SOL     OW35455   4.418   4.107   4.777  0.1154 -0.5213 -0.3303
 7941SOL    HW135456   4.424   4.012   4.773  0.1218 -0.5145 -0.4573
 7941SOL    HW235457   4.329   4.112   4.741 -0.4434 -2.0193  0.8216
 7942SOL     OW35458   2.814   3.842  12.995 -0.0058 -0.0494  0.5515
 7942SOL    HW135459   2.868   3.864  12.919  0.5245 -0.2587  0.8619
 7942SOL    HW235460   2.757   3.919  12.988 -1.1514 -0.9509  0.0531
 7943SOL     OW35461   1.726   3.283   7.165  0.6753  0.2140  0.0760
 7943SOL    HW135462   1.665   3.306   7.096  0.9754 -0.1493 -0.3060
 7943SOL    HW235463   1.785   3.216   7.132  2.1785  0.7402  1.6931
 7944SOL     OW35464   1.770   1.167   9.926  0.5737  1.0837  0.0336
 7944SOL    HW135465   1.718   1.205   9.855  1.0905 -1.9702 -1.9789
 7944SOL    HW235466   1.758   1.233   9.994 -3.6824 -0.2543  0.5973
 7945SOL     OW35467   0.188   4.348   3.582  0.6270 -0.4630 -0.7835
 7945SOL    HW135468   0.097   4.377   3.577  1.5334  2.8161  1.5989
 7945SOL    HW235469   0.238   4.412   3.531 -0.6090  0.4183 -0.8790
 7946SOL     OW35470   1.470   0.273   9.987 -0.5721 -0.2376 -0.2221
 7946SOL    HW135471   1.536   0.341  10.003  0.1212 -0.4962 -1.9802
 7946SOL    HW235472   1.528   0.197   9.974  0.5775  0.4383  1.0106
 7947SOL     OW35473   0.577   0.904   8.184 -0.8612  0.6160 -0.3543
 7947SOL    HW135474   0.568   0.996   8.209 -2.0754  0.2921  0.4039
 7947SOL    HW235475   0.506   0.893   8.121  0.2905 -2.6102 -1.0830
 7948SOL     OW35476   3.853   3.421  15.477 -0.3046 -0.2150 -0.1677
 7948SOL    HW135477   3.942   3.451  15.496 -0.0372  0.0464 -1.8281
 7948SOL    HW235478   3.814   3.504  15.504 -3.8151 -2.5618  1.9176
 7949SOL     OW35479   3.606   2.840  11.782 -0.8353  0.1702 -0.0514
 7949SOL    HW135480   3.611   2.765  11.722  0.2808  0.8772 -0.8433
 7949SOL    HW235481   3.634   2.908  11.721 -0.6589  0.4812  0.3773
 7950SOL     OW35482   4.551   0.525  13.121  0.5283  0.4544 -0.7290
 7950SOL    HW135483   4.558   0.595  13.057  3.0862  1.3739  0.5350
 7950SOL    HW235484   4.529   0.572  13.202 -0.7036 -1.1019 -0.1599
 7951SOL     OW35485   3.562   3.003  16.930  0.0659  0.0382  0.3507
 7951SOL    HW135486   3.609   3.070  16.879 -1.1851  0.5282 -0.1620
 7951SOL    HW235487   3.523   3.059  16.997 -0.2437 -0.3201  0.4692
 7952SOL     OW35488   1.877   1.555   4.082 -0.8928 -0.3605  0.5079
 7952SOL    HW135489   1.935   1.536   4.156  0.9546 -1.0035 -1.1085
 7952SOL    HW235490   1.913   1.636   4.045 -0.4587  0.6134  3.0985
 7953SOL     OW35491   3.923   2.846   3.427  0.1733  0.2368 -0.2783
 7953SOL    HW135492   3.832   2.877   3.427  0.3798  0.8505 -1.0224
 7953SOL    HW235493   3.911   2.784   3.356  0.6261 -0.2107  0.0395
 7954SOL     OW35494   3.606   0.016   2.951  0.4322  0.1798  0.4839
 7954SOL    HW135495   3.696   0.026   2.921 -0.8521  3.1571 -2.3967
 7954SOL    HW235496   3.599   0.063   3.033  2.5492 -0.2395  0.9015
 7955SOL     OW35497   3.252   0.270   6.423  0.0386  0.1198  0.2127
 7955SOL    HW135498   3.237   0.364   6.434 -0.6647 -0.1884  2.0084
 7955SOL    HW235499   3.187   0.234   6.484  0.7003  0.6044  1.2005
 7956SOL     OW35500   3.251   2.458  17.010 -0.6163  0.0091 -0.4172
 7956SOL    HW135501   3.284   2.393  16.948 -0.9498  1.1712 -1.8006
 7956SOL    HW235502   3.162   2.430  17.032 -0.8274  0.0317 -1.2508
 7957SOL     OW35503   0.888   2.601   2.109  0.1548  0.1092 -0.4784
 7957SOL    HW135504   0.968   2.646   2.082 -0.3100  0.2573 -1.5863
 7957SOL    HW235505   0.918   2.568   2.194 -0.3201  0.6169 -0.1183
 7958SOL     OW35506   0.393   3.865   6.128 -0.7084  0.1017  0.4782
 7958SOL    HW135507   0.361   3.946   6.168 -1.2679  0.5279 -0.8322
 7958SOL    HW235508   0.472   3.898   6.085 -0.7339 -3.2370 -2.1346
 7959SOL     OW35509   2.872   2.612   8.822 -0.0346 -0.2606 -0.5321
 7959SOL    HW135510   2.855   2.649   8.909  0.7721  0.0272 -0.5036
 7959SOL    HW235511   2.934   2.675   8.786 -1.6592  1.6226 -0.0098
 7960SOL     OW35512   2.717   4.372   6.141  0.4756 -0.3637 -0.2552
 7960SOL    HW135513   2.662   4.344   6.214 -1.9497  3.9181 -0.4061
 7960SOL    HW235514   2.739   4.462   6.164  1.9891 -0.9738  0.6726
 7961SOL     OW35515   2.207   3.365   1.330 -0.5205  0.5115  0.4453
 7961SOL    HW135516   2.157   3.346   1.410  0.6766 -1.0010  0.8451
 7961SOL    HW235517   2.151   3.331   1.261  0.3684  0.0220 -0.0355
 7962SOL     OW35518   1.217   0.843  12.546  0.0275 -0.0404 -0.2629
 7962SOL    HW135519   1.277   0.798  12.487 -1.3492 -1.1542 -0.8156
 7962SOL    HW235520   1.188   0.770  12.601 -1.3759  0.4346 -0.3623
 7963SOL     OW35521   3.847   0.477  16.315 -0.1951 -0.2436  0.3304
 7963SOL    HW135522   3.913   0.444  16.375 -0.6502 -0.7884  0.5344
 7963SOL    HW235523   3.886   0.558  16.284 -2.4436  1.0211  0.8106
 7964SOL     OW35524   0.688   1.119  11.314 -0.5558 -0.1292  0.1262
 7964SOL    HW135525   0.596   1.140  11.302  0.0584  1.0021 -2.5805
 7964SOL    HW235526   0.689   1.030  11.280 -0.0953 -0.0801  0.0004
 7965SOL     OW35527   1.662   2.033  13.233  0.1138  0.4636  0.5655
 7965SOL    HW135528   1.568   2.011  13.234  0.8243 -2.4607  1.4626
 7965SOL    HW235529   1.668   2.058  13.141  1.5534  0.9096  0.7795
 7966SOL     OW35530   2.698   0.300   1.703  0.4159 -0.0156  0.0871
 7966SOL    HW135531   2.692   0.383   1.655  2.2651 -0.2699 -0.5698
 7966SOL    HW235532   2.660   0.322   1.788 -0.7333  0.0519 -0.4537
 7967SOL     OW35533   2.713   0.906   1.518 -0.3299  0.7457 -0.7014
 7967SOL    HW135534   2.663   0.825   1.527 -1.3268  1.5328  0.7570
 7967SOL    HW235535   2.650   0.973   1.542  0.5824  1.0335  0.8653
 7968SOL     OW35536   0.740   2.592   0.528  0.5589 -0.1012 -0.0996
 7968SOL    HW135537   0.664   2.541   0.501  2.2637 -3.2009  0.9580
 7968SOL    HW235538   0.765   2.550   0.611 -0.5333 -0.2263  0.1769
 7969SOL     OW35539   1.772   4.115   3.632 -0.2812 -0.3107  0.2568
 7969SOL    HW135540   1.740   4.140   3.718 -1.9380  1.3221 -0.8240
 7969SOL    HW235541   1.860   4.084   3.654  0.5824  0.9453 -1.4473
 7970SOL     OW35542   2.177   1.103   7.634 -0.5583 -0.2358 -0.4122
 7970SOL    HW135543   2.229   1.033   7.674 -0.1742  0.0219 -0.4563
 7970SOL    HW235544   2.216   1.172   7.689 -2.4697  2.1953 -2.1085
 7971SOL     OW35545   4.308   2.709   4.997  0.2462 -0.0008  0.3477
 7971SOL    HW135546   4.364   2.767   5.049  0.9431 -0.8294  0.5202
 7971SOL    HW235547   4.353   2.625   5.010 -0.9600  0.1232  5.1465
 7972SOL     OW35548   3.179   1.066   9.580 -0.1497  0.3064 -0.2600
 7972SOL    HW135549   3.203   1.008   9.508 -0.1390  1.2696 -1.0311
 7972SOL    HW235550   3.097   1.101   9.545 -0.3984  1.4730  1.5108
 7973SOL     OW35551   2.750   2.066   3.448 -0.7009  0.0111 -0.8472
 7973SOL    HW135552   2.768   2.147   3.495 -0.2726 -1.2248  1.1004
 7973SOL    HW235553   2.825   2.020   3.487 -0.9667 -0.3596 -0.7705
 7974SOL     OW35554   3.575   3.809   3.299  0.5261  0.1496  0.3386
 7974SOL    HW135555   3.513   3.882   3.309 -1.3865 -1.2111 -1.7090
 7974SOL    HW235556   3.567   3.800   3.204  2.1614  2.8352 -0.0558
 7975SOL     OW35557   1.661   2.813   3.426  0.1733  0.1817  0.2813
 7975SOL    HW135558   1.631   2.889   3.477  1.4487  0.8383  0.0518
 7975SOL    HW235559   1.709   2.761   3.490  0.0903 -0.7053 -0.3802
 7976SOL     OW35560   2.195   4.572   7.299 -0.3987 -0.0842 -0.0449
 7976SOL    HW135561   2.243   4.490   7.310  0.5846  0.7918  2.2481
 7976SOL    HW235562   2.213   4.609   7.386  0.1636 -1.4270  0.4027
 7977SOL     OW35563   0.587   2.863   7.835  0.1186  0.0483  0.2292
 7977SOL    HW135564   0.645   2.829   7.768 -0.1883  0.3685 -0.1999
 7977SOL    HW235565   0.506   2.872   7.786  0.6844 -0.9864 -0.8951
 7978SOL     OW35566   0.701   0.834   5.270 -0.0471 -0.0098  0.4090
 7978SOL    HW135567   0.745   0.881   5.341 -3.2433 -0.9619  3.0166
 7978SOL    HW235568   0.632   0.893   5.240  0.4405  0.4329  0.1695
 7979SOL     OW35569   1.166   3.059   4.379  0.1772  0.4014 -0.3794
 7979SOL    HW135570   1.118   3.060   4.462 -0.0810  1.3966 -0.5390
 7979SOL    HW235571   1.252   3.091   4.405 -0.5665  1.8460  0.3008
 7980SOL     OW35572   1.884   0.216   8.403 -0.2681 -0.5981  0.0346
 7980SOL    HW135573   1.873   0.130   8.364 -0.8369 -0.7433  0.5150
 7980SOL    HW235574   1.793   0.237   8.424 -1.1505 -1.0691 -3.3174
 7981SOL     OW35575   3.317   2.562   3.686 -0.6406  0.0327 -0.1748
 7981SOL    HW135576   3.275   2.557   3.600 -1.4229  2.4255  0.0802
 7981SOL    HW235577   3.406   2.536   3.662  0.3655  2.3514  1.0551
 7982SOL     OW35578   3.401   3.388  12.843 -0.2072 -0.5026 -0.4497
 7982SOL    HW135579   3.329   3.407  12.783 -1.2759 -0.4308  0.8681
 7982SOL    HW235580   3.407   3.292  12.834  2.5394 -0.2949 -0.7756
 7983SOL     OW35581   4.095   3.499  15.447 -0.5354  0.0402  0.1681
 7983SOL    HW135582   4.095   3.461  15.359 -1.6852  0.3981  0.0201
 7983SOL    HW235583   4.144   3.581  15.439 -2.7337  1.2637 -0.5268
 7984SOL     OW35584   3.688   4.482   7.540 -0.7464 -0.9058 -0.3073
 7984SOL    HW135585   3.716   4.401   7.497  0.0871 -1.1965  0.8095
 7984SOL    HW235586   3.725   4.479   7.628 -0.4893  2.1357 -0.2998
 7985SOL     OW35587   3.947   0.397  15.699 -0.5651  0.0605 -0.2243
 7985SOL    HW135588   3.969   0.473  15.646 -2.5012  1.1749  0.5827
 7985SOL    HW235589   3.982   0.321  15.653  0.9378 -0.4456  1.7588
 7986SOL     OW35590   4.304   2.577   8.089  0.0541  0.2081  0.5306
 7986SOL    HW135591   4.240   2.508   8.105  0.3829  0.5483  3.3157
 7986SOL    HW235592   4.336   2.585   8.178  1.2645 -1.6861  0.2634
 7987SOL     OW35593   0.876   3.202   5.349  0.7318 -0.8543 -0.1721
 7987SOL    HW135594   0.926   3.251   5.284  0.1257 -0.1225 -0.0898
 7987SOL    HW235595   0.792   3.217   5.306  1.2749 -1.1098 -1.3209
 7988SOL     OW35596   0.827   3.525   2.006 -0.1985 -0.8873 -0.1926
 7988SOL    HW135597   0.908   3.508   1.959  1.5245  0.1309  2.4214
 7988SOL    HW235598   0.830   3.621   2.004 -1.7060 -0.8039  2.2891
 7989SOL     OW35599   3.485   2.967   7.637  0.5393 -0.0090  0.5830
 7989SOL    HW135600   3.474   3.006   7.550  1.1499  2.2667  1.5109
 7989SOL    HW235601   3.392   2.952   7.652  0.1914  1.6945  0.1514
 7990SOL     OW35602   3.986   0.825   8.096  0.2723  0.1640  0.9978
 7990SOL    HW135603   4.077   0.829   8.125  0.4960  0.7142  0.2387
 7990SOL    HW235604   3.992   0.741   8.051  0.2942  0.3618  0.6313
 7991SOL     OW35605   1.649   1.580   9.657 -0.0685  0.2061  0.0805
 7991SOL    HW135606   1.654   1.661   9.708  2.1896  0.6382 -0.8058
 7991SOL    HW235607   1.725   1.533   9.692  0.5848  0.4916 -0.9681
 7992SOL     OW35608   3.761   3.437   5.520 -0.1813 -0.0789 -0.3142
 7992SOL    HW135609   3.685   3.387   5.491 -0.4398 -1.1375  2.1725
 7992SOL    HW235610   3.831   3.374   5.540 -2.0347 -2.1555 -0.4114
 7993SOL     OW35611   1.451   2.454   3.028 -0.0119  0.1077 -0.0695
 7993SOL    HW135612   1.515   2.521   3.054 -2.4876  2.7184 -0.7749
 7993SOL    HW235613   1.406   2.501   2.959  0.1908 -0.1770 -0.3960
 7994SOL     OW35614   1.225   4.511  15.080  0.5248  0.9988 -0.2809
 7994SOL    HW135615   1.130   4.498  15.088  0.7537 -0.4358  0.0207
 7994SOL    HW235616   1.257   4.452  15.149 -1.6257 -0.3825 -0.4599
 7995SOL     OW35617   0.523   4.089   7.361  0.0808 -0.2853 -0.0630
 7995SOL    HW135618   0.463   4.023   7.397 -1.7354  0.9380 -0.8632
 7995SOL    HW235619   0.606   4.061   7.400 -0.7291 -1.6572  0.6751
 7996SOL     OW35620   3.704   0.387   9.217  0.3954  0.1054  0.2880
 7996SOL    HW135621   3.724   0.419   9.129  0.4684 -1.0490 -0.1248
 7996SOL    HW235622   3.781   0.335   9.243  0.5352  0.1885  0.0359
 7997SOL     OW35623   0.578   3.010   2.030  0.3477  0.1403 -0.3809
 7997SOL    HW135624   0.657   3.031   2.080  1.4062  1.0579 -2.3923
 7997SOL    HW235625   0.617   3.010   1.942 -0.2827 -1.4574 -0.6585
 7998SOL     OW35626   1.921   3.131  14.023 -0.3825 -0.0516  0.2011
 7998SOL    HW135627   1.932   3.060  13.960  3.3339  1.3994 -0.7663
 7998SOL    HW235628   1.988   3.100  14.083  2.1978  1.5365 -1.8268
 7999SOL     OW35629   2.453   0.575   6.622  0.6427  0.3111 -0.0060
 7999SOL    HW135630   2.456   0.480   6.633 -2.2003  0.1143 -0.9166
 7999SOL    HW235631   2.366   0.591   6.659  0.1282  2.9620 -2.3379
 8000SOL     OW35632   0.692   3.018   4.873 -0.0794 -0.3157  0.2232
 8000SOL    HW135633   0.733   3.101   4.894  0.9615 -0.1884 -2.2880
 8000SOL    HW235634   0.605   3.036   4.909 -0.4818  1.5730 -1.7064
 8001SOL     OW35635   1.714   1.260   3.600  0.6518  0.2932 -0.1883
 8001SOL    HW135636   1.658   1.189   3.566  0.3260  0.9503 -1.0346
 8001SOL    HW235637   1.665   1.338   3.573 -1.2226 -0.5150  0.8489
 8002SOL     OW35638   3.654   0.209   7.674  0.3834 -0.1184  0.4962
 8002SOL    HW135639   3.652   0.114   7.669 -0.6020 -0.0734 -0.1891
 8002SOL    HW235640   3.561   0.211   7.648  0.4584 -1.8435  0.0890
 8003SOL     OW35641   0.585   0.613  12.819 -0.1842  0.0239 -0.3756
 8003SOL    HW135642   0.516   0.557  12.854  2.3740 -2.2217  1.1697
 8003SOL    HW235643   0.655   0.607  12.885  0.3425 -0.5252 -0.9794
 8004SOL     OW35644   4.050   0.895   6.088 -0.0489 -0.1971  0.0009
 8004SOL    HW135645   4.009   0.962   6.033 -0.6098 -1.0280 -0.5988
 8004SOL    HW235646   4.138   0.894   6.050  0.2755 -1.2865  0.7901
 8005SOL     OW35647   2.890   3.982  11.372  0.7331  0.4876  0.1365
 8005SOL    HW135648   2.862   3.956  11.284  1.0292 -0.4007  0.3008
 8005SOL    HW235649   2.971   4.028  11.351  0.7169  0.3340 -0.2518
 8006SOL     OW35650   1.489   0.886   5.953 -0.0531 -0.0237 -0.2609
 8006SOL    HW135651   1.554   0.899   6.022  1.2583  0.9305 -1.6889
 8006SOL    HW235652   1.406   0.916   5.991 -1.6729 -3.8146 -0.8428
 8007SOL     OW35653   2.999   1.752  17.139 -0.4184 -0.1130 -0.2215
 8007SOL    HW135654   3.084   1.720  17.169 -0.4868 -0.0739  0.0154
 8007SOL    HW235655   2.987   1.688  17.069 -1.4349  1.4554 -1.4853
 8008SOL     OW35656   1.887   2.457   8.033 -0.0559  0.1341 -0.0230
 8008SOL    HW135657   1.837   2.427   8.108 -1.1100  0.2292 -0.6821
 8008SOL    HW235658   1.978   2.442   8.056 -0.8344 -1.0091  2.2376
 8009SOL     OW35659   0.564   3.026   2.856 -0.6372 -0.2730 -0.2549
 8009SOL    HW135660   0.518   3.037   2.939 -2.8307  2.4590 -1.8380
 8009SOL    HW235661   0.495   2.996   2.796 -1.2633 -0.2314  0.4483
 8010SOL     OW35662   1.537   1.315  14.005  0.0638  0.1839  0.2400
 8010SOL    HW135663   1.615   1.322  13.950 -0.8421 -1.2366 -1.2332
 8010SOL    HW235664   1.543   1.390  14.064  1.7187  0.1295  0.1377
 8011SOL     OW35665   4.703   1.631   8.485  0.2878  0.1829 -0.0021
 8011SOL    HW135666   0.011   1.674   8.557  0.1557  2.4014 -1.2565
 8011SOL    HW235667   4.693   1.695   8.414  2.7842  3.1613  2.3275
 8012SOL     OW35668   4.014   1.166  17.295 -0.3188  0.2507  0.5319
 8012SOL    HW135669   4.105   1.150  17.319 -0.6095  2.2940  3.0369
 8012SOL    HW235670   3.981   1.193  17.380  2.5726  1.0632  1.3963
 8013SOL     OW35671   1.405   3.576   1.800 -0.3654 -0.0229 -0.3444
 8013SOL    HW135672   1.443   3.663   1.789 -0.5116  0.4033  2.6156
 8013SOL    HW235673   1.317   3.605   1.823 -0.0036 -0.5467  1.7416
 8014SOL     OW35674   0.360   4.567   0.476 -0.0963 -0.2519 -0.2052
 8014SOL    HW135675   0.293   4.567   0.544 -0.1222 -1.6426 -0.2416
 8014SOL    HW235676   0.385   4.476   0.463  0.6490 -0.0404 -0.2456
 8015SOL     OW35677   4.543   1.891  10.780 -0.8449 -0.1575 -0.1615
 8015SOL    HW135678   4.532   1.962  10.843  2.1943 -1.1144  1.4868
 8015SOL    HW235679   4.638   1.876  10.779 -0.2188  3.4666  2.5019
 8016SOL     OW35680   4.726   0.439   2.281 -0.4615 -0.1887 -0.3467
 8016SOL    HW135681   0.008   0.351   2.248 -1.8771 -0.1080 -1.3186
 8016SOL    HW235682   4.633   0.457   2.265 -0.4312  0.2381 -0.0378
 8017SOL     OW35683   4.036   3.920   0.144  0.0039  0.2201  0.4851
 8017SOL    HW135684   3.972   3.851   0.127  0.1532  0.1849  0.0827
 8017SOL    HW235685   4.006   3.959   0.226 -2.1562 -0.1503 -0.1322
 8018SOL     OW35686   1.853   3.104   7.037  0.4398 -0.1643  0.3333
 8018SOL    HW135687   1.913   3.050   7.088 -1.1779 -1.7633  0.5493
 8018SOL    HW235688   1.870   3.087   6.944 -2.5470  1.6865 -0.5581
 8019SOL     OW35689   2.851   4.005   4.566 -0.3308  0.3538 -0.8671
 8019SOL    HW135690   2.886   4.020   4.654 -1.3146 -1.5106 -0.1526
 8019SOL    HW235691   2.922   3.950   4.533  0.7338  1.2951 -0.1468
 8020SOL     OW35692   3.501   4.422   8.815 -0.4596 -0.7282 -0.0282
 8020SOL    HW135693   3.565   4.384   8.876 -2.1521 -1.6545  1.1877
 8020SOL    HW235694   3.549   4.442   8.735 -1.3619 -1.5044 -0.7774
 8021SOL     OW35695   3.739   1.513  16.301 -0.2425  0.1448 -0.4799
 8021SOL    HW135696   3.698   1.427  16.298 -0.1521  0.1432 -1.4827
 8021SOL    HW235697   3.830   1.488  16.315  0.0506  1.5774  0.2085
 8022SOL     OW35698   2.762   4.419  15.003  0.2674  0.4510  0.4730
 8022SOL    HW135699   2.690   4.401  14.943  0.5163  0.2981  0.2181
 8022SOL    HW235700   2.723   4.426  15.090  0.2459 -1.1645  0.5797
 8023SOL     OW35701   0.075   0.627   9.024  0.0719 -0.1232  0.4544
 8023SOL    HW135702   0.108   0.697   8.969  1.2402 -0.5497  0.6096
 8023SOL    HW235703   4.734   0.598   8.975 -0.0431  0.6411  0.1944
 8024SOL     OW35704   3.394   2.673  17.041 -0.0720  0.2992  0.0519
 8024SOL    HW135705   3.338   2.595  17.037 -1.9143  1.6430 -0.1719
 8024SOL    HW235706   3.345   2.716  16.972  0.4002 -2.1255 -1.8177
 8025SOL     OW35707   1.230   0.550   8.423 -0.5572  0.2440 -0.1329
 8025SOL    HW135708   1.322   0.525   8.426  0.2420  2.8989 -1.7253
 8025SOL    HW235709   1.211   0.532   8.331  2.4982 -0.7084 -0.5654
 8026SOL     OW35710   4.222   3.412   6.220  0.0980 -0.3963 -0.1101
 8026SOL    HW135711   4.253   3.447   6.136  1.2329 -0.1969  0.3889
 8026SOL    HW235712   4.148   3.472   6.229 -0.0582 -0.3857 -1.4449
 8027SOL     OW35713   1.078   3.110   8.793 -0.2461  0.2016 -1.0555
 8027SOL    HW135714   1.086   3.020   8.825 -0.7962 -0.1329 -1.8799
 8027SOL    HW235715   0.999   3.100   8.741 -0.7610  1.0000 -0.4277
 8028SOL     OW35716   2.180   3.422   6.532 -0.1908 -0.4316  0.5310
 8028SOL    HW135717   2.260   3.470   6.512 -1.9632  1.9582 -0.8527
 8028SOL    HW235718   2.207   3.334   6.506  0.7532 -0.0788  0.3298
 8029SOL     OW35719   0.419   3.576   6.801  0.2627 -0.0890  0.1488
 8029SOL    HW135720   0.455   3.648   6.852 -0.6568 -0.0597  0.7656
 8029SOL    HW235721   0.334   3.606   6.767  0.6323  1.6007  0.6935
 8030SOL     OW35722   1.280   3.648   7.515  0.7361  0.1326  0.3462
 8030SOL    HW135723   1.331   3.726   7.492  1.4356 -0.6125 -0.6041
 8030SOL    HW235724   1.295   3.585   7.445  0.2380 -2.6309  2.7336
 8031SOL     OW35725   4.503   3.264  12.300  0.5948 -0.2656 -0.0234
 8031SOL    HW135726   4.473   3.211  12.373 -0.0533 -1.7224 -1.3545
 8031SOL    HW235727   4.428   3.318  12.276  1.8520  1.8603  0.8127
 8032SOL     OW35728   3.843   0.596   8.372 -0.2104  0.4916  0.1007
 8032SOL    HW135729   3.800   0.547   8.302  1.4191 -0.4989 -0.2085
 8032SOL    HW235730   3.923   0.623   8.327  0.4300 -1.1032  0.2925
 8033SOL     OW35731   2.275   0.884   7.879 -0.0001  0.5130  0.1605
 8033SOL    HW135732   2.238   0.815   7.825  1.2526 -0.0871  0.0517
 8033SOL    HW235733   2.215   0.881   7.954 -0.2509 -0.8173 -0.0962
 8034SOL     OW35734   0.339   3.615   2.363 -0.0585 -0.2193 -0.1826
 8034SOL    HW135735   0.375   3.534   2.399 -0.0855 -0.8344 -1.5645
 8034SOL    HW235736   0.260   3.580   2.321 -0.4927  1.5866 -0.8709
 8035SOL     OW35737   4.435   2.951   5.026 -0.3871 -0.2087  0.3964
 8035SOL    HW135738   4.402   3.036   4.997  1.4341  0.7045  0.9365
 8035SOL    HW235739   4.494   2.977   5.097  0.5613 -1.2401 -0.0053
 8036SOL     OW35740   3.834   1.389   8.773 -0.0273  0.1156 -0.2571
 8036SOL    HW135741   3.875   1.419   8.692  2.6230 -1.7488  0.3786
 8036SOL    HW235742   3.834   1.295   8.756 -0.4199 -0.0615  0.7108
 8037SOL     OW35743   3.321   2.627   5.189 -0.0974  0.3457 -0.0656
 8037SOL    HW135744   3.388   2.560   5.175 -0.5112  0.5241 -3.0145
 8037SOL    HW235745   3.280   2.610   5.273 -0.4488  1.2078 -0.0562
 8038SOL     OW35746   4.257   1.678   5.678 -0.3456 -0.1924 -0.2233
 8038SOL    HW135747   4.314   1.660   5.604  0.0205 -0.5892  0.1601
 8038SOL    HW235748   4.302   1.634   5.750  0.6282  1.1769  0.0071
 8039SOL     OW35749   3.653   4.615  13.179  0.4771  0.0863 -0.3671
 8039SOL    HW135750   3.571   4.658  13.201  0.0919 -0.4448 -0.7581
 8039SOL    HW235751   3.683   4.663  13.102  0.4846 -1.3360 -1.2624
 8040SOL     OW35752   1.592   4.277  11.152  0.4735  0.1836  0.1808
 8040SOL    HW135753   1.505   4.247  11.180  0.9338 -0.2823  1.1205
 8040SOL    HW235754   1.619   4.311  11.237  0.8248 -0.9421  0.5246
 8041SOL     OW35755   3.215   4.633   1.327 -0.1986 -1.1388  0.6832
 8041SOL    HW135756   3.198   4.648   1.420  0.0722  1.6349  0.2905
 8041SOL    HW235757   3.174   4.549   1.305 -1.1245 -0.3480 -0.6536
 8042SOL     OW35758   2.162   3.104  10.861  0.3165  0.3572  0.0805
 8042SOL    HW135759   2.253   3.081  10.879  0.1741 -0.7756 -0.6363
 8042SOL    HW235760   2.152   3.160  10.938 -2.0651 -0.3484  0.2658
 8043SOL     OW35761   1.279   2.332   1.515  0.2693  0.2670 -0.5769
 8043SOL    HW135762   1.248   2.288   1.595  0.4735  3.0521  1.0609
 8043SOL    HW235763   1.365   2.362   1.545  0.2855 -1.8155  1.5288
 8044SOL     OW35764   3.407   0.331   9.531  0.3691 -0.0228  0.2140
 8044SOL    HW135765   3.432   0.239   9.539 -1.8069 -0.4681  1.7967
 8044SOL    HW235766   3.401   0.334   9.626 -1.3842 -0.7957  0.1259
 8045SOL     OW35767   3.808   1.761   1.439 -0.4572 -0.2738 -0.0968
 8045SOL    HW135768   3.725   1.737   1.480 -1.0238  0.5623 -0.7570
 8045SOL    HW235769   3.868   1.733   1.508 -0.8827  0.0746  0.4162
 8046SOL     OW35770   0.044   2.632   4.400  0.0652  0.3419 -0.5484
 8046SOL    HW135771   4.701   2.685   4.391  0.9076  1.6189 -0.4396
 8046SOL    HW235772   0.009   2.561   4.454 -2.6236  1.6073 -0.6336
 8047SOL     OW35773   2.796   3.599  13.092 -0.6406  0.4615 -0.4382
 8047SOL    HW135774   2.799   3.675  13.035  1.6374 -0.6726 -1.8371
 8047SOL    HW235775   2.820   3.640  13.175 -0.2777 -1.2136  0.2745
 8048SOL     OW35776   4.112   1.993   2.066  0.6277 -0.0224 -0.3464
 8048SOL    HW135777   4.117   2.027   2.155 -1.5318 -0.1800 -0.1682
 8048SOL    HW235778   4.181   2.034   2.013  2.6819  1.1346  3.2021
 8049SOL     OW35779   1.538   0.057   8.987  0.2659  0.1813 -0.3581
 8049SOL    HW135780   1.623   0.051   8.944 -0.8639  0.1254 -2.5306
 8049SOL    HW235781   1.477   0.098   8.926 -0.9146  0.7837  1.1914
 8050SOL     OW35782   0.453   0.821   3.462 -0.3326 -0.3816 -0.1420
 8050SOL    HW135783   0.534   0.777   3.434 -0.6265 -0.7450 -0.4244
 8050SOL    HW235784   0.485   0.868   3.539  1.3321 -0.3369 -0.8484
 8051SOL     OW35785   3.326   1.513   4.444  0.3497 -0.2912 -0.3492
 8051SOL    HW135786   3.386   1.565   4.390  0.0244  1.2034  0.7033
 8051SOL    HW235787   3.252   1.499   4.386  1.2273 -0.0370 -1.5332
 8052SOL     OW35788   4.481   3.852   6.879 -1.0769  0.0154  0.7118
 8052SOL    HW135789   4.447   3.929   6.834  1.2593  0.4706 -0.2625
 8052SOL    HW235790   4.455   3.876   6.968 -2.1595  1.4717 -0.0077
 8053SOL     OW35791   1.854   2.684  13.737 -0.1165  0.0676 -0.0055
 8053SOL    HW135792   1.887   2.754  13.794 -1.3214 -0.2727  1.1027
 8053SOL    HW235793   1.873   2.732  13.656  0.7339  2.1640  1.4309
 8054SOL     OW35794   2.505   4.118  13.445  0.1095 -0.1497  0.5054
 8054SOL    HW135795   2.444   4.140  13.374  0.0444 -0.2214  0.5385
 8054SOL    HW235796   2.446   4.094  13.517 -0.3050 -1.7218 -0.3577
 8055SOL     OW35797   0.461   0.983  13.386  0.3166 -0.4409  0.3116
 8055SOL    HW135798   0.508   0.961  13.466  1.8971  1.1933 -0.1645
 8055SOL    HW235799   0.501   1.068  13.366 -1.3776  0.4673  0.7473
 8056SOL     OW35800   1.589   1.500   6.055 -0.1706  0.1339 -0.0193
 8056SOL    HW135801   1.595   1.594   6.071  1.1560 -0.4182  2.6357
 8056SOL    HW235802   1.549   1.479   6.139 -0.7115  2.2064  0.2322
 8057SOL     OW35803   3.953   4.126   1.747  0.1071 -0.0091  0.0286
 8057SOL    HW135804   3.991   4.150   1.831  0.4862  2.2468 -0.7938
 8057SOL    HW235805   4.035   4.140   1.700  0.1242  0.8428  0.3169
 8058SOL     OW35806   3.257   1.846   7.176 -0.1864 -0.4565  0.3049
 8058SOL    HW135807   3.299   1.854   7.091 -0.6084 -1.8164 -0.0424
 8058SOL    HW235808   3.168   1.845   7.139  0.0724 -1.5818 -0.2848
 8059SOL     OW35809   2.914   3.870   6.252  0.3462 -0.2546 -0.5870
 8059SOL    HW135810   2.897   3.962   6.228 -0.1475  0.2472  1.6881
 8059SOL    HW235811   2.920   3.875   6.347 -1.5571  1.5979 -0.5523
 8060SOL     OW35812   2.099   3.456   1.576  0.0987  0.0888 -0.0415
 8060SOL    HW135813   2.013   3.498   1.572 -0.8362 -1.8151  0.1229
 8060SOL    HW235814   2.155   3.528   1.606 -1.2724 -0.1412  3.0835
 8061SOL     OW35815   2.352   0.178   6.203  0.2114 -0.0346  0.0173
 8061SOL    HW135816   2.295   0.150   6.274  0.6527 -2.3291 -0.5475
 8061SOL    HW235817   2.344   0.110   6.136  1.2084  0.6283 -0.7861
 8062SOL     OW35818   3.061   3.304   4.202 -0.2413  0.1163 -0.0581
 8062SOL    HW135819   3.041   3.381   4.149 -2.8571 -1.7415 -1.8016
 8062SOL    HW235820   3.012   3.238   4.152  1.8418 -0.3272 -1.5246
 8063SOL     OW35821   1.319   3.245   8.049 -0.0076 -0.0972 -0.2625
 8063SOL    HW135822   1.319   3.304   7.974 -0.2296  1.1035  0.6919
 8063SOL    HW235823   1.279   3.168   8.008  1.2965  0.0278 -1.7638
 8064SOL     OW35824   1.797   0.719   0.816  0.3324  0.6516 -0.6215
 8064SOL    HW135825   1.798   0.716   0.911 -0.1097  1.8695 -0.5803
 8064SOL    HW235826   1.890   0.729   0.800  0.4373  2.5583  1.2281
 8065SOL     OW35827   2.551   4.541   9.287  0.4076 -0.0970 -0.8846
 8065SOL    HW135828   2.588   4.562   9.374 -0.5103  1.3440 -0.8360
 8065SOL    HW235829   2.501   4.466   9.317 -2.6085  1.4813 -2.0474
 8066SOL     OW35830   0.875   3.736   3.458 -0.4927 -0.5839 -0.0371
 8066SOL    HW135831   0.781   3.717   3.468 -0.5734 -0.9192 -1.4661
 8066SOL    HW235832   0.866   3.756   3.365  0.1979  1.0188  0.2456
 8067SOL     OW35833   1.416   3.902  16.688 -0.1634  0.4461  0.2001
 8067SOL    HW135834   1.499   3.949  16.693 -0.7496  1.5454 -0.4362
 8067SOL    HW235835   1.429   3.836  16.756  0.7198  1.9902  1.5290
 8068SOL     OW35836   2.356   1.963  13.127 -0.4007 -0.6494 -0.6301
 8068SOL    HW135837   2.310   2.041  13.159  1.2315  0.4240 -0.8466
 8068SOL    HW235838   2.417   1.964  13.201 -1.2560  0.6139  0.0621
 8069SOL     OW35839   2.841   1.845  15.840  0.0016  0.0423 -0.1182
 8069SOL    HW135840   2.911   1.906  15.816  1.8701 -1.7124  0.9846
 8069SOL    HW235841   2.889   1.777  15.887 -0.2295  0.8154  1.2360
 8070SOL     OW35842   1.988   2.419   2.589  0.4489 -0.0671 -0.1226
 8070SOL    HW135843   1.930   2.423   2.665  0.2869 -3.4895 -0.0899
 8070SOL    HW235844   2.068   2.435   2.639  0.8418  0.9118 -1.0651
 8071SOL     OW35845   2.975   0.901   5.431 -0.3294  0.3818  0.4963
 8071SOL    HW135846   2.938   0.967   5.373  0.2379  0.3909  0.1485
 8071SOL    HW235847   2.899   0.885   5.487 -0.2914  2.2039  1.0697
 8072SOL     OW35848   0.704   3.576   8.509 -0.5822  0.0533 -1.0376
 8072SOL    HW135849   0.664   3.492   8.491 -1.2386 -0.2159  1.8700
 8072SOL    HW235850   0.772   3.544   8.568 -1.6075 -0.4015 -0.1159
 8073SOL     OW35851   3.341   2.716   7.883 -0.2355  0.1243  0.0274
 8073SOL    HW135852   3.338   2.794   7.829 -0.2931  0.5814  0.6894
 8073SOL    HW235853   3.388   2.740   7.963 -0.0829  0.9851 -0.3322
 8074SOL     OW35854   2.045   2.955   3.554 -0.4653 -0.0691  0.3362
 8074SOL    HW135855   2.086   2.875   3.521 -0.5989  0.5316 -1.2837
 8074SOL    HW235856   2.100   3.023   3.515 -1.8017  0.7435 -0.1476
 8075SOL     OW35857   1.275   3.082  13.033 -0.3318 -0.2478  0.0866
 8075SOL    HW135858   1.229   3.071  13.116  1.0322 -4.5035  0.2796
 8075SOL    HW235859   1.219   3.039  12.968  0.8067  1.6074 -2.1341
 8076SOL     OW35860   2.636   1.728  13.182  0.6545 -0.2593  0.2829
 8076SOL    HW135861   2.730   1.708  13.176  0.6379 -0.7772  1.6757
 8076SOL    HW235862   2.598   1.641  13.175  1.1903 -0.3442 -1.4888
 8077SOL     OW35863   0.368   4.308   6.180 -0.3796  0.0889  0.4355
 8077SOL    HW135864   0.424   4.281   6.107 -2.4315 -0.6753 -0.8556
 8077SOL    HW235865   0.320   4.228   6.198 -1.3769  0.1625 -1.9396
 8078SOL     OW35866   0.802   3.701   6.105 -0.1331  0.0699 -0.1303
 8078SOL    HW135867   0.886   3.744   6.087 -0.1867  0.2189 -0.0201
 8078SOL    HW235868   0.754   3.781   6.126 -0.6726 -0.1743 -0.4438
 8079SOL     OW35869   1.444   3.047   3.126 -0.6142  0.1536  0.3559
 8079SOL    HW135870   1.471   2.959   3.151  2.8431  1.3582  0.7766
 8079SOL    HW235871   1.355   3.028   3.095 -0.7175  1.1404  0.0412
 8080SOL     OW35872   4.265   0.062   3.571 -0.1548  0.0435  0.0390
 8080SOL    HW135873   4.185   0.040   3.524 -0.8576 -1.4850  1.9419
 8080SOL    HW235874   4.234   0.078   3.660 -0.6036  0.4903 -0.1993
 8081SOL     OW35875   0.075   1.428   0.807 -0.4764 -0.1228 -0.3483
 8081SOL    HW135876   0.021   1.383   0.871  0.2767  0.5698  0.7821
 8081SOL    HW235877   0.029   1.510   0.789  0.7266  0.5383 -0.4208
 8082SOL     OW35878   4.625   3.638  17.512 -0.5129 -0.3630  0.2216
 8082SOL    HW135879   4.553   3.598  17.463 -0.3551 -0.4163  0.0344
 8082SOL    HW235880   4.572   3.687  17.576 -0.8487 -0.1406 -0.2246
 8083SOL     OW35881   2.138   0.630  14.105  0.4196  0.7505 -0.3765
 8083SOL    HW135882   2.085   0.637  14.185  0.3471 -1.9523 -0.1866
 8083SOL    HW235883   2.228   0.645  14.134  1.2303 -0.0718 -2.4854
 8084SOL     OW35884   0.651   1.549   9.421  0.0625 -0.0368 -0.0304
 8084SOL    HW135885   0.730   1.536   9.474  1.0603 -1.1739 -1.7987
 8084SOL    HW235886   0.578   1.535   9.481  1.3472 -2.3566  1.0332
 8085SOL     OW35887   1.704   2.783   0.941 -0.0693  0.0725 -0.2818
 8085SOL    HW135888   1.729   2.815   1.028  0.4326  2.0238 -1.1336
 8085SOL    HW235889   1.780   2.731   0.916  0.6821 -1.2446  4.6019
 8086SOL     OW35890   3.164   2.952   3.542 -0.7309  0.4162  0.5722
 8086SOL    HW135891   3.158   2.876   3.484 -1.2865 -0.6559  2.0194
 8086SOL    HW235892   3.188   2.922   3.630 -1.3240  1.5386  1.1151
 8087SOL     OW35893   0.269   0.429   9.035 -0.0691 -0.1863 -0.7902
 8087SOL    HW135894   0.193   0.483   9.055  2.1882  1.6828  2.8087
 8087SOL    HW235895   0.255   0.416   8.941  0.8590 -1.0229 -0.8193
 8088SOL     OW35896   3.160   2.829   7.497 -0.6558  0.7419  0.1278
 8088SOL    HW135897   3.085   2.772   7.482  0.3117 -0.5926  0.3700
 8088SOL    HW235898   3.136   2.914   7.459  1.1567  0.9428 -0.5969
 8089SOL     OW35899   1.527   3.192   2.062  0.1278 -0.2592 -0.2214
 8089SOL    HW135900   1.620   3.173   2.073  0.2746  0.3965 -0.3484
 8089SOL    HW235901   1.523   3.215   1.969  0.0859  1.7908  0.2960
 8090SOL     OW35902   0.173   4.718   2.722 -0.9365  0.5591 -0.1137
 8090SOL    HW135903   0.165   4.639   2.776 -1.1540 -0.9738 -2.3692
 8090SOL    HW235904   0.230   0.034   2.778  0.7663 -2.1374  0.6590
 8091SOL     OW35905   0.020   4.458   7.659 -0.2046  0.5783 -0.0757
 8091SOL    HW135906   0.053   4.534   7.610  1.7292 -1.2571 -1.6721
 8091SOL    HW235907   0.015   4.383   7.599  2.5372 -0.6149  1.1678
 8092SOL     OW35908   2.913   3.921   3.931  0.2729 -0.2483  0.6720
 8092SOL    HW135909   2.869   4.005   3.917 -1.9287 -1.1979  1.9521
 8092SOL    HW235910   2.922   3.888   3.841 -0.4629 -1.1905  0.9405
 8093SOL     OW35911   0.855   2.652   6.912  0.1249  0.0052 -0.3642
 8093SOL    HW135912   0.934   2.638   6.860  0.0302 -3.1926  0.4022
 8093SOL    HW235913   0.820   2.727   6.863  0.7107  0.2330 -0.4337
 8094SOL     OW35914   2.359   2.098   6.192 -0.0864  0.6320  0.5766
 8094SOL    HW135915   2.367   2.062   6.104  1.1408 -3.9457  2.6035
 8094SOL    HW235916   2.271   2.088   6.229 -0.4802  0.8562 -0.2889
 8095SOL     OW35917   2.957   2.125   7.173 -0.5427  0.3682  0.5704
 8095SOL    HW135918   2.894   2.082   7.230  0.4078 -0.6674  0.8530
 8095SOL    HW235919   3.001   2.044   7.146 -3.4985 -0.3951 -1.9206
 8096SOL     OW35920   1.029   0.166  16.954  0.3616  0.1517 -0.6250
 8096SOL    HW135921   0.946   0.203  16.922  0.1323 -0.1004 -0.3253
 8096SOL    HW235922   1.006   0.156  17.046 -1.4063 -1.1795 -1.2008
 8097SOL     OW35923   2.435   0.193   9.116 -0.1802  0.1286  0.4560
 8097SOL    HW135924   2.397   0.200   9.029 -0.7714  0.3417  0.7285
 8097SOL    HW235925   2.396   0.274   9.151 -0.0364  0.9822 -1.3577
 8098SOL     OW35926   3.096   0.324   2.317 -0.0691 -0.1275 -0.6368
 8098SOL    HW135927   3.051   0.296   2.237  1.0338  2.0263 -1.9962
 8098SOL    HW235928   3.132   0.241   2.348  4.1994  1.0528 -2.4147
 8099SOL     OW35929   1.370   3.582   4.252 -0.0043  0.8673 -0.0651
 8099SOL    HW135930   1.426   3.525   4.304 -1.9953 -0.0905  1.0110
 8099SOL    HW235931   1.317   3.622   4.321 -2.7524 -0.3547 -1.4582
 8100SOL     OW35932   0.562   0.195   7.532 -1.0608  0.5962  0.0674
 8100SOL    HW135933   0.571   0.249   7.611 -0.9524  0.4120  0.1812
 8100SOL    HW235934   0.523   0.115   7.568 -0.1654  0.9327  1.8110
 8101SOL     OW35935   4.087   1.334   4.778  0.0288 -0.3325  0.1893
 8101SOL    HW135936   4.126   1.420   4.761 -0.2588 -0.4242 -0.9397
 8101SOL    HW235937   4.020   1.342   4.710 -0.2986  0.7102  0.6254
 8102SOL     OW35938   0.936   0.319   8.486  0.2268  0.3509  0.5386
 8102SOL    HW135939   0.973   0.362   8.410 -0.0340 -0.1490  0.1315
 8102SOL    HW235940   0.937   0.389   8.551 -1.4387 -1.7784  2.8710
 8103SOL     OW35941   1.339   1.475   9.319 -0.7047 -0.0211 -0.1680
 8103SOL    HW135942   1.380   1.532   9.384 -0.3344  1.2510 -1.5125
 8103SOL    HW235943   1.349   1.528   9.239 -0.3032  2.2758  1.3920
 8104SOL     OW35944   1.803   0.380   0.881  0.5807  0.7359 -0.0977
 8104SOL    HW135945   1.801   0.450   0.947  0.5127 -0.5403  1.2554
 8104SOL    HW235946   1.885   0.342   0.911  0.0158 -0.3135  0.1129
 8105SOL     OW35947   2.104   1.331   5.609 -0.4060 -0.2775 -0.3824
 8105SOL    HW135948   2.042   1.403   5.610 -2.0149 -1.6692  0.3054
 8105SOL    HW235949   2.093   1.296   5.521  0.0899 -3.0107  0.6248
 8106SOL     OW35950   1.273   1.793   9.594  0.2199  0.1131  0.1596
 8106SOL    HW135951   1.271   1.712   9.644 -0.9761  0.9646  1.5062
 8106SOL    HW235952   1.185   1.780   9.559  0.3425 -1.0607  0.3055
 8107SOL     OW35953   1.505   2.073   5.773  0.2725  0.2829  0.1864
 8107SOL    HW135954   1.507   2.168   5.767  2.7171  0.2436  0.4701
 8107SOL    HW235955   1.506   2.057   5.868  1.7388 -3.1149 -0.3967
 8108SOL     OW35956   4.320   2.499   2.420 -0.6080  0.2511  0.2715
 8108SOL    HW135957   4.325   2.546   2.503  0.3134 -2.0731  1.5277
 8108SOL    HW235958   4.232   2.525   2.392  0.4601  0.7416 -2.7280
 8109SOL     OW35959   4.664   4.293  10.369  0.0844 -0.4268 -0.2674
 8109SOL    HW135960   0.007   4.328  10.329  0.8250 -0.4245  1.2097
 8109SOL    HW235961   4.704   4.241  10.439 -0.0985  0.6511  0.6239
 8110SOL     OW35962   4.306   2.507   7.661  0.9676 -0.1603 -0.5284
 8110SOL    HW135963   4.349   2.456   7.592 -0.0810 -2.0019  0.1828
 8110SOL    HW235964   4.368   2.495   7.733 -0.9791 -0.4388  1.1012
 8111SOL     OW35965   3.685   2.548   2.630  0.2047 -0.1567 -0.2035
 8111SOL    HW135966   3.717   2.590   2.551 -3.5337  0.7258 -1.2442
 8111SOL    HW235967   3.701   2.622   2.688  2.8976 -1.8923  1.2836
 8112SOL     OW35968   3.600   3.670   1.944 -0.0254  0.3010  0.4138
 8112SOL    HW135969   3.528   3.732   1.956  0.2809  0.8661 -0.6435
 8112SOL    HW235970   3.552   3.590   1.923  2.7093 -1.2545  0.1519
 8113SOL     OW35971   2.158   0.583   8.511  0.5158  0.0216 -0.6191
 8113SOL    HW135972   2.138   0.599   8.603  0.7930  1.5648 -0.8223
 8113SOL    HW235973   2.067   0.568   8.484  0.7725  1.0670 -2.0607
 8114SOL     OW35974   0.721   2.675   6.011  0.4339  0.1793  0.3133
 8114SOL    HW135975   0.692   2.727   5.936  1.2366 -0.3578 -0.3613
 8114SOL    HW235976   0.706   2.732   6.087  0.8355 -0.5742  0.9578
 8115SOL     OW35977   0.922   3.074  12.666  0.1997 -0.5654  0.0471
 8115SOL    HW135978   0.842   3.107  12.626 -1.3112 -2.4470  1.4778
 8115SOL    HW235979   0.975   3.070  12.587 -0.6476  1.4622 -0.6218
 8116SOL     OW35980   3.025   1.566   8.440  0.1385  0.4431 -0.8776
 8116SOL    HW135981   3.052   1.474   8.432 -0.1209  0.1577  1.5132
 8116SOL    HW235982   3.071   1.583   8.523 -0.5788  0.7081 -0.5358
 8117SOL     OW35983   0.888   1.815   1.582  0.0197 -0.2193  0.0461
 8117SOL    HW135984   0.823   1.846   1.645  0.7099  0.7666  0.2734
 8117SOL    HW235985   0.923   1.894   1.541 -0.1364  0.0120  0.3603
 8118SOL     OW35986   0.392   3.693   4.178  0.2920 -0.5116 -0.2174
 8118SOL    HW135987   0.374   3.786   4.193 -0.5165 -0.4780 -1.3361
 8118SOL    HW235988   0.360   3.685   4.088  1.4842 -3.0700 -0.4326
 8119SOL     OW35989   4.647   3.614  16.195  0.4391  0.2169 -0.2649
 8119SOL    HW135990   4.638   3.527  16.156 -2.1451  0.3402  0.0561
 8119SOL    HW235991   4.581   3.661  16.145  1.4338  2.4628  0.5652
 8120SOL     OW35992   3.908   2.362   4.438 -0.7059  0.9779  0.0295
 8120SOL    HW135993   3.903   2.297   4.368  2.4091  1.2333 -0.4213
 8120SOL    HW235994   3.983   2.413   4.406  0.2891 -0.4468  0.1132
 8121SOL     OW35995   2.885   2.110  11.759 -0.4186 -0.1002  0.2307
 8121SOL    HW135996   2.855   2.180  11.818  2.1991  0.0176  1.4126
 8121SOL    HW235997   2.975   2.090  11.783  0.2279  1.0027 -1.3062
 8122SOL     OW35998   3.271   3.381   0.554  0.5910  0.0491  0.1041
 8122SOL    HW135999   3.323   3.340   0.485 -0.2779  0.2606 -0.6783
 8122SOL    HW236000   3.247   3.307   0.609 -0.2481 -0.2122 -0.6169
 8123SOL     OW36001   1.909   1.168   3.754  0.6410  0.0403  0.0846
 8123SOL    HW136002   1.848   1.183   3.682 -0.4740 -0.5130  0.9125
 8123SOL    HW236003   1.975   1.110   3.716 -0.2610 -0.9558  0.0503
 8124SOL     OW36004   3.562   4.160   9.298 -0.0619 -0.5005  0.3077
 8124SOL    HW136005   3.528   4.087   9.351  1.6713 -2.7257 -1.6180
 8124SOL    HW236006   3.488   4.213   9.269  0.6908  0.1324 -0.4605
 8125SOL     OW36007   0.516   4.336  13.662  0.4808 -0.2151  0.5471
 8125SOL    HW136008   0.568   4.344  13.582  0.9609  0.6528  0.9476
 8125SOL    HW236009   0.576   4.385  13.717  0.4795  2.1351 -1.5213
 8126SOL     OW36010   1.429   3.190  16.411 -0.0418 -0.5616 -0.1313
 8126SOL    HW136011   1.347   3.239  16.412 -0.1729 -0.8397  3.1455
 8126SOL    HW236012   1.412   3.157  16.323  0.2349  3.3279 -1.6484
 8127SOL     OW36013   1.493   0.067   7.012 -0.2380  0.2323 -0.1921
 8127SOL    HW136014   1.523   4.714   7.028  1.3351  1.4765  3.7247
 8127SOL    HW236015   1.550   0.117   7.070 -0.8352 -0.4513  0.9864
 8128SOL     OW36016   0.623   3.776   2.139 -0.4890 -0.7751  0.3733
 8128SOL    HW136017   0.704   3.806   2.098 -0.0517 -1.8097  0.5026
 8128SOL    HW236018   0.576   3.728   2.071  0.8825 -1.1560 -0.3072
 8129SOL     OW36019   1.519   0.404  10.320 -0.4723 -0.1408 -0.1104
 8129SOL    HW136020   1.520   0.499  10.312 -2.7354 -0.0914 -0.0013
 8129SOL    HW236021   1.605   0.388  10.359 -0.2327 -0.4415 -0.7686
 8130SOL     OW36022   4.345   4.069   5.206 -0.0116  0.4986 -0.2265
 8130SOL    HW136023   4.276   4.074   5.272  0.4371  0.1738  0.2716
 8130SOL    HW236024   4.401   4.144   5.224 -0.2383  0.6835 -0.3004
 8131SOL     OW36025   1.486   1.730   9.963 -0.5737 -0.1470 -0.1765
 8131SOL    HW136026   1.556   1.743   9.899 -0.3376 -1.5512 -0.2074
 8131SOL    HW236027   1.433   1.797   9.921  0.1474  1.0160  0.7746
 8132SOL     OW36028   4.720   3.363  17.306  0.2144 -0.4064 -0.2252
 8132SOL    HW136029   4.703   3.357  17.400 -0.8278  2.5077 -0.2142
 8132SOL    HW236030   0.071   3.399  17.323 -0.4046  1.2579 -0.5866
 8133SOL     OW36031   3.818   1.905   0.120 -0.1105 -0.6921  0.1717
 8133SOL    HW136032   3.743   1.921   0.062  0.1954  1.5678  0.4053
 8133SOL    HW236033   3.808   1.812   0.095 -2.6620  0.1928 -2.1771
 8134SOL     OW36034   1.418   2.112   8.503  0.0557 -0.1669  0.2536
 8134SOL    HW136035   1.495   2.088   8.554 -0.0282  0.7112  0.7969
 8134SOL    HW236036   1.382   2.170   8.570  2.0104  2.4307 -0.9430
 8135SOL     OW36037   3.992   2.616   3.261 -0.2156 -0.0788  0.2378
 8135SOL    HW136038   4.084   2.601   3.238 -0.0254  1.9193 -0.3038
 8135SOL    HW236039   3.949   2.615   3.176 -1.5034  1.1662  0.8766
 8136SOL     OW36040   0.661   1.443   8.918 -0.0151 -1.0081 -0.1052
 8136SOL    HW136041   0.620   1.434   9.004  0.8329 -0.1415  0.3927
 8136SOL    HW236042   0.586   1.428   8.861 -1.1862 -0.2433  1.2732
 8137SOL     OW36043   4.311   3.841  12.790  0.2550  0.0026 -0.2647
 8137SOL    HW136044   4.295   3.914  12.851 -1.9483  0.6538 -1.6335
 8137SOL    HW236045   4.393   3.865  12.747  0.1389 -1.1074 -1.1056
 8138SOL     OW36046   1.752   1.661   2.043 -0.0304 -0.3576 -0.7341
 8138SOL    HW136047   1.820   1.628   1.985  1.0763  0.6348 -0.0266
 8138SOL    HW236048   1.775   1.622   2.127  1.9375  1.5988 -0.3464
 8139SOL     OW36049   1.391   2.255  10.908 -0.1626 -0.1297 -0.1810
 8139SOL    HW136050   1.460   2.315  10.877 -0.0582 -0.9997 -1.6147
 8139SOL    HW236051   1.429   2.175  10.872  1.4388  1.5588 -2.2554
 8140SOL     OW36052   0.831   2.153  14.663  0.0403  0.2876 -0.0756
 8140SOL    HW136053   0.885   2.223  14.699 -2.6046  1.0272  2.4416
 8140SOL    HW236054   0.742   2.173  14.694 -0.6921 -2.5229 -0.3475
 8141SOL     OW36055   1.867   3.593   1.603 -0.5684 -0.1856 -0.4445
 8141SOL    HW136056   1.895   3.651   1.532 -3.0414 -1.8327 -2.7384
 8141SOL    HW236057   1.780   3.567   1.574  0.3311 -0.3770 -2.9805
 8142SOL     OW36058   1.624   4.295   1.974 -0.2943  0.5604  0.1141
 8142SOL    HW136059   1.713   4.314   1.946 -0.1364  1.0119  0.9271
 8142SOL    HW236060   1.606   4.365   2.036 -1.2458 -0.5032  1.0541
 8143SOL     OW36061   0.598   1.839  10.666  0.0084  0.5801 -0.7180
 8143SOL    HW136062   0.658   1.905  10.633  1.6779  0.0401  1.2269
 8143SOL    HW236063   0.647   1.820  10.746  2.2370  1.7950 -1.7809
 8144SOL     OW36064   1.052   2.022   8.026 -0.8013 -0.3624  0.1700
 8144SOL    HW136065   1.090   1.952   8.080 -0.2758  0.3472  0.7146
 8144SOL    HW236066   1.128   2.067   7.989 -1.9199 -0.5712 -2.3663
 8145SOL     OW36067   3.878   0.177   7.242 -0.2704  0.0558 -0.0450
 8145SOL    HW136068   3.832   0.093   7.249  1.6878 -0.6965  3.5081
 8145SOL    HW236069   3.828   0.208   7.166 -3.4686 -1.0435  1.6173
 8146SOL     OW36070   1.494   0.696   3.787  0.3509 -0.0783 -0.5256
 8146SOL    HW136071   1.509   0.765   3.722 -3.0794 -0.0604 -1.3130
 8146SOL    HW236072   1.420   0.644   3.755 -0.4998  1.2535 -0.7331
 8147SOL     OW36073   1.866   1.428   9.130  0.1190 -0.0246  0.0296
 8147SOL    HW136074   1.891   1.510   9.087  0.7556 -1.1079 -1.6979
 8147SOL    HW236075   1.843   1.377   9.052 -0.8549  0.5563 -0.0635
 8148SOL     OW36076   4.550   1.169  17.155  0.5165 -0.0088 -0.3849
 8148SOL    HW136077   4.623   1.116  17.189 -0.5531 -0.8043  0.6948
 8148SOL    HW236078   4.502   1.189  17.236  1.1248 -2.1421  0.5020
 8149SOL     OW36079   3.218   2.156   6.984 -0.1640  0.8267  0.1213
 8149SOL    HW136080   3.139   2.209   6.972 -0.1082  0.5676 -1.4345
 8149SOL    HW236081   3.217   2.091   6.914  1.0792 -0.4510  1.3042
 8150SOL     OW36082   1.224   3.141  11.483 -0.3754 -0.2468  0.0021
 8150SOL    HW136083   1.233   3.163  11.576  2.6388  0.5513 -0.4571
 8150SOL    HW236084   1.131   3.158  11.467  0.8707  4.4814 -2.4634
 8151SOL     OW36085   3.518   2.602  14.077 -0.1206 -0.0028 -0.0944
 8151SOL    HW136086   3.439   2.643  14.111 -1.3121  0.2589 -3.2164
 8151SOL    HW236087   3.589   2.661  14.102  0.9499 -1.0655 -0.6253
 8152SOL     OW36088   2.922   1.684   4.232  0.5911 -0.9396 -0.3872
 8152SOL    HW136089   2.866   1.728   4.296  2.8927  0.3118  0.7921
 8152SOL    HW236090   2.936   1.755   4.170 -3.0528 -2.3459 -2.8083
 8153SOL     OW36091   4.711   1.392  14.653  0.5792  0.0948 -0.1902
 8153SOL    HW136092   4.654   1.455  14.697  1.6034  1.2744 -0.5707
 8153SOL    HW236093   4.680   1.304  14.676  1.5236 -0.8208 -2.3687
 8154SOL     OW36094   2.775   0.795   3.776  0.2484  0.8109 -0.6515
 8154SOL    HW136095   2.688   0.777   3.812 -0.1162  0.3334 -1.7561
 8154SOL    HW236096   2.770   0.888   3.754 -0.5077  0.7681 -0.6934
 8155SOL     OW36097   3.239   0.587   6.253 -0.3476 -0.4679  0.1091
 8155SOL    HW136098   3.203   0.642   6.322 -0.5043  2.2818 -2.1375
 8155SOL    HW236099   3.331   0.573   6.275 -0.0869 -2.9044 -2.3889
 8156SOL     OW36100   0.256   1.813   3.957  0.1695 -0.5102  0.1183
 8156SOL    HW136101   0.185   1.776   4.009 -0.4795 -0.2360 -0.5557
 8156SOL    HW236102   0.219   1.816   3.868 -0.0128  0.1552  0.2131
 8157SOL     OW36103   4.312   2.432   6.341  0.0149  0.5783 -0.4089
 8157SOL    HW136104   4.358   2.515   6.339  1.2890 -0.1212  0.2262
 8157SOL    HW236105   4.269   2.419   6.256  2.7146 -0.7007 -1.5664
 8158SOL     OW36106   3.114   2.928   1.318  0.2057  0.5782 -0.2860
 8158SOL    HW136107   3.197   2.967   1.292 -0.5628  1.8110 -0.8945
 8158SOL    HW236108   3.149   2.869   1.385 -2.3536  0.7684  1.2265
 8159SOL     OW36109   2.554   0.103  12.185 -0.0246 -0.0359 -0.3604
 8159SOL    HW136110   2.512   0.151  12.114 -2.5078  1.5379  2.2049
 8159SOL    HW236111   2.478   0.074  12.235 -1.2962  2.0621 -1.0979
 8160SOL     OW36112   0.054   1.903   9.360  0.1057  0.1048 -0.0987
 8160SOL    HW136113   4.711   1.932   9.405  1.9715  1.6079  2.2674
 8160SOL    HW236114   0.087   1.833   9.416  1.4192  0.4435 -0.4582
 8161SOL     OW36115   1.002   4.348   5.659 -0.1098 -0.2766  0.1975
 8161SOL    HW136116   0.933   4.282   5.665  1.7487 -2.3642 -1.1515
 8161SOL    HW236117   1.042   4.303   5.584  0.5191 -3.6901  2.6062
 8162SOL     OW36118   1.047   1.074   2.690 -0.0736 -0.0225 -0.2935
 8162SOL    HW136119   1.032   1.107   2.601 -4.3935  0.2455  0.5791
 8162SOL    HW236120   1.002   1.141   2.741  1.0170  0.2985  0.2502
 8163SOL     OW36121   4.120   2.683   0.316 -0.3254 -0.0753 -0.7108
 8163SOL    HW136122   4.134   2.773   0.344  3.3794 -0.6916 -0.6547
 8163SOL    HW236123   4.077   2.640   0.390  2.7889 -2.6560 -0.3972
 8164SOL     OW36124   0.842   4.176   7.086 -1.0472 -0.2322 -0.3713
 8164SOL    HW136125   0.935   4.157   7.097 -1.2228 -1.3075 -0.8031
 8164SOL    HW236126   0.802   4.097   7.122  0.7543 -0.0621  2.0200
 8165SOL     OW36127   0.958   3.984   2.387 -0.4361 -0.4287 -0.3898
 8165SOL    HW136128   0.977   3.993   2.480  0.1481 -1.9605 -0.3626
 8165SOL    HW236129   0.914   4.069   2.385  1.4034  0.5182 -0.1300
 8166SOL     OW36130   4.688   2.832  14.154  0.1354 -1.0150  0.3731
 8166SOL    HW136131   4.687   2.737  14.140 -0.4222 -0.6125 -2.3235
 8166SOL    HW236132   0.026   2.859  14.099  0.4150  0.5832  1.5408
 8167SOL     OW36133   0.046   1.557   3.035  0.4655 -0.2411  0.0138
 8167SOL    HW136134   4.700   1.585   2.994 -0.9235 -1.8563  1.7142
 8167SOL    HW236135   0.035   1.469   2.999  1.9904 -1.7212  3.2013
 8168SOL     OW36136   4.017   1.205   5.032 -0.1347 -0.0420 -0.6080
 8168SOL    HW136137   4.043   1.282   5.083 -2.0948  0.0357  0.2877
 8168SOL    HW236138   4.027   1.243   4.945  2.2504  1.6770  0.4058
 8169SOL     OW36139   4.537   3.693  15.931  0.0909  0.3050 -0.0152
 8169SOL    HW136140   4.470   3.734  15.876 -1.8802  0.1426  2.2891
 8169SOL    HW236141   4.517   3.600  15.914  2.6285 -0.0426 -1.1032
 8170SOL     OW36142   0.550   2.502   5.106 -0.6182 -0.0638 -0.0821
 8170SOL    HW136143   0.549   2.524   5.199 -0.1762  1.2225 -0.3868
 8170SOL    HW236144   0.637   2.531   5.077 -0.0647  0.1946  1.8301
 8171SOL     OW36145   0.997   3.876  15.969 -0.5099 -0.2636  0.3171
 8171SOL    HW136146   0.976   3.942  16.035  0.9480 -1.0179  1.5235
 8171SOL    HW236147   1.021   3.934  15.897  0.7247 -2.1423 -0.7936
 8172SOL     OW36148   4.310   2.745   7.101 -0.4265  0.4404  0.3961
 8172SOL    HW136149   4.300   2.655   7.132  0.8388 -0.1218 -0.8425
 8172SOL    HW236150   4.327   2.734   7.008  1.5347 -0.2685  0.8287
 8173SOL     OW36151   2.552   1.589   6.320  0.3254 -0.1562 -0.1917
 8173SOL    HW136152   2.499   1.644   6.378 -0.8813 -0.0517 -1.3857
 8173SOL    HW236153   2.640   1.614   6.345  1.3583 -0.2903 -3.7104
 8174SOL     OW36154   0.047   4.731   4.831  0.1288 -0.6281  0.0924
 8174SOL    HW136155   0.006   4.662   4.778  1.0620 -0.0724 -1.3764
 8174SOL    HW236156   0.014   4.706   4.917 -1.8101  3.9484  0.6615
 8175SOL     OW36157   2.931   3.561  11.643 -0.4719  0.1876 -0.0077
 8175SOL    HW136158   2.947   3.650  11.612 -0.3311 -0.3247 -1.3853
 8175SOL    HW236159   3.000   3.515  11.596  1.0026  0.8689  1.4726
 8176SOL     OW36160   2.351   0.128  13.837 -0.7671  0.3621  0.4185
 8176SOL    HW136161   2.428   0.079  13.866 -0.6939  0.1758 -0.0806
 8176SOL    HW236162   2.395   0.186  13.775 -1.0385  1.3791  1.1758
 8177SOL     OW36163   0.321   3.196  17.295 -0.3017 -0.4943 -0.3234
 8177SOL    HW136164   0.300   3.158  17.381  0.9921  2.9664  1.5142
 8177SOL    HW236165   0.369   3.119  17.264  0.8626  1.0277 -2.2563
 8178SOL     OW36166   2.077   1.005   2.119  0.3153 -1.1198  0.1260
 8178SOL    HW136167   1.983   0.997   2.105 -0.0764  1.5690  1.1908
 8178SOL    HW236168   2.096   1.086   2.073  0.7203 -0.7022  1.0326
 8179SOL     OW36169   1.359   1.109   5.803 -0.0463 -0.5460  0.0547
 8179SOL    HW136170   1.395   1.026   5.833  0.4472  0.2451  1.6274
 8179SOL    HW236171   1.423   1.162   5.851  1.0009 -0.7806 -1.0793
 8180SOL     OW36172   4.446   3.089   8.452  0.4868 -0.6540  0.5987
 8180SOL    HW136173   4.463   3.002   8.490  0.2328 -0.3908  1.3109
 8180SOL    HW236174   4.365   3.110   8.499 -0.4170 -0.1451 -1.2067
 8181SOL     OW36175   2.146   3.275  11.093  0.1464  0.0131 -0.0620
 8181SOL    HW136176   2.052   3.291  11.103  0.2336  0.6050 -0.2099
 8181SOL    HW236177   2.180   3.362  11.070  0.0135 -0.1705 -0.9495
 8182SOL     OW36178   4.289   3.159   4.884  0.8227 -0.0120 -0.1831
 8182SOL    HW136179   4.214   3.100   4.874 -1.0816  2.1668  1.3062
 8182SOL    HW236180   4.249   3.242   4.910 -1.7956 -0.7182 -1.9370
 8183SOL     OW36181   3.073   0.952   9.279  0.1167 -0.1587 -0.3498
 8183SOL    HW136182   3.112   1.034   9.248 -0.7770  0.6397  0.6413
 8183SOL    HW236183   3.075   0.893   9.203 -2.3281 -1.8350  0.8887
 8184SOL     OW36184   3.935   1.790   8.767  0.1268 -0.1057 -0.3431
 8184SOL    HW136185   4.024   1.824   8.775 -0.2507  1.1675 -1.4745
 8184SOL    HW236186   3.943   1.698   8.793  0.4124  0.2201  0.6915
 8185SOL     OW36187   3.112   4.342  10.597 -0.5765  0.0026 -0.1241
 8185SOL    HW136188   3.122   4.247  10.594  0.4284  0.2150 -4.0678
 8185SOL    HW236189   3.027   4.359  10.556 -0.2709  1.0999 -0.3155
 8186SOL     OW36190   1.945   3.953   6.044  0.2140  0.0969  0.2718
 8186SOL    HW136191   1.915   3.865   6.067 -0.2348 -0.3455 -1.9568
 8186SOL    HW236192   1.985   3.932   5.960 -1.7195 -1.0939 -0.3567
 8187SOL     OW36193   4.337   0.280   5.825  0.3893 -0.2263 -0.5054
 8187SOL    HW136194   4.247   0.300   5.851  0.5159  2.1869 -1.9627
 8187SOL    HW236195   4.335   0.226   5.747  0.7112 -0.4615 -0.3536
 8188SOL     OW36196   0.383   1.225   8.916 -0.0644 -0.2177 -0.0752
 8188SOL    HW136197   0.299   1.180   8.910  0.4911 -1.0846 -1.2474
 8188SOL    HW236198   0.351   1.311   8.887  0.5672 -0.4873 -1.5784
 8189SOL     OW36199   1.393   2.387   7.803 -0.3543  0.1831  0.7250
 8189SOL    HW136200   1.474   2.338   7.818  1.6966  2.6915 -2.1943
 8189SOL    HW236201   1.336   2.327   7.756 -1.9046  0.4900  2.2041
 8190SOL     OW36202   0.154   2.916   1.997  0.3275 -0.5304  0.8084
 8190SOL    HW136203   0.125   2.912   2.088 -0.3998  1.1517  0.6564
 8190SOL    HW236204   0.183   3.007   1.991 -1.9802  0.1691  0.1437
 8191SOL     OW36205   0.230   2.921  13.739 -0.2648 -0.0963 -0.4662
 8191SOL    HW136206   0.323   2.940  13.732 -0.3715  0.4282 -0.5005
 8191SOL    HW236207   0.215   2.924  13.644  0.1601 -0.6718 -0.5495
 8192SOL     OW36208   3.543   3.634   3.519 -0.1634  0.2590 -0.2656
 8192SOL    HW136209   3.602   3.676   3.582  1.3511  1.8254 -2.7208
 8192SOL    HW236210   3.546   3.703   3.454 -1.9658  0.8821  0.3099
 8193SOL     OW36211   3.920   3.271   7.248 -0.1732 -0.6158  0.3456
 8193SOL    HW136212   4.014   3.274   7.268 -0.4220  1.7660  1.1517
 8193SOL    HW236213   3.927   3.284   7.153 -2.8728  2.0215  0.5373
 8194SOL     OW36214   3.601   0.806   4.442 -0.2930  0.4726  0.1351
 8194SOL    HW136215   3.550   0.821   4.522  0.6750 -0.4672  0.9306
 8194SOL    HW236216   3.538   0.857   4.392 -0.2134 -0.3676 -0.7962
 8195SOL     OW36217   3.257   0.102   2.357 -0.0642 -0.2408  0.3024
 8195SOL    HW136218   3.349   0.087   2.376  0.0310 -0.1919 -0.1382
 8195SOL    HW236219   3.203   0.033   2.397  0.4351 -0.2859  0.8888
 8196SOL     OW36220   1.187   3.431  16.766  0.5691 -0.0859 -0.2618
 8196SOL    HW136221   1.185   3.349  16.815  0.3142  0.2556  0.2961
 8196SOL    HW236222   1.132   3.488  16.819  0.9892  1.2956 -1.3176
 8197SOL     OW36223   4.272   1.648   8.947 -0.6154 -0.7009  0.0622
 8197SOL    HW136224   4.241   1.680   8.862  0.0762  1.7496  0.7349
 8197SOL    HW236225   4.202   1.677   9.005 -0.9274 -3.6685  1.1565
 8198SOL     OW36226   3.634   2.424  10.622 -0.0776  0.6804  0.4660
 8198SOL    HW136227   3.553   2.414  10.572 -0.1573  2.3144  0.2687
 8198SOL    HW236228   3.697   2.451  10.555  0.2151 -0.0259  0.4540
 8199SOL     OW36229   3.845   1.554   6.632  0.0759  0.2487  0.4726
 8199SOL    HW136230   3.908   1.515   6.572  0.9176  1.7292  0.4005
 8199SOL    HW236231   3.772   1.492   6.623  0.4538 -0.1975  0.4612
 8200SOL     OW36232   4.312   2.983   2.218  0.1348 -0.0169 -0.5162
 8200SOL    HW136233   4.333   2.891   2.204 -0.6291 -0.4127  0.9004
 8200SOL    HW236234   4.351   2.991   2.306 -1.6895 -0.7265  0.3604
 8201SOL     OW36235   0.136   2.222   6.244  0.0414  0.4729 -0.5214
 8201SOL    HW136236   0.097   2.141   6.277  0.8533  1.2938  2.4397
 8201SOL    HW236237   0.050   2.261   6.230  0.2857 -0.3237 -4.3099
 8202SOL     OW36238   4.101   4.212  16.377  0.5002  0.1422 -0.3148
 8202SOL    HW136239   4.024   4.256  16.414  2.2030  1.3063  1.8187
 8202SOL    HW236240   4.124   4.147  16.443 -2.0506 -0.0502  0.3898
 8203SOL     OW36241   1.785   0.084   6.456  0.0478 -0.3743  0.2689
 8203SOL    HW136242   1.776   0.167   6.410  2.6623 -1.1054 -1.5573
 8203SOL    HW236243   1.696   0.052   6.442  0.3284 -0.2597 -1.7379
 8204SOL     OW36244   0.689   1.930   5.753  0.4422 -0.1455 -0.2526
 8204SOL    HW136245   0.677   1.965   5.842 -1.8454 -1.2675 -0.1057
 8204SOL    HW236246   0.605   1.953   5.714  0.5865  1.9907  0.7026
 8205SOL     OW36247   2.820   3.551   1.646  0.1677  0.3248 -0.2000
 8205SOL    HW136248   2.809   3.627   1.703 -2.5787 -0.8869  0.8653
 8205SOL    HW236249   2.828   3.482   1.713 -0.1584  1.0415  0.5793
 8206SOL     OW36250   4.451   2.591   8.340 -0.2954 -0.0642  0.2018
 8206SOL    HW136251   4.504   2.526   8.386 -0.1652  1.3402  2.0439
 8206SOL    HW236252   4.516   2.647   8.297  2.2987 -1.7883  1.8999
 8207SOL     OW36253   4.613   1.122   9.033  0.2533  0.6628  0.4592
 8207SOL    HW136254   4.578   1.189   8.974 -2.3765 -0.9368  0.1940
 8207SOL    HW236255   4.561   1.045   9.007 -3.9887  3.8709 -0.5454
 8208SOL     OW36256   4.092   3.685   6.474  0.0003 -0.0859  0.0033
 8208SOL    HW136257   4.154   3.755   6.495  1.7276 -2.1647  1.7864
 8208SOL    HW236258   4.011   3.735   6.470  0.2541  0.3524  0.3023
 8209SOL     OW36259   3.035   4.371   3.337 -0.1512 -0.2710  0.4952
 8209SOL    HW136260   2.944   4.350   3.358 -0.8312  0.3367 -1.7637
 8209SOL    HW236261   3.029   4.463   3.309  1.0519  0.0169  1.2000
 8210SOL     OW36262   3.277   4.086   9.138  0.4949 -0.1211  0.2272
 8210SOL    HW136263   3.246   4.167   9.097  0.6288  0.9882  2.3278
 8210SOL    HW236264   3.201   4.081   9.196  0.5596  0.1642  0.3343
 8211SOL     OW36265   3.635   2.756   8.638  0.4138 -0.0913 -0.1294
 8211SOL    HW136266   3.624   2.673   8.593 -1.1066  0.7159 -1.2443
 8211SOL    HW236267   3.644   2.731   8.730  1.2397  0.5708 -0.0311
 8212SOL     OW36268   1.695   1.711   8.506  0.2153 -0.3045  0.2725
 8212SOL    HW136269   1.702   1.642   8.441 -1.6583  0.2696 -0.5415
 8212SOL    HW236270   1.678   1.786   8.450  2.0664 -0.8455 -0.9955
 8213SOL     OW36271   4.085   2.965   5.267  0.4006  0.0001 -0.0612
 8213SOL    HW136272   4.129   3.049   5.279  1.6026 -0.6358  0.0422
 8213SOL    HW236273   4.039   2.980   5.185 -1.0115 -2.4976  0.2843
 8214SOL     OW36274   1.962   3.482   3.867 -0.2904  0.1463  0.0205
 8214SOL    HW136275   1.868   3.491   3.852 -0.4977 -1.5106  0.3767
 8214SOL    HW236276   1.986   3.430   3.790 -2.4295  1.0968 -1.3185
 8215SOL     OW36277   1.391   1.734   8.089  0.3735 -0.2814  0.3058
 8215SOL    HW136278   1.388   1.825   8.118 -0.8217 -0.1907 -0.1028
 8215SOL    HW236279   1.399   1.695   8.176 -0.8784 -1.5173 -0.1371
 8216SOL     OW36280   4.440   0.081  16.755 -0.5229 -0.2405  0.2764
 8216SOL    HW136281   4.423   0.130  16.675 -0.4167 -1.3582 -0.4322
 8216SOL    HW236282   4.444   4.728  16.719 -0.7958 -0.2027  0.1534
 8217SOL     OW36283   0.974   2.087  16.795 -0.3919 -1.2555 -0.2837
 8217SOL    HW136284   0.915   2.050  16.730 -1.7495  1.2967 -0.5074
 8217SOL    HW236285   0.913   2.083  16.868 -1.0862  2.1878 -0.6744
 8218SOL     OW36286   3.390   1.327   3.419  0.4792 -0.2984 -0.2013
 8218SOL    HW136287   3.376   1.233   3.405 -1.0066 -0.0947 -0.0527
 8218SOL    HW236288   3.336   1.337   3.498 -1.1176  0.0026 -1.3327
 8219SOL     OW36289   4.687   4.222   8.306  0.5987 -0.3276 -0.2050
 8219SOL    HW136290   4.651   4.137   8.281  2.9657 -2.1035  2.3839
 8219SOL    HW236291   0.025   4.229   8.246 -0.3282  1.9955 -1.1121
 8220SOL     OW36292   3.318   3.719   7.627  0.3989 -0.0162 -0.0981
 8220SOL    HW136293   3.327   3.660   7.552 -0.2740  0.8720 -0.8681
 8220SOL    HW236294   3.240   3.681   7.667 -0.1207  1.1778  0.0094
 8221SOL     OW36295   2.660   3.329   5.218  0.2736 -0.3816 -0.1351
 8221SOL    HW136296   2.634   3.412   5.179 -2.3876  0.1020  2.6901
 8221SOL    HW236297   2.575   3.294   5.243  0.2362  0.3384  0.7467
 8222SOL     OW36298   3.343   2.286   5.824 -0.2435  0.4418 -0.1477
 8222SOL    HW136299   3.351   2.289   5.729  1.5662  3.1711  0.0876
 8222SOL    HW236300   3.305   2.199   5.838  1.3034  0.0545  1.6107
 8223SOL     OW36301   0.939   3.598   8.321 -0.1601 -0.0010  0.3144
 8223SOL    HW136302   0.868   3.618   8.382  1.9387  0.9640  2.4545
 8223SOL    HW236303   0.992   3.539   8.375 -0.3947 -0.5102 -0.0123
 8224SOL     OW36304   1.997   1.618  13.219 -0.4035 -0.7146 -0.3404
 8224SOL    HW136305   1.969   1.682  13.153 -1.4170 -0.1610  0.6270
 8224SOL    HW236306   2.081   1.649  13.253 -1.1930  0.9027  0.1575
 8225SOL     OW36307   2.004   1.330   4.304 -0.1669 -0.1961 -0.4322
 8225SOL    HW136308   2.099   1.347   4.302 -0.5272  1.8268 -0.0939
 8225SOL    HW236309   1.994   1.291   4.391  2.2882 -0.9435 -0.4799
 8226SOL     OW36310   2.825   3.740   3.236  0.2947  0.0360 -0.0794
 8226SOL    HW136311   2.868   3.667   3.192 -0.4905 -0.0394 -0.7330
 8226SOL    HW236312   2.819   3.702   3.323 -0.2269 -1.8281 -0.9294
 8227SOL     OW36313   1.772   3.880  11.059 -0.2595 -0.0871  0.4613
 8227SOL    HW136314   1.748   3.947  10.995  0.5167 -1.0440 -0.8382
 8227SOL    HW236315   1.852   3.921  11.093  0.2838 -0.0941 -0.8022
 8228SOL     OW36316   4.223   3.349   4.306  0.0168  0.1731 -0.0996
 8228SOL    HW136317   4.149   3.289   4.317  0.8809 -0.6990  0.9491
 8228SOL    HW236318   4.280   3.324   4.378 -1.4221 -1.3261  0.5192
 8229SOL     OW36319   0.029   3.527   6.306 -0.0024  0.6574 -0.1301
 8229SOL    HW136320   0.079   3.458   6.350  1.0060  0.7279 -1.1616
 8229SOL    HW236321   0.042   3.604   6.362  0.7071  0.4285  0.0206
 8230SOL     OW36322   2.356   3.039   1.015 -0.0905 -0.1470  1.1545
 8230SOL    HW136323   2.280   3.085   0.980  1.2430  1.4787  0.3374
 8230SOL    HW236324   2.408   3.028   0.935 -2.2983  2.4076 -0.6178
 8231SOL     OW36325   3.608   0.808  14.247 -0.1292  0.5825 -0.4865
 8231SOL    HW136326   3.617   0.726  14.199 -1.5377  1.1589 -1.7252
 8231SOL    HW236327   3.584   0.774  14.333  2.4431 -1.3130 -0.5198
 8232SOL     OW36328   3.541   4.703   8.359 -0.2623  0.3290 -0.7234
 8232SOL    HW136329   3.561   4.723   8.267  3.9259 -1.5876 -0.2191
 8232SOL    HW236330   3.549   0.055   8.395  1.8044  0.0406 -0.4497
 8233SOL     OW36331   1.531   2.975   7.830  0.1063 -0.0564  0.2395
 8233SOL    HW136332   1.541   2.968   7.925 -2.5893  0.4791  0.5551
 8233SOL    HW236333   1.613   2.942   7.793 -1.0875 -1.2964 -1.2946
 8234SOL     OW36334   3.334   2.328   4.293  0.6802 -0.2208 -0.7121
 8234SOL    HW136335   3.371   2.379   4.220  0.2751  0.4650 -0.4336
 8234SOL    HW236336   3.300   2.390   4.358  0.6262 -1.3618  0.3381
 8235SOL     OW36337   3.661   1.849   8.145 -0.7017  0.2176  0.2983
 8235SOL    HW136338   3.693   1.836   8.234 -1.9924  1.2024  0.9171
 8235SOL    HW236339   3.620   1.935   8.144  0.5532  0.8119 -0.7128
 8236SOL     OW36340   4.591   2.342   6.643  0.2665  0.0597  0.2782
 8236SOL    HW136341   4.516   2.397   6.661 -0.8401 -2.2782  2.7130
 8236SOL    HW236342   4.558   2.263   6.685  0.5872  0.7981  1.9100
 8237SOL     OW36343   1.472   1.347  12.755  0.3203  0.2947 -0.3626
 8237SOL    HW136344   1.497   1.289  12.828  0.8143  1.6982  0.5734
 8237SOL    HW236345   1.527   1.425  12.758  0.4159  0.2042  0.3420
 8238SOL     OW36346   2.572   1.925  13.350 -0.2514 -0.3475  0.3242
 8238SOL    HW136347   2.635   1.970  13.294  0.0546  2.2945  2.7962
 8238SOL    HW236348   2.600   1.835  13.333 -1.2337 -0.6543  0.3418
 8239SOL     OW36349   3.122   3.246  10.897  0.0704  0.2420 -0.4328
 8239SOL    HW136350   3.094   3.236  10.806 -0.5117 -0.6512 -0.1598
 8239SOL    HW236351   3.046   3.208  10.942  1.1204  1.7640  2.5957
 8240SOL     OW36352   4.265   1.127  17.384  0.2158 -0.2117  0.2054
 8240SOL    HW136353   4.314   1.070  17.443 -1.8183 -2.4395 -0.2189
 8240SOL    HW236354   4.319   1.205  17.381  2.2284 -1.5850  0.5038
 8241SOL     OW36355   2.656   0.861   2.927 -0.4328 -0.0973 -0.7049
 8241SOL    HW136356   2.681   0.936   2.873 -0.6537  0.0012 -0.6691
 8241SOL    HW236357   2.671   0.784   2.871  1.2692 -1.7596  2.0573
 8242SOL     OW36358   3.795   2.122   7.827  0.2923  0.2152  0.1221
 8242SOL    HW136359   3.767   2.055   7.764  0.0823  2.0079 -1.7097
 8242SOL    HW236360   3.747   2.112   7.909 -1.1705  0.7805 -0.6602
 8243SOL     OW36361   1.572   1.319   5.175  0.1821  0.7370  0.1723
 8243SOL    HW136362   1.571   1.228   5.144  1.4729  0.8372 -0.1923
 8243SOL    HW236363   1.487   1.352   5.148  0.0060  0.1848  0.0559
 8244SOL     OW36364   2.121   0.687  10.020 -0.1359  0.3362  0.4490
 8244SOL    HW136365   2.113   0.781  10.001  2.8638  0.2879 -1.0605
 8244SOL    HW236366   2.034   0.663   9.989 -0.4160  0.1850  1.3477
 8245SOL     OW36367   4.160   1.195   6.353 -0.4140 -0.0857  0.1554
 8245SOL    HW136368   4.103   1.122   6.329  0.5780 -0.1126 -2.0635
 8245SOL    HW236369   4.231   1.143   6.391 -0.5946 -1.5670 -1.5273
 8246SOL     OW36370   4.357   1.375   7.826  0.1680 -0.3686  0.1578
 8246SOL    HW136371   4.435   1.359   7.878 -0.6557 -0.4822  1.3457
 8246SOL    HW236372   4.296   1.343   7.893  1.6497 -1.2170  1.0878
 8247SOL     OW36373   0.211   3.267   4.307  0.0144  0.2482 -0.4034
 8247SOL    HW136374   0.294   3.293   4.267  0.6544 -2.3056 -0.7707
 8247SOL    HW236375   0.237   3.180   4.338 -2.9638 -0.4476  0.1934
 8248SOL     OW36376   0.282   1.362   9.198 -0.1861  0.5024 -0.2176
 8248SOL    HW136377   0.193   1.379   9.165 -0.1103 -0.1488 -0.7727
 8248SOL    HW236378   0.285   1.266   9.199  2.4556  0.5971  1.6876
 8249SOL     OW36379   1.943   1.746  13.577 -0.0483  0.0053 -0.5682
 8249SOL    HW136380   1.917   1.763  13.486 -1.0076  1.5148 -0.0234
 8249SOL    HW236381   1.861   1.720  13.618 -0.2771  0.4573 -0.7375
 8250SOL     OW36382   1.233   2.068   6.752  0.2435 -0.2759 -0.4707
 8250SOL    HW136383   1.171   1.997   6.768  1.7013 -1.3715  0.3743
 8250SOL    HW236384   1.158   2.121   6.726 -1.0130 -2.4220 -1.2191
 8251SOL     OW36385   2.453   2.949   6.007  0.4954  0.3550  0.2244
 8251SOL    HW136386   2.528   2.890   6.016  0.4085  0.1609 -0.3817
 8251SOL    HW236387   2.381   2.900   6.048  1.3550 -0.9326  0.2085
 8252SOL     OW36388   4.311   0.369  15.659  0.4419  0.0903 -0.0844
 8252SOL    HW136389   4.216   0.362  15.658  0.5099 -0.8363  0.0353
 8252SOL    HW236390   4.320   0.461  15.687  1.5322  0.1279 -0.5684
 8253SOL     OW36391   0.969   1.722   2.303  0.0398 -0.4104 -0.5539
 8253SOL    HW136392   1.040   1.665   2.334  0.4661  0.2709 -0.2982
 8253SOL    HW236393   1.019   1.789   2.257  2.5650 -0.0192  2.7396
 8254SOL     OW36394   3.677   3.746   0.406 -0.2188 -0.3113  0.2765
 8254SOL    HW136395   3.764   3.744   0.365 -0.8520  0.7105 -1.1264
 8254SOL    HW236396   3.625   3.683   0.357  0.1675 -0.8493  0.5510
 8255SOL     OW36397   0.690   1.180  12.928  0.2035 -0.3514 -0.0994
 8255SOL    HW136398   0.771   1.138  12.956  0.5938 -0.5938 -1.6028
 8255SOL    HW236399   0.720   1.224  12.849  0.4745  0.7532  0.6289
 8256SOL     OW36400   4.036   3.386  14.815 -0.3406  0.3196 -0.8169
 8256SOL    HW136401   4.095   3.428  14.753 -0.9392  0.4004 -1.3267
 8256SOL    HW236402   3.966   3.449  14.797 -1.0756 -0.4581 -0.6974
 8257SOL     OW36403   0.132   3.770  16.187 -0.1016  0.1109 -0.2523
 8257SOL    HW136404   0.064   3.703  16.197  0.6235 -1.0592 -3.0943
 8257SOL    HW236405   0.207   3.728  16.145  0.4895  0.5268  0.3909
 8258SOL     OW36406   2.256   0.727  16.131  0.1261  0.1308  0.1987
 8258SOL    HW136407   2.184   0.790  16.133  1.0831  1.1870  1.2868
 8258SOL    HW236408   2.330   0.786  16.146  0.6094  0.0652 -1.8917
 8259SOL     OW36409   0.305   0.503   8.138  0.0410  0.0811 -0.0763
 8259SOL    HW136410   0.363   0.500   8.214  0.8709  0.9257 -0.6836
 8259SOL    HW236411   0.224   0.483   8.186 -0.2114 -0.1453 -0.5972
 8260SOL     OW36412   2.421   1.036   3.043 -0.5607  0.0665  0.1279
 8260SOL    HW136413   2.504   0.999   3.013 -2.3288 -2.1224 -2.1235
 8260SOL    HW236414   2.367   0.987   2.981  0.5451  1.4576 -1.9516
 8261SOL     OW36415   3.177   1.054   5.508 -0.3075 -0.0683 -0.0646
 8261SOL    HW136416   3.098   1.011   5.473  0.7090 -0.8510 -1.4158
 8261SOL    HW236417   3.165   1.145   5.481 -2.8987  0.1753  1.8381
 8262SOL     OW36418   1.156   2.281   9.144  0.5544 -0.0240 -0.7635
 8262SOL    HW136419   1.208   2.340   9.199 -0.4115 -0.3371  0.4903
 8262SOL    HW236420   1.197   2.200   9.175  0.0376 -0.5362 -1.4159
 8263SOL     OW36421   4.554   4.304   4.924 -0.6239 -0.1388  0.0632
 8263SOL    HW136422   4.512   4.240   4.867 -1.0248 -1.2847  1.6565
 8263SOL    HW236423   4.621   4.341   4.866 -0.8940  1.7602  0.9664
 8264SOL     OW36424   0.182   0.415   8.779 -0.4310  0.0655 -0.0388
 8264SOL    HW136425   0.179   0.347   8.711 -1.9018  0.2011 -0.0956
 8264SOL    HW236426   0.216   0.491   8.732  0.8418 -0.3032  0.2737
 8265SOL     OW36427   2.267   1.233   4.648  0.4485  0.5232 -0.1417
 8265SOL    HW136428   2.360   1.249   4.632  0.9896 -1.8804  0.6201
 8265SOL    HW236429   2.280   1.140   4.668  2.4147  0.8752  0.2049
 8266SOL     OW36430   3.936   3.859   3.481 -0.5983  0.1815 -0.3255
 8266SOL    HW136431   3.928   3.792   3.414 -0.4385  1.8859 -2.0471
 8266SOL    HW236432   3.850   3.854   3.523 -0.7884 -3.6502 -1.1673
 8267SOL     OW36433   3.421   1.423   8.743 -0.1336 -0.2847  0.0224
 8267SOL    HW136434   3.468   1.431   8.660 -0.8443 -2.0692 -0.5287
 8267SOL    HW236435   3.331   1.418   8.710  0.3438  1.1362 -1.5426
 8268SOL     OW36436   4.582   1.899  13.629 -0.5318  0.3261 -0.0267
 8268SOL    HW136437   4.554   1.987  13.657 -0.1244  0.1013  1.0974
 8268SOL    HW236438   4.669   1.919  13.596 -1.4215  1.6127 -1.5770
 8269SOL     OW36439   2.960   1.596   1.437 -0.1595  0.3081  0.6232
 8269SOL    HW136440   2.912   1.662   1.487  1.3503  0.3001  2.1072
 8269SOL    HW236441   2.886   1.538   1.425 -0.4085 -0.1493  4.5661
 8270SOL     OW36442   4.146   3.977  13.386  0.2401  0.0455 -0.4907
 8270SOL    HW136443   4.227   3.927  13.383 -0.3945 -0.9582 -0.8859
 8270SOL    HW236444   4.085   3.903  13.382  2.6569 -1.9073 -1.5523
 8271SOL     OW36445   4.169   0.229  15.327  0.0301 -0.0183  0.0990
 8271SOL    HW136446   4.185   0.322  15.342 -0.1350 -0.0217  0.2952
 8271SOL    HW236447   4.128   0.201  15.410 -0.8030  0.4205 -0.1642
 8272SOL     OW36448   1.011   2.673   4.903 -0.1613  0.7342  0.1247
 8272SOL    HW136449   1.071   2.736   4.942  1.4300  0.4481 -1.8341
 8272SOL    HW236450   0.995   2.718   4.820  0.8259 -1.3098 -1.2076
 8273SOL     OW36451   0.310   1.107   6.008 -0.6442  0.6105 -0.2812
 8273SOL    HW136452   0.289   1.190   5.964 -0.8996 -0.5085 -2.2810
 8273SOL    HW236453   0.275   1.126   6.095 -2.9447 -0.3052 -0.9969
 8274SOL     OW36454   4.078   4.319   6.726 -0.5811  0.2983 -0.3273
 8274SOL    HW136455   4.126   4.394   6.762  0.1968 -0.2525 -0.2064
 8274SOL    HW236456   4.073   4.336   6.632 -0.9790  1.1735 -0.1480
 8275SOL     OW36457   0.707   1.157   4.953  0.7932 -0.2965 -0.5447
 8275SOL    HW136458   0.678   1.203   4.874  1.3975  0.8530 -0.0981
 8275SOL    HW236459   0.724   1.235   5.005  0.9249 -0.5246 -0.2424
 8276SOL     OW36460   1.919   1.746   4.330 -0.2891 -0.0158  0.8610
 8276SOL    HW136461   1.918   1.838   4.355  0.6065 -0.1981  1.5665
 8276SOL    HW236462   2.001   1.738   4.281 -1.1953 -0.3336 -0.6198
 8277SOL     OW36463   4.301   1.874   7.410 -0.2666  0.0329  0.1239
 8277SOL    HW136464   4.354   1.803   7.447 -1.7150 -1.2385 -0.2314
 8277SOL    HW236465   4.329   1.877   7.319  1.0147 -2.9314  0.4243
 8278SOL     OW36466   0.845   3.004   6.515 -0.1909 -0.1100 -0.2938
 8278SOL    HW136467   0.820   3.085   6.470  2.9258  0.1060 -1.6647
 8278SOL    HW236468   0.938   2.998   6.494  0.6533  0.9638  3.0124
 8279SOL     OW36469   2.349   3.616   8.723 -0.4584 -0.1950 -0.5196
 8279SOL    HW136470   2.372   3.657   8.640 -3.0456 -1.4721 -1.8777
 8279SOL    HW236471   2.305   3.687   8.769 -3.4314 -2.5237  0.2284
 8280SOL     OW36472   3.740   1.820  13.805 -0.6782 -0.2588 -0.0242
 8280SOL    HW136473   3.821   1.858  13.770 -1.6209 -0.1482 -2.0309
 8280SOL    HW236474   3.772   1.810  13.895 -1.9832 -3.3176  0.0720
 8281SOL     OW36475   3.965   0.589   1.918 -0.1706 -0.1784  0.0657
 8281SOL    HW136476   3.961   0.685   1.922  0.6757 -0.1874  1.2637
 8281SOL    HW236477   4.050   0.569   1.879 -0.8874  1.1850 -2.1954
 8282SOL     OW36478   1.317   2.960   8.326 -0.5769  0.1769 -0.3561
 8282SOL    HW136479   1.313   2.935   8.233  0.9113 -2.0544  0.2009
 8282SOL    HW236480   1.319   2.873   8.365 -0.5676  0.6692  0.7379
 8283SOL     OW36481   2.682   0.171   1.283 -0.0957 -0.0068 -0.1908
 8283SOL    HW136482   2.777   0.178   1.275 -0.2789  2.7125  0.0211
 8283SOL    HW236483   2.669   0.104   1.216  3.3428 -1.6684  0.8547
 8284SOL     OW36484   3.135   0.907   3.027 -0.1155  0.7610 -0.1169
 8284SOL    HW136485   3.100   0.980   2.975 -2.5789 -0.0535  0.4071
 8284SOL    HW236486   3.229   0.916   3.010 -0.2441  0.4848 -0.9692
 8285SOL     OW36487   0.494   1.165   3.165 -0.1262  0.0635  0.4919
 8285SOL    HW136488   0.469   1.078   3.133  0.9414 -0.0928  0.1039
 8285SOL    HW236489   0.411   1.199   3.200 -1.6628 -1.1975 -1.9580
 8286SOL     OW36490   1.977   1.009   2.958  0.1623  0.1813  1.0105
 8286SOL    HW136491   2.006   0.923   2.928  0.3839  0.4679  0.4038
 8286SOL    HW236492   2.043   1.067   2.920  2.4756 -1.7286  2.0446
 8287SOL     OW36493   2.258   0.118   1.939 -0.9627  0.4236 -0.4152
 8287SOL    HW136494   2.196   0.174   1.985 -1.0881 -0.1196  0.0705
 8287SOL    HW236495   2.282   0.177   1.868 -0.8262 -0.5079 -1.1468
 8288SOL     OW36496   4.390   2.326   2.649  0.6356 -0.2627 -0.2579
 8288SOL    HW136497   4.379   2.421   2.648 -0.6995 -0.4095  0.0714
 8288SOL    HW236498   4.435   2.307   2.731  0.0500 -0.4548  0.0158
 8289SOL     OW36499   2.977   0.696   4.559  0.3424  0.3814 -0.2597
 8289SOL    HW136500   2.885   0.722   4.555  0.2347  0.4436  2.3399
 8289SOL    HW236501   2.982   0.651   4.475  0.9432  1.5005 -0.8137
 8290SOL     OW36502   0.888   1.320   9.217 -0.5629 -0.3750 -0.3982
 8290SOL    HW136503   0.893   1.226   9.235  2.1805  0.1868  1.7493
 8290SOL    HW236504   0.793   1.326   9.205 -0.8704 -0.7874  1.8582
 8291SOL     OW36505   2.356   1.029   1.977  0.7245  0.0347  0.1649
 8291SOL    HW136506   2.264   1.056   1.981  1.1091  0.6995  4.5563
 8291SOL    HW236507   2.346   0.935   1.964 -0.8819  0.4619 -1.7755
 8292SOL     OW36508   1.469   4.372   6.888 -0.1836 -0.0554 -0.6636
 8292SOL    HW136509   1.422   4.316   6.950  0.7754 -0.9406 -0.7522
 8292SOL    HW236510   1.504   4.437   6.949 -0.8222  1.4191 -1.8541
 8293SOL     OW36511   1.860   3.757   6.457 -0.2078 -0.2671  0.1754
 8293SOL    HW136512   1.865   3.837   6.509  1.1690  1.0489 -1.9756
 8293SOL    HW236513   1.929   3.763   6.390  1.3510 -0.5285  1.7327
 8294SOL     OW36514   0.442   0.373   7.020  0.1738 -0.3960 -0.5505
 8294SOL    HW136515   0.464   0.366   7.113 -1.7366 -0.6370 -0.1163
 8294SOL    HW236516   0.486   0.294   6.989 -0.5978 -1.1981  0.3921
 8295SOL     OW36517   0.907   4.339  15.986  0.2133 -0.1711  0.4127
 8295SOL    HW136518   0.941   4.352  16.074  3.1184 -0.7138 -0.6253
 8295SOL    HW236519   0.839   4.274  16.005 -0.2860  0.0955 -0.4942
 8296SOL     OW36520   4.485   1.384  10.639 -0.0815 -0.2591  0.2368
 8296SOL    HW136521   4.525   1.422  10.717  0.2231  0.6864 -0.3760
 8296SOL    HW236522   4.564   1.375  10.585 -3.0885 -0.8382 -4.1032
 8297SOL     OW36523   3.860   0.865   3.323  0.5308  0.2832  0.7197
 8297SOL    HW136524   3.912   0.827   3.394  1.6656 -2.0131 -1.3635
 8297SOL    HW236525   3.773   0.850   3.359  0.2489 -1.4112 -0.6615
 8298SOL     OW36526   2.096   4.470   6.045  0.2688  0.3193  0.4167
 8298SOL    HW136527   2.019   4.524   6.062 -0.0531 -0.4372  1.4208
 8298SOL    HW236528   2.054   4.383   6.042 -0.8350  0.8865 -0.4856
 8299SOL     OW36529   1.178   4.581   0.569  0.3491 -0.0503  0.4642
 8299SOL    HW136530   1.217   4.641   0.506 -1.0636  0.9060  0.5053
 8299SOL    HW236531   1.155   4.642   0.639  0.6106 -1.4042  1.7410
 8300SOL     OW36532   0.811   0.455   6.568 -0.0048 -0.1742 -0.1462
 8300SOL    HW136533   0.807   0.550   6.570  2.1700 -0.1028  0.5041
 8300SOL    HW236534   0.903   0.442   6.548 -0.3510  0.6101 -2.2271
 8301SOL     OW36535   2.794   2.577   2.154 -0.6627 -0.1717 -0.0595
 8301SOL    HW136536   2.746   2.653   2.120 -0.5044  0.1742  0.4878
 8301SOL    HW236537   2.834   2.550   2.072  0.4857 -0.7217  0.6915
 8302SOL     OW36538   1.156   1.922   8.629  0.1639 -0.6885 -0.0074
 8302SOL    HW136539   1.071   1.941   8.669 -0.6772 -1.3779 -1.4387
 8302SOL    HW236540   1.158   1.973   8.548 -0.4047 -0.1395  0.3268
 8303SOL     OW36541   0.927   3.929   3.825 -0.0311  0.1028 -0.2185
 8303SOL    HW136542   0.864   4.000   3.814 -0.5565 -0.5184 -1.1584
 8303SOL    HW236543   0.896   3.855   3.774 -1.9829  0.9807 -0.2890
 8304SOL     OW36544   2.757   4.591   1.887 -0.2907 -0.2407  0.2804
 8304SOL    HW136545   2.818   4.519   1.871  0.0681 -0.0307  0.6790
 8304SOL    HW236546   2.702   4.588   1.809  1.1734  2.3196 -0.8557
 8305SOL     OW36547   0.114   3.852   5.871 -0.2211  0.1761 -0.3585
 8305SOL    HW136548   0.124   3.927   5.931 -2.4142 -0.0356  0.2771
 8305SOL    HW236549   0.019   3.844   5.873 -0.4433  3.6706  3.8180
 8306SOL     OW36550   2.412   1.392   0.097  0.5016  0.0583  0.1648
 8306SOL    HW136551   2.318   1.381   0.114  0.0655 -0.6585 -2.6359
 8306SOL    HW236552   2.431   1.471   0.148 -0.9090  0.9964 -0.7342
 8307SOL     OW36553   0.916   0.780   8.189  0.1234 -0.1917  0.1048
 8307SOL    HW136554   0.828   0.816   8.201  0.2920  0.3154 -0.1803
 8307SOL    HW236555   0.898   0.690   8.215  0.4728 -0.7041 -1.4942
 8308SOL     OW36556   1.757   1.602   0.601 -0.0259 -0.2322 -0.1534
 8308SOL    HW136557   1.794   1.660   0.534  1.6692 -1.6586 -0.4423
 8308SOL    HW236558   1.666   1.596   0.569 -0.0037  0.8753 -0.4334
 8309SOL     OW36559   2.159   0.842   5.888 -0.4048 -0.5126 -0.1948
 8309SOL    HW136560   2.131   0.922   5.844 -2.5269 -0.6881  0.8246
 8309SOL    HW236561   2.205   0.798   5.817 -1.5871 -0.6672 -0.8750
 8310SOL     OW36562   2.924   1.506   4.635  0.2518 -0.6593 -0.0739
 8310SOL    HW136563   3.012   1.471   4.648 -0.3788 -2.1450  0.1030
 8310SOL    HW236564   2.933   1.601   4.620  2.8469 -1.3651 -3.0846
 8311SOL     OW36565   1.578   0.777   6.911  0.3366  0.1271  0.1248
 8311SOL    HW136566   1.622   0.807   6.991 -1.1218  0.7466  0.7044
 8311SOL    HW236567   1.489   0.803   6.936  1.1806  0.2761  2.9888
 8312SOL     OW36568   4.271   0.081   2.870 -0.2904 -0.2799 -0.1216
 8312SOL    HW136569   4.279   0.175   2.852  0.8361 -0.0246  1.6826
 8312SOL    HW236570   4.336   0.076   2.941 -3.8112 -3.5039  2.8464
 8313SOL     OW36571   4.280   2.251   7.341 -0.1866  0.3297 -0.3433
 8313SOL    HW136572   4.310   2.169   7.300 -1.1143  0.1595 -0.6989
 8313SOL    HW236573   4.212   2.216   7.400  1.1530  0.5062  1.2979
 8314SOL     OW36574   1.722   4.287   5.433 -0.0853  0.1611 -0.0999
 8314SOL    HW136575   1.793   4.348   5.454 -0.4595 -0.5606  3.2794
 8314SOL    HW236576   1.653   4.347   5.405 -0.2461 -0.1400 -0.3418
 8315SOL     OW36577   0.262   1.503   1.890 -0.0302  0.3359 -0.3010
 8315SOL    HW136578   0.228   1.572   1.947  0.7258  1.2581 -0.9694
 8315SOL    HW236579   0.316   1.453   1.951 -0.3062 -0.3130 -0.5820
 8316SOL     OW36580   1.649   1.667   4.021  0.6403  0.7415 -0.1764
 8316SOL    HW136581   1.721   1.614   4.057  1.1179  0.5290 -1.4298
 8316SOL    HW236582   1.653   1.739   4.084 -1.2928  1.4385 -0.8536
 8317SOL     OW36583   1.386   1.143   9.635 -0.3901  0.1796 -0.5706
 8317SOL    HW136584   1.335   1.114   9.710  0.6981  0.4559  0.2754
 8317SOL    HW236585   1.396   1.062   9.585 -0.6214  0.3606 -0.9065
 8318SOL     OW36586   0.855   3.491   5.764 -0.4209  0.1938 -1.0222
 8318SOL    HW136587   0.875   3.423   5.699  1.7091 -0.9223  0.8198
 8318SOL    HW236588   0.880   3.566   5.710  1.2630 -0.5865 -1.3206
 8319SOL     OW36589   3.731   4.684   7.184 -0.1233  0.6325 -0.2187
 8319SOL    HW136590   3.747   4.591   7.199  1.4427  0.7363 -1.3073
 8319SOL    HW236591   3.636   4.675   7.175 -0.0898 -1.2188  1.2020
 8320SOL     OW36592   0.895   2.376   9.124  0.1442 -0.2659  0.2335
 8320SOL    HW136593   0.913   2.428   9.046  0.6606  0.3672  0.7710
 8320SOL    HW236594   0.988   2.356   9.137  0.5384  0.5026 -1.3783
 8321SOL     OW36595   2.621   3.886   5.958 -0.1096 -0.4223  0.2510
 8321SOL    HW136596   2.587   3.830   5.888  1.4482 -1.1754  0.0878
 8321SOL    HW236597   2.668   3.958   5.916 -0.4069 -0.4029 -0.0530
 8322SOL     OW36598   1.695   0.986  14.717  0.4278  0.0014 -0.0790
 8322SOL    HW136599   1.687   1.066  14.665  2.5134  0.6476  0.5917
 8322SOL    HW236600   1.768   1.007  14.775  0.2748  1.1882 -0.3117
 8323SOL     OW36601   2.021   3.038   4.435 -0.1449 -0.2616  0.3741
 8323SOL    HW136602   2.068   3.049   4.517 -0.0562  0.8886  0.1736
 8323SOL    HW236603   2.076   3.084   4.371  1.1862  0.8360  2.3151
 8324SOL     OW36604   1.045   2.489   2.350  0.0847 -0.0818  0.5209
 8324SOL    HW136605   1.130   2.446   2.354 -1.6474 -3.3847  2.0058
 8324SOL    HW236606   0.991   2.430   2.402  1.1398  0.1483  1.8500
 8325SOL     OW36607   3.322   0.466   2.310  0.1510 -0.1690  1.0004
 8325SOL    HW136608   3.387   0.441   2.244  0.2708  0.5066  0.8627
 8325SOL    HW236609   3.264   0.390   2.308  0.5538 -0.4116 -1.0522
 8326SOL     OW36610   0.910   2.768  13.007  0.0803 -0.0028 -0.2312
 8326SOL    HW136611   0.933   2.851  12.965  1.5007 -1.7042 -2.8464
 8326SOL    HW236612   0.964   2.698  12.970 -1.8501 -2.3459  1.4018
 8327SOL     OW36613   2.594   3.056   3.693 -0.8692 -0.5045 -0.2258
 8327SOL    HW136614   2.499   3.046   3.687 -0.6602 -2.9301  0.6807
 8327SOL    HW236615   2.630   2.999   3.625  2.3174 -2.4374  3.0977
 8328SOL     OW36616   2.317   2.198  13.248 -0.3454  0.0462 -0.5553
 8328SOL    HW136617   2.346   2.265  13.186 -0.7704  0.8739  0.1433
 8328SOL    HW236618   2.230   2.238  13.245  0.8476  2.7412  0.1863
 8329SOL     OW36619   1.708   1.626   6.939  0.0896  0.4128  0.2448
 8329SOL    HW136620   1.711   1.540   6.980 -1.8584  0.8865  1.3737
 8329SOL    HW236621   1.792   1.638   6.894  0.7892 -1.9963  0.9209
 8330SOL     OW36622   1.952   1.950   2.913  0.2109 -0.1949  0.0195
 8330SOL    HW136623   1.975   2.009   2.840  0.3242  1.4872  1.4197
 8330SOL    HW236624   1.871   1.909   2.883  0.3479  0.6556 -1.5291
 8331SOL     OW36625   4.342   2.596   1.389  0.3898 -0.1705 -0.1500
 8331SOL    HW136626   4.378   2.555   1.468 -0.6391  0.5661  0.7131
 8331SOL    HW236627   4.417   2.592   1.330 -1.0465 -1.6953 -1.8846
 8332SOL     OW36628   0.117   4.055  16.216 -0.3849  0.5647 -0.2271
 8332SOL    HW136629   0.134   3.962  16.200  1.8824  1.1284 -1.1031
 8332SOL    HW236630   0.077   4.078  16.133  0.1111 -2.1896 -1.2445
 8333SOL     OW36631   2.488   1.103   0.857  0.1075  0.2473 -0.1118
 8333SOL    HW136632   2.412   1.045   0.851 -2.3125  3.5158 -0.9436
 8333SOL    HW236633   2.547   1.050   0.911  0.4249 -0.8831 -1.5939
 8334SOL     OW36634   1.266   2.897  13.645 -0.3751  0.2816 -0.4552
 8334SOL    HW136635   1.360   2.910  13.637 -0.8374  2.3531 -2.4610
 8334SOL    HW236636   1.265   2.830  13.576  2.3993  0.0236 -0.2330
 8335SOL     OW36637   1.067   3.414   8.473 -0.1661 -0.7053  0.3883
 8335SOL    HW136638   1.155   3.393   8.442  0.0148  1.7797 -0.7909
 8335SOL    HW236639   1.017   3.344   8.431 -1.9927  0.4011  0.7169
 8336SOL     OW36640   0.728   2.564  12.044 -0.5884  0.6188 -0.5914
 8336SOL    HW136641   0.691   2.567  11.956  1.3386  2.3915 -1.3627
 8336SOL    HW236642   0.677   2.490  12.077  0.8948  0.1085  0.5801
 8337SOL     OW36643   0.206   0.192   2.903  0.2501 -0.1200 -0.2238
 8337SOL    HW136644   0.235   0.262   2.844 -0.8258  0.0497 -0.5414
 8337SOL    HW236645   0.260   0.210   2.980  0.7700  1.2292 -0.8902
 8338SOL     OW36646   2.960   1.652   0.753  0.0204 -0.4797 -0.1943
 8338SOL    HW136647   2.945   1.589   0.823  2.9259  0.8601  1.6604
 8338SOL    HW236648   2.930   1.733   0.796 -1.7489  0.2563 -2.7992
 8339SOL     OW36649   4.532   0.100   5.504  0.6952  0.5803 -0.1905
 8339SOL    HW136650   4.522   0.098   5.599  1.0080 -0.7283 -0.1890
 8339SOL    HW236651   4.573   0.015   5.488 -2.5162 -1.1318  0.6696
 8340SOL     OW36652   3.906   3.411   4.973 -0.7441  0.2428 -0.1071
 8340SOL    HW136653   3.904   3.477   4.904 -0.4628  0.6269  0.2469
 8340SOL    HW236654   3.863   3.458   5.045 -0.5778  1.3083 -0.7061
 8341SOL     OW36655   0.137   3.749  13.985  0.2541  0.2600  0.6669
 8341SOL    HW136656   0.212   3.743  13.926  1.5820  0.4580  2.3329
 8341SOL    HW236657   0.181   3.718  14.064  0.5153 -1.5132 -0.1724
 8342SOL     OW36658   2.441   0.137  13.459 -0.0462 -0.4563  0.2506
 8342SOL    HW136659   2.481   0.111  13.376 -0.4056 -0.3904  0.0590
 8342SOL    HW236660   2.368   0.076  13.465  0.5413 -1.4013 -2.4114
 8343SOL     OW36661   3.904   0.029  17.177  0.0331 -0.4798 -0.0884
 8343SOL    HW136662   3.957   4.688  17.194  2.3984  0.9537 -0.9935
 8343SOL    HW236663   3.837   0.028  17.245  1.2448  1.6225  1.1542
 8344SOL     OW36664   2.423   1.547  15.063  0.2633  0.0763  0.2020
 8344SOL    HW136665   2.341   1.516  15.102 -0.1381 -0.2544 -0.9225
 8344SOL    HW236666   2.460   1.591  15.140  1.3697 -0.9552  0.2507
 8345SOL     OW36667   4.104   3.170  15.372 -0.6538  0.1098  0.3282
 8345SOL    HW136668   4.189   3.213  15.368  0.0453 -1.2761  0.1807
 8345SOL    HW236669   4.127   3.084  15.336  2.0431  0.3574  1.4988
 8346SOL     OW36670   0.008   3.367   4.454  0.2938 -0.1494 -0.0173
 8346SOL    HW136671   0.064   3.435   4.490  2.2898 -1.2496 -1.0207
 8346SOL    HW236672   0.067   3.338   4.384  1.8576 -0.1105  1.2923
 8347SOL     OW36673   1.652   3.524   3.914 -0.1556  0.3510 -0.0066
 8347SOL    HW136674   1.663   3.611   3.953 -1.6976 -1.1865  3.9022
 8347SOL    HW236675   1.567   3.525   3.871 -1.7984  0.2878  3.2056
 8348SOL     OW36676   0.963   0.565   0.165 -0.0574 -0.1193  0.5800
 8348SOL    HW136677   1.013   0.619   0.104 -1.0796  0.7433  0.5103
 8348SOL    HW236678   1.021   0.489   0.171  1.2362  0.9853  2.0146
 8349SOL     OW36679   2.962   2.273   0.588 -0.2509 -0.0028  0.1206
 8349SOL    HW136680   3.032   2.229   0.636 -2.5988 -0.6498  3.0080
 8349SOL    HW236681   3.009   2.313   0.515  0.4426  2.3219  1.8169
 8350SOL     OW36682   3.497   2.793   7.184  0.0889 -0.8847 -0.0598
 8350SOL    HW136683   3.490   2.828   7.096 -1.1398 -0.8573  0.0588
 8350SOL    HW236684   3.404   2.778   7.201 -0.1825  1.4344  0.4971
 8351SOL     OW36685   2.244   1.970   4.338  0.1728  0.4591 -0.4461
 8351SOL    HW136686   2.214   2.058   4.319  2.2799  1.1363 -0.5721
 8351SOL    HW236687   2.226   1.925   4.256  0.1093  0.8532 -0.6448
 8352SOL     OW36688   2.757   3.158  11.454  0.6663  0.3076  0.0874
 8352SOL    HW136689   2.697   3.212  11.505  0.9417  0.3973  0.3125
 8352SOL    HW236690   2.826   3.142  11.518 -0.1171  2.1431  1.3939
 8353SOL     OW36691   4.478   1.564   9.785  0.1684 -0.5772 -0.2063
 8353SOL    HW136692   4.383   1.580   9.781  0.4012  1.1104  1.1269
 8353SOL    HW236693   4.490   1.513   9.865  1.2853 -0.5718 -0.3814
 8354SOL     OW36694   3.348   3.242   8.214 -0.7076  0.3669 -0.1091
 8354SOL    HW136695   3.376   3.206   8.298  0.2681 -0.3498 -0.7519
 8354SOL    HW236696   3.333   3.162   8.164 -1.6095  1.5668 -1.7740
 8355SOL     OW36697   3.479   4.648   2.675 -0.7747 -0.0511 -1.2104
 8355SOL    HW136698   3.533   4.693   2.740 -1.2780 -1.7612  0.3755
 8355SOL    HW236699   3.396   4.662   2.722 -0.6608 -0.4985 -0.8787
 8356SOL     OW36700   3.390   2.637  14.714 -0.2809  0.0501  0.6916
 8356SOL    HW136701   3.316   2.603  14.763 -0.6623  0.7486  0.6043
 8356SOL    HW236702   3.450   2.563  14.716 -0.1473  0.1059 -1.1276
 8357SOL     OW36703   3.119   3.841  10.285 -0.8217  0.1319  0.3225
 8357SOL    HW136704   3.201   3.868  10.326 -0.3651 -1.0706  0.1881
 8357SOL    HW236705   3.143   3.862  10.195  1.3504 -0.6302  0.7310
 8358SOL     OW36706   0.531   3.583  12.927  0.3500  0.1066  0.3149
 8358SOL    HW136707   0.461   3.517  12.933  0.2180  0.1324 -0.8939
 8358SOL    HW236708   0.545   3.612  13.017  3.8596 -0.1875 -0.1434
 8359SOL     OW36709   1.252   0.656   4.001  0.0971  0.1699 -0.1715
 8359SOL    HW136710   1.309   0.598   4.053  2.2505  0.2220 -2.4937
 8359SOL    HW236711   1.164   0.625   4.024  0.2621 -1.0142 -1.1296
 8360SOL     OW36712   2.331   0.633   8.887 -0.6075 -0.1895  0.0890
 8360SOL    HW136713   2.348   0.564   8.823  1.4379  0.0626  0.3417
 8360SOL    HW236714   2.316   0.588   8.970  0.4309  0.9637  0.8984
 8361SOL     OW36715   1.026   0.900   4.840  0.1961 -0.2765 -0.2494
 8361SOL    HW136716   1.098   0.841   4.817  1.2067 -0.1999  2.6771
 8361SOL    HW236717   0.956   0.836   4.852  1.7767 -1.9511  0.2238
 8362SOL     OW36718   0.751   1.112   3.733  0.2286 -0.4883 -0.3423
 8362SOL    HW136719   0.735   1.184   3.795 -2.0996 -1.0544 -0.3047
 8362SOL    HW236720   0.814   1.055   3.778 -1.4433 -2.7559 -0.8775
 8363SOL     OW36721   3.310   2.872   2.414 -0.7879  0.4144 -0.0382
 8363SOL    HW136722   3.268   2.924   2.345 -0.8375 -0.8128 -0.9331
 8363SOL    HW236723   3.241   2.835   2.468 -2.0535  1.8338 -0.6919
 8364SOL     OW36724   4.527   3.979   0.050 -0.5518  0.0469  0.2788
 8364SOL    HW136725   4.518   4.007  17.702 -1.4131 -0.5274  0.1863
 8364SOL    HW236726   4.499   3.888   0.049 -0.5251  0.0605 -1.3135
 8365SOL     OW36727   4.249   3.593  17.721 -0.2850  0.0955 -0.0216
 8365SOL    HW136728   4.162   3.631  17.733  0.0784  0.9080  0.0380
 8365SOL    HW236729   4.221   3.504  17.741  0.7746 -0.2354 -0.0149
 8366SOL     OW36730   2.865   3.241   4.446  0.5142  0.4658 -0.1524
 8366SOL    HW136731   2.941   3.297   4.431 -0.3331  1.2175 -1.7683
 8366SOL    HW236732   2.903   3.156   4.424  1.4777  0.9359 -0.2964
 8367SOL     OW36733   0.876   4.381  15.507  0.4544  0.2944 -0.1217
 8367SOL    HW136734   0.788   4.396  15.473  0.8037  2.2854 -0.1576
 8367SOL    HW236735   0.873   4.447  15.577  0.8763  0.4564 -0.2561
 8368SOL     OW36736   2.721   0.925   1.974  0.0184  0.0472  0.2674
 8368SOL    HW136737   2.814   0.922   1.997 -0.1137 -0.7514  0.7138
 8368SOL    HW236738   2.677   0.967   2.048 -2.1669 -2.5221  0.4367
 8369SOL     OW36739   1.527   1.174  12.961  0.5750 -0.0158 -0.6604
 8369SOL    HW136740   1.621   1.177  12.977  0.2519  0.8138  1.1174
 8369SOL    HW236741   1.523   1.080  12.941  0.0576  0.2167 -1.6362
 8370SOL     OW36742   2.372   3.040  15.483 -0.1325  0.2488 -0.4993
 8370SOL    HW136743   2.312   3.115  15.481 -0.6863 -0.2473 -2.2754
 8370SOL    HW236744   2.445   3.074  15.535  0.9042 -1.8407 -0.5880
 8371SOL     OW36745   1.226   3.100  14.278  0.2596  0.0579 -0.9532
 8371SOL    HW136746   1.278   3.138  14.349 -0.0087 -0.2101 -0.6121
 8371SOL    HW236747   1.279   3.027  14.245  1.1914 -0.3858  1.5450
 8372SOL     OW36748   4.237   1.614   8.326  0.2755 -0.6837  0.2609
 8372SOL    HW136749   4.319   1.629   8.374  1.3445  2.5006 -2.6335
 8372SOL    HW236750   4.196   1.701   8.325  0.3253 -0.6583  0.3671
 8373SOL     OW36751   2.558   2.806   2.732  0.3433 -0.4242  0.7596
 8373SOL    HW136752   2.527   2.718   2.709  0.9644  0.0928 -2.0823
 8373SOL    HW236753   2.583   2.841   2.646 -0.9525 -0.5616  0.3272
 8374SOL     OW36754   1.961   4.229   5.244  0.1720 -0.4550  0.8057
 8374SOL    HW136755   1.964   4.285   5.322 -1.8191  1.5929 -0.5831
 8374SOL    HW236756   1.874   4.257   5.216  0.8729 -0.1074 -0.9980
 8375SOL     OW36757   3.411   0.364   9.843  0.4975 -0.3117 -0.2577
 8375SOL    HW136758   3.439   0.310   9.916 -0.4866  0.2462  0.5227
 8375SOL    HW236759   3.450   0.449   9.866  0.0461 -0.6019  1.5339
 8376SOL     OW36760   0.812   0.636  10.432  0.3349 -0.3238 -0.1860
 8376SOL    HW136761   0.820   0.669  10.342  2.0140  0.7919  0.3731
 8376SOL    HW236762   0.875   0.696  10.471  2.9408 -4.9552  2.6377
 8377SOL     OW36763   4.424   0.719  16.030 -0.2163  0.1814 -0.2120
 8377SOL    HW136764   4.445   0.791  15.971  3.0985 -0.7950 -0.2111
 8377SOL    HW236765   4.509   0.677  16.043 -0.4959 -0.0092  0.9896
 8378SOL     OW36766   3.190   3.416   5.549  0.5932  0.1186 -0.3036
 8378SOL    HW136767   3.122   3.352   5.570 -0.6462  1.4315 -0.3760
 8378SOL    HW236768   3.140   3.481   5.501  0.9834 -0.0888 -0.9886
 8379SOL     OW36769   4.463   3.503   3.624  0.5392  0.4036  0.0043
 8379SOL    HW136770   4.503   3.587   3.645  0.2398  0.6098 -0.2293
 8379SOL    HW236771   4.442   3.528   3.533  1.6086 -1.4206 -0.7335
 8380SOL     OW36772   3.348   4.620   6.363 -0.2909 -0.0048  0.1000
 8380SOL    HW136773   3.349   4.624   6.459 -0.5433 -3.2257  0.2235
 8380SOL    HW236774   3.372   4.528   6.352  0.9410  0.3336 -0.0927
 8381SOL     OW36775   1.230   2.559   8.030  0.0384  0.0034 -0.5011
 8381SOL    HW136776   1.299   2.496   8.008 -1.7662 -1.8507 -0.8596
 8381SOL    HW236777   1.164   2.500   8.066  2.6393 -1.1667  2.3840
 8382SOL     OW36778   4.163   3.910   3.592 -0.0256 -0.2603  0.4200
 8382SOL    HW136779   4.076   3.892   3.558 -0.1440  1.9601 -0.4344
 8382SOL    HW236780   4.132   3.971   3.659  1.8730  2.7545 -1.4790
 8383SOL     OW36781   1.563   0.646  15.994 -0.4558  0.0574 -0.7228
 8383SOL    HW136782   1.582   0.627  16.086  2.1993  0.9208 -1.1108
 8383SOL    HW236783   1.607   0.731  15.987 -0.2830 -0.1279 -1.8935
 8384SOL     OW36784   0.746   0.246  13.606 -1.1742 -0.5844 -0.0048
 8384SOL    HW136785   0.653   0.237  13.589 -1.4424  0.6688  0.7506
 8384SOL    HW236786   0.740   0.323  13.664  0.6150 -1.0302  0.7923
 8385SOL     OW36787   2.032   2.502  10.335 -0.1805  0.0009  0.1343
 8385SOL    HW136788   2.004   2.589  10.363  0.3200  0.0416  0.5148
 8385SOL    HW236789   1.972   2.454  10.392 -0.4421  0.0015 -0.1455
 8386SOL     OW36790   3.901   1.417   8.261  0.8811  0.1966 -0.3270
 8386SOL    HW136791   3.828   1.468   8.226 -0.1294 -0.8736  0.2320
 8386SOL    HW236792   3.852   1.336   8.275  1.2300 -0.6240 -3.6924
 8387SOL     OW36793   0.087   2.603   6.743 -0.4001 -0.3728  0.0385
 8387SOL    HW136794   0.174   2.626   6.711  0.7054 -1.5144  2.2339
 8387SOL    HW236795   0.087   2.641   6.830  0.8686  0.2431 -0.2404
 8388SOL     OW36796   4.707   3.687  12.252  0.3250  0.1128  0.4292
 8388SOL    HW136797   0.008   3.617  12.306 -0.1581 -1.3972 -1.2014
 8388SOL    HW236798   0.046   3.746  12.257  0.1410  0.3421  0.5024
 8389SOL     OW36799   2.152   0.657  15.794  0.7708 -0.3493 -0.3397
 8389SOL    HW136800   2.152   0.583  15.855 -3.5227  1.1893  1.5687
 8389SOL    HW236801   2.237   0.694  15.816  0.7334 -0.6422  0.3039
 8390SOL     OW36802   1.631   2.670   5.592  0.0646 -0.1666  0.1117
 8390SOL    HW136803   1.607   2.624   5.512  0.2891 -0.4204  0.1892
 8390SOL    HW236804   1.558   2.651   5.651 -0.0331 -1.4030 -0.4044
 8391SOL     OW36805   0.859   1.644   5.210  0.4710 -0.0502 -0.2963
 8391SOL    HW136806   0.835   1.596   5.290 -0.7271 -0.7541 -1.0775
 8391SOL    HW236807   0.912   1.716   5.244 -0.1830  0.0679  0.4815
 8392SOL     OW36808   3.007   4.395  16.216  0.1553  0.4884 -0.7233
 8392SOL    HW136809   2.967   4.314  16.247  0.8180 -0.1336 -1.5053
 8392SOL    HW236810   2.975   4.394  16.126 -0.7827  1.4323 -0.3959
 8393SOL     OW36811   3.480   2.675  10.468 -0.6296 -0.3213 -0.0760
 8393SOL    HW136812   3.391   2.648  10.491 -0.6413 -1.0721 -1.0222
 8393SOL    HW236813   3.500   2.621  10.391 -0.9996  2.0287 -1.8239
 8394SOL     OW36814   1.612   4.380  10.739 -0.5935  0.1806 -0.4589
 8394SOL    HW136815   1.650   4.425  10.814 -1.4328  1.1913 -0.6366
 8394SOL    HW236816   1.595   4.295  10.779 -0.5491  1.0923  1.4849
 8395SOL     OW36817   0.302   4.314   2.888 -0.0082  1.0881  0.0457
 8395SOL    HW136818   0.227   4.269   2.849  0.8445 -0.6844  0.4948
 8395SOL    HW236819   0.335   4.355   2.807  2.3583  0.1640  0.5420
 8396SOL     OW36820   1.305   2.827   8.092 -0.0813  0.1312  0.0019
 8396SOL    HW136821   1.281   2.872   8.011  0.2943  0.7885  0.2607
 8396SOL    HW236822   1.273   2.741   8.063 -0.4405  0.2527  0.0335
 8397SOL     OW36823   2.424   0.032   6.708 -0.4175  0.5865 -0.1619
 8397SOL    HW136824   2.470   0.037   6.791 -0.7666  0.1476  0.0572
 8397SOL    HW236825   2.333   0.015   6.733 -0.1710 -0.3049  0.1271
 8398SOL     OW36826   0.823   3.218   4.964  0.4479  0.5551 -0.0022
 8398SOL    HW136827   0.892   3.244   5.025  1.3649  0.8839 -1.1575
 8398SOL    HW236828   0.826   3.283   4.893  0.8338 -0.1078 -0.5932
 8399SOL     OW36829   4.481   1.765  10.210  0.6118 -0.9264 -0.1061
 8399SOL    HW136830   4.498   1.726  10.295  3.8777  1.9631  0.5478
 8399SOL    HW236831   4.512   1.854  10.225 -1.1485  0.0304 -2.1910
 8400SOL     OW36832   2.232   1.028   3.886 -0.1572 -0.6860  0.1605
 8400SOL    HW136833   2.321   0.997   3.901  0.6694  0.4450 -2.4298
 8400SOL    HW236834   2.245   1.057   3.795 -2.0809 -0.0154  0.0992
 8401SOL     OW36835   2.966   3.443   5.827  0.1248 -0.1645  0.8008
 8401SOL    HW136836   2.896   3.504   5.851 -0.6663 -0.4226 -0.8787
 8401SOL    HW236837   3.009   3.427   5.911 -0.2878  0.6913  1.1771
 8402SOL     OW36838   2.946   0.631   3.649  0.1264  1.0372  0.3500
 8402SOL    HW136839   2.877   0.686   3.685 -1.0300 -0.4744  0.4351
 8402SOL    HW236840   2.952   0.569   3.722 -0.0732  0.4851 -0.1041
 8403SOL     OW36841   3.202   1.649  14.727 -0.1105  0.5232 -0.3313
 8403SOL    HW136842   3.192   1.564  14.770  2.7836  0.9647  1.1909
 8403SOL    HW236843   3.296   1.661  14.717 -0.2212  1.8225  0.1863
 8404SOL     OW36844   4.108   0.558   5.501  0.3319  0.1813  0.5175
 8404SOL    HW136845   4.108   0.497   5.427 -0.9945  0.6165  0.1686
 8404SOL    HW236846   4.105   0.638   5.450 -3.0465 -0.5198 -0.3703
 8405SOL     OW36847   3.039   2.025  17.186  0.1513 -0.3046 -0.0222
 8405SOL    HW136848   3.129   2.009  17.158  0.7799  3.7273 -0.3329
 8405SOL    HW236849   3.001   1.940  17.165 -1.7370 -0.5457  4.4076
 8406SOL     OW36850   0.444   1.173   7.245  0.5048 -0.3759  0.0703
 8406SOL    HW136851   0.487   1.135   7.322  0.3320  0.2763  0.4876
 8406SOL    HW236852   0.478   1.263   7.249 -0.3615 -0.1338  2.0929
 8407SOL     OW36853   3.789   2.126   7.435 -0.0686 -0.1385 -0.0007
 8407SOL    HW136854   3.731   2.192   7.396  0.5493 -0.7686 -2.0065
 8407SOL    HW236855   3.761   2.049   7.385 -1.4035 -0.9017  1.9027
 8408SOL     OW36856   0.996   3.725   9.008  0.3920  0.1548  0.3931
 8408SOL    HW136857   0.916   3.674   9.024 -0.5140  1.3689 -0.3329
 8408SOL    HW236858   0.982   3.799   9.067  2.2542 -0.2519  1.3242
 8409SOL     OW36859   1.293   4.379  17.208  0.5882  0.1358  0.1679
 8409SOL    HW136860   1.225   4.312  17.202  1.3179 -0.6402  0.4489
 8409SOL    HW236861   1.296   4.431  17.128  1.4148  0.1988  0.2382
 8410SOL     OW36862   4.464   3.025   4.568 -0.3461 -0.2226 -0.2895
 8410SOL    HW136863   4.465   2.965   4.643 -0.2907  0.6062  0.3769
 8410SOL    HW236864   4.557   3.040   4.549  0.3400 -1.0621  2.4149
 8411SOL     OW36865   2.784   1.886   7.403 -0.1273  0.2986  0.2918
 8411SOL    HW136866   2.785   1.925   7.491  0.3070  0.3734  0.2504
 8411SOL    HW236867   2.863   1.833   7.399 -0.2244  0.2675 -1.0773
 8412SOL     OW36868   1.390   3.022   7.226 -0.2026  0.6219 -0.3932
 8412SOL    HW136869   1.447   3.013   7.149 -0.5306  0.9250 -0.6728
 8412SOL    HW236870   1.383   3.117   7.234 -0.0599  0.7657 -2.0452
 8413SOL     OW36871   1.758   4.004   2.831  0.2423 -0.2887 -0.5271
 8413SOL    HW136872   1.733   3.951   2.906  1.5320 -0.3226 -0.1234
 8413SOL    HW236873   1.834   4.058   2.854  0.0234 -0.6441  1.0397
 8414SOL     OW36874   3.962   3.095   6.511 -0.2213 -0.2967 -0.0976
 8414SOL    HW136875   4.036   3.146   6.480 -0.4875 -0.7310 -1.4535
 8414SOL    HW236876   3.897   3.154   6.473  1.3932  1.2100 -0.4873
 8415SOL     OW36877   1.118   1.972   7.260  0.3870 -0.6078  0.5224
 8415SOL    HW136878   1.213   1.962   7.251  0.3596 -1.8412  1.5912
 8415SOL    HW236879   1.116   1.953   7.354  0.6824 -0.8575  0.4809
 8416SOL     OW36880   2.289   3.751   7.725  0.0155  0.0677 -0.0231
 8416SOL    HW136881   2.380   3.726   7.709  0.0936  0.2440  0.1400
 8416SOL    HW236882   2.246   3.668   7.748  0.3358  0.4635  2.0531
 8417SOL     OW36883   0.512   2.867   8.475  0.2372  0.4012 -0.3111
 8417SOL    HW136884   0.541   2.793   8.528 -0.4068 -0.6101 -1.3435
 8417SOL    HW236885   0.440   2.833   8.422 -0.4849 -0.2919  1.1193
 8418SOL     OW36886   2.024   0.016   9.000 -0.5224  0.7194 -0.5717
 8418SOL    HW136887   2.019   4.670   9.048 -0.9741  0.8799 -0.3390
 8418SOL    HW236888   2.119   0.023   9.003 -0.5773  1.6801 -1.1847
 8419SOL     OW36889   3.491   0.966  16.118 -0.3510  0.5662 -0.1260
 8419SOL    HW136890   3.482   0.958  16.023 -0.6065 -0.7995  0.0074
 8419SOL    HW236891   3.459   1.054  16.135 -0.2653  0.7261 -0.7716
 8420SOL     OW36892   4.281   2.287   4.976 -1.1874  0.3761  0.1894
 8420SOL    HW136893   4.325   2.308   4.893 -0.9442 -0.2231  0.1679
 8420SOL    HW236894   4.198   2.333   4.965 -0.7854  1.5723  2.0963
 8421SOL     OW36895   1.510   0.172   7.635  0.3791 -0.1636  0.0167
 8421SOL    HW136896   1.516   0.231   7.560  1.6023  1.1154  1.1122
 8421SOL    HW236897   1.417   0.183   7.652  0.8150  1.5726  1.3182
 8422SOL     OW36898   2.543   4.281  12.104  0.1153  0.2834  0.5588
 8422SOL    HW136899   2.532   4.237  12.019 -1.2267  0.8887  0.4192
 8422SOL    HW236900   2.617   4.234  12.142 -0.1524  0.6913  1.5658
 8423SOL     OW36901   3.285   0.594   3.822 -0.1726 -0.1310  0.4361
 8423SOL    HW136902   3.249   0.668   3.871 -1.1781 -0.2839 -0.0553
 8423SOL    HW236903   3.377   0.614   3.809  0.1569 -0.4208  2.3223
 8424SOL     OW36904   0.249   2.867  17.669  0.3045 -0.4655 -0.4923
 8424SOL    HW136905   0.267   2.877  17.575  0.3777 -1.3876 -0.5719
 8424SOL    HW236906   0.309   2.929  17.711 -1.6855 -0.0593  1.7605
 8425SOL     OW36907   1.160   2.916   0.575 -0.3769  0.3983 -0.9688
 8425SOL    HW136908   1.181   2.873   0.658 -0.3752 -0.7884 -1.5797
 8425SOL    HW236909   1.091   2.970   0.613 -0.6565 -1.0560  0.5948
 8426SOL     OW36910   1.439   0.225   3.270  0.1654  0.0337 -0.3661
 8426SOL    HW136911   1.363   0.274   3.299 -0.5060 -0.6549 -0.9829
 8426SOL    HW236912   1.451   0.169   3.346  2.1641 -1.4236 -1.7536
 8427SOL     OW36913   3.604   1.486  16.747  0.2277  0.0665  0.1724
 8427SOL    HW136914   3.669   1.468  16.814  2.7769  1.0956 -2.0319
 8427SOL    HW236915   3.665   1.508  16.676 -0.9712 -1.3372 -1.3140
 8428SOL     OW36916   2.373   1.372   8.224 -0.4233  0.4221  0.1928
 8428SOL    HW136917   2.284   1.354   8.254 -0.4629  2.8293  1.4735
 8428SOL    HW236918   2.415   1.411   8.301  0.6053  0.5639 -0.4429
 8429SOL     OW36919   2.521   1.264   4.565 -0.4665  0.5096  0.3550
 8429SOL    HW136920   2.586   1.214   4.516 -3.3582 -2.5963 -0.3810
 8429SOL    HW236921   2.572   1.330   4.611 -1.7876  0.4392  1.9178
 8430SOL     OW36922   2.147   4.421  13.419  0.3933  0.0491  0.0956
 8430SOL    HW136923   2.145   4.430  13.514  1.1757 -0.4068  0.1475
 8430SOL    HW236924   2.134   4.328  13.400 -0.9012  0.6129 -1.7725
 8431SOL     OW36925   4.704   3.465   5.410  0.4796 -0.1778  0.0608
 8431SOL    HW136926   4.676   3.551   5.442  0.8228  0.9005 -2.5756
 8431SOL    HW236927   4.732   3.432   5.496 -0.3916  1.1877  0.8630
 8432SOL     OW36928   3.336   1.393  11.947 -1.0588  0.3113  0.0018
 8432SOL    HW136929   3.309   1.462  12.008 -1.2814 -0.2058  0.4848
 8432SOL    HW236930   3.431   1.399  11.939 -1.1432 -0.2450 -1.3626
 8433SOL     OW36931   4.022   0.397   4.101 -0.2352 -0.1930  0.0371
 8433SOL    HW136932   4.103   0.362   4.065  0.3097 -0.2844  1.3649
 8433SOL    HW236933   4.013   0.334   4.173  0.2869 -0.3183 -0.0091
 8434SOL     OW36934   2.913   0.607  16.292 -0.1878  0.0979 -0.2233
 8434SOL    HW136935   2.836   0.661  16.309  1.7543  2.3280  1.4577
 8434SOL    HW236936   2.972   0.654  16.351 -2.2776  3.3670 -0.7810
 8435SOL     OW36937   0.287   3.713   1.667 -0.1659 -0.1969  0.5777
 8435SOL    HW136938   0.250   3.671   1.590  2.3566 -2.4968  0.6006
 8435SOL    HW236939   0.257   3.659   1.740  2.5004 -1.2298  0.9256
 8436SOL     OW36940   0.010   2.622   1.702 -0.2417  0.2383  0.2349
 8436SOL    HW136941   4.732   2.527   1.695  0.5796  0.0556  1.0774
 8436SOL    HW236942   0.104   2.631   1.715 -0.2735  0.8095  0.0687
 8437SOL     OW36943   4.043   1.289  16.981  0.3292  0.3942  0.3052
 8437SOL    HW136944   4.123   1.342  16.978  0.0766  0.6511 -2.1323
 8437SOL    HW236945   4.081   1.205  17.006  2.0870  1.3242  0.7618
 8438SOL     OW36946   1.087   0.024   6.715  0.2659  0.1938  0.0284
 8438SOL    HW136947   1.008   4.709   6.698 -0.2457  1.7058 -2.1650
 8438SOL    HW236948   1.102   4.731   6.805  0.3088  3.2426  1.0043
 8439SOL     OW36949   3.810   0.527   9.003  0.1759 -0.7861 -0.3019
 8439SOL    HW136950   3.903   0.540   9.019 -0.0136  0.1341  0.0956
 8439SOL    HW236951   3.783   0.613   9.035  0.9461 -0.2879 -0.9917
 8440SOL     OW36952   1.749   0.654   2.658 -0.5182  0.2933 -0.0065
 8440SOL    HW136953   1.717   0.569   2.687  0.0364 -0.2800 -1.0696
 8440SOL    HW236954   1.675   0.704   2.693 -1.6480  0.0452 -2.0487
 8441SOL     OW36955   2.955   4.301   4.507 -0.2116  0.1800  0.2353
 8441SOL    HW136956   3.015   4.260   4.569 -0.9903  0.3275  1.0981
 8441SOL    HW236957   2.866   4.292   4.542  0.0877 -1.1729  0.6562
 8442SOL     OW36958   1.212   1.636  16.106  0.6902 -0.8641  0.0881
 8442SOL    HW136959   1.158   1.714  16.094 -1.7925 -2.3336  1.7690
 8442SOL    HW236960   1.211   1.603  16.017 -3.9202  0.9778 -0.4986
 8443SOL     OW36961   1.838   3.731   8.664 -0.4442  0.3163  1.0792
 8443SOL    HW136962   1.822   3.640   8.689 -0.6656 -0.2401 -1.1416
 8443SOL    HW236963   1.775   3.743   8.593 -0.2558  0.4098  0.9294
 8444SOL     OW36964   0.407   2.152   3.407  0.1651 -0.2045 -0.1476
 8444SOL    HW136965   0.468   2.198   3.348 -2.0100  2.4109 -0.3542
 8444SOL    HW236966   0.387   2.221   3.470  1.7186 -0.3718  0.5340
 8445SOL     OW36967   3.772   2.520   0.947 -0.5765 -1.2979 -0.2934
 8445SOL    HW136968   3.758   2.481   0.861  1.6789 -0.3453 -1.0974
 8445SOL    HW236969   3.732   2.459   1.009 -3.8947  1.8821  0.6924
 8446SOL     OW36970   2.335   4.198   6.952  0.0551  0.2733  0.7318
 8446SOL    HW136971   2.343   4.112   6.992 -3.8148  0.4288  1.8611
 8446SOL    HW236972   2.272   4.239   7.012  1.0289 -1.5822  2.9884
 8447SOL     OW36973   2.848   2.490   5.220 -0.4581  0.2988 -0.1193
 8447SOL    HW136974   2.895   2.525   5.296 -1.2710  0.8327  0.1355
 8447SOL    HW236975   2.905   2.510   5.145 -2.2126  1.6532 -1.0861
 8448SOL     OW36976   2.587   1.927   3.618 -0.5594 -0.0364 -0.3372
 8448SOL    HW136977   2.504   1.894   3.584 -0.0704 -1.2255 -0.3720
 8448SOL    HW236978   2.618   1.992   3.554 -1.2020  1.0440  0.4649
 8449SOL     OW36979   3.151   2.117   3.709 -0.1444 -0.0435 -0.1419
 8449SOL    HW136980   3.209   2.095   3.636  0.4389 -0.6409  0.5043
 8449SOL    HW236981   3.105   2.034   3.724 -0.7137  0.5838  1.6378
 8450SOL     OW36982   0.835   2.318  13.339  0.2892  0.1397 -0.0791
 8450SOL    HW136983   0.777   2.356  13.273  0.7127 -0.2113 -0.6467
 8450SOL    HW236984   0.793   2.233  13.346 -1.2790  1.0880  2.0911
 8451SOL     OW36985   2.551   0.491  13.466  0.1372  0.3610  0.0676
 8451SOL    HW136986   2.618   0.428  13.439 -0.3294 -0.5758  1.0644
 8451SOL    HW236987   2.498   0.495  13.386 -0.4946  0.9084  0.5199
 8452SOL     OW36988   0.515   2.181   6.876 -0.3604  0.3969  0.2903
 8452SOL    HW136989   0.434   2.154   6.833 -0.3177  2.3160 -1.0399
 8452SOL    HW236990   0.506   2.276   6.869 -0.1019  0.3130 -1.3372
 8453SOL     OW36991   3.762   3.378  13.072  0.3996  0.2444 -0.1046
 8453SOL    HW136992   3.749   3.432  12.995 -1.1550 -0.4790 -0.3430
 8453SOL    HW236993   3.856   3.360  13.082  0.5246  2.7768  3.6677
 8454SOL     OW36994   1.926   4.069   4.071 -0.0145 -0.5311  0.0424
 8454SOL    HW136995   1.908   3.984   4.030  1.0875 -0.7791  0.0897
 8454SOL    HW236996   1.841   4.107   4.096 -0.1824 -0.8095 -0.1129
 8455SOL     OW36997   4.231   4.257  16.958 -0.0533 -0.6848  0.7267
 8455SOL    HW136998   4.242   4.352  16.965 -0.4695 -0.5425 -0.5639
 8455SOL    HW236999   4.272   4.235  17.042  0.2769 -1.3518  0.3892
 8456SOL     OW37000   0.331   1.521   8.224 -0.3189  0.1116 -0.3625
 8456SOL    HW137001   0.268   1.583   8.187 -0.3917  0.2554  0.0078
 8456SOL    HW237002   0.395   1.518   8.152  0.8263  1.3670  0.5987
 8457SOL     OW37003   3.221   2.041  13.245 -0.2755 -0.6428  0.4289
 8457SOL    HW137004   3.135   2.028  13.206 -0.9046 -1.0294  1.9389
 8457SOL    HW237005   3.210   2.117  13.302  0.5587  1.0566 -1.6814
 8458SOL     OW37006   4.223   0.244   2.018 -0.3167  0.0556  0.3612
 8458SOL    HW137007   4.229   0.190   1.939 -2.3203 -1.3738  1.1978
 8458SOL    HW237008   4.289   0.208   2.077 -0.3679  0.6266  0.7688
 8459SOL     OW37009   0.487   3.967  14.625  0.4459  0.7314  0.1246
 8459SOL    HW137010   0.449   3.961  14.712  1.5477 -1.1905  0.4894
 8459SOL    HW237011   0.521   3.878  14.611  0.1940  0.5931  0.4045
 8460SOL     OW37012   1.778   0.103  10.176  0.1814 -0.2804 -0.1977
 8460SOL    HW137013   1.703   0.077  10.123  0.1691 -0.6316 -0.0056
 8460SOL    HW237014   1.772   0.047  10.253  0.1228 -0.8382 -0.6114
 8461SOL     OW37015   2.183   3.113   3.415  0.1349  0.1407 -0.3781
 8461SOL    HW137016   2.245   3.185   3.403  0.0110 -0.0662 -2.1694
 8461SOL    HW237017   2.179   3.071   3.330 -0.3976  0.5206 -0.5401
 8462SOL     OW37018   1.652   2.121   4.963  0.0899 -0.3700  0.2354
 8462SOL    HW137019   1.735   2.148   5.004  0.3620 -0.0279 -0.5521
 8462SOL    HW237020   1.633   2.031   4.991 -0.7270 -0.9745 -2.2702
 8463SOL     OW37021   2.398   0.415  12.153 -0.1931  0.1627 -0.0910
 8463SOL    HW137022   2.409   0.360  12.075  0.1748 -0.7350  0.5964
 8463SOL    HW237023   2.335   0.365  12.205  1.1562  0.1384  1.5299
 8464SOL     OW37024   1.315   0.800   2.852  0.4162  0.6593 -0.6314
 8464SOL    HW137025   1.247   0.760   2.799 -0.3763  0.3812  0.5990
 8464SOL    HW237026   1.325   0.873   2.792  0.1082 -0.9975 -2.6929
 8465SOL     OW37027   2.571   3.369   5.803 -0.3674  0.9010 -0.1609
 8465SOL    HW137028   2.591   3.318   5.882 -2.1221 -0.3302 -0.5111
 8465SOL    HW237029   2.502   3.423   5.840 -0.7309  1.2222 -1.3119
 8466SOL     OW37030   3.663   0.949   5.533  0.3256  0.3316  1.2998
 8466SOL    HW137031   3.571   0.932   5.557 -0.1781  0.3090 -0.6394
 8466SOL    HW237032   3.707   0.871   5.567  1.0901  0.2907  0.2073
 8467SOL     OW37033   2.345   3.295   9.810  0.6853 -0.2479 -0.3646
 8467SOL    HW137034   2.427   3.341   9.792  0.5882  0.0809  0.0337
 8467SOL    HW237035   2.279   3.362   9.791  3.7450  2.4398 -1.4648
 8468SOL     OW37036   2.566   1.911   3.051  0.6035 -0.2137 -0.0388
 8468SOL    HW137037   2.521   1.835   3.013  2.1411 -1.0698 -0.1216
 8468SOL    HW237038   2.591   1.876   3.136 -0.9107 -0.3063  0.3798
 8469SOL     OW37039   3.432   4.113   8.357  0.2685 -0.4359  0.1064
 8469SOL    HW137040   3.448   4.078   8.270 -0.0595 -0.6349  0.1243
 8469SOL    HW237041   3.381   4.191   8.335  0.2989 -0.3304  0.4086
 8470SOL     OW37042   1.514   0.931   4.650  0.0001 -0.1268  0.3846
 8470SOL    HW137043   1.450   0.886   4.704 -1.6739  1.5218 -0.2473
 8470SOL    HW237044   1.490   1.019   4.678 -1.6183 -0.5447  0.2616
 8471SOL     OW37045   3.120   4.186   1.536  0.0322 -0.0741  0.0755
 8471SOL    HW137046   3.184   4.256   1.551 -1.1442  0.2097  3.8394
 8471SOL    HW237047   3.103   4.145   1.621  0.0446 -2.1090 -0.9177
 8472SOL     OW37048   1.343   0.026   2.766 -0.0245 -0.8062 -0.5639
 8472SOL    HW137049   1.292   0.106   2.755 -0.8388 -1.2955 -0.2603
 8472SOL    HW237050   1.366   0.038   2.858 -1.4471  0.2260 -0.3424
 8473SOL     OW37051   1.644   1.901   5.319  0.0509 -0.8228  0.1496
 8473SOL    HW137052   1.631   1.922   5.412  1.9185  0.2494  0.1746
 8473SOL    HW237053   1.725   1.851   5.328 -0.6000 -2.2133 -1.7048
 8474SOL     OW37054   2.606   4.328   5.345  0.4613  0.5512 -0.4207
 8474SOL    HW137055   2.570   4.275   5.275  1.5187 -0.0480 -0.5040
 8474SOL    HW237056   2.519   4.360   5.371 -0.0007 -0.8442 -0.2858
 8475SOL     OW37057   4.362   4.287   1.898  0.3900 -0.0134  0.3945
 8475SOL    HW137058   4.283   4.276   1.845  0.5940 -1.8494  0.4682
 8475SOL    HW237059   4.425   4.241   1.842  0.8829  0.5550  0.4887
 8476SOL     OW37060   0.873   3.970   4.160 -0.0315 -0.4954  0.0736
 8476SOL    HW137061   0.841   3.944   4.074 -0.4175 -0.2519  0.1436
 8476SOL    HW237062   0.956   3.925   4.173  0.6962  0.9934  0.6571
 8477SOL     OW37063   4.735   0.072   6.404  0.8458  0.4624 -0.0918
 8477SOL    HW137064   4.716   0.108   6.491  1.5693 -1.2807  0.8041
 8477SOL    HW237065   0.085   0.112   6.393  1.7436 -1.1991  0.7867
 8478SOL     OW37066   2.806   1.938  17.699  0.1113 -0.8009 -0.3893
 8478SOL    HW137067   2.828   1.998   0.027  0.6145 -3.0698  1.3688
 8478SOL    HW237068   2.839   1.998  17.632 -0.3979 -1.3102 -1.0977
 8479SOL     OW37069   4.099   0.383   5.305  0.5515 -0.2176  0.2443
 8479SOL    HW137070   4.163   0.364   5.236 -0.1825 -0.5267 -0.3438
 8479SOL    HW237071   4.021   0.354   5.258  1.0251  2.1498 -2.0200
 8480SOL     OW37072   1.372   1.526  14.703  0.3596 -0.2381 -0.1178
 8480SOL    HW137073   1.366   1.595  14.637 -1.4299 -0.8985 -0.6461
 8480SOL    HW237074   1.284   1.491  14.687  0.8915 -0.6545 -2.0433
 8481SOL     OW37075   0.419   1.923   6.621 -0.1279  0.0953  0.4719
 8481SOL    HW137076   0.452   1.861   6.686 -0.3679 -1.5044 -0.9340
 8481SOL    HW237077   0.488   1.929   6.555 -1.4681  1.2395 -0.8210
 8482SOL     OW37078   0.764   3.425   8.906 -0.4626 -0.3085  0.0840
 8482SOL    HW137079   0.835   3.446   8.846 -2.1746  0.2658 -1.7258
 8482SOL    HW237080   0.768   3.497   8.969  0.5833 -1.9213  1.8720
 8483SOL     OW37081   3.567   3.090   8.794  0.6272 -0.3536  0.8747
 8483SOL    HW137082   3.568   3.184   8.772  1.9035 -0.0647  2.1631
 8483SOL    HW237083   3.650   3.059   8.759  0.2594 -0.7149  0.3336
 8484SOL     OW37084   3.061   4.418   2.988  0.2177 -0.3270  0.1343
 8484SOL    HW137085   3.071   4.378   2.901  1.3697  0.2319  0.0045
 8484SOL    HW237086   3.104   4.348   3.038 -1.8060 -1.9227 -0.3783
 8485SOL     OW37087   3.085   3.667  17.344  0.7364 -0.5807  0.2594
 8485SOL    HW137088   3.084   3.575  17.369  2.7440 -0.1064  2.0286
 8485SOL    HW237089   3.004   3.676  17.293  0.5365  0.2666  0.7276
 8486SOL     OW37090   0.239   4.280   3.157 -0.2940  0.2611 -0.2590
 8486SOL    HW137091   0.272   4.281   3.067  1.7981  0.9562  0.5267
 8486SOL    HW237092   0.145   4.301   3.154  0.0988  2.0700  0.7117
 8487SOL     OW37093   0.381   3.661  11.698 -0.3260 -0.3358 -0.2442
 8487SOL    HW137094   0.453   3.712  11.661  1.7393 -2.4442  0.8654
 8487SOL    HW237095   0.422   3.577  11.714 -1.8457 -0.8320  1.0502
 8488SOL     OW37096   3.176   3.685   6.366  0.5007  0.4144 -0.2766
 8488SOL    HW137097   3.088   3.715   6.389  1.0631  0.6149  1.5728
 8488SOL    HW237098   3.219   3.701   6.450 -0.2668  1.6962 -0.1295
 8489SOL     OW37099   3.596   4.313  14.815 -0.7268 -0.2115 -0.5911
 8489SOL    HW137100   3.590   4.372  14.740  1.7110  1.5514  0.5995
 8489SOL    HW237101   3.680   4.335  14.856 -0.8819 -2.3029  0.8900
 8490SOL     OW37102   2.251   2.416   6.706 -0.4906  0.5666  0.3406
 8490SOL    HW137103   2.290   2.428   6.793  1.5583  2.3821 -0.8252
 8490SOL    HW237104   2.170   2.370   6.730  0.8179 -0.9713  1.8414
 8491SOL     OW37105   2.102   0.360  10.291  0.3019  0.5840 -0.2499
 8491SOL    HW137106   2.099   0.298  10.364  0.7809  2.4246  1.3214
 8491SOL    HW237107   2.072   0.444  10.326 -0.9650 -1.1301  2.6955
 8492SOL     OW37108   0.656   0.126   5.343  0.0949 -0.0127 -0.0208
 8492SOL    HW137109   0.661   0.220   5.326  0.7005  0.1655  1.0845
 8492SOL    HW237110   0.562   0.110   5.342  0.0895  0.0825 -0.7359
 8493SOL     OW37111   3.676   1.504   8.161 -0.4194  0.2718  0.1823
 8493SOL    HW137112   3.714   1.552   8.087 -3.1100  0.7288 -0.8714
 8493SOL    HW237113   3.607   1.462   8.110  0.0269  0.9896 -1.0247
 8494SOL     OW37114   4.437   3.045   6.017  0.0848  0.4568 -0.1340
 8494SOL    HW137115   4.520   3.026   6.061  0.2007 -2.8495 -1.7184
 8494SOL    HW237116   4.454   3.139   6.010 -0.2095  0.5494  0.4535
 8495SOL     OW37117   0.734   2.243  11.972  0.0905 -0.2728  0.4095
 8495SOL    HW137118   0.819   2.273  11.939  1.1611 -1.5388  2.0615
 8495SOL    HW237119   0.678   2.244  11.894  1.2688  0.3557 -0.4295
 8496SOL     OW37120   1.298   2.651   5.320  0.0285 -0.5019  0.4079
 8496SOL    HW137121   1.331   2.638   5.232  0.7344  0.0519  0.5990
 8496SOL    HW237122   1.261   2.564   5.337  1.0201 -1.2281 -1.1882
 8497SOL     OW37123   0.295   1.160   2.090 -0.8624  0.3694 -0.3007
 8497SOL    HW137124   0.332   1.073   2.104 -2.1050 -0.1662 -0.3335
 8497SOL    HW237125   0.359   1.196   2.029 -1.5466  2.3212  0.0983
 8498SOL     OW37126   3.174   1.924  11.828  0.0195 -0.0098  0.1750
 8498SOL    HW137127   3.211   1.836  11.839  1.6358  0.6069 -0.2907
 8498SOL    HW237128   3.229   1.952  11.755 -0.6081  0.4348 -0.1319
 8499SOL     OW37129   0.456   0.577   2.788  0.1530  0.8283 -0.3054
 8499SOL    HW137130   0.487   0.545   2.873 -0.6646  0.3888 -0.1698
 8499SOL    HW237131   0.534   0.628   2.765  0.6767 -0.1491 -0.6981
 8500SOL     OW37132   3.027   1.728  16.016  0.2622 -0.1825 -0.0714
 8500SOL    HW137133   3.113   1.756  15.986  1.2282 -2.0132  0.9642
 8500SOL    HW237134   3.042   1.714  16.109  0.2487 -1.8135 -0.3188
 8501SOL     OW37135   2.960   2.963   7.823  0.6575  0.3784 -0.3438
 8501SOL    HW137136   2.877   2.927   7.793  1.1526  0.3330 -1.6398
 8501SOL    HW237137   2.993   2.896   7.883 -0.1621 -1.0531 -1.4853
 8502SOL     OW37138   2.487   0.950  14.642 -0.5243 -0.1685 -0.0490
 8502SOL    HW137139   2.567   0.927  14.689 -1.0547  0.8423  1.3472
 8502SOL    HW237140   2.450   0.862  14.632  0.8973 -0.5293 -2.0697
 8503SOL     OW37141   3.296   0.079   9.245 -0.1484 -0.5254 -0.8417
 8503SOL    HW137142   3.365   0.031   9.290  0.7957  1.5505 -0.0924
 8503SOL    HW237143   3.340   0.163   9.229  1.6257 -1.9022 -3.1597
 8504SOL     OW37144   1.931   1.551   5.642 -0.0211 -0.0296  0.3048
 8504SOL    HW137145   1.866   1.544   5.572 -0.7591  1.1453  0.8754
 8504SOL    HW237146   1.886   1.566   5.725 -1.1779 -1.5967 -0.0428
 8505SOL     OW37147   4.515   4.004  14.651 -0.1444 -0.1123 -0.2986
 8505SOL    HW137148   4.607   3.978  14.655 -0.0579  0.0671 -1.0914
 8505SOL    HW237149   4.473   3.921  14.670 -0.0176 -0.2273 -0.5267
 8506SOL     OW37150   3.962   4.465   1.624 -0.2825 -0.4287  0.0372
 8506SOL    HW137151   3.954   4.536   1.560  1.6820  0.3600  0.6683
 8506SOL    HW237152   3.869   4.446   1.641 -0.4181 -0.1840 -0.4210
 8507SOL     OW37153   0.221   3.676   6.674  0.9441 -0.3426 -0.1300
 8507SOL    HW137154   0.126   3.672   6.663  0.7557 -0.1800  1.4710
 8507SOL    HW237155   0.261   3.665   6.587  0.5189  0.9464 -0.4850
 8508SOL     OW37156   4.499   1.211   2.161 -0.0944 -0.1041 -0.2445
 8508SOL    HW137157   4.486   1.147   2.091 -1.5356  0.5396 -0.5535
 8508SOL    HW237158   4.441   1.176   2.228 -0.1564 -0.5428 -0.5311
 8509SOL     OW37159   3.092   2.722   8.523  0.1086  0.2872  0.1762
 8509SOL    HW137160   3.177   2.723   8.567  0.4058 -3.4779 -0.3171
 8509SOL    HW237161   3.046   2.790   8.573 -1.4226  0.3737 -1.3402
 8510SOL     OW37162   2.763   1.060   5.225  0.0805 -0.1215 -0.6875
 8510SOL    HW137163   2.780   0.983   5.172  3.3591  0.5091 -0.5971
 8510SOL    HW237164   2.674   1.083   5.201 -1.2363 -2.0817  2.2917
 8511SOL     OW37165   3.561   0.806   7.160 -0.4301  0.3335 -0.1014
 8511SOL    HW137166   3.560   0.766   7.247 -1.1309 -1.4006 -0.9079
 8511SOL    HW237167   3.585   0.897   7.178 -0.9512  0.1681  1.4967
 8512SOL     OW37168   1.936   0.149  13.497  0.3630  0.2073 -0.2749
 8512SOL    HW137169   1.930   0.141  13.592 -3.0157 -4.6124 -0.8754
 8512SOL    HW237170   1.846   0.147  13.465 -0.0485 -0.1150  0.9208
 8513SOL     OW37171   3.623   4.713   4.665  0.3274 -0.1148  0.1511
 8513SOL    HW137172   3.575   4.630   4.665  1.2825 -0.6681  3.4587
 8513SOL    HW237173   3.647   4.709   4.572 -1.8220  1.1060 -0.4486
 8514SOL     OW37174   3.191   1.470  13.350 -0.3748  0.4957 -0.5298
 8514SOL    HW137175   3.261   1.427  13.399 -1.7427 -1.0013  0.1180
 8514SOL    HW237176   3.236   1.498  13.271  0.5989  0.1250 -0.1088
 8515SOL     OW37177   3.015   1.866   6.812 -0.2605  0.2589  0.1878
 8515SOL    HW137178   3.097   1.885   6.767  0.4763  0.0353  1.4221
 8515SOL    HW237179   2.959   1.910   6.748  1.5225  1.6309 -0.4102
 8516SOL     OW37180   4.233   0.269   3.991  0.4369  0.0107 -0.1632
 8516SOL    HW137181   4.232   0.219   3.910 -3.5693 -1.0741  0.5455
 8516SOL    HW237182   4.326   0.292   3.993  0.8416 -1.7279  0.4812
 8517SOL     OW37183   4.381   1.455  11.043 -0.7682 -0.2735  0.0051
 8517SOL    HW137184   4.426   1.374  11.019  0.5193  0.8983 -1.5296
 8517SOL    HW237185   4.424   1.523  10.992  0.3954 -0.7617  0.3192
 8518SOL     OW37186   1.637   3.419   2.393 -0.2047 -0.4320  0.0619
 8518SOL    HW137187   1.648   3.338   2.442  0.4754  0.5697  1.5609
 8518SOL    HW237188   1.556   3.407   2.344 -0.5783  2.6794 -0.0848
 8519SOL     OW37189   0.837   2.908  12.425 -0.6384 -0.0538  0.2581
 8519SOL    HW137190   0.748   2.934  12.445 -1.2009 -0.3941 -1.7821
 8519SOL    HW237191   0.818   2.857  12.346 -2.1407  0.1396  0.4997
 8520SOL     OW37192   2.777   2.420  11.544  0.1288  0.3540  0.6084
 8520SOL    HW137193   2.787   2.513  11.528  1.2104  0.3109  1.0465
 8520SOL    HW237194   2.739   2.390  11.461  2.0418  1.5598 -0.6905
 8521SOL     OW37195   2.921   3.503   3.157  0.3389  0.1348  0.2387
 8521SOL    HW137196   2.908   3.420   3.203 -1.8036  0.2317 -0.1565
 8521SOL    HW237197   2.937   3.487   3.065  2.1930 -1.1733  0.7941
 8522SOL     OW37198   0.245   2.795  10.328 -0.1776 -0.2301  0.4976
 8522SOL    HW137199   0.186   2.802  10.253  0.1208 -1.7610  0.1301
 8522SOL    HW237200   0.210   2.870  10.377 -1.9146 -0.2949 -0.6310
 8523SOL     OW37201   3.277   4.115   1.977  0.3088 -0.4213 -0.0954
 8523SOL    HW137202   3.294   4.113   1.883  0.9339  2.1330 -0.0321
 8523SOL    HW237203   3.234   4.201   1.977 -0.4359 -0.8010  1.1635
 8524SOL     OW37204   1.210   0.359   5.293  0.3463 -0.0361  0.7784
 8524SOL    HW137205   1.217   0.293   5.362 -1.9749 -0.7557  0.3317
 8524SOL    HW237206   1.271   0.423   5.331  0.8850 -1.2416  1.9649
 8525SOL     OW37207   3.607   3.689  13.449 -0.1551  0.3429  0.0211
 8525SOL    HW137208   3.625   3.609  13.399 -0.0075 -0.0102  0.6486
 8525SOL    HW237209   3.692   3.687  13.493  0.2111 -2.1849 -0.7548
 8526SOL     OW37210   1.234   3.054  16.240  0.3053 -0.5714 -0.1549
 8526SOL    HW137211   1.179   3.125  16.206  0.3188 -1.5844 -2.3322
 8526SOL    HW237212   1.231   2.997  16.163  2.2124  0.6304 -1.1338
 8527SOL     OW37213   2.742   1.360   6.810 -0.4216  0.3827 -0.2864
 8527SOL    HW137214   2.687   1.317   6.744  0.5671  1.3963 -1.7961
 8527SOL    HW237215   2.752   1.449   6.775 -0.3297  0.1644 -0.8188
 8528SOL     OW37216   0.424   3.215  13.174 -0.2651 -0.6105  0.1110
 8528SOL    HW137217   0.444   3.132  13.130 -0.4657 -0.4632 -0.2534
 8528SOL    HW237218   0.506   3.235  13.219  0.1458 -0.6582 -0.6198
 8529SOL     OW37219   1.525   0.581  16.429 -0.0157  0.3643  0.0341
 8529SOL    HW137220   1.497   0.540  16.347  1.5841 -1.7406  0.5688
 8529SOL    HW237221   1.601   0.625  16.389  1.5708 -1.9058  0.5997
 8530SOL     OW37222   3.667   3.344  17.536 -0.7743  0.1962  0.5700
 8530SOL    HW137223   3.653   3.256  17.499  1.3362  0.2984 -0.4503
 8530SOL    HW237224   3.598   3.362  17.600 -0.8822 -0.0274  0.5190
 8531SOL     OW37225   3.671   3.754  16.804 -0.0914 -0.3316  0.3181
 8531SOL    HW137226   3.745   3.729  16.748 -0.1686  0.8345 -0.3085
 8531SOL    HW237227   3.595   3.746  16.746  1.7848 -1.2463 -2.0255
 8532SOL     OW37228   0.811   2.373   5.207  0.0157  0.0150  0.4430
 8532SOL    HW137229   0.737   2.420   5.246 -0.9349  0.2951 -1.7095
 8532SOL    HW237230   0.866   2.449   5.188  3.8419 -2.3470  2.0309
 8533SOL     OW37231   1.552   2.787  10.462  0.2177 -0.0665  0.6417
 8533SOL    HW137232   1.464   2.818  10.482 -0.0871  0.4118 -1.4259
 8533SOL    HW237233   1.569   2.711  10.518 -1.0681  0.4618  1.7670
 8534SOL     OW37234   3.344   2.531   2.000  0.4204 -0.0006  0.0582
 8534SOL    HW137235   3.371   2.599   2.060  0.1673 -0.3336  0.5519
 8534SOL    HW237236   3.270   2.578   1.961  1.5017 -0.0223 -2.0145
 8535SOL     OW37237   1.069   0.824  10.486  0.2472  0.4531 -0.2222
 8535SOL    HW137238   1.122   0.858  10.414  0.0819 -1.7828 -1.4202
 8535SOL    HW237239   1.119   0.746  10.510 -1.5675 -0.9850 -1.0667
 8536SOL     OW37240   3.626   0.894   4.989 -0.1762 -0.4724  0.4203
 8536SOL    HW137241   3.655   0.860   4.904  0.6077  1.8019 -0.2281
 8536SOL    HW237242   3.682   0.971   4.986 -0.2559 -0.4062  0.6193
 8537SOL     OW37243   1.855   0.480   7.408  0.0709  0.1650  0.0028
 8537SOL    HW137244   1.896   0.398   7.435  1.1343  0.3190 -1.1392
 8537SOL    HW237245   1.907   0.547   7.452 -0.8615  0.5996  0.4590
 8538SOL     OW37246   1.715   0.780  12.954  0.3113  0.6815  0.5971
 8538SOL    HW137247   1.647   0.831  12.911  1.0495  1.3973  0.2723
 8538SOL    HW237248   1.789   0.841  12.950 -0.0369  1.1628  1.5447
 8539SOL     OW37249   0.675   3.709   5.556 -0.0086  0.1690 -0.1530
 8539SOL    HW137250   0.693   3.777   5.621 -0.9889  0.8988 -0.6559
 8539SOL    HW237251   0.740   3.715   5.486  0.2262 -0.2548  0.0244
 8540SOL     OW37252   4.081   2.859   3.947 -0.1046  0.7714 -0.0011
 8540SOL    HW137253   4.043   2.947   3.941 -2.4337 -0.3018 -0.8656
 8540SOL    HW237254   4.071   2.829   3.856 -2.0890 -2.4740  1.3156
 8541SOL     OW37255   3.707   2.041   9.619  0.2503  0.2410 -0.2383
 8541SOL    HW137256   3.779   1.994   9.660 -0.6482 -0.5662  0.4179
 8541SOL    HW237257   3.754   2.096   9.556 -1.5875 -0.9478 -2.6824
 8542SOL     OW37258   3.492   3.221   6.930  0.5160  0.2637 -0.0740
 8542SOL    HW137259   3.462   3.277   6.859 -1.0244 -0.0143  0.3600
 8542SOL    HW237260   3.478   3.272   7.010  0.6541 -0.1358  0.2064
 8543SOL     OW37261   2.012   4.111   2.623 -0.0350  0.4411 -0.2374
 8543SOL    HW137262   2.098   4.151   2.633 -1.2571  3.0443  0.0152
 8543SOL    HW237263   1.988   4.140   2.712 -0.2770 -0.3176 -0.0551
 8544SOL     OW37264   0.350   1.381  15.761  0.4991  0.1472 -0.2154
 8544SOL    HW137265   0.313   1.440  15.695  0.3778  0.5341  0.1980
 8544SOL    HW237266   0.370   1.436  15.837  1.8405 -0.6206  0.0028
 8545SOL     OW37267   3.389   1.958   1.385  0.1616 -0.5135 -0.3180
 8545SOL    HW137268   3.391   1.887   1.449  0.8199 -0.7520 -0.6046
 8545SOL    HW237269   3.295   1.953   1.368  0.4431  0.5332 -2.1907
 8546SOL     OW37270   3.326   0.546   9.001 -0.2786 -0.2859  0.5430
 8546SOL    HW137271   3.347   0.630   8.960  0.3290  0.6183  2.7024
 8546SOL    HW237272   3.231   0.549   9.000 -0.2382  0.8101  0.0667
 8547SOL     OW37273   2.478   1.358   6.571  0.7792  0.1643  0.1621
 8547SOL    HW137274   2.408   1.360   6.506 -1.8514 -0.8702  2.9677
 8547SOL    HW237275   2.448   1.427   6.629 -0.5315  1.0635 -1.5618
 8548SOL     OW37276   4.088   4.082  14.824 -0.1625 -0.5761  0.5585
 8548SOL    HW137277   4.173   4.115  14.855  0.3029 -2.2232  1.0013
 8548SOL    HW237278   4.077   4.002  14.875 -0.7011  0.0830  1.4882
 8549SOL     OW37279   3.684   0.683   3.519  0.1155 -0.0060  0.4814
 8549SOL    HW137280   3.663   0.763   3.567  2.0113  0.7030  0.1194
 8549SOL    HW237281   3.779   0.681   3.530  0.4584  2.5673 -2.1704
 8550SOL     OW37282   4.704   1.939  15.078 -0.2111 -0.2116 -0.2181
 8550SOL    HW137283   4.689   2.025  15.117 -2.2720 -1.0059  0.7596
 8550SOL    HW237284   4.614   1.904  15.081  0.2037 -1.0994  2.0609
 8551SOL     OW37285   3.041   1.132   2.890  0.1909 -0.3824  0.2897
 8551SOL    HW137286   2.963   1.168   2.934  0.2451  0.6955 -0.5038
 8551SOL    HW237287   3.111   1.167   2.945 -0.5790  0.7455  0.5684
 8552SOL     OW37288   0.621   3.121   3.184  0.0132 -0.2903  0.5087
 8552SOL    HW137289   0.624   3.138   3.279 -1.4845 -1.5418  0.7754
 8552SOL    HW237290   0.699   3.160   3.146 -1.1570  0.8817 -0.7240
 8553SOL     OW37291   2.255   2.427  15.909 -0.4345 -0.1772 -0.0798
 8553SOL    HW137292   2.256   2.504  15.851 -0.1113  0.2418  0.4744
 8553SOL    HW237293   2.166   2.408  15.937 -0.0977 -0.4766  0.8036
 8554SOL     OW37294   1.421   0.040   7.347 -0.5266 -0.0484 -0.0625
 8554SOL    HW137295   1.398   0.008   7.434  0.1695 -0.0916  0.1006
 8554SOL    HW237296   1.443   4.695   7.301  0.1095 -0.1785  0.4829
 8555SOL     OW37297   2.822   0.319   6.070 -0.3363  0.3731 -0.1956
 8555SOL    HW137298   2.854   0.247   6.016 -0.1034  0.1389  0.2499
 8555SOL    HW237299   2.751   0.349   6.013  0.4345  1.5093 -0.5680
 8556SOL     OW37300   2.637   2.730   6.296 -0.2715 -0.4117  0.1881
 8556SOL    HW137301   2.592   2.804   6.336  2.5508  1.7555 -0.6497
 8556SOL    HW237302   2.630   2.763   6.207 -0.0439  2.8145  1.3701
 8557SOL     OW37303   3.015   1.150   5.819  0.2346 -0.7501 -0.3068
 8557SOL    HW137304   3.088   1.210   5.833 -0.4326  0.2885 -1.1918
 8557SOL    HW237305   2.962   1.204   5.760  0.3195  0.6314  0.8687
 8558SOL     OW37306   1.391   0.982   4.281  0.0760  0.0993  0.6521
 8558SOL    HW137307   1.464   0.925   4.256 -1.1804  0.0409 -2.9173
 8558SOL    HW237308   1.414   1.061   4.231 -2.0868 -1.0599 -2.1929
 8559SOL     OW37309   1.877   2.443   5.417  0.2661 -0.5631  0.5472
 8559SOL    HW137310   1.948   2.387   5.385  2.9992  2.6431  0.8899
 8559SOL    HW237311   1.927   2.515   5.456  2.5289 -0.6631 -2.1157
 8560SOL     OW37312   3.144   0.974   9.841  0.3013 -0.0204 -0.6249
 8560SOL    HW137313   3.233   0.984   9.877 -0.3219 -1.2468  1.2261
 8560SOL    HW237314   3.155   1.008   9.752  0.3194  0.7233 -0.3409
 8561SOL     OW37315   2.112   2.596   5.638  0.4395 -0.2570  0.3386
 8561SOL    HW137316   2.143   2.541   5.711  1.3232 -0.4003 -0.1469
 8561SOL    HW237317   2.026   2.611   5.676  0.6611 -2.2493  1.6436
 8562SOL     OW37318   4.306   1.362  11.739 -0.6540 -0.2303  0.6721
 8562SOL    HW137319   4.325   1.427  11.807  1.2795  0.1481 -0.2333
 8562SOL    HW237320   4.223   1.404  11.714  0.8794  0.7336 -2.8470
 8563SOL     OW37321   2.536   2.566   7.255  0.4853  0.0093  0.3686
 8563SOL    HW137322   2.627   2.594   7.249  0.5799 -0.2120  0.7650
 8563SOL    HW237323   2.557   2.473   7.254  0.6312  0.0219  1.5348
 8564SOL     OW37324   0.722   3.353  12.157 -0.3593  0.0723  0.3010
 8564SOL    HW137325   0.813   3.368  12.133  0.3819 -1.9443  1.8680
 8564SOL    HW237326   0.721   3.403  12.239 -1.6744 -0.5516  0.6673
 8565SOL     OW37327   0.730   3.690  10.478 -0.1313 -0.3026  0.1106
 8565SOL    HW137328   0.711   3.773  10.522  0.1169  0.6465 -1.5344
 8565SOL    HW237329   0.724   3.728  10.390  1.8090  0.7097  0.4093
 8566SOL     OW37330   1.682   1.586   4.405  0.6209  0.7247  0.5809
 8566SOL    HW137331   1.727   1.525   4.463 -0.2549  0.0681  0.5721
 8566SOL    HW237332   1.756   1.627   4.358 -1.2783  1.8240 -1.4696
 8567SOL     OW37333   2.862   1.276  12.758  0.0781  0.5389 -0.5634
 8567SOL    HW137334   2.933   1.283  12.695  0.8962  1.0289  0.4020
 8567SOL    HW237335   2.784   1.252  12.709 -0.0393 -2.4785  1.0716
 8568SOL     OW37336   4.167   3.898   4.822  0.0905  0.1847  0.6830
 8568SOL    HW137337   4.249   3.912   4.870  0.2526  1.7105 -0.0554
 8568SOL    HW237338   4.114   3.968   4.859  1.6063  1.9398 -0.4771
 8569SOL     OW37339   2.963   2.668  13.254  0.0240  0.0471  0.5058
 8569SOL    HW137340   2.992   2.581  13.281 -1.1910  0.3301  2.7306
 8569SOL    HW237341   2.987   2.675  13.162  3.0636  0.6993  1.3487
 8570SOL     OW37342   1.529   3.115   2.782 -0.1449  0.5508  0.3855
 8570SOL    HW137343   1.484   3.199   2.771 -0.2063  0.4259 -0.3365
 8570SOL    HW237344   1.600   3.145   2.839 -0.5099  1.7741  0.1987
 8571SOL     OW37345   2.514   3.058   2.955 -0.2052 -0.1892 -0.7394
 8571SOL    HW137346   2.530   2.968   2.926 -1.7719 -0.1578 -1.7084
 8571SOL    HW237347   2.541   3.111   2.879 -0.6678  1.1649  0.0389
 8572SOL     OW37348   1.065   2.732   5.548 -0.8222  0.6620 -0.1620
 8572SOL    HW137349   1.133   2.760   5.608 -0.3963 -1.2481  0.2537
 8572SOL    HW237350   1.115   2.680   5.484 -0.1430 -0.4730  1.2933
 8573SOL     OW37351   4.731   2.935   4.174 -0.5614 -0.4447 -0.0788
 8573SOL    HW137352   4.641   2.914   4.198 -0.1658 -0.7029  1.1647
 8573SOL    HW237353   0.025   2.880   4.101 -2.4899 -0.2008 -1.0528
 8574SOL     OW37354   1.218   1.603   2.059 -0.1881  0.1780 -0.2302
 8574SOL    HW137355   1.313   1.606   2.061 -0.2785  1.9512  2.2373
 8574SOL    HW237356   1.205   1.517   2.099  0.1614 -0.0633 -0.6318
 8575SOL     OW37357   0.789   1.945  15.183 -0.0611 -0.0306 -0.0871
 8575SOL    HW137358   0.848   1.895  15.240  1.3918  2.7071  0.8198
 8575SOL    HW237359   0.747   1.871  15.139 -1.5914 -0.1111  1.5004
 8576SOL     OW37360   4.465   2.229   5.315 -0.1804 -0.1999  0.2088
 8576SOL    HW137361   4.424   2.287   5.380  0.7806 -0.1832  0.8005
 8576SOL    HW237362   4.511   2.298   5.268 -0.0988  0.3350  1.0629
 8577SOL     OW37363   1.990   0.250  10.073 -0.0023  0.7083 -0.5942
 8577SOL    HW137364   1.925   0.201  10.124 -0.2881  0.7514 -0.9219
 8577SOL    HW237365   2.041   0.299  10.138  1.7308 -1.8720 -0.0340
 8578SOL     OW37366   0.191   3.229   0.149  0.2354  0.2611  0.0970
 8578SOL    HW137367   0.140   3.308   0.163  2.0162  1.4146  0.0698
 8578SOL    HW237368   0.280   3.251   0.178  0.8934  0.1146 -1.7899
 8579SOL     OW37369   2.851   2.674   2.469  0.1631 -0.0387 -0.2316
 8579SOL    HW137370   2.778   2.735   2.482  0.5707  0.7549 -1.5999
 8579SOL    HW237371   2.818   2.629   2.391 -1.9040 -0.0302  0.6396
 8580SOL     OW37372   2.603   2.585   9.662 -0.0451 -0.0754 -1.2156
 8580SOL    HW137373   2.645   2.642   9.597  1.7427  1.2228  1.0654
 8580SOL    HW237374   2.514   2.586   9.626  0.8513  0.2716 -3.4233
 8581SOL     OW37375   1.110   1.361   7.468 -0.2679 -0.1561 -0.1117
 8581SOL    HW137376   1.078   1.368   7.558 -1.3273  1.3402 -0.6138
 8581SOL    HW237377   1.170   1.288   7.483 -0.4694 -1.2587 -4.6845
 8582SOL     OW37378   3.806   1.355  12.689  0.4745 -0.1102  0.0210
 8582SOL    HW137379   3.882   1.299  12.672  1.4602  1.4052 -0.6114
 8582SOL    HW237380   3.758   1.316  12.762  5.2257 -3.4681  1.4303
 8583SOL     OW37381   1.028   2.761  15.338 -0.0809 -0.4438  0.2089
 8583SOL    HW137382   1.034   2.846  15.382 -3.5949 -0.5638  0.9753
 8583SOL    HW237383   0.935   2.763  15.316  0.3946  0.8379 -1.6257
 8584SOL     OW37384   3.005   1.770   3.076 -0.0621 -0.0211 -0.3802
 8584SOL    HW137385   3.065   1.697   3.083  0.1711  0.2203  0.1093
 8584SOL    HW237386   2.997   1.772   2.980 -1.0439  1.3935 -0.2740
 8585SOL     OW37387   0.962   2.287  15.065  0.2712  0.0571 -0.4587
 8585SOL    HW137388   0.870   2.302  15.087  0.3645 -0.7875  0.4884
 8585SOL    HW237389   0.964   2.303  14.970  0.6238 -0.0851 -0.4741
 8586SOL     OW37390   3.990   3.922  16.867 -0.1738  0.1631 -0.4798
 8586SOL    HW137391   3.922   3.919  16.799 -0.1956  0.6523 -0.4772
 8586SOL    HW237392   4.009   3.829  16.879 -0.0321  0.0535 -1.4967
 8587SOL     OW37393   1.299   2.410   9.388 -0.2534  0.1824 -0.1246
 8587SOL    HW137394   1.208   2.420   9.414  0.0777  1.9438  0.3331
 8587SOL    HW237395   1.347   2.489   9.414 -2.0659  0.4328  2.4211
 8588SOL     OW37396   2.138   3.037   6.868 -0.0579  0.0098 -0.1684
 8588SOL    HW137397   2.083   3.052   6.791 -1.1493 -0.3254  0.5363
 8588SOL    HW237398   2.183   3.120   6.881 -0.7056  0.7786 -3.0549
 8589SOL     OW37399   4.179   4.629   5.727  0.0879 -0.3043  0.1563
 8589SOL    HW137400   4.149   4.588   5.808 -1.1010  0.4283  0.0759
 8589SOL    HW237401   4.130   4.711   5.727  0.9031  0.2038 -1.5270
 8590SOL     OW37402   2.585   4.589   1.645 -0.1685 -0.2972  0.6972
 8590SOL    HW137403   2.558   4.674   1.610 -0.3682 -0.4188  0.5563
 8590SOL    HW237404   2.666   4.566   1.599  0.4969  1.5971  0.9217
 8591SOL     OW37405   2.574   0.311   5.813  0.4401 -0.0360 -0.1792
 8591SOL    HW137406   2.596   0.332   5.722 -2.5740 -0.2071 -0.9668
 8591SOL    HW237407   2.607   0.380   5.870 -0.6521  0.5674 -0.2669
 8592SOL     OW37408   4.046   1.304   0.741  0.1181  0.0329 -0.0263
 8592SOL    HW137409   4.076   1.391   0.717  2.2667 -1.0105 -1.0634
 8592SOL    HW237410   4.109   1.243   0.703  0.1494 -0.5990  1.0193
 8593SOL     OW37411   1.192   3.926   7.353  0.0935  0.4695  0.1785
 8593SOL    HW137412   1.196   3.844   7.304  2.4619  1.3339 -1.0732
 8593SOL    HW237413   1.285   3.945   7.359  0.4423 -1.3168  0.3281
 8594SOL     OW37414   2.154   3.536  15.752  0.0008  0.5185  0.1328
 8594SOL    HW137415   2.104   3.462  15.717  0.1633  0.0544  0.8694
 8594SOL    HW237416   2.117   3.550  15.839  1.0121 -1.1820  0.8514
 8595SOL     OW37417   4.059   1.341   3.867 -0.5028  0.5344 -0.6682
 8595SOL    HW137418   4.054   1.308   3.957  1.5175  2.0910  0.0093
 8595SOL    HW237419   3.970   1.324   3.835 -0.7604  2.4260 -0.9675
 8596SOL     OW37420   0.316   0.720   7.154 -0.6164 -0.1139  0.0384
 8596SOL    HW137421   0.362   0.800   7.178  1.1159 -0.9618 -0.4245
 8596SOL    HW237422   0.342   0.709   7.063 -0.9090 -1.4598  0.1128
 8597SOL     OW37423   1.094   2.553  14.634 -0.1191 -0.0535 -0.0319
 8597SOL    HW137424   1.129   2.543  14.722  1.5229 -0.7511 -0.7769
 8597SOL    HW237425   1.044   2.635  14.633  0.4828  0.2749 -1.8507
 8598SOL     OW37426   4.349   0.989   6.384  0.5678  0.5704 -0.0104
 8598SOL    HW137427   4.352   0.981   6.479 -0.9372  1.0119  0.0727
 8598SOL    HW237428   4.307   0.904   6.367  0.2744  1.3995 -3.4196
 8599SOL     OW37429   3.415   4.346   7.851 -0.1015 -0.5167  0.6648
 8599SOL    HW137430   3.504   4.347   7.886  1.0121 -1.2801 -2.1362
 8599SOL    HW237431   3.363   4.383   7.922  0.3094 -0.8183  1.1195
 8600SOL     OW37432   2.014   3.996   3.735 -0.7929 -0.3317  0.0243
 8600SOL    HW137433   2.069   4.005   3.812  1.3413  3.0929 -1.8854
 8600SOL    HW237434   2.017   3.901   3.720  0.2142 -0.3352  0.2790
 8601SOL     OW37435   1.767   4.466  13.047  0.0209  0.2845 -0.2937
 8601SOL    HW137436   1.859   4.492  13.035 -0.3977  0.9203 -2.1210
 8601SOL    HW237437   1.725   4.550  13.070 -0.1440  0.5220 -1.4463
 8602SOL     OW37438   4.698   4.519  11.659 -0.1463  1.0248 -0.4363
 8602SOL    HW137439   0.044   4.567  11.652 -0.4072  1.5875  0.3480
 8602SOL    HW237440   4.667   4.548  11.573 -0.5393 -0.9980 -0.9708
 8603SOL     OW37441   0.282   3.386   4.016 -0.1367 -0.5473  0.5009
 8603SOL    HW137442   0.216   3.334   3.970  1.0347 -0.3109 -1.4212
 8603SOL    HW237443   0.264   3.471   3.976 -0.2156 -0.8913 -0.1953
 8604SOL     OW37444   2.675   3.460   8.346 -0.0950 -1.0811  0.4653
 8604SOL    HW137445   2.680   3.534   8.406 -0.4619  0.6919 -1.7135
 8604SOL    HW237446   2.580   3.445   8.347 -0.6792  2.5867 -0.3619
 8605SOL     OW37447   1.996   4.387   6.653  0.3557 -0.4807  0.0656
 8605SOL    HW137448   1.965   4.299   6.631 -1.1659 -0.4150  1.9474
 8605SOL    HW237449   1.997   4.421   6.564  1.0335 -2.4740 -0.7010
 8606SOL     OW37450   0.991   1.692   5.741  0.3043  0.0681  0.5689
 8606SOL    HW137451   1.063   1.694   5.679 -0.0824  0.4169  0.1301
 8606SOL    HW237452   1.042   1.702   5.821  0.4447  1.5462  0.2900
 8607SOL     OW37453   4.446   0.934  12.423  0.2547 -0.6625 -0.0014
 8607SOL    HW137454   4.495   0.877  12.482 -1.5087 -0.9618  1.1738
 8607SOL    HW237455   4.412   0.868  12.362  0.5560 -0.8371  0.0180
 8608SOL     OW37456   1.719   2.282   5.577  1.1542 -0.3206  0.0936
 8608SOL    HW137457   1.763   2.351   5.526 -2.4106 -0.3636 -3.0011
 8608SOL    HW237458   1.752   2.201   5.538 -0.6858 -0.8354 -0.3662
 8609SOL     OW37459   4.437   1.456   9.004 -0.1516  0.1084  0.0927
 8609SOL    HW137460   4.386   1.519   8.953 -0.9590 -2.1588 -1.9173
 8609SOL    HW237461   4.379   1.461   9.080 -1.1031 -0.8870 -0.5684
 8610SOL     OW37462   2.640   1.244   7.550 -0.2334 -0.2185  0.5765
 8610SOL    HW137463   2.722   1.261   7.597  0.1048 -0.2849  0.0086
 8610SOL    HW237464   2.606   1.333   7.555 -0.0450 -0.1055 -0.2239
 8611SOL     OW37465   1.802   4.133   4.416 -0.0936  0.8033 -0.2057
 8611SOL    HW137466   1.724   4.077   4.419  0.9907 -0.7564 -0.6843
 8611SOL    HW237467   1.869   4.066   4.399 -1.1709 -0.0770 -0.9712
 8612SOL     OW37468   4.564   1.721  11.996 -0.0229 -0.2648  0.1730
 8612SOL    HW137469   4.528   1.633  12.002 -0.5903 -0.1350 -1.1428
 8612SOL    HW237470   4.534   1.758  11.913  0.3674  1.1274  0.6527
 8613SOL     OW37471   3.460   4.736  13.990  0.9883  0.4100 -0.2635
 8613SOL    HW137472   3.376   4.693  13.974  1.2807 -0.0286 -0.6254
 8613SOL    HW237473   3.486   4.692  14.071 -1.6347 -0.6474  0.0099
 8614SOL     OW37474   0.321   0.387  10.973 -0.4872  0.7080  0.5717
 8614SOL    HW137475   0.411   0.370  11.002 -1.1915  1.3177  3.1284
 8614SOL    HW237476   0.280   0.300  10.971  0.2607  0.3252  1.8048
 8615SOL     OW37477   0.142   3.354   2.408 -0.4441  0.0474 -0.7779
 8615SOL    HW137478   0.226   3.316   2.380  0.3797  1.0430  0.3173
 8615SOL    HW237479   0.082   3.301   2.355 -0.9629 -0.2962  0.1674
 8616SOL     OW37480   0.517   2.930   7.409 -0.0510 -0.7585 -0.1943
 8616SOL    HW137481   0.562   2.932   7.325 -2.9318 -0.1766 -1.7239
 8616SOL    HW237482   0.537   2.839   7.434 -0.3198 -0.8223 -0.2172
 8617SOL     OW37483   3.848   0.093   4.791 -0.4318 -0.3913 -0.2363
 8617SOL    HW137484   3.791   0.045   4.732 -0.6887 -0.4878  0.0937
 8617SOL    HW237485   3.787   0.111   4.863 -1.2549  0.8106 -1.2456
 8618SOL     OW37486   2.318   1.643   9.055  0.7101 -0.9402 -0.6602
 8618SOL    HW137487   2.341   1.559   9.014 -0.0322 -1.8586  0.8061
 8618SOL    HW237488   2.383   1.660   9.124 -0.1291  0.3636 -0.1981
 8619SOL     OW37489   3.215   4.353  12.460 -0.1287  0.2470  0.2486
 8619SOL    HW137490   3.209   4.281  12.523 -0.0688 -2.9259 -3.3667
 8619SOL    HW237491   3.273   4.416  12.501  1.5956 -0.8859 -0.4661
 8620SOL     OW37492   2.336   1.752  16.553 -0.5251  0.2918 -0.2554
 8620SOL    HW137493   2.402   1.754  16.484  0.9633 -1.5530  1.1104
 8620SOL    HW237494   2.376   1.823  16.602  2.1243 -0.6059 -1.1020
 8621SOL     OW37495   0.192   3.220   8.704  0.5291  0.0397 -0.6112
 8621SOL    HW137496   0.133   3.159   8.748  0.7455  2.0959  2.4832
 8621SOL    HW237497   0.272   3.168   8.706  0.8870  0.6543  0.8232
 8622SOL     OW37498   2.002   4.449   8.517  0.1669  0.3983  0.2118
 8622SOL    HW137499   2.073   4.513   8.518  0.2302  0.2980  1.5803
 8622SOL    HW237500   1.928   4.508   8.532 -1.0044 -0.2854 -2.9101
 8623SOL     OW37501   1.887   0.292   5.134 -0.0421  0.0593  0.4391
 8623SOL    HW137502   1.947   0.360   5.107 -2.1109  1.5092 -0.5022
 8623SOL    HW237503   1.814   0.297   5.072  1.5714 -0.7841 -1.5423
 8624SOL     OW37504   2.398   2.453   0.064 -0.1052 -0.0428 -0.0359
 8624SOL    HW137505   2.466   2.514   0.036 -0.2500  1.1741  2.1783
 8624SOL    HW237506   2.440   2.367   0.064  2.6719  1.3069 -0.5202
 8625SOL     OW37507   1.889   2.068   7.273  0.0873 -0.1939 -0.1244
 8625SOL    HW137508   1.893   2.156   7.309  0.2614 -0.4454  0.4801
 8625SOL    HW237509   1.836   2.037   7.347  1.0457  0.0668  0.6653
 8626SOL     OW37510   3.552   4.681   6.008 -0.1480  0.1923  0.3486
 8626SOL    HW137511   3.635   4.661   5.964 -0.0235  2.8775 -0.6841
 8626SOL    HW237512   3.561   0.040   6.008  0.9766  0.0932 -2.4502
 8627SOL     OW37513   2.344   2.482   6.264  0.5401  0.3584 -0.0959
 8627SOL    HW137514   2.336   2.574   6.238 -1.3245  1.1848  3.4540
 8627SOL    HW237515   2.278   2.479   6.334 -0.3492  2.3635 -0.8440
 8628SOL     OW37516   2.522   2.435   3.179 -0.1731 -0.0894 -0.0016
 8628SOL    HW137517   2.542   2.436   3.086  0.1233  0.6483  0.0723
 8628SOL    HW237518   2.542   2.345   3.205  1.2714  0.3898  0.5709
 8629SOL     OW37519   2.825   1.463  13.628 -0.1210  0.0898  0.0669
 8629SOL    HW137520   2.793   1.450  13.717 -0.6658 -1.2614 -0.3144
 8629SOL    HW237521   2.746   1.439  13.578 -0.1292  0.1445  0.0538
 8630SOL     OW37522   3.267   0.891   5.289  1.1162 -0.4167  0.5300
 8630SOL    HW137523   3.261   0.946   5.367  2.7223 -0.0643  0.4127
 8630SOL    HW237524   3.236   0.806   5.318 -0.2980 -0.3838 -0.8790
 8631SOL     OW37525   0.482   0.104   2.551  0.6302  0.2754 -0.3789
 8631SOL    HW137526   0.559   0.058   2.518  0.8580 -0.0246  0.5862
 8631SOL    HW237527   0.442   0.151   2.478  0.2015  2.6528  1.3975
 8632SOL     OW37528   0.573   2.697   7.107 -0.5240 -0.2961 -0.5139
 8632SOL    HW137529   0.614   2.703   7.021  0.4862  0.1958  0.0056
 8632SOL    HW237530   0.510   2.768   7.114  0.4245  0.2892  2.2393
 8633SOL     OW37531   2.229   1.189   3.650 -0.3923  0.4313  0.1083
 8633SOL    HW137532   2.210   1.184   3.556  0.3789  0.4558 -0.0521
 8633SOL    HW237533   2.200   1.275   3.681  2.0676  1.0141  0.8306
 8634SOL     OW37534   1.161   1.763   1.819 -0.0547 -0.5565  0.1515
 8634SOL    HW137535   1.244   1.809   1.804  0.4151 -0.8032  1.9669
 8634SOL    HW237536   1.183   1.699   1.886  3.1194 -0.6980 -1.0177
 8635SOL     OW37537   1.569   1.773   0.084  0.5831 -0.0357  0.0190
 8635SOL    HW137538   1.592   1.844   0.024  2.9108  0.5142  1.5133
 8635SOL    HW237539   1.644   1.717   0.062 -1.4436 -1.9963 -1.8261
 8636SOL     OW37540   4.424   2.844   0.307 -0.0328 -0.2133  0.1459
 8636SOL    HW137541   4.349   2.875   0.357  0.0319  1.9351 -1.0850
 8636SOL    HW237542   4.390   2.815   0.222  0.3732 -3.1830  0.9810
 8637SOL     OW37543   3.411   1.374   8.472  0.5137  0.0547 -0.1084
 8637SOL    HW137544   3.390   1.446   8.413 -0.8177 -1.3348 -1.3453
 8637SOL    HW237545   3.354   1.301   8.449  1.8904 -1.3485  0.9156
 8638SOL     OW37546   3.471   1.567   1.221 -0.9176  0.0916  0.1566
 8638SOL    HW137547   3.400   1.515   1.258 -1.7795  1.7576  0.8404
 8638SOL    HW237548   3.490   1.511   1.145  0.9679  0.0425  0.6464
 8639SOL     OW37549   3.540   1.934   2.938 -0.0100 -1.0065  0.3870
 8639SOL    HW137550   3.462   1.897   2.898 -1.5449 -0.9511  3.2867
 8639SOL    HW237551   3.503   2.021   2.955 -1.9181 -1.4669 -1.3854
 8640SOL     OW37552   2.392   3.191   4.659  0.0938  0.3702 -0.2642
 8640SOL    HW137553   2.392   3.096   4.659  2.8889  0.3634  2.9031
 8640SOL    HW237554   2.444   3.218   4.583 -0.5662 -0.1990 -0.9115
 8641SOL     OW37555   4.505   0.485   6.107  0.0779  0.2327 -0.1637
 8641SOL    HW137556   4.415   0.470   6.137 -0.7654  1.5942 -2.0327
 8641SOL    HW237557   4.482   0.501   6.016 -2.5450  0.2835  0.5212
 8642SOL     OW37558   3.642   0.568   7.053  0.2511 -0.3290  0.0601
 8642SOL    HW137559   3.606   0.646   7.095 -0.3294 -0.6308  0.1225
 8642SOL    HW237560   3.584   0.502   7.090  0.2923  0.6059  1.7790
 8643SOL     OW37561   2.491   1.524   1.991  0.4759 -0.1861  0.0257
 8643SOL    HW137562   2.579   1.487   1.984 -0.0077 -1.0270 -1.6325
 8643SOL    HW237563   2.445   1.472   2.056  1.3594  0.4259  1.1351
 8644SOL     OW37564   2.786   2.043   5.076  0.1042 -0.5137  0.0170
 8644SOL    HW137565   2.702   2.002   5.056  0.6615 -2.4506  1.6264
 8644SOL    HW237566   2.765   2.098   5.151  0.0065  0.4216 -0.6903
 8645SOL     OW37567   2.767   0.083   0.730 -0.6367 -0.1601 -0.0004
 8645SOL    HW137568   2.718   0.006   0.703 -0.2723 -0.8523  1.3343
 8645SOL    HW237569   2.852   0.049   0.759 -0.2039 -0.9218 -2.1677
 8646SOL     OW37570   1.855   0.124  11.238  0.1987 -0.2385  0.0293
 8646SOL    HW137571   1.802   0.046  11.223  0.7258 -0.6824  0.5241
 8646SOL    HW237572   1.937   0.087  11.206  0.1651 -0.6429  0.4101
 8647SOL     OW37573   2.831   0.794   9.260  0.1353 -0.2664 -0.1252
 8647SOL    HW137574   2.753   0.848   9.252 -0.9977 -2.0125 -0.9963
 8647SOL    HW237575   2.895   0.862   9.276  1.3658 -0.9941 -1.9240
 8648SOL     OW37576   3.498   4.714   3.263 -0.5066 -0.1755 -0.5548
 8648SOL    HW137577   3.593   4.711   3.264 -0.5777 -1.8164  0.4378
 8648SOL    HW237578   3.478   0.016   3.349  0.1594 -1.0765 -0.0044
 8649SOL     OW37579   0.422   1.917   8.980 -0.3773 -0.0413  0.3517
 8649SOL    HW137580   0.358   1.907   9.050  1.1548 -0.0784  1.7367
 8649SOL    HW237581   0.384   1.978   8.917  0.4592  0.3357  0.2085
 8650SOL     OW37582   2.884   0.531   2.301 -0.9703 -0.1193 -0.5547
 8650SOL    HW137583   2.966   0.483   2.313 -0.6781  0.2784 -0.9306
 8650SOL    HW237584   2.822   0.458   2.297 -2.3770  1.0699 -0.5726
 8651SOL     OW37585   1.544   0.601  10.554  0.6256 -0.0789  0.1476
 8651SOL    HW137586   1.531   0.513  10.587  0.2936  0.3523  1.1729
 8651SOL    HW237587   1.612   0.627  10.616 -0.9364  4.1584  0.1137
 8652SOL     OW37588   0.973   4.366  15.069  0.2977 -0.7226 -0.1498
 8652SOL    HW137589   0.879   4.360  15.055  0.1577 -0.3936  0.6023
 8652SOL    HW237590   0.999   4.281  15.033  1.8329  1.1737 -3.5198
 8653SOL     OW37591   0.973   2.186   2.122  0.0079 -0.2848 -0.3662
 8653SOL    HW137592   0.941   2.246   2.054  0.0988  0.6789  0.4396
 8653SOL    HW237593   0.894   2.133   2.128 -0.1148  0.4150  4.1766
 8654SOL     OW37594   2.477   0.585   5.285  0.6101  0.4271  0.6024
 8654SOL    HW137595   2.383   0.566   5.292  0.3426  1.2347 -0.8363
 8654SOL    HW237596   2.506   0.573   5.195 -1.4248 -2.1798  0.2859
 8655SOL     OW37597   2.146   1.970   7.411  0.3235 -0.2568 -0.4005
 8655SOL    HW137598   2.189   1.965   7.326  0.7915 -1.2008 -0.1047
 8655SOL    HW237599   2.065   2.016   7.388  0.2765 -0.5608 -0.8474
 8656SOL     OW37600   2.357   4.110   7.311  0.5924  0.2027  0.5595
 8656SOL    HW137601   2.398   4.068   7.386  2.4841 -0.8947 -1.1038
 8656SOL    HW237602   2.301   4.173   7.357 -0.2569 -0.0890 -0.0813
 8657SOL     OW37603   0.484   1.170   8.185 -0.1824  0.3441  0.5185
 8657SOL    HW137604   0.468   1.194   8.094 -3.1552 -2.7214  0.2069
 8657SOL    HW237605   0.390   1.162   8.204 -0.3315  1.6759  0.3468
 8658SOL     OW37606   2.343   3.883  13.540 -0.5970  0.3679 -0.4980
 8658SOL    HW137607   2.319   3.791  13.551 -2.2566  0.9677  1.0074
 8658SOL    HW237608   2.280   3.919  13.603  1.3824  1.6568  0.7311
 8659SOL     OW37609   0.876   2.083  17.268 -0.1822 -0.9450 -0.2159
 8659SOL    HW137610   0.940   2.152  17.286  0.2696 -0.8713 -2.0622
 8659SOL    HW237611   0.876   2.093  17.173 -1.6898  3.5885  0.3058
 8660SOL     OW37612   1.759   0.830   4.997  0.0687 -0.7313 -0.5216
 8660SOL    HW137613   1.801   0.779   5.066 -0.2135 -1.2614 -0.7436
 8660SOL    HW237614   1.818   0.901   4.971  2.2479 -1.7682  1.5498
 8661SOL     OW37615   1.589   3.103   4.842 -0.1338 -0.2907 -0.0657
 8661SOL    HW137616   1.632   3.154   4.911  2.1196 -1.4307 -0.6650
 8661SOL    HW237617   1.656   3.067   4.784 -2.0529 -1.1913 -1.7367
 8662SOL     OW37618   2.348   1.118  13.321 -0.6201  0.2816  0.3021
 8662SOL    HW137619   2.378   1.079  13.239 -1.4189 -0.6739  0.4593
 8662SOL    HW237620   2.299   1.045  13.360 -0.2223  0.0912  0.4506
 8663SOL     OW37621   2.278   3.332   2.206  0.1125 -0.2242  0.2051
 8663SOL    HW137622   2.372   3.341   2.190 -0.7312  3.1762 -2.8411
 8663SOL    HW237623   2.243   3.390   2.139  0.3119  1.8927  1.9495
 8664SOL     OW37624   1.025   0.953  14.397 -0.3111 -0.2047  0.2868
 8664SOL    HW137625   1.024   1.038  14.354  0.0512 -0.4202 -0.1484
 8664SOL    HW237626   1.032   0.981  14.488  0.4248  1.1121 -0.1766
 8665SOL     OW37627   3.289   2.666  16.305  0.9451  0.7244 -0.8503
 8665SOL    HW137628   3.277   2.719  16.226 -2.3817  1.1266 -0.0872
 8665SOL    HW237629   3.305   2.579  16.270 -0.8257  0.1803 -0.3101
 8666SOL     OW37630   1.542   3.515  16.732  0.4894 -0.5907  0.3623
 8666SOL    HW137631   1.534   3.595  16.783 -3.0450 -1.6494  1.4568
 8666SOL    HW237632   1.490   3.525  16.653 -0.0160  0.9838  0.8991
 8667SOL     OW37633   1.048   1.265   6.534 -0.1294  0.0748 -0.2022
 8667SOL    HW137634   0.957   1.276   6.562 -0.1874 -0.2714 -0.2470
 8667SOL    HW237635   1.043   1.170   6.523 -1.7223  0.1196  0.1587
 8668SOL     OW37636   0.849   2.526  14.064  0.3466 -0.2407  0.1990
 8668SOL    HW137637   0.891   2.441  14.077  0.5937 -0.0215  0.8547
 8668SOL    HW237638   0.915   2.581  14.108 -1.1546  0.6647  1.3111
 8669SOL     OW37639   4.288   2.780  11.607 -0.0289 -0.7854  0.2221
 8669SOL    HW137640   4.235   2.844  11.560  2.7500  0.2420 -1.5285
 8669SOL    HW237641   4.311   2.713  11.543  0.7603 -0.2406 -0.0659
 8670SOL     OW37642   4.305   1.463  13.905  0.2090  0.5482  0.2242
 8670SOL    HW137643   4.274   1.513  13.829  0.8482 -0.7987 -0.9227
 8670SOL    HW237644   4.367   1.526  13.942 -0.4686  0.0074  2.2460
 8671SOL     OW37645   2.972   3.793   6.527 -0.2073  0.5093 -0.1150
 8671SOL    HW137646   2.936   3.705   6.520 -1.5022  0.9905  0.4666
 8671SOL    HW237647   2.959   3.808   6.621 -1.1248  2.6234 -0.5800
 8672SOL     OW37648   0.922   0.639   9.880  0.1626  0.1864 -0.2830
 8672SOL    HW137649   0.969   0.699   9.937 -0.7686  0.7037 -0.0501
 8672SOL    HW237650   0.866   0.576   9.925  2.2855  0.9811  3.5102
 8673SOL     OW37651   0.537   3.268   8.910  0.6419  0.1403 -0.5837
 8673SOL    HW137652   0.573   3.194   8.860  2.6252  0.6692  0.0698
 8673SOL    HW237653   0.607   3.332   8.902  0.8090 -0.4155 -3.7514
 8674SOL     OW37654   1.704   3.863   7.997  0.1129  0.4193  0.4846
 8674SOL    HW137655   1.798   3.852   8.003  0.3018  1.2226 -0.8820
 8674SOL    HW237656   1.705   3.918   7.918  0.9086 -0.7392 -0.3014
 8675SOL     OW37657   1.764   3.190   8.090 -0.2681 -0.0287  0.9900
 8675SOL    HW137658   1.843   3.170   8.140 -0.3695 -3.1171 -0.0709
 8675SOL    HW237659   1.712   3.113   8.111  0.5410 -1.2145 -1.3717
 8676SOL     OW37660   1.376   0.127   8.745 -0.6210 -0.0163  0.2713
 8676SOL    HW137661   1.297   0.155   8.699 -0.4394  0.0151 -0.0200
 8676SOL    HW237662   1.404   0.214   8.771  0.7670 -0.3078 -0.2925
 8677SOL     OW37663   3.582   1.946   1.851  0.3371 -0.7855  0.3409
 8677SOL    HW137664   3.601   1.876   1.789 -2.3198 -1.1332 -0.0870
 8677SOL    HW237665   3.662   1.956   1.903  0.8135 -1.2564 -0.3072
 8678SOL     OW37666   0.251   1.177  14.205 -0.2024  0.1113  0.1211
 8678SOL    HW137667   0.209   1.234  14.141  2.5938  0.3832 -1.5092
 8678SOL    HW237668   0.245   1.229  14.285  0.0954 -0.2371  0.3683
 8679SOL     OW37669   4.147   1.956   8.826 -0.0286  0.5015  0.2663
 8679SOL    HW137670   4.131   1.922   8.914 -0.5460  0.0409 -0.0015
 8679SOL    HW237671   4.242   1.953   8.840  0.4392  1.6453 -2.6774
 8680SOL     OW37672   2.429   1.373   2.872  0.8065 -0.4520  0.1612
 8680SOL    HW137673   2.471   1.366   2.958 -0.2809 -1.3749  0.6229
 8680SOL    HW237674   2.469   1.309   2.813 -1.4083 -1.6354 -0.0557
 8681SOL     OW37675   3.531   4.054   3.918 -0.1638 -0.4144 -0.7630
 8681SOL    HW137676   3.543   3.991   3.989  1.8647  0.7958 -0.0126
 8681SOL    HW237677   3.461   4.108   3.954  2.6668  2.3339  0.6361
 8682SOL     OW37678   2.180   1.165   2.880 -0.0446  0.2934 -0.4330
 8682SOL    HW137679   2.258   1.196   2.835  1.5406 -1.1879  1.2582
 8682SOL    HW237680   2.185   1.221   2.957 -0.0891 -0.1287 -0.1175
 8683SOL     OW37681   0.228   1.327  16.305  0.7445  0.0519  0.0738
 8683SOL    HW137682   0.202   1.253  16.360  0.4734  0.6661  0.7784
 8683SOL    HW237683   0.320   1.340  16.328  1.4610 -0.1556 -2.7307
 8684SOL     OW37684   0.098   0.409   0.554  0.0628  0.1291  0.0434
 8684SOL    HW137685   0.050   0.492   0.548 -0.5829 -0.2126  0.4896
 8684SOL    HW237686   0.187   0.441   0.569 -1.0121  1.9985  2.4953
 8685SOL     OW37687   0.517   2.184   8.599 -0.4769  0.2209  0.0533
 8685SOL    HW137688   0.601   2.177   8.552 -1.6014 -0.9478 -1.7873
 8685SOL    HW237689   0.481   2.098   8.579  1.9064 -0.8021  0.0631
 8686SOL     OW37690   3.836   2.850   1.779  0.1348 -0.1376  0.4216
 8686SOL    HW137691   3.763   2.910   1.765 -0.3251 -0.6991  0.3620
 8686SOL    HW237692   3.782   2.776   1.808  0.6612 -0.1153  1.4688
 8687SOL     OW37693   3.402   0.416   4.846  0.2142 -0.9851 -0.4100
 8687SOL    HW137694   3.306   0.415   4.844  0.1796  0.8944  0.3485
 8687SOL    HW237695   3.417   0.329   4.809  0.7624 -1.2630  0.4768
 8688SOL     OW37696   1.921   2.552   6.956 -0.3878 -0.1818 -0.2857
 8688SOL    HW137697   1.938   2.507   6.874 -2.3268 -0.4149 -0.5491
 8688SOL    HW237698   1.854   2.492   6.987 -0.4263  0.4814  0.9195
 8689SOL     OW37699   0.757   4.656   6.017  0.0210  0.1513 -0.1668
 8689SOL    HW137700   0.791   4.722   6.078 -0.6445  0.7688 -0.4649
 8689SOL    HW237701   0.664   4.676   6.010  0.2078  0.3824 -1.9758
 8690SOL     OW37702   0.898   2.656   6.432 -0.2759 -0.3632  0.0594
 8690SOL    HW137703   0.906   2.681   6.340 -2.5302 -2.9535 -0.8496
 8690SOL    HW237704   0.810   2.693   6.442 -0.1513  0.0091 -0.2176
 8691SOL     OW37705   3.793   1.545  12.493  0.0165 -0.0311 -0.5205
 8691SOL    HW137706   3.805   1.483  12.565 -1.1864 -0.4944 -0.7211
 8691SOL    HW237707   3.875   1.594  12.486 -1.6766  2.8775  0.1766
 8692SOL     OW37708   3.442   2.114   3.945  0.2913  0.2851  0.3319
 8692SOL    HW137709   3.355   2.119   3.985 -0.3369 -0.5842 -0.9116
 8692SOL    HW237710   3.456   2.192   3.892 -0.6258  0.1876 -0.0550
 8693SOL     OW37711   2.458   4.450   7.340  0.3054  0.3496  0.1416
 8693SOL    HW137712   2.549   4.422   7.349  1.3697  3.5148 -0.6984
 8693SOL    HW237713   2.448   4.523   7.401 -2.2707 -1.1484  1.4925
 8694SOL     OW37714   2.385   2.115   1.427 -0.2491  0.3947  0.3340
 8694SOL    HW137715   2.400   2.131   1.334  1.1442 -0.6014  0.3800
 8694SOL    HW237716   2.363   2.023   1.417  1.6840 -0.1555  1.0991
 8695SOL     OW37717   3.611   2.690   3.624 -0.2200  0.6832 -0.5595
 8695SOL    HW137718   3.637   2.618   3.567 -0.6100  1.2480 -1.4537
 8695SOL    HW237719   3.624   2.760   3.560  0.7373 -0.6769 -1.8445
 8696SOL     OW37720   3.665   1.398   4.421 -0.1438  0.3914  0.1103
 8696SOL    HW137721   3.604   1.454   4.467  1.0634  1.0402  0.9141
 8696SOL    HW237722   3.675   1.455   4.345 -0.4296 -0.3076 -0.4564
 8697SOL     OW37723   0.806   2.658   5.670 -0.0704  0.1167 -0.0913
 8697SOL    HW137724   0.729   2.714   5.681  0.0748  0.4053 -0.5459
 8697SOL    HW237725   0.871   2.714   5.628  0.0941 -0.4793 -0.6357
 8698SOL     OW37726   3.807   0.440   5.938 -0.5934  0.8218  0.1849
 8698SOL    HW137727   3.743   0.509   5.926 -0.8680  0.8372  1.7094
 8698SOL    HW237728   3.870   0.451   5.867 -1.4230 -3.9316 -1.2790
 8699SOL     OW37729   2.885   2.143  13.484  0.0062 -0.7042 -0.0957
 8699SOL    HW137730   2.937   2.186  13.552  1.2410  0.9256 -2.1016
 8699SOL    HW237731   2.926   2.057  13.472 -2.0700 -1.8298  0.9228
 8700SOL     OW37732   1.371   4.576  16.966 -0.6544  0.0680  0.0718
 8700SOL    HW137733   1.401   4.500  16.915 -0.6321  0.4656 -0.5093
 8700SOL    HW237734   1.450   4.629  16.969 -1.3002  0.9657  0.9305
 8701SOL     OW37735   3.010   1.841  14.738  0.2989  0.2979  0.1348
 8701SOL    HW137736   3.047   1.929  14.728 -0.1237  0.3209 -1.1884
 8701SOL    HW237737   3.086   1.783  14.729 -1.4217 -1.9513  0.0979
 8702SOL     OW37738   3.733   2.723   2.085  0.0368 -0.6565 -0.2910
 8702SOL    HW137739   3.691   2.734   2.000  1.0731 -2.7661 -1.0813
 8702SOL    HW237740   3.670   2.774   2.136  2.2365  1.4001  0.3428
 8703SOL     OW37741   3.547   2.291   3.599 -0.6500  0.3126  0.5457
 8703SOL    HW137742   3.594   2.354   3.544  0.5871 -1.0677  0.0062
 8703SOL    HW237743   3.560   2.204   3.560 -1.4498  0.4099  0.0540
 8704SOL     OW37744   1.717   1.814   9.811 -0.0793  0.0561 -0.1511
 8704SOL    HW137745   1.734   1.893   9.759  2.2376 -0.1888  0.2382
 8704SOL    HW237746   1.806   1.797   9.843 -0.0222  0.1515 -0.2560
 8705SOL     OW37747   4.002   0.539   5.761  0.3650 -0.5588 -0.1567
 8705SOL    HW137748   4.086   0.565   5.798 -0.7284  1.8872  0.5939
 8705SOL    HW237749   4.019   0.532   5.667 -0.2555  1.3132 -0.4125
 8706SOL     OW37750   1.165   3.823   3.917  0.2383 -0.5933  0.0168
 8706SOL    HW137751   1.224   3.895   3.893  0.3334  0.2173  2.6950
 8706SOL    HW237752   1.091   3.830   3.857  0.7144 -1.1100 -0.6416
 8707SOL     OW37753   1.765   1.147   8.135  0.4196 -0.0759 -0.1579
 8707SOL    HW137754   1.857   1.124   8.123  0.3633 -0.9446  1.0888
 8707SOL    HW237755   1.722   1.098   8.066  2.1553 -0.0404 -1.2662
 8708SOL     OW37756   4.216   4.679   6.434 -0.9095 -0.1459 -0.6314
 8708SOL    HW137757   4.269   4.600   6.437 -0.3690  0.2733  1.0643
 8708SOL    HW237758   4.269   0.004   6.486 -0.6502 -2.1642  1.4906
 8709SOL     OW37759   1.448   2.782   4.968 -0.3657 -0.2308  0.7372
 8709SOL    HW137760   1.425   2.788   4.875 -0.1818 -0.6940  0.6625
 8709SOL    HW237761   1.420   2.692   4.986 -2.2230 -0.1920 -1.9082
 8710SOL     OW37762   2.009   0.281   9.117 -0.1254 -0.2179  0.2224
 8710SOL    HW137763   2.037   0.274   9.209  1.0012 -1.5923 -0.2268
 8710SOL    HW237764   2.015   0.189   9.090 -2.0257 -0.5799  0.9972
 8711SOL     OW37765   1.237   3.243   5.725  0.3027 -0.2163  0.1375
 8711SOL    HW137766   1.274   3.159   5.699 -2.0232 -1.1272 -0.1873
 8711SOL    HW237767   1.205   3.274   5.640  0.9369  0.4837  0.1510
 8712SOL     OW37768   2.460   3.283   1.865  0.7967 -0.4461  0.2781
 8712SOL    HW137769   2.525   3.212   1.866 -1.0344 -2.1478 -1.9347
 8712SOL    HW237770   2.455   3.298   1.960  0.5713 -2.7898  0.6586
 8713SOL     OW37771   0.869   0.550   5.944  0.2725 -0.0385 -0.7828
 8713SOL    HW137772   0.776   0.559   5.923 -0.3114 -2.6310  0.7541
 8713SOL    HW237773   0.882   0.459   5.972 -0.7104 -0.3197 -1.2350
 8714SOL     OW37774   3.250   2.276  13.473 -0.0765 -1.0167  0.0847
 8714SOL    HW137775   3.318   2.327  13.517  0.4418 -2.4594  0.9524
 8714SOL    HW237776   3.283   2.194  13.508 -0.8266 -0.9608  0.9431
 8715SOL     OW37777   1.700   3.115  17.466  0.1006  0.2463  0.6283
 8715SOL    HW137778   1.768   3.048  17.465 -1.0743 -0.9488  1.7610
 8715SOL    HW237779   1.725   3.172  17.393  0.2159 -1.4152 -0.6386
 8716SOL     OW37780   2.426   2.619  15.557  0.3860  0.5682 -0.0795
 8716SOL    HW137781   2.336   2.646  15.575 -0.0798 -0.4444 -0.8661
 8716SOL    HW237782   2.431   2.633  15.462 -2.9724 -1.4530 -0.5805
 8717SOL     OW37783   4.581   3.694   8.114 -0.1832  0.1762  0.2504
 8717SOL    HW137784   4.637   3.683   8.037  1.1880  0.6720  1.1560
 8717SOL    HW237785   4.490   3.674   8.094 -0.6244  0.6522  1.7421
 8718SOL     OW37786   1.581   1.793   2.462  0.1353  1.0299 -0.2139
 8718SOL    HW137787   1.624   1.772   2.545  0.5073 -0.8181 -0.8872
 8718SOL    HW237788   1.550   1.705   2.442  0.7381  0.4965  1.2571
 8719SOL     OW37789   0.363   3.893   2.969  0.3378 -0.0411  0.1328
 8719SOL    HW137790   0.437   3.911   3.026  0.0609 -0.8400  0.7394
 8719SOL    HW237791   0.380   3.807   2.931  3.8045  0.8831 -0.4048
 8720SOL     OW37792   1.063   1.223   8.254  0.1594  0.1063 -0.3003
 8720SOL    HW137793   0.998   1.161   8.221  0.0589 -1.0867  2.0897
 8720SOL    HW237794   1.072   1.188   8.343 -1.0545 -0.7130 -0.4916
 8721SOL     OW37795   0.966   1.411   9.909  0.1054 -0.8905 -0.5964
 8721SOL    HW137796   1.056   1.381   9.922  0.4437 -0.4999 -2.1029
 8721SOL    HW237797   0.922   1.339   9.863 -0.3037 -1.2384  0.3307
 8722SOL     OW37798   0.407   0.996  14.080 -0.2669 -0.1220 -0.3966
 8722SOL    HW137799   0.357   1.061  14.129 -0.7922 -1.4261  0.8023
 8722SOL    HW237800   0.445   1.050  14.011  0.0896 -2.0678 -1.7275
 8723SOL     OW37801   0.105   2.368  14.714 -0.5364 -0.5451  0.2018
 8723SOL    HW137802   0.060   2.305  14.658  1.0056 -2.3486  0.9840
 8723SOL    HW237803   0.156   2.307  14.767 -0.2686 -0.4220  0.0914
 8724SOL     OW37804   1.662   2.842   1.509 -0.4621 -0.0014  0.3046
 8724SOL    HW137805   1.591   2.883   1.459 -1.2594  0.1768  1.5858
 8724SOL    HW237806   1.685   2.771   1.449  1.2581  1.1384 -0.3837
 8725SOL     OW37807   3.013   2.747   4.278  0.6067 -0.0401  0.4290
 8725SOL    HW137808   2.952   2.818   4.297 -0.9705 -1.2080 -0.2503
 8725SOL    HW237809   2.952   2.682   4.312  0.5133 -0.1826 -0.0112
 8726SOL     OW37810   2.824   1.587  10.296 -0.0830 -0.0587  0.1580
 8726SOL    HW137811   2.849   1.673  10.330 -0.1354  0.9694 -2.3857
 8726SOL    HW237812   2.836   1.528  10.370  0.7556  0.6375  0.5767
 8727SOL     OW37813   0.906   2.968   4.505 -0.2813 -0.1491 -0.3100
 8727SOL    HW137814   0.897   2.980   4.599 -2.3927 -0.3978 -0.4843
 8727SOL    HW237815   0.839   3.027   4.471 -0.4746 -0.2858 -0.1585
 8728SOL     OW37816   1.127   0.434   4.940  0.1095  0.3042  0.1945
 8728SOL    HW137817   1.055   0.485   4.978 -1.0693 -0.1753 -1.3969
 8728SOL    HW237818   1.196   0.476   4.992 -0.0734  0.5564  0.2338
 8729SOL     OW37819   1.836   4.354  14.757 -0.0940 -0.2470 -0.2175
 8729SOL    HW137820   1.763   4.416  14.754 -0.0678 -0.2237 -0.4011
 8729SOL    HW237821   1.905   4.417  14.773 -2.0234  2.1965 -1.4621
 8730SOL     OW37822   4.358   0.990   1.955  0.1745  0.1221  0.0379
 8730SOL    HW137823   4.354   0.902   1.992  0.3251  0.2731  0.4175
 8730SOL    HW237824   4.404   0.981   1.872  1.3837  4.2086  0.2661
 8731SOL     OW37825   4.310   0.439   7.849  0.0154 -0.2227  0.3703
 8731SOL    HW137826   4.276   0.429   7.760  0.2941 -0.8184  0.3263
 8731SOL    HW237827   4.259   0.514   7.877 -1.2687 -0.8626 -0.2791
 8732SOL     OW37828   0.208   2.574   2.748 -0.6162 -0.0764  0.6721
 8732SOL    HW137829   0.209   2.482   2.719 -2.3247 -0.2429  1.1206
 8732SOL    HW237830   0.300   2.599   2.735 -0.3704 -0.7180  1.1615
 8733SOL     OW37831   4.501   3.314   3.843 -0.0091  0.0505  0.6887
 8733SOL    HW137832   4.570   3.361   3.891 -0.7951  0.4578  1.4214
 8733SOL    HW237833   4.468   3.373   3.776 -1.1671 -2.3203 -0.8239
 8734SOL     OW37834   0.086   1.448   8.903  0.0932  0.1307 -0.3921
 8734SOL    HW137835   0.011   1.419   8.852  0.3480 -2.6741  0.8441
 8734SOL    HW237836   0.057   1.433   8.993  1.4815  0.5797  0.1440
 8735SOL     OW37837   2.872   3.726  12.239  0.0038 -0.2575  0.0910
 8735SOL    HW137838   2.832   3.802  12.197 -1.4619 -0.4782  1.0751
 8735SOL    HW237839   2.888   3.676  12.159  1.9026  0.9361 -0.2883
 8736SOL     OW37840   0.666   3.621   3.910 -0.0096  0.6876  0.1766
 8736SOL    HW137841   0.725   3.666   3.849 -1.4229  1.7781 -0.3850
 8736SOL    HW237842   0.590   3.645   3.857  1.9631  3.2190 -1.4900
 8737SOL     OW37843   1.219   2.452   5.501 -0.4221 -0.0217  0.5651
 8737SOL    HW137844   1.145   2.393   5.512  0.0476 -0.6213  0.5378
 8737SOL    HW237845   1.282   2.415   5.563  1.7731  2.6344 -0.0368
 8738SOL     OW37846   4.682   4.192  14.873  0.1242  0.0818 -0.2733
 8738SOL    HW137847   4.736   4.187  14.952  1.2352 -2.6695 -1.1761
 8738SOL    HW237848   4.726   4.126  14.818  0.3317  1.6204 -1.9571
 8739SOL     OW37849   1.827   2.018   4.394 -0.1254 -0.0422  0.1601
 8739SOL    HW137850   1.875   2.100   4.403 -1.0599  0.3395  1.4943
 8739SOL    HW237851   1.737   2.040   4.418 -0.9088 -2.0491 -0.9118
 8740SOL     OW37852   2.890   2.784   2.882  0.2457 -0.6004 -0.1085
 8740SOL    HW137853   2.813   2.777   2.938 -0.6367  1.2007 -1.1329
 8740SOL    HW237854   2.877   2.697   2.844  2.9934 -0.3841 -1.5683
 8741SOL     OW37855   2.401   0.837   1.159 -0.6800 -0.0788  0.2101
 8741SOL    HW137856   2.493   0.840   1.188 -0.2265  1.3840 -1.3514
 8741SOL    HW237857   2.394   0.745   1.135 -1.6395  0.1716 -0.4447
 8742SOL     OW37858   4.192   1.919   6.753  0.3091  0.3338  0.2606
 8742SOL    HW137859   4.130   1.984   6.786 -0.6808 -0.0323 -0.8645
 8742SOL    HW237860   4.136   1.842   6.755  0.3451  0.3026 -0.0201
 8743SOL     OW37861   2.862   3.976   7.625  0.2086  0.1351 -0.1863
 8743SOL    HW137862   2.810   3.990   7.546  0.2291 -1.7593 -0.5220
 8743SOL    HW237863   2.835   4.048   7.683 -1.2864 -0.1296 -0.5571
 8744SOL     OW37864   2.505   2.923  10.275  0.1572 -0.0991 -0.1170
 8744SOL    HW137865   2.453   3.003  10.286 -2.9466 -1.9109 -1.3199
 8744SOL    HW237866   2.435   2.858  10.280 -0.4836  0.8126  3.0236
 8745SOL     OW37867   1.479   0.442   6.796  0.3083 -0.1499 -0.2571
 8745SOL    HW137868   1.462   0.536   6.800 -1.7104 -0.5035 -0.3768
 8745SOL    HW237869   1.565   0.447   6.838  0.1827  1.5985 -0.2207
 8746SOL     OW37870   1.204   0.239   2.750 -0.1486 -0.0534  0.6989
 8746SOL    HW137871   1.258   0.308   2.791  1.2536 -1.8503  1.8969
 8746SOL    HW237872   1.117   0.257   2.786 -0.6380  2.1700 -1.6194
 8747SOL     OW37873   2.332   2.281   4.002 -0.0885  0.4639 -0.2957
 8747SOL    HW137874   2.352   2.330   4.082 -1.8245  2.3136 -0.9863
 8747SOL    HW237875   2.288   2.205   4.041 -0.4206  0.7894 -0.0368
 8748SOL     OW37876   1.069   4.495   4.831 -0.0173  0.1615  0.6662
 8748SOL    HW137877   1.045   4.441   4.756  1.7005 -1.2068  1.0917
 8748SOL    HW237878   1.005   4.468   4.898  0.8452 -0.4761  1.2296
 8749SOL     OW37879   4.096   2.150   6.068  0.0157 -0.5507 -0.1501
 8749SOL    HW137880   4.030   2.089   6.102  0.6066 -1.8328 -1.3024
 8749SOL    HW237881   4.053   2.165   5.984  0.8944 -0.5626 -0.6003
 8750SOL     OW37882   0.938   1.902   1.879 -0.1259  0.0726  0.3270
 8750SOL    HW137883   1.019   1.864   1.846 -0.4844  0.0754 -0.5638
 8750SOL    HW237884   0.943   1.994   1.851 -1.0524 -0.6050 -2.0513
 8751SOL     OW37885   0.713   4.722   6.506  0.0993 -0.1230  0.0765
 8751SOL    HW137886   0.686   0.078   6.504 -2.3930 -0.8435  1.4744
 8751SOL    HW237887   0.629   4.678   6.515 -0.0876  0.2413  0.1412
 8752SOL     OW37888   2.864   4.338  10.009 -0.1795 -0.3982 -0.3980
 8752SOL    HW137889   2.792   4.275  10.020 -1.6592  1.5863  1.2989
 8752SOL    HW237890   2.909   4.309  10.089 -0.3961 -0.8949 -0.4550
 8753SOL     OW37891   1.631   2.514   4.637 -0.5529 -0.0935  0.3779
 8753SOL    HW137892   1.693   2.477   4.700  2.0135 -1.9141 -3.2234
 8753SOL    HW237893   1.599   2.587   4.690 -0.6081 -0.2206  0.5209
 8754SOL     OW37894   1.580   0.532   7.851  0.0878 -0.2472  0.1431
 8754SOL    HW137895   1.557   0.527   7.943 -1.1850  1.0127 -0.1114
 8754SOL    HW237896   1.618   0.444   7.843 -0.0206 -0.3465  0.7247
 8755SOL     OW37897   2.601   1.941   2.142 -0.3900  0.0173 -0.4357
 8755SOL    HW137898   2.513   1.903   2.145 -0.0939 -0.5366  1.7823
 8755SOL    HW237899   2.647   1.859   2.160 -0.2751  0.5527  1.7053
 8756SOL     OW37900   3.321   4.499   2.273  0.4280  0.1525  1.1510
 8756SOL    HW137901   3.272   4.515   2.354 -0.3452 -0.9539  0.9025
 8756SOL    HW237902   3.291   4.410   2.254 -0.6799  0.4517  1.4897
 8757SOL     OW37903   1.710   0.920   2.992  0.1064  0.1285  0.2528
 8757SOL    HW137904   1.663   0.939   2.910 -1.0726 -2.0898  0.4095
 8757SOL    HW237905   1.781   0.981   2.977  0.4553 -0.5114 -0.7553
 8758SOL     OW37906   2.799   0.188   2.350 -0.3745  0.8228 -0.3342
 8758SOL    HW137907   2.767   0.098   2.354  1.0193  0.3111 -0.6903
 8758SOL    HW237908   2.722   0.242   2.366  0.8428  2.7413 -0.9707
 8759SOL     OW37909   0.894   1.977   4.643  0.6338  0.1956  0.2280
 8759SOL    HW137910   0.816   1.927   4.620  0.2400  1.7180 -1.7733
 8759SOL    HW237911   0.881   1.989   4.738 -1.0495  1.0986 -0.1128
 8760SOL     OW37912   2.803   0.106   5.324  0.2918 -0.1660  0.1788
 8760SOL    HW137913   2.894   0.090   5.348  0.3611  0.2137  0.1708
 8760SOL    HW237914   2.770   0.018   5.342 -0.4047 -0.0764 -0.6655
 8761SOL     OW37915   2.857   4.724   2.597  0.1613  0.0153  0.2722
 8761SOL    HW137916   2.877   4.678   2.678 -0.0820 -2.0809 -0.8404
 8761SOL    HW237917   2.853   4.657   2.528 -1.6671 -0.5697  0.9413
 8762SOL     OW37918   2.761   4.625   9.743 -0.1251  0.0994 -0.0950
 8762SOL    HW137919   2.668   4.611   9.727  0.4170 -1.8265 -1.6071
 8762SOL    HW237920   2.797   4.660   9.661 -0.2908  3.3882  1.2686
 8763SOL     OW37921   2.848   1.767   4.892 -0.0907  0.1402  0.5416
 8763SOL    HW137922   2.943   1.773   4.886 -0.0975  0.0783  0.3767
 8763SOL    HW237923   2.810   1.819   4.821  0.0528 -0.8662 -0.2622
 8764SOL     OW37924   4.697   2.126   0.634  0.2849 -0.2533  0.3315
 8764SOL    HW137925   4.614   2.151   0.592  0.6015 -0.8468 -0.6358
 8764SOL    HW237926   0.014   2.146   0.557  1.2720 -2.3891  0.4652
 8765SOL     OW37927   1.810   0.673   4.766  0.1801 -0.3043  0.1351
 8765SOL    HW137928   1.877   0.716   4.713  0.7254 -2.2899 -0.8123
 8765SOL    HW237929   1.795   0.735   4.837 -0.8898 -0.5904  0.1667
 8766SOL     OW37930   0.118   3.277   2.033  0.2387 -0.2543 -0.1966
 8766SOL    HW137931   0.204   3.244   2.004 -0.2659 -0.9559 -0.9017
 8766SOL    HW237932   0.081   3.330   1.962 -1.0662  2.1994  2.3194
 8767SOL     OW37933   3.658   0.648   5.875  0.5632 -0.3874  0.1971
 8767SOL    HW137934   3.573   0.628   5.836  0.7555 -2.3099  0.7419
 8767SOL    HW237935   3.627   0.685   5.957  0.5323 -3.0661  1.3997
 8768SOL     OW37936   3.930   2.115   4.981 -0.2392  0.1789  0.6141
 8768SOL    HW137937   3.942   2.142   4.890 -0.7656  0.2052  0.5542
 8768SOL    HW237938   3.843   2.077   4.971  0.3718 -0.4645 -2.1690
 8769SOL     OW37939   1.347   3.458   6.090  0.0937  0.1889 -0.2244
 8769SOL    HW137940   1.420   3.510   6.123  1.3692 -1.1204 -0.9810
 8769SOL    HW237941   1.292   3.530   6.061 -0.2726  0.5315  1.3454
 8770SOL     OW37942   2.822   2.151  17.035  0.0482 -0.4591 -0.6503
 8770SOL    HW137943   2.887   2.116  17.097 -0.2209 -1.6585 -1.0511
 8770SOL    HW237944   2.877   2.228  17.019 -0.0542 -0.5986 -1.6428
 8771SOL     OW37945   0.138   2.499   7.174 -0.0976 -0.3950 -0.6650
 8771SOL    HW137946   0.073   2.518   7.242 -0.4047 -2.3643 -0.4221
 8771SOL    HW237947   0.138   2.564   7.104  2.9131  0.8684  0.4545
 8772SOL     OW37948   4.365   2.188   4.025  0.3646  0.2346  1.0639
 8772SOL    HW137949   4.418   2.144   3.958 -0.4345 -0.1050  0.6483
 8772SOL    HW237950   4.286   2.213   3.977  0.5264  1.3868  1.4171
 8773SOL     OW37951   0.105   3.706   7.309 -0.2665  0.5806  0.4844
 8773SOL    HW137952   0.021   3.661   7.297 -0.4945  1.1219  0.0746
 8773SOL    HW237953   0.063   3.792   7.305 -2.1452 -0.2927  1.5131
 8774SOL     OW37954   1.123   2.246   7.749  0.2867 -0.7792  0.2795
 8774SOL    HW137955   1.066   2.322   7.736 -0.1393 -0.9083  1.3506
 8774SOL    HW237956   1.077   2.182   7.696 -0.8102 -0.2696  0.6100
 8775SOL     OW37957   2.277   3.744   4.108 -0.2480  0.6697 -0.5113
 8775SOL    HW137958   2.338   3.686   4.154 -0.6870 -0.0321 -0.8121
 8775SOL    HW237959   2.220   3.774   4.178 -1.1111 -0.7820 -0.5825
 8776SOL     OW37960   3.024   2.887  12.251 -0.2142  0.2039  0.3280
 8776SOL    HW137961   3.061   2.975  12.266 -0.8073  0.8149 -1.7697
 8776SOL    HW237962   3.080   2.865  12.177 -0.9871  0.7654 -0.4236
 8777SOL     OW37963   0.557   3.340   8.515 -0.3319  0.0411 -0.4710
 8777SOL    HW137964   0.474   3.296   8.535 -0.7984  0.1232 -2.2025
 8777SOL    HW237965   0.609   3.260   8.506  0.3427  0.8855 -3.8896
 8778SOL     OW37966   3.466   1.135  17.703 -0.3720  0.5418 -0.1768
 8778SOL    HW137967   3.426   1.169   0.039  0.7270  3.5540 -0.8935
 8778SOL    HW237968   3.429   1.047  17.705 -0.7372  0.6941 -0.2258
 8779SOL     OW37969   0.870   4.187   0.383  0.2417 -0.2807 -0.2023
 8779SOL    HW137970   0.937   4.243   0.423 -0.3826 -0.1456  0.6502
 8779SOL    HW237971   0.868   4.109   0.437 -0.3002 -0.0837  0.0611
 8780SOL     OW37972   0.179   1.356   5.894  0.1946 -0.8183  0.0227
 8780SOL    HW137973   0.110   1.417   5.920  1.2261  0.3422  0.0092
 8780SOL    HW237974   0.135   1.317   5.818 -2.0480  0.6706  0.5578
 8781SOL     OW37975   0.088   4.328   2.586  0.6939 -0.1237 -0.2579
 8781SOL    HW137976   0.054   4.252   2.632  0.1068  0.9327  1.0540
 8781SOL    HW237977   0.053   4.401   2.637  0.1727 -0.7232  0.2475
 8782SOL     OW37978   4.177   0.508   9.206 -0.1861 -0.2505  0.1731
 8782SOL    HW137979   4.273   0.501   9.207 -0.2862 -1.4679  0.0405
 8782SOL    HW237980   4.160   0.558   9.125  0.8871  0.4049  0.3451
 8783SOL     OW37981   1.575   2.700  13.815 -0.0256 -0.2668 -0.1983
 8783SOL    HW137982   1.535   2.691  13.728 -1.9131  2.0144  0.4420
 8783SOL    HW237983   1.663   2.706  13.777 -0.1077 -0.2939 -0.3942
 8784SOL     OW37984   3.803   1.784   3.927 -0.1896  0.0998 -0.1776
 8784SOL    HW137985   3.873   1.821   3.873  1.3619 -0.4985  1.4416
 8784SOL    HW237986   3.845   1.722   3.986  0.0630  0.1410 -0.3138
 8785SOL     OW37987   2.783   3.230   3.818 -0.5808  0.1494 -0.5641
 8785SOL    HW137988   2.744   3.318   3.820 -0.1782  0.2757  1.4082
 8785SOL    HW237989   2.711   3.183   3.776  1.3814 -2.0395 -1.4980
 8786SOL     OW37990   0.353   3.299   1.539  0.0047  0.2062  1.2387
 8786SOL    HW137991   0.318   3.235   1.601  1.3982 -1.7331  0.0341
 8786SOL    HW237992   0.294   3.374   1.538 -0.2685 -0.0070  1.3255
 8787SOL     OW37993   0.812   2.625   2.820 -0.5308 -0.5890 -0.0356
 8787SOL    HW137994   0.781   2.679   2.748  0.2618 -0.8148 -0.5485
 8787SOL    HW237995   0.830   2.538   2.783  1.7244 -0.4365  0.6839
 8788SOL     OW37996   3.719   1.321   7.585 -0.2222  0.3104  0.3189
 8788SOL    HW137997   3.783   1.382   7.621  1.2422 -0.9563 -0.1146
 8788SOL    HW237998   3.670   1.382   7.530 -0.6490 -0.0778  0.2635
 8789SOL     OW37999   2.023   3.712  13.040  0.6089  0.4411 -0.0487
 8789SOL    HW138000   1.971   3.721  12.960  0.6735 -0.6522 -0.2179
 8789SOL    HW238001   2.101   3.763  13.020  0.4285  1.3552  1.5278
 8790SOL     OW38002   1.661   0.369   6.144 -0.0726  0.0665  0.0543
 8790SOL    HW138003   1.574   0.389   6.177 -0.2708 -0.8062  0.0616
 8790SOL    HW238004   1.633   0.324   6.064  0.9704 -0.4718 -0.0072
 8791SOL     OW38005   0.384   1.889   7.097  0.1233  0.3725  0.0091
 8791SOL    HW138006   0.346   1.973   7.124  3.6981  1.7451  0.9138
 8791SOL    HW238007   0.472   1.892   7.136  0.7378  3.6692 -1.5569
 8792SOL     OW38008   3.369   1.058   3.997 -0.2441  0.3829  0.2044
 8792SOL    HW138009   3.289   1.095   4.033 -0.4627  0.6893 -0.5864
 8792SOL    HW238010   3.385   0.981   4.051 -2.6370 -0.7655 -0.7302
 8793SOL     OW38011   4.734   0.265   7.025 -0.0701  0.3518  0.4383
 8793SOL    HW138012   4.638   0.264   7.024 -0.0623  0.3960 -2.2906
 8793SOL    HW238013   0.008   0.281   7.119  0.0616 -0.5544  0.5784
 8794SOL     OW38014   3.903   2.752   4.148  0.6951  0.1301 -0.1832
 8794SOL    HW138015   3.924   2.772   4.057 -1.7722  0.5259 -0.6613
 8794SOL    HW238016   3.827   2.809   4.160  0.6750  0.2032 -0.6348
 8795SOL     OW38017   0.878   1.036   0.436  0.5001 -0.0043 -0.6169
 8795SOL    HW138018   0.840   1.053   0.350 -3.4188 -0.6246  0.9739
 8795SOL    HW238019   0.832   0.958   0.467 -0.2279  0.4293 -0.5989
 8796SOL     OW38020   1.032   0.514   4.430  0.5674 -0.5660  0.4053
 8796SOL    HW138021   1.002   0.602   4.403  1.5640 -0.3243  0.0877
 8796SOL    HW238022   1.110   0.552   4.470 -0.2152  1.7155 -0.1933
 8797SOL     OW38023   3.502   3.384   6.172 -0.1929  0.0292  0.0714
 8797SOL    HW138024   3.450   3.387   6.252  3.6163  0.0604  2.5730
 8797SOL    HW238025   3.441   3.415   6.105 -1.5347  0.0353  1.2925
 8798SOL     OW38026   0.114   2.134   2.933 -0.2228 -0.3349 -0.2365
 8798SOL    HW138027   0.117   2.177   3.018  1.6502  1.4472 -1.2225
 8798SOL    HW238028   0.202   2.099   2.920  0.5642  1.3959  0.4338
 8799SOL     OW38029   0.877   0.321   3.943 -0.2601  0.4803  0.1227
 8799SOL    HW138030   0.837   0.244   3.903 -0.4235 -0.2030  1.5912
 8799SOL    HW238031   0.843   0.314   4.032 -1.2254 -1.7742 -0.4200
 8800SOL     OW38032   3.239   4.006  16.796  0.2230 -0.0300 -0.5024
 8800SOL    HW138033   3.227   3.966  16.710  1.3474  0.3820 -0.8583
 8800SOL    HW238034   3.324   4.051  16.793 -0.0193  0.4092 -0.7100
 8801SOL     OW38035   3.059   0.560   9.766 -0.2322 -0.4214  0.1102
 8801SOL    HW138036   3.057   0.597   9.677  1.2724 -0.1987  0.1718
 8801SOL    HW238037   3.117   0.619   9.814 -0.1882 -2.0583  2.0491
 8802SOL     OW38038   0.933   1.488   9.420  0.1026 -0.6823  0.5759
 8802SOL    HW138039   0.920   1.442   9.337  0.2056 -0.1819  0.2796
 8802SOL    HW238040   1.016   1.457   9.456  0.5651 -1.3669 -1.0850
 8803SOL     OW38041   0.922   1.112   3.220  0.1112  0.0976  0.2341
 8803SOL    HW138042   1.003   1.101   3.169  0.0195 -1.1665  0.3686
 8803SOL    HW238043   0.965   1.140   3.301  0.3521 -1.3189  0.5896
 8804SOL     OW38044   0.890   4.473   4.292 -0.2887 -0.0973  0.1785
 8804SOL    HW138045   0.879   4.565   4.314 -0.4658 -0.3449  1.0980
 8804SOL    HW238046   0.973   4.476   4.243 -0.1358  0.3802  0.4673
 8805SOL     OW38047   4.135   1.100   8.991  0.0318  0.2514 -0.1057
 8805SOL    HW138048   4.131   1.143   8.906  2.3392  0.3860 -0.1424
 8805SOL    HW238049   4.091   1.016   8.976  0.0017  0.3961 -0.7841
 8806SOL     OW38050   2.473   3.859   5.182 -0.1479 -0.4373  0.3493
 8806SOL    HW138051   2.456   3.894   5.270 -1.7116  1.1595 -0.5916
 8806SOL    HW238052   2.417   3.782   5.186 -0.3341 -0.2066  2.2379
 8807SOL     OW38053   0.569   0.437   4.905  0.0237 -0.1543  0.5073
 8807SOL    HW138054   0.478   0.451   4.878 -0.4554  2.9565  3.8050
 8807SOL    HW238055   0.571   0.504   4.974  1.4618 -0.6999  0.9804
 8808SOL     OW38056   0.112   4.525   8.382  0.1496 -0.2203  0.6405
 8808SOL    HW138057   0.154   4.450   8.340 -2.5212 -0.5195 -1.5120
 8808SOL    HW238058   0.041   4.557   8.327 -0.5124 -1.2657  0.8715
 8809SOL     OW38059   1.450   3.634   8.255  0.1106 -0.2281  0.0681
 8809SOL    HW138060   1.498   3.716   8.241  0.4282 -0.2923  0.8245
 8809SOL    HW238061   1.521   3.572   8.237  1.6579  1.4164  0.5420
 8810SOL     OW38062   0.031   0.988   5.903 -0.1431  0.6195  0.4383
 8810SOL    HW138063   4.682   0.961   5.869  0.7626 -3.0677  1.0687
 8810SOL    HW238064   0.060   1.059   5.846 -1.5935  0.9481  0.1193
 8811SOL     OW38065   1.139   3.651   1.804  0.1323 -0.4689 -0.4113
 8811SOL    HW138066   1.139   3.715   1.874  0.5297 -0.4571 -0.4201
 8811SOL    HW238067   1.109   3.695   1.725  1.3952  1.5397  0.2323
 8812SOL     OW38068   0.303   0.894   4.394 -0.1649 -0.4329  0.1581
 8812SOL    HW138069   0.210   0.914   4.404 -0.7110 -1.5575 -2.5944
 8812SOL    HW238070   0.299   0.831   4.322 -0.5773 -1.6423  1.2324
 8813SOL     OW38071   0.177   2.326   1.907 -0.0823  0.5166  0.1291
 8813SOL    HW138072   0.264   2.291   1.925  0.6585  2.3186  0.1187
 8813SOL    HW238073   0.177   2.411   1.952 -1.3831  0.5137  0.1286
 8814SOL     OW38074   4.553   2.905   5.799  0.3393 -0.2647  0.1375
 8814SOL    HW138075   4.505   2.824   5.813  0.7412 -0.5424 -0.0930
 8814SOL    HW238076   4.597   2.890   5.715 -0.3491  0.9560 -0.4531
 8815SOL     OW38077   4.009   3.925   0.440  0.2438 -0.5080 -0.1628
 8815SOL    HW138078   4.035   3.919   0.532 -0.5335 -1.2830  0.0073
 8815SOL    HW238079   3.976   4.015   0.446 -3.6934 -1.9416 -0.6675
 8816SOL     OW38080   0.000   3.716   4.609  0.2667 -0.2670 -0.0168
 8816SOL    HW138081   0.080   3.753   4.647 -0.9784  0.9753  1.3652
 8816SOL    HW238082   0.011   3.626   4.639  0.5814  0.4241  1.9185
 8817SOL     OW38083   3.213   1.389   8.228  0.3085 -0.4325  0.1744
 8817SOL    HW138084   3.284   1.379   8.165  2.3134  2.9077  1.9350
 8817SOL    HW238085   3.196   1.295   8.236  2.8907 -0.8630  0.4874
 8818SOL     OW38086   0.406   3.240   6.400 -0.5381 -0.1870  0.2485
 8818SOL    HW138087   0.383   3.188   6.323  1.5584  0.2128 -0.6539
 8818SOL    HW238088   0.491   3.274   6.373  0.3501 -2.3708  0.2642
 8819SOL     OW38089   3.700   0.423  12.743  0.2012  0.1655 -0.3494
 8819SOL    HW138090   3.612   0.461  12.736  0.7671  1.3404 -1.1165
 8819SOL    HW238091   3.679   0.341  12.786  0.6407  0.4429  0.3828
 8820SOL     OW38092   4.660   4.263  13.538  0.2189  0.0025  0.0900
 8820SOL    HW138093   4.691   4.352  13.556 -1.0027  0.4993 -0.2231
 8820SOL    HW238094   4.731   4.206  13.566  0.6740  1.5327  2.0615
 8821SOL     OW38095   1.196   0.486   9.010  0.0185 -0.3081  0.2809
 8821SOL    HW138096   1.164   0.482   9.100 -1.4898  0.7627 -0.2013
 8821SOL    HW238097   1.162   0.412   8.960 -0.1919  1.7542 -2.6308
 8822SOL     OW38098   1.447   2.900   0.538  0.4326  0.1310  0.1998
 8822SOL    HW138099   1.352   2.898   0.543  0.4483 -1.4007 -0.1494
 8822SOL    HW238100   1.472   2.809   0.556 -0.7512 -0.1482  0.4069
 8823SOL     OW38101   0.400   1.352  12.704  0.8698 -0.2369  0.2070
 8823SOL    HW138102   0.353   1.270  12.687  0.8795 -0.1601 -0.1877
 8823SOL    HW238103   0.335   1.423  12.708  0.8990 -0.2548  1.1339
 8824SOL     OW38104   2.621   2.170   1.515 -0.2689 -0.2186 -0.1187
 8824SOL    HW138105   2.632   2.094   1.572  0.9807 -0.0854 -0.1812
 8824SOL    HW238106   2.537   2.146   1.475  0.0877 -1.7512  0.0556
 8825SOL     OW38107   0.008   0.144  10.264  0.3001 -0.0304 -0.3614
 8825SOL    HW138108   0.095   0.183  10.275  0.6838 -0.5883 -1.4014
 8825SOL    HW238109   4.726   0.107  10.350 -0.5940  0.4903 -0.3292
 8826SOL     OW38110   1.247   2.659   8.870  0.5132  0.0438 -0.3639
 8826SOL    HW138111   1.320   2.598   8.857 -0.2037 -0.6975 -0.9120
 8826SOL    HW238112   1.304   2.734   8.886 -1.6373  1.8775 -1.3399
 8827SOL     OW38113   3.327   4.624  12.768 -0.1501  0.0596  0.0408
 8827SOL    HW138114   3.331   4.706  12.818 -1.2449 -0.0458  0.3044
 8827SOL    HW238115   3.417   4.599  12.787 -0.0618  0.9824  0.8665
 8828SOL     OW38116   1.195   0.744  11.065 -0.1805  0.5187 -0.1272
 8828SOL    HW138117   1.174   0.680  11.133  1.5714 -0.2665 -0.3300
 8828SOL    HW238118   1.125   0.806  11.086 -0.6234 -0.3624  1.0258
 8829SOL     OW38119   3.258   2.201   6.566  0.6762  0.1751  0.4298
 8829SOL    HW138120   3.280   2.198   6.659  0.1745  0.3078  0.5482
 8829SOL    HW238121   3.163   2.209   6.574  0.7896 -2.7100  4.3684
 8830SOL     OW38122   2.789   4.502  17.712 -0.2842  0.2777  0.0973
 8830SOL    HW138123   2.870   4.552  17.701  0.6781 -1.3729 -0.1582
 8830SOL    HW238124   2.832   4.427   0.009 -2.8941  0.0918  2.4992
 8831SOL     OW38125   3.389   2.558   8.278  0.0373 -0.5530 -0.1518
 8831SOL    HW138126   3.340   2.481   8.247 -5.1472  2.4247  0.6114
 8831SOL    HW238127   3.324   2.628   8.280 -0.7666 -1.3332  1.7967
 8832SOL     OW38128   3.934   4.288  11.207 -0.5975  0.1063  0.1363
 8832SOL    HW138129   4.020   4.251  11.227 -0.0339  1.2314 -0.1978
 8832SOL    HW238130   3.908   4.234  11.132  0.5037  0.8510 -0.7801
 8833SOL     OW38131   3.471   0.876   8.359 -0.4744  0.0065  0.2589
 8833SOL    HW138132   3.510   0.945   8.413 -2.8343  1.4069  0.1805
 8833SOL    HW238133   3.532   0.857   8.287 -0.0011 -1.7610  1.1264
 8834SOL     OW38134   3.402   0.159   4.444 -0.2248  1.0714  0.4047
 8834SOL    HW138135   3.360   0.075   4.428  1.4557  0.0301  1.4659
 8834SOL    HW238136   3.483   0.147   4.394  0.0092 -1.0607  1.3077
 8835SOL     OW38137   2.045   2.951  17.680 -0.0041  0.2244 -0.4735
 8835SOL    HW138138   2.004   2.958  17.594  1.1515  0.9426 -0.9744
 8835SOL    HW238139   1.968   2.987  17.724 -0.8858 -1.7243 -0.4224
 8836SOL     OW38140   3.149   0.314   3.184 -0.1262 -0.0356  0.2415
 8836SOL    HW138141   3.228   0.366   3.203  0.8055 -0.8766 -1.3286
 8836SOL    HW238142   3.182   0.225   3.194 -1.1577 -0.3539  0.7113
 8837SOL     OW38143   3.988   3.815   6.054 -0.5554 -0.4765  0.2874
 8837SOL    HW138144   3.903   3.797   6.014  1.1653 -2.1219 -2.6234
 8837SOL    HW238145   4.044   3.785   5.982  1.1617 -0.1116  1.4612
 8838SOL     OW38146   3.349   3.912  10.356 -0.7389  0.1146  0.1767
 8838SOL    HW138147   3.423   3.971  10.338 -0.6266  0.4000  1.5247
 8838SOL    HW238148   3.301   3.978  10.406  1.9134  2.1099  0.1307
 8839SOL     OW38149   4.086   0.163   0.055 -0.6479 -0.2173 -0.0714
 8839SOL    HW138150   4.068   0.126   0.142  2.1548 -1.1309  0.1377
 8839SOL    HW238151   4.168   0.119   0.031 -0.6038  0.6082 -1.4143
 8840SOL     OW38152   1.224   3.915   8.932  0.3762 -0.1496 -0.3731
 8840SOL    HW138153   1.144   3.865   8.913  0.4036  0.0440 -0.9670
 8840SOL    HW238154   1.186   3.994   8.969  0.3840  0.3729 -1.4847
 8841SOL     OW38155   1.471   3.397  16.992  0.6152 -0.1470  0.6094
 8841SOL    HW138156   1.458   3.308  16.958  0.3288 -1.2932  3.7133
 8841SOL    HW238157   1.467   3.454  16.915  0.9555 -1.3718 -0.3141
 8842SOL     OW38158   1.181   4.732   4.936  0.1530  0.1060  0.0385
 8842SOL    HW138159   1.134   4.655   4.906 -2.2904  1.6300 -0.0966
 8842SOL    HW238160   1.141   0.060   4.877  0.2094 -2.0990 -2.3579
 8843SOL     OW38161   4.566   0.997  13.730 -1.0019  0.2167 -0.0667
 8843SOL    HW138162   4.493   1.037  13.777  0.2620  0.2725  1.8691
 8843SOL    HW238163   4.635   1.019  13.792 -0.2305  2.0090 -1.5503
 8844SOL     OW38164   3.730   2.316   1.596  0.0893 -0.3618 -0.5593
 8844SOL    HW138165   3.764   2.288   1.511  0.1556 -0.8376 -0.3729
 8844SOL    HW238166   3.808   2.289   1.644 -1.6333  0.1270  2.5371
 8845SOL     OW38167   0.327   4.295   7.414  0.1268 -0.6287 -0.1657
 8845SOL    HW138168   0.398   4.236   7.387 -0.6377 -0.9278 -1.5164
 8845SOL    HW238169   0.372   4.349   7.479  2.6979 -0.5028 -2.0123
 8846SOL     OW38170   0.049   1.773   8.938  0.4258 -0.7309 -0.0999
 8846SOL    HW138171   0.111   1.803   9.005  0.9376 -2.4046  0.1943
 8846SOL    HW238172   4.707   1.783   8.993  1.0813 -0.6242  0.8118
 8847SOL     OW38173   1.106   4.656  16.565 -0.2803  0.7167 -0.5571
 8847SOL    HW138174   1.012   4.672  16.568 -0.5885 -1.5314  1.6235
 8847SOL    HW238175   1.144   4.724  16.622  0.3859  0.1638 -0.3432
 8848SOL     OW38176   0.783   3.991   4.412  0.4375 -0.2231  0.8816
 8848SOL    HW138177   0.824   3.997   4.326 -1.9966  1.2969 -0.1585
 8848SOL    HW238178   0.742   3.905   4.401 -0.3375  0.1251  1.0222
 8849SOL     OW38179   2.433   0.210   8.044  0.1032 -0.0965  0.2838
 8849SOL    HW138180   2.366   0.212   7.976  1.2954  2.7241 -0.8416
 8849SOL    HW238181   2.384   0.175   8.118 -0.5996  1.0749  0.3730
 8850SOL     OW38182   0.600   3.112  16.398 -0.1369 -0.0225 -0.1256
 8850SOL    HW138183   0.640   3.145  16.479  3.4707 -3.4717 -0.5291
 8850SOL    HW238184   0.571   3.027  16.430  2.3905 -1.2094 -1.0520
 8851SOL     OW38185   2.386   2.840  16.237  0.1239  0.4747 -0.0891
 8851SOL    HW138186   2.350   2.897  16.305 -1.5152  0.0910 -0.6503
 8851SOL    HW238187   2.464   2.894  16.224  1.3266 -0.8931  1.3910
 8852SOL     OW38188   3.745   1.255  10.328 -0.0296 -0.7496  0.2765
 8852SOL    HW138189   3.779   1.319  10.265  0.8281 -1.1775  0.2995
 8852SOL    HW238190   3.657   1.283  10.354  0.5113 -0.4087  1.7627
 8853SOL     OW38191   4.525   2.665   2.329 -0.4227 -0.1799 -0.5938
 8853SOL    HW138192   4.486   2.715   2.257 -0.5874  0.7685  0.1614
 8853SOL    HW238193   4.452   2.604   2.340  0.3244 -0.7598  1.2554
 8854SOL     OW38194   3.806   2.711  16.277  0.5415  0.2606  0.8371
 8854SOL    HW138195   3.719   2.687  16.246 -0.5575  2.3108  2.3371
 8854SOL    HW238196   3.836   2.754  16.197  0.1228 -1.8788 -0.4779
 8855SOL     OW38197   1.078   3.214   8.276 -0.3277 -0.0567  0.3698
 8855SOL    HW138198   1.142   3.154   8.239 -1.6581 -1.1187 -0.2002
 8855SOL    HW238199   1.084   3.288   8.215  0.0963  0.9522  1.6081
 8856SOL     OW38200   2.222   4.722   2.374 -0.0958  0.1573  0.1381
 8856SOL    HW138201   2.273   0.061   2.407  0.7748  0.0994 -1.0722
 8856SOL    HW238202   2.151   0.040   2.338  0.3850  0.7605  0.0851
 8857SOL     OW38203   2.126   1.097   8.765 -0.0871  0.2303  0.1988
 8857SOL    HW138204   2.034   1.071   8.752 -0.1661  2.0642 -2.8487
 8857SOL    HW238205   2.152   1.142   8.685  1.7126 -3.3254 -1.1930
 8858SOL     OW38206   2.622   2.308   7.263  0.0842 -0.2246 -0.3908
 8858SOL    HW138207   2.563   2.233   7.253 -0.4386 -0.1627  2.1953
 8858SOL    HW238208   2.661   2.292   7.349 -3.1386  1.3221  1.3796
 8859SOL     OW38209   0.386   0.495  13.996 -0.2282 -0.1712 -0.3183
 8859SOL    HW138210   0.390   0.567  13.933  1.9354 -1.2188 -1.3942
 8859SOL    HW238211   0.310   0.521  14.047  0.4328 -1.2156  1.2059
 8860SOL     OW38212   3.337   1.597   8.342 -0.0168  0.9425  0.2730
 8860SOL    HW138213   3.274   1.661   8.374 -0.5653  0.3777  0.3336
 8860SOL    HW238214   3.272   1.532   8.316  2.0290  0.2977 -3.2659
 8861SOL     OW38215   3.892   3.862   8.528 -0.3401 -0.0547  0.8257
 8861SOL    HW138216   3.945   3.875   8.449 -1.2944  0.9245  0.3350
 8861SOL    HW238217   3.867   3.771   8.517  1.1142 -0.5522  1.5966
 8862SOL     OW38218   0.355   3.644   4.605  0.0175  0.2853  0.2039
 8862SOL    HW138219   0.305   3.626   4.526  1.3073 -2.0135 -0.0982
 8862SOL    HW238220   0.319   3.729   4.631 -1.0751 -0.0971 -0.0343
 8863SOL     OW38221   2.401   1.171   4.213 -0.0302  0.8506 -0.6984
 8863SOL    HW138222   2.493   1.167   4.190  0.1985 -0.5042  0.4239
 8863SOL    HW238223   2.397   1.078   4.238 -1.4789  1.1808  0.3257
 8864SOL     OW38224   4.680   0.844   5.232  0.0373 -0.3597  0.0417
 8864SOL    HW138225   4.731   0.856   5.152 -0.4600 -0.0019 -0.2223
 8864SOL    HW238226   4.603   0.893   5.201  0.7514 -0.8367 -2.5019
 8865SOL     OW38227   1.619   0.098   1.064 -0.2558 -0.5669  0.2271
 8865SOL    HW138228   1.616   0.020   1.008 -0.4706 -1.0014  0.8509
 8865SOL    HW238229   1.568   0.155   1.006  1.1155  0.4183  0.0099
 8866SOL     OW38230   0.551   0.176  16.822  0.0984 -0.4516 -0.2341
 8866SOL    HW138231   0.567   0.249  16.882  0.3247  1.1584 -2.2496
 8866SOL    HW238232   0.634   0.129  16.825 -0.0793 -0.8033 -1.0930
 8867SOL     OW38233   3.260   4.551   3.990  0.6632  0.0424  0.6014
 8867SOL    HW138234   3.183   4.606   4.004 -0.5126 -1.4886  0.1706
 8867SOL    HW238235   3.281   4.526   4.081 -0.0042  0.4282  0.8564
 8868SOL     OW38236   4.576   2.218  17.629  0.3881 -0.0099 -0.4212
 8868SOL    HW138237   4.492   2.237  17.587 -0.2871  0.7593  1.3266
 8868SOL    HW238238   4.631   2.292  17.604  0.1853  0.6044  0.9718
 8869SOL     OW38239   4.599   0.265   0.532 -0.6500 -0.3734 -0.4564
 8869SOL    HW138240   4.688   0.294   0.551 -2.4335  3.8556  1.4692
 8869SOL    HW238241   4.617   0.199   0.467 -1.4877 -2.7586  1.7287
 8870SOL     OW38242   3.783   2.047   2.513 -0.9042 -0.2334  0.4377
 8870SOL    HW138243   3.792   2.139   2.538  0.7264 -0.3745  0.4052
 8870SOL    HW238244   3.873   2.025   2.538 -1.2309 -1.9383  0.0966
 8871SOL     OW38245   0.168   2.490   0.800  0.0990  0.1745 -0.1492
 8871SOL    HW138246   0.131   2.495   0.888  0.3226  0.3976 -0.0690
 8871SOL    HW238247   0.105   2.439   0.750  0.3106 -0.5416  0.3068
 8872SOL     OW38248   2.574   3.359  11.612 -0.1683 -0.1402  0.2402
 8872SOL    HW138249   2.503   3.322  11.560 -0.1847  1.0255 -0.5640
 8872SOL    HW238250   2.611   3.426  11.554 -0.3697 -0.9005 -0.7838
 8873SOL     OW38251   4.519   4.062   5.615  0.0358  0.2997 -0.2957
 8873SOL    HW138252   4.517   4.097   5.703 -0.0028 -1.8202  0.5450
 8873SOL    HW238253   4.425   4.047   5.600  0.0218  0.3841 -0.2922
 8874SOL     OW38254   4.143   1.387   4.142 -0.6659 -0.1136 -0.2873
 8874SOL    HW138255   4.235   1.413   4.134 -1.0711  1.1439 -0.9377
 8874SOL    HW238256   4.127   1.417   4.231 -2.0324 -0.2702 -0.4877
 8875SOL     OW38257   2.246   0.540   6.962  0.0627 -0.6883  0.4467
 8875SOL    HW138258   2.199   0.502   7.036 -2.0403 -0.1702 -0.6238
 8875SOL    HW238259   2.178   0.563   6.899  0.4073 -0.6325  0.0920
 8876SOL     OW38260   0.715   4.389   7.709  0.3031  0.0341  0.3700
 8876SOL    HW138261   0.738   4.301   7.738  2.4274 -0.0467 -1.6038
 8876SOL    HW238262   0.659   4.371   7.634  0.5590 -2.6479  0.8206
 8877SOL     OW38263   1.618   0.932   0.856 -0.8793  0.4885  0.3294
 8877SOL    HW138264   1.658   1.013   0.823  0.5558  0.2797  1.5654
 8877SOL    HW238265   1.676   0.862   0.826 -0.0433  0.6011  1.6875
 8878SOL     OW38266   4.601   1.788   3.711  0.5850 -0.3346  0.1859
 8878SOL    HW138267   4.551   1.745   3.641  0.5948 -1.2300  0.7242
 8878SOL    HW238268   4.668   1.822   3.653  0.6287 -0.8814 -0.0881
 8879SOL     OW38269   1.133   4.061   7.583  0.3672  0.3162 -0.7206
 8879SOL    HW138270   1.209   4.022   7.626 -1.4164 -1.6995  0.5962
 8879SOL    HW238271   1.145   4.019   7.498 -2.7439 -2.9160  0.4517
 8880SOL     OW38272   1.011   4.559  14.655 -0.1152  0.4091  0.0236
 8880SOL    HW138273   1.078   4.523  14.714 -0.5403 -0.4863 -0.0318
 8880SOL    HW238274   1.069   4.577  14.582 -0.2574 -1.3012 -0.5220
 8881SOL     OW38275   3.216   2.514  17.269 -0.1910  0.7345  0.0440
 8881SOL    HW138276   3.144   2.561  17.227  0.4960 -0.6741 -2.7116
 8881SOL    HW238277   3.263   2.480  17.193  0.3650  0.0869  0.6715
 8882SOL     OW38278   0.709   0.500   7.570  0.0226  0.3211 -0.1740
 8882SOL    HW138279   0.795   0.473   7.539  0.0989 -0.4318  0.6794
 8882SOL    HW238280   0.738   0.582   7.611  2.0699  0.5715 -2.1503
 8883SOL     OW38281   3.147   0.447   6.596 -0.3586 -0.4538 -0.4366
 8883SOL    HW138282   3.068   0.422   6.549 -0.3096  0.3709 -0.9597
 8883SOL    HW238283   3.120   0.520   6.651 -1.9035 -1.0650 -0.3786
 8884SOL     OW38284   4.708   0.066   7.711  0.5488  0.3797  0.0774
 8884SOL    HW138285   4.715   0.017   7.629 -0.4514  0.8328 -0.2744
 8884SOL    HW238286   4.613   0.065   7.722  0.5645  1.7065  0.3740
 8885SOL     OW38287   2.134   1.441   8.965 -0.0689  0.2621 -0.1037
 8885SOL    HW138288   2.055   1.477   9.005 -0.7044  2.0585 -2.9403
 8885SOL    HW238289   2.123   1.347   8.980  1.1825  0.6025  2.8438
 8886SOL     OW38290   1.361   3.327   2.705  0.2345 -0.2788 -0.1397
 8886SOL    HW138291   1.270   3.308   2.686  0.2973 -0.6024 -0.1153
 8886SOL    HW238292   1.350   3.396   2.770 -4.0101  1.3764 -2.6747
 8887SOL     OW38293   1.370   1.108   5.062 -0.3430 -0.4276 -0.2509
 8887SOL    HW138294   1.313   1.185   5.062  0.8819  0.4811  0.4233
 8887SOL    HW238295   1.381   1.091   4.969  0.8726  1.2130 -0.3951
 8888SOL     OW38296   4.700   0.401  16.904  1.0911 -0.0938 -0.1715
 8888SOL    HW138297   4.629   0.359  16.954  1.3978 -1.1077 -0.5799
 8888SOL    HW238298   4.663   0.381  16.818  0.5561 -1.4900  0.3808
 8889SOL     OW38299   2.299   2.236   2.326 -0.4406  0.3011 -0.1699
 8889SOL    HW138300   2.278   2.165   2.387 -0.0902 -0.9395 -1.4922
 8889SOL    HW238301   2.212   2.266   2.300 -0.8130  0.8066  1.6703
 8890SOL     OW38302   1.917   0.054  13.755  0.1926 -0.8105  0.4483
 8890SOL    HW138303   1.830   0.024  13.782 -1.2172  2.1864 -0.7907
 8890SOL    HW238304   1.925   0.129  13.814 -2.0378 -0.4671  0.3214
 8891SOL     OW38305   4.565   4.694   4.591 -0.4644  0.3517 -0.9504
 8891SOL    HW138306   4.609   0.043   4.600  0.2168  0.1122 -1.9910
 8891SOL    HW238307   4.634   4.645   4.546  1.2442 -0.0841  2.1459
 8892SOL     OW38308   1.783   0.579  17.497 -0.0607 -0.1077  0.1109
 8892SOL    HW138309   1.706   0.631  17.474  0.1184 -0.3751 -1.0957
 8892SOL    HW238310   1.857   0.630  17.464  0.1439 -0.1838  0.4535
 8893SOL     OW38311   3.885   3.550  14.074  0.4268 -0.3444 -0.0051
 8893SOL    HW138312   3.977   3.576  14.063  1.0972 -2.6013  0.2717
 8893SOL    HW238313   3.846   3.637  14.064 -0.2247 -0.6662 -0.2187
 8894SOL     OW38314   3.756   3.032   3.192  0.0542  0.2085  0.2160
 8894SOL    HW138315   3.762   3.106   3.253  1.4349  0.5168 -0.2876
 8894SOL    HW238316   3.704   3.069   3.121 -1.6937 -0.5354  1.1226
 8895SOL     OW38317   3.698   0.537   2.271 -0.4969 -0.2932  0.4628
 8895SOL    HW138318   3.637   0.480   2.223 -0.2616  0.0635 -0.2626
 8895SOL    HW238319   3.756   0.467   2.300  0.3176  0.9149  1.7318
 8896SOL     OW38320   1.497   0.584  12.988 -0.4401 -0.4767 -0.7603
 8896SOL    HW138321   1.585   0.604  12.958 -0.0106 -0.3647  0.5443
 8896SOL    HW238322   1.470   0.674  13.008  1.2531  0.3452 -2.1770
 8897SOL     OW38323   4.352   1.627   6.574 -0.1564  0.0157  0.9987
 8897SOL    HW138324   4.397   1.591   6.497  1.1174 -1.1927  2.2994
 8897SOL    HW238325   4.301   1.552   6.605 -1.2464  1.0055  1.5853
 8898SOL     OW38326   1.436   2.236   8.947  0.0536 -0.3623 -0.2627
 8898SOL    HW138327   1.415   2.143   8.941 -1.1157 -0.2043  1.5365
 8898SOL    HW238328   1.461   2.244   9.039  1.5512 -0.2693 -0.6824
 8899SOL     OW38329   2.797   4.019   7.111 -0.1674  0.1335  0.3675
 8899SOL    HW138330   2.702   4.032   7.108 -0.5604 -2.1859  2.4756
 8899SOL    HW238331   2.807   3.961   7.036  1.9021  0.2212  0.5756
 8900SOL     OW38332   4.485   2.683  12.226  0.2649  0.1926 -0.0829
 8900SOL    HW138333   4.559   2.726  12.267 -1.2700  0.5243  2.3484
 8900SOL    HW238334   4.506   2.701  12.134  1.7687  0.6402  0.3563
 8901SOL     OW38335   3.153   3.084   8.873  0.1590  0.0834 -0.2224
 8901SOL    HW138336   3.095   3.158   8.892  1.3728  0.8625  0.4609
 8901SOL    HW238337   3.209   3.099   8.949 -0.9071  0.9453  0.4016
 8902SOL     OW38338   0.551   4.508   6.968 -0.2985 -0.1080  0.6282
 8902SOL    HW138339   0.598   4.440   6.920 -1.0000  1.6484 -2.6240
 8902SOL    HW238340   0.544   4.456   7.048 -1.2335 -3.0969 -1.4110
 8903SOL     OW38341   3.400   3.511   7.447  0.2814 -0.2971  0.8004
 8903SOL    HW138342   3.490   3.479   7.455 -0.3050 -2.5904 -1.8028
 8903SOL    HW238343   3.351   3.433   7.473  1.4244 -1.2966 -0.0327
 8904SOL     OW38344   1.957   0.018   5.168 -0.1418  0.8154  0.2295
 8904SOL    HW138345   1.929   0.109   5.160 -1.8210  0.3952  1.3678
 8904SOL    HW238346   1.897   4.720   5.234  1.0091 -2.9298 -0.6273
 8905SOL     OW38347   4.300   4.650   5.002  0.0894 -0.4875  0.5452
 8905SOL    HW138348   4.257   4.705   5.068 -0.6565  0.7243 -0.9452
 8905SOL    HW238349   4.226   4.658   4.941  0.3973 -1.2689  0.0715
 8906SOL     OW38350   2.420   3.904  12.159 -0.4099  0.1279  0.1603
 8906SOL    HW138351   2.398   3.814  12.134 -1.6255  0.5909 -0.4238
 8906SOL    HW238352   2.347   3.957  12.127  0.0485  1.3525  1.1475
 8907SOL     OW38353   0.754   1.545   9.701  0.4112  0.0543 -0.6485
 8907SOL    HW138354   0.839   1.507   9.722  1.0204  0.9320 -1.5344
 8907SOL    HW238355   0.779   1.634   9.726 -2.0112  0.7850 -0.8400
 8908SOL     OW38356   3.263   0.876  16.690  0.3413  0.0842  0.4294
 8908SOL    HW138357   3.275   0.893  16.783  0.4903 -1.5484  0.6935
 8908SOL    HW238358   3.190   0.815  16.695  1.5163 -1.3736 -0.3992
 8909SOL     OW38359   2.352   4.055  12.454  0.3474  0.3300 -0.1859
 8909SOL    HW138360   2.357   4.145  12.421 -0.3203 -0.1349 -1.5646
 8909SOL    HW238361   2.266   4.024  12.426  1.1442 -1.4545 -0.7129
 8910SOL     OW38362   0.879   0.040   4.510  0.6467  0.4201  0.5132
 8910SOL    HW138363   0.815   0.054   4.581 -0.2981  0.6315 -0.3835
 8910SOL    HW238364   0.915   0.128   4.502 -0.4150  0.8856  0.8904
 8911SOL     OW38365   1.640   4.525   8.850 -0.2589 -0.1156  0.3502
 8911SOL    HW138366   1.575   4.567   8.793  0.9794 -0.5636 -1.4011
 8911SOL    HW238367   1.690   4.594   8.892  0.8743 -0.0990 -1.0462
 8912SOL     OW38368   2.846   4.167  11.557  0.2124 -0.1086 -0.1952
 8912SOL    HW138369   2.843   4.096  11.493  0.3349  0.8604 -1.2679
 8912SOL    HW238370   2.768   4.151  11.610  0.0420 -0.2871 -0.5045
 8913SOL     OW38371   3.825   0.078   6.327 -0.6248 -0.1018  0.1439
 8913SOL    HW138372   3.871   0.053   6.406 -1.0289 -0.3779  0.2928
 8913SOL    HW238373   3.736   0.060   6.358 -1.5906  1.5929 -1.6386
 8914SOL     OW38374   2.415   3.324  15.211  0.4982  0.1837  0.1142
 8914SOL    HW138375   2.384   3.320  15.120  0.6244  1.6329  0.0110
 8914SOL    HW238376   2.504   3.349  15.188  0.9113 -1.1308  0.2565
 8915SOL     OW38377   2.849   0.632   6.157 -0.5596  0.6852 -0.2411
 8915SOL    HW138378   2.785   0.584   6.210 -1.2101 -0.1902 -1.8306
 8915SOL    HW238379   2.857   0.712   6.209 -1.5814  2.0330 -2.1585
 8916SOL     OW38380   1.156   4.720   5.218  0.0919  0.5730  0.3159
 8916SOL    HW138381   1.118   0.071   5.231 -0.1242  0.7189 -1.3565
 8916SOL    HW238382   1.182   4.729   5.127 -2.0165  0.0335 -0.3205
 8917SOL     OW38383   4.500   0.659   1.382  0.3059 -0.1491 -0.3638
 8917SOL    HW138384   4.538   0.732   1.430 -0.4236  0.9293 -1.4187
 8917SOL    HW238385   4.409   0.670   1.411 -0.2495 -0.1210 -2.0998
 8918SOL     OW38386   4.245   2.573   3.200  0.2893 -0.0132  0.0765
 8918SOL    HW138387   4.314   2.606   3.257 -0.7128  0.6081  0.9424
 8918SOL    HW238388   4.237   2.485   3.237 -1.1896 -0.7811 -2.0832
 8919SOL     OW38389   1.475   3.433  17.373  0.2487  0.3217  0.3913
 8919SOL    HW138390   1.450   3.505  17.431 -1.6402 -2.0551  2.5173
 8919SOL    HW238391   1.407   3.438  17.306  0.0784  3.3506  0.8057
 8920SOL     OW38392   2.599   2.973   4.425  0.6477 -0.4525 -0.2658
 8920SOL    HW138393   2.547   2.906   4.381  0.7195  0.7342 -2.1394
 8920SOL    HW238394   2.643   2.922   4.493 -1.3420 -3.8519 -1.5530
 8921SOL     OW38395   0.336   2.988   9.208  0.0856  0.3945  0.5594
 8921SOL    HW138396   0.349   2.913   9.266  0.4078  0.1683  0.1929
 8921SOL    HW238397   0.241   2.995   9.197 -0.1141 -1.8162  0.8944
 8922SOL     OW38398   0.244   0.261  10.404  0.2547  0.4342 -0.0231
 8922SOL    HW138399   0.286   0.343  10.377  0.6395  0.6381  1.1970
 8922SOL    HW238400   0.242   0.282  10.497 -1.3125  0.4824 -0.0655
 8923SOL     OW38401   3.593   4.100  17.258 -0.5213 -0.4771 -0.0887
 8923SOL    HW138402   3.508   4.138  17.236 -0.1688 -0.2452 -1.0467
 8923SOL    HW238403   3.589   4.033  17.190 -1.2665  0.1509 -0.6803
 8924SOL     OW38404   3.203   2.155   0.731  0.5861 -0.7121 -0.1201
 8924SOL    HW138405   3.206   2.229   0.791 -1.3302  0.1922 -1.1363
 8924SOL    HW238406   3.173   2.084   0.788  0.0127 -0.1986  0.2204
 8925SOL     OW38407   1.687   3.700   8.978  0.2457 -0.0628 -0.7224
 8925SOL    HW138408   1.660   3.749   9.055  0.6896 -1.4287  0.3001
 8925SOL    HW238409   1.619   3.726   8.917  1.0213 -0.7180 -1.8753
 8926SOL     OW38410   3.307   3.714   4.686 -0.1548 -0.1902  0.1618
 8926SOL    HW138411   3.358   3.639   4.716  0.8003  0.6255  0.6303
 8926SOL    HW238412   3.350   3.783   4.738 -1.7138  0.5238  0.5205
 8927SOL     OW38413   0.363   2.379   7.185 -0.0051  0.4261  0.0575
 8927SOL    HW138414   0.275   2.413   7.170 -0.0554  0.9568  1.5703
 8927SOL    HW238415   0.396   2.362   7.097 -2.1656 -2.0792 -0.2762
 8928SOL     OW38416   3.077   1.055   2.640 -0.2675  0.0917  0.4951
 8928SOL    HW138417   3.046   1.079   2.727 -1.3149  0.2597  0.0745
 8928SOL    HW238418   3.079   0.960   2.643  0.1561  0.0551 -0.7906
 8929SOL     OW38419   3.948   0.813  10.511 -0.2310 -0.3205  0.7703
 8929SOL    HW138420   3.918   0.768  10.590 -0.0924  0.3416  1.1930
 8929SOL    HW238421   3.861   0.825  10.474 -0.0695 -1.8602 -0.1237
 8930SOL     OW38422   0.405   2.400   8.451 -0.7265  0.4987 -0.2820
 8930SOL    HW138423   0.344   2.339   8.409 -0.6453  0.9312 -1.0230
 8930SOL    HW238424   0.438   2.342   8.520 -1.9591 -0.6092 -0.6263
 8931SOL     OW38425   0.650   3.221   2.693  0.4928  0.4985 -0.2021
 8931SOL    HW138426   0.619   3.179   2.612  0.6867  0.2147 -0.1286
 8931SOL    HW238427   0.613   3.162   2.759  0.0602  0.8692 -0.1142
 8932SOL     OW38428   2.779   0.328  13.433 -0.3682 -0.0181  0.3466
 8932SOL    HW138429   2.805   0.272  13.360  2.6667  0.5954  0.9537
 8932SOL    HW238430   2.817   0.282  13.508  0.1948 -0.9394 -0.5105
 8933SOL     OW38431   0.829   1.952   5.493  0.4390 -0.2690 -0.3814
 8933SOL    HW138432   0.814   1.960   5.587  1.3332  0.2274 -0.2763
 8933SOL    HW238433   0.753   1.994   5.452 -1.6495 -1.6445  2.1403
 8934SOL     OW38434   1.331   0.848   6.990  0.1984  0.2610 -0.0281
 8934SOL    HW138435   1.261   0.912   7.001 -1.4294 -1.4509 -0.3799
 8934SOL    HW238436   1.355   0.825   7.080 -1.9239 -1.2958  0.1378
 8935SOL     OW38437   3.365   2.667  16.555  0.0314 -0.0398  0.0046
 8935SOL    HW138438   3.457   2.654  16.533  0.4044  0.8558  1.0740
 8935SOL    HW238439   3.329   2.658  16.467  0.2244 -1.6874  0.1082
 8936SOL     OW38440   1.625   3.408  16.196  0.4544 -0.3002 -0.3552
 8936SOL    HW138441   1.637   3.396  16.101  0.5518 -0.0311 -0.3758
 8936SOL    HW238442   1.536   3.376  16.211 -0.2186  0.9336 -1.6789
 8937SOL     OW38443   0.473   3.242   4.127 -0.0056 -0.1993  0.5079
 8937SOL    HW138444   0.414   3.316   4.110  1.1169  0.3600 -0.9725
 8937SOL    HW238445   0.532   3.261   4.053 -1.5582 -0.0107 -0.6757
 8938SOL     OW38446   0.347   2.225   7.553  0.0035  0.1192  0.4069
 8938SOL    HW138447   0.260   2.255   7.530  0.0096 -1.3951 -1.5542
 8938SOL    HW238448   0.401   2.296   7.517  1.4795 -1.0390  0.3320
 8939SOL     OW38449   2.604   4.334  17.584  0.0954  0.7139  0.6167
 8939SOL    HW138450   2.636   4.357  17.497 -1.1907  0.7565  0.1440
 8939SOL    HW238451   2.660   4.388  17.640  1.2392  0.2991 -0.1237
 8940SOL     OW38452   0.253   4.599  13.553  0.0669 -0.8355  0.4575
 8940SOL    HW138453   0.314   4.583  13.625  0.4911 -1.5168 -0.0524
 8940SOL    HW238454   0.192   4.659  13.597  1.4823  0.8088  0.1710
 8941SOL     OW38455   2.269   2.686   6.627 -0.4134  0.3005 -0.2936
 8941SOL    HW138456   2.176   2.707   6.619 -0.3907 -0.0071 -1.3259
 8941SOL    HW238457   2.275   2.592   6.647  2.4180  0.5410 -0.0016
 8942SOL     OW38458   2.698   1.063   9.381  0.0235  0.3579 -0.3190
 8942SOL    HW138459   2.688   0.983   9.433  1.8474  0.5835  0.3653
 8942SOL    HW238460   2.782   1.090   9.417 -0.8008  2.3287  0.1187
 8943SOL     OW38461   3.523   4.517   2.088  0.0694  0.2004 -0.0599
 8943SOL    HW138462   3.453   4.515   2.153  1.3798  0.8644  1.3975
 8943SOL    HW238463   3.589   4.569   2.133  1.6837 -1.7947 -0.0887
 8944SOL     OW38464   2.514   4.139   5.137 -0.2957  0.0078 -0.1340
 8944SOL    HW138465   2.509   4.144   5.042 -0.9732  0.6416 -0.0677
 8944SOL    HW238466   2.520   4.047   5.162  0.7804  0.1532  0.1353
 8945SOL     OW38467   2.182   2.924   6.388  0.4101 -0.5607  0.1544
 8945SOL    HW138468   2.135   2.856   6.436 -1.8816 -0.1177 -1.4470
 8945SOL    HW238469   2.196   2.990   6.456 -0.4177  0.8953 -1.0717
 8946SOL     OW38470   1.087   2.037   5.727  0.0690  0.7898 -0.1586
 8946SOL    HW138471   1.064   1.944   5.728 -0.0933  0.8290 -0.3606
 8946SOL    HW238472   1.047   2.075   5.805  3.8930  0.5102  1.9628
 8947SOL     OW38473   0.804   1.994  10.542  0.5110  0.4876  0.1066
 8947SOL    HW138474   0.886   1.991  10.494  1.1906 -0.2724  1.3061
 8947SOL    HW238475   0.838   2.035  10.622  1.7438  0.2581 -0.3089
 8948SOL     OW38476   1.524   0.042   6.479 -0.5480  0.2837  0.2807
 8948SOL    HW138477   1.435   0.006   6.475 -0.2537 -0.4105  0.0309
 8948SOL    HW238478   1.545   0.051   6.572  0.0166 -0.0885  0.1925
 8949SOL     OW38479   2.790   1.399  14.725  0.1529 -0.0112 -0.0470
 8949SOL    HW138480   2.707   1.384  14.771 -0.2753 -0.4087 -0.9279
 8949SOL    HW238481   2.774   1.492  14.709  1.4420  0.1841 -0.1382
 8950SOL     OW38482   1.211   3.525   7.785 -0.8768 -0.0026  0.1982
 8950SOL    HW138483   1.251   3.551   7.703  1.1442 -2.5436  0.3933
 8950SOL    HW238484   1.281   3.523   7.850 -2.1809  0.3411  1.6400
 8951SOL     OW38485   3.696   2.076   6.825  0.0924  0.0745  0.3816
 8951SOL    HW138486   3.677   2.009   6.760 -0.4697 -1.7757  2.4546
 8951SOL    HW238487   3.783   2.109   6.804  0.2367 -1.3690 -1.2629
 8952SOL     OW38488   3.775   0.628   4.725 -0.6436  0.2578  0.6545
 8952SOL    HW138489   3.851   0.621   4.783  0.1185 -1.2935 -0.5493
 8952SOL    HW238490   3.707   0.629   4.793 -0.5281  1.9909  0.7286
 8953SOL     OW38491   3.164   0.262   2.897  0.4281 -0.5073  0.1169
 8953SOL    HW138492   3.172   0.288   2.988 -1.9733  0.1275  0.1325
 8953SOL    HW238493   3.072   0.285   2.887  0.4093 -0.5446  0.2018
 8954SOL     OW38494   0.431   4.655  11.270  0.5667  0.1189  0.1449
 8954SOL    HW138495   0.423   4.724  11.205  0.2456 -1.6031 -1.6264
 8954SOL    HW238496   0.472   4.588  11.214 -1.7714 -1.7680  0.7043
 8955SOL     OW38497   0.925   3.773   1.668  0.0525 -0.1477  0.1271
 8955SOL    HW138498   0.888   3.826   1.597 -0.8387 -1.4964 -0.4201
 8955SOL    HW238499   0.911   3.681   1.643  0.8275 -0.4133  0.6492
 8956SOL     OW38500   2.565   1.760  10.324 -0.4040 -0.2882  0.2709
 8956SOL    HW138501   2.475   1.743  10.350 -0.4888 -0.2616 -0.0094
 8956SOL    HW238502   2.610   1.703  10.386 -3.5760 -2.4730  0.5566
 8957SOL     OW38503   3.347   2.992  10.749 -0.0385  0.4306  0.0839
 8957SOL    HW138504   3.428   2.949  10.721  0.0031 -0.5077  1.6426
 8957SOL    HW238505   3.360   3.086  10.739 -3.2075  0.6981 -1.5299
 8958SOL     OW38506   0.561   3.010   4.255 -0.1390 -0.0401  0.3609
 8958SOL    HW138507   0.494   3.070   4.223  1.0588  0.6454 -0.8581
 8958SOL    HW238508   0.592   2.979   4.170 -2.9126 -3.1305  0.4969
 8959SOL     OW38509   0.738   0.568   2.413 -0.5027  0.4445  0.0071
 8959SOL    HW138510   0.720   0.643   2.356  5.4721  2.0243  0.1431
 8959SOL    HW238511   0.735   0.502   2.343  1.3346 -1.2002  1.4836
 8960SOL     OW38512   2.034   4.125   1.981  0.2838 -0.2146 -0.8667
 8960SOL    HW138513   2.056   4.105   2.072 -0.7914  1.2661 -0.2886
 8960SOL    HW238514   2.103   4.074   1.939  1.9619  2.0211 -0.8554
 8961SOL     OW38515   2.529   0.800  11.259  0.1841 -0.1896  0.0265
 8961SOL    HW138516   2.613   0.837  11.230 -0.0488  1.3000  1.2708
 8961SOL    HW238517   2.515   0.846  11.341  1.2122 -1.5424  0.9598
 8962SOL     OW38518   0.226   1.091   7.396 -0.2437 -0.9762  0.4779
 8962SOL    HW138519   0.293   1.050   7.450  0.2780  0.5628  0.9783
 8962SOL    HW238520   0.284   1.112   7.323 -0.9344  0.6393  0.3952
 8963SOL     OW38521   3.578   4.143   5.798 -0.8821 -0.4628  0.4276
 8963SOL    HW138522   3.670   4.130   5.822 -0.6083  1.9761  0.6437
 8963SOL    HW238523   3.553   4.220   5.849  1.9856 -0.0420  1.2320
 8964SOL     OW38524   3.624   2.152   8.095 -0.0509 -0.1999 -0.2676
 8964SOL    HW138525   3.628   2.190   8.183  0.3276  0.2301 -0.4673
 8964SOL    HW238526   3.546   2.200   8.068 -0.0401 -1.3642 -2.2995
 8965SOL     OW38527   0.990   1.074   8.692  0.3972 -0.3048 -0.0829
 8965SOL    HW138528   0.933   0.998   8.685 -0.9064  0.7141 -0.4380
 8965SOL    HW238529   0.944   1.121   8.761 -0.1243  0.6963 -1.1243
 8966SOL     OW38530   4.567   2.769   3.633 -0.1635 -0.3418  0.1551
 8966SOL    HW138531   4.535   2.818   3.709  0.7486  1.4855 -0.6558
 8966SOL    HW238532   4.597   2.835   3.571  1.3351  0.9043  2.2176
 8967SOL     OW38533   2.794   3.197   8.401 -0.1683  0.5005  0.2778
 8967SOL    HW138534   2.725   3.166   8.460 -2.0781  0.5791 -1.9405
 8967SOL    HW238535   2.781   3.290   8.421  2.6243  0.9152  0.1240
 8968SOL     OW38536   0.864   3.429   2.307 -0.2130  0.0231 -0.2497
 8968SOL    HW138537   0.839   3.520   2.324 -1.7210 -0.4786  0.2453
 8968SOL    HW238538   0.883   3.443   2.214  0.1629  1.0423 -0.0200
 8969SOL     OW38539   3.874   0.577   7.893 -0.6476 -0.3360  0.6013
 8969SOL    HW138540   3.846   0.550   7.805 -0.0149  2.5992 -0.5078
 8969SOL    HW238541   3.950   0.520   7.905 -0.3646  0.3545  2.0360
 8970SOL     OW38542   4.115   0.325  11.413 -0.2861  0.4327  0.2121
 8970SOL    HW138543   4.021   0.314  11.395  0.1100 -1.9940 -0.3959
 8970SOL    HW238544   4.139   0.234  11.395  0.7061  1.1051 -1.8916
 8971SOL     OW38545   1.849   3.066   3.357  0.6043 -0.2941  0.8498
 8971SOL    HW138546   1.869   3.011   3.281  0.7815 -1.5115  1.7713
 8971SOL    HW238547   1.925   3.040   3.408  1.0396  0.6973  0.7035
 8972SOL     OW38548   4.529   0.240   4.918  0.5571 -0.1522  0.1055
 8972SOL    HW138549   4.440   0.273   4.907 -0.4337 -2.1870  2.0238
 8972SOL    HW238550   4.570   0.280   4.842  2.2683 -0.7329  0.7370
 8973SOL     OW38551   4.395   1.550   4.176 -0.3977  0.4762 -0.1467
 8973SOL    HW138552   4.381   1.640   4.148  1.2406  0.1661 -1.9869
 8973SOL    HW238553   4.425   1.567   4.265 -0.0654 -0.6618 -0.0342
 8974SOL     OW38554   2.436   1.799   8.345 -0.3704 -0.7851 -0.1778
 8974SOL    HW138555   2.464   1.890   8.339  0.9138 -1.1109  1.0777
 8974SOL    HW238556   2.401   1.786   8.257  0.4839  0.1778 -0.6569
 8975SOL     OW38557   4.190   3.520   2.922 -0.4998  0.2641  0.3247
 8975SOL    HW138558   4.218   3.535   3.013 -0.5021 -1.1497  0.5692
 8975SOL    HW238559   4.241   3.439   2.915  0.4959  0.8885  0.3504
 8976SOL     OW38560   1.757   0.496   5.443 -0.0407 -0.5653 -0.1666
 8976SOL    HW138561   1.702   0.567   5.475  2.0941  1.4734 -1.0318
 8976SOL    HW238562   1.798   0.468   5.525  1.9544 -0.2647 -1.0565
 8977SOL     OW38563   1.909   4.377   1.009 -0.1697 -0.4132  0.3319
 8977SOL    HW138564   1.906   4.421   0.924 -1.4872  0.7576  0.9750
 8977SOL    HW238565   2.003   4.386   1.025 -0.0804  0.4975 -0.6631
 8978SOL     OW38566   2.361   3.935  10.644 -0.4423  0.0805 -0.5811
 8978SOL    HW138567   2.269   3.947  10.668 -0.2571 -3.0356  1.7262
 8978SOL    HW238568   2.384   3.882  10.721 -0.7239 -0.5519 -0.9321
 8979SOL     OW38569   2.308   2.514   8.564  0.1555  0.4832 -0.4778
 8979SOL    HW138570   2.399   2.485   8.562 -0.0167 -0.0289 -0.7685
 8979SOL    HW238571   2.292   2.540   8.473  0.5363 -0.1376 -0.7252
 8980SOL     OW38572   0.095   4.389   8.876  0.1306  0.8392 -0.2215
 8980SOL    HW138573   0.004   4.373   8.849  0.0174 -0.1148  0.7026
 8980SOL    HW238574   0.117   4.302   8.910  0.0373  0.0285 -2.2344
 8981SOL     OW38575   3.625   2.483   1.816  0.2795  0.2301  0.4654
 8981SOL    HW138576   3.664   2.400   1.843  1.0714  0.3748 -0.2305
 8981SOL    HW238577   3.548   2.475   1.872 -0.2620  0.0672 -0.3053
 8982SOL     OW38578   0.177   3.140   0.716  0.1260 -0.3236  0.3665
 8982SOL    HW138579   0.201   3.170   0.629  0.4034 -0.7159  0.3072
 8982SOL    HW238580   0.220   3.205   0.772  0.6914 -0.4969  0.1301
 8983SOL     OW38581   0.336   3.257  16.837 -0.0195  0.0475 -0.3534
 8983SOL    HW138582   0.385   3.315  16.779 -0.9402 -0.1820 -1.3513
 8983SOL    HW238583   0.245   3.284  16.825 -1.1655 -2.5951  2.2711
 8984SOL     OW38584   4.212   0.692  16.229 -0.0331 -0.1617  0.8387
 8984SOL    HW138585   4.271   0.718  16.159 -0.1231 -3.9592 -0.6281
 8984SOL    HW238586   4.207   0.598  16.216 -2.0132  0.0678 -0.0850
 8985SOL     OW38587   0.562   3.356   6.147  0.1834  0.1590  0.3583
 8985SOL    HW138588   0.611   3.407   6.082 -0.8527  0.4136 -0.2138
 8985SOL    HW238589   0.515   3.425   6.194 -0.0642 -0.0105  0.3543
 8986SOL     OW38590   2.943   3.265  17.213  0.0574  0.4715 -0.1106
 8986SOL    HW138591   2.850   3.246  17.214  0.0912  0.2771 -0.7616
 8986SOL    HW238592   2.934   3.325  17.139  1.6781 -0.1937 -0.8486
 8987SOL     OW38593   0.695   3.361   3.933 -0.1487 -0.0318  0.1568
 8987SOL    HW138594   0.675   3.453   3.917  1.1135  0.0823 -0.7188
 8987SOL    HW238595   0.786   3.354   3.905 -0.5485  1.4072 -1.4777
 8988SOL     OW38596   3.967   0.675   6.244  0.3562 -0.1767  0.4054
 8988SOL    HW138597   3.992   0.732   6.171 -1.0383  0.2051  0.2200
 8988SOL    HW238598   3.949   0.597   6.192  1.3660 -0.4783  0.5142
 8989SOL     OW38599   2.642   2.129   8.980 -0.1945  0.3436 -0.4297
 8989SOL    HW138600   2.697   2.207   8.975  3.0417 -1.9646 -0.6503
 8989SOL    HW238601   2.662   2.090   8.895 -2.9344 -1.5831 -0.1929
 8990SOL     OW38602   1.488   2.918   2.524  0.0314 -0.0450  0.5190
 8990SOL    HW138603   1.524   3.003   2.550 -1.9113  0.7847  0.4930
 8990SOL    HW238604   1.492   2.927   2.429 -0.9558  0.3527  0.5118
 8991SOL     OW38605   4.519   2.983  10.676 -0.3273  0.0222  0.2536
 8991SOL    HW138606   4.515   3.022  10.588 -1.4721 -0.7585 -0.0427
 8991SOL    HW238607   4.506   2.891  10.657 -1.4247  0.4423 -1.0348
 8992SOL     OW38608   4.300   1.641   2.842  0.0115 -0.0574  0.0111
 8992SOL    HW138609   4.212   1.636   2.804 -0.0328 -1.0946  0.2730
 8992SOL    HW238610   4.323   1.549   2.833 -0.2801 -0.2206  0.9850
 8993SOL     OW38611   1.884   1.515   0.831  0.3250  0.1167  0.6826
 8993SOL    HW138612   1.925   1.602   0.835  1.7057 -0.5445  0.8440
 8993SOL    HW238613   1.815   1.529   0.766 -2.7040 -3.8043  3.0524
 8994SOL     OW38614   4.530   0.329   4.253 -0.4121 -0.3165  0.0895
 8994SOL    HW138615   4.617   0.343   4.289 -0.1252 -0.8384 -0.4038
 8994SOL    HW238616   4.489   0.411   4.280  0.9260 -0.4343  2.4087
 8995SOL     OW38617   1.996   2.333   1.676  0.3959 -0.3710  0.7627
 8995SOL    HW138618   1.991   2.355   1.769 -0.1236 -0.6755  0.8076
 8995SOL    HW238619   2.084   2.303   1.655  0.3258  0.3795 -0.6077
 8996SOL     OW38620   4.543   1.691   9.278 -0.8770  0.0672  0.4998
 8996SOL    HW138621   4.590   1.697   9.361  0.6021 -0.5146 -0.2933
 8996SOL    HW238622   4.493   1.611   9.294  0.6755 -0.7016  1.5348
 8997SOL     OW38623   2.533   4.266   2.941 -0.0997  0.0167 -0.6125
 8997SOL    HW138624   2.544   4.188   2.887  0.6215  0.1142 -0.5994
 8997SOL    HW238625   2.617   4.272   2.986 -0.1305  0.2231 -0.5794
 8998SOL     OW38626   2.977   3.751   1.075  0.9915  0.0927  0.3096
 8998SOL    HW138627   2.899   3.747   1.129  0.5055  0.9663 -0.3243
 8998SOL    HW238628   2.947   3.716   0.991  1.8213 -0.1129  0.0984
 8999SOL     OW38629   0.098   3.242  12.640 -0.2563 -0.1793 -1.0727
 8999SOL    HW138630   0.094   3.299  12.716  0.4283 -0.7765 -0.5902
 8999SOL    HW238631   0.014   3.196  12.635  0.0563 -0.7738 -0.8665
 9000SOL     OW38632   0.056   3.871   5.139 -0.0109 -0.0943  0.2800
 9000SOL    HW138633   0.044   3.883   5.234  0.4396  2.6573 -0.0024
 9000SOL    HW238634   0.020   3.954   5.106  0.1663 -0.8337 -1.7723
 9001SOL     OW38635   3.148   1.563   9.189  0.0284  0.1191  0.5157
 9001SOL    HW138636   3.220   1.558   9.126 -0.3693  0.9031  0.0094
 9001SOL    HW238637   3.188   1.601   9.267  1.8709  1.8598 -1.2746
 9002SOL     OW38638   1.140   3.834   3.490 -0.5159  0.3199 -0.6188
 9002SOL    HW138639   1.055   3.805   3.521  0.0577  0.1395  0.7866
 9002SOL    HW238640   1.145   3.819   3.396 -0.0584  2.2718 -0.9132
 9003SOL     OW38641   2.311   1.148   7.212 -0.0327  0.1801  0.0718
 9003SOL    HW138642   2.371   1.132   7.285  0.7642 -0.8810 -0.8142
 9003SOL    HW238643   2.237   1.088   7.226 -0.7319  0.4792 -2.2702
 9004SOL     OW38644   2.285   3.682   5.283  0.0955  0.1937  0.4928
 9004SOL    HW138645   2.275   3.661   5.376 -0.2430 -0.6125  0.2746
 9004SOL    HW238646   2.197   3.654   5.258  1.7056 -2.9514 -1.5187
 9005SOL     OW38647   4.291   1.551   3.799 -0.2578  0.0977  0.5074
 9005SOL    HW138648   4.362   1.488   3.811  1.3909  1.9404  0.3877
 9005SOL    HW238649   4.227   1.488   3.831 -0.5722 -0.6309 -1.5880
 9006SOL     OW38650   1.253   1.601   6.434 -0.3055  0.4511 -0.2374
 9006SOL    HW138651   1.299   1.667   6.486  1.0144  0.0706 -0.9270
 9006SOL    HW238652   1.278   1.629   6.346 -1.5478 -0.6535 -0.9269
 9007SOL     OW38653   4.612   0.557   5.141 -0.2188  0.3408 -0.1851
 9007SOL    HW138654   4.636   0.646   5.167  0.2064  0.0433  0.4205
 9007SOL    HW238655   4.681   0.529   5.081  0.1595 -2.2488  1.4840
 9008SOL     OW38656   2.540   0.184   5.367  0.1458 -0.8523 -0.1810
 9008SOL    HW138657   2.636   0.181   5.362  0.1557 -0.4492 -0.1782
 9008SOL    HW238658   2.514   0.093   5.349  2.4214 -1.4109 -0.7493
 9009SOL     OW38659   0.607   4.163   2.625 -0.0714  0.2128 -1.0794
 9009SOL    HW138660   0.602   4.069   2.611 -0.4176 -0.2252  1.8783
 9009SOL    HW238661   0.513   4.172   2.639  0.4744  1.7904  1.5650
 9010SOL     OW38662   1.406   3.473   6.464 -0.0240  0.8296  0.3361
 9010SOL    HW138663   1.417   3.548   6.523  1.5030  0.0646  1.0232
 9010SOL    HW238664   1.310   3.463   6.462 -0.1828  2.3150  0.4608
 9011SOL     OW38665   1.244   4.118  13.653  0.0833  0.4530 -0.4548
 9011SOL    HW138666   1.166   4.082  13.694  0.0646 -0.2405 -1.1119
 9011SOL    HW238667   1.216   4.113  13.561 -1.9363 -1.8884  0.3141
 9012SOL     OW38668   2.283   1.514  12.987  0.1471  0.0756 -0.5512
 9012SOL    HW138669   2.364   1.497  12.937 -1.8215  0.3013 -3.8275
 9012SOL    HW238670   2.221   1.479  12.924 -0.4628  1.3891 -0.6836
 9013SOL     OW38671   3.246   3.426   6.258 -0.2369  0.7440 -0.4830
 9013SOL    HW138672   3.237   3.385   6.344  0.5333  1.3458 -0.1142
 9013SOL    HW238673   3.230   3.520   6.267  0.2985  0.1728  5.9668
 9014SOL     OW38674   1.685   0.990   9.381  0.3958  0.1517 -0.4547
 9014SOL    HW138675   1.617   0.929   9.353  2.1389 -1.3383 -1.4087
 9014SOL    HW238676   1.650   1.074   9.350  0.7146 -0.3098 -2.0557
 9015SOL     OW38677   4.502   0.387   3.981 -0.5334 -0.6410  0.3334
 9015SOL    HW138678   4.518   0.474   3.944  0.9130 -0.1977  2.0452
 9015SOL    HW238679   4.497   0.394   4.076  1.5988  1.0066  0.3257
 9016SOL     OW38680   2.820   0.072   6.693 -0.3270  0.0440  0.4642
 9016SOL    HW138681   2.818   4.735   6.755  1.0519 -0.6445 -0.3081
 9016SOL    HW238682   2.884   0.126   6.739 -0.8579  1.5727 -0.6104
 9017SOL     OW38683   4.173   0.479   1.401  0.5355  0.1063  0.6695
 9017SOL    HW138684   4.199   0.497   1.310 -0.8322 -0.9335  0.0756
 9017SOL    HW238685   4.232   0.540   1.445  0.2559  1.0757 -0.2707
 9018SOL     OW38686   2.946   3.499   6.581 -0.0947  0.1322  0.2093
 9018SOL    HW138687   2.996   3.489   6.662 -0.7400  0.4879  0.6576
 9018SOL    HW238688   3.005   3.452   6.523  0.7154  0.4433  0.7832
 9019SOL     OW38689   2.079   3.146  11.752 -0.4999 -0.4759  0.4030
 9019SOL    HW138690   2.052   3.095  11.828  1.2205 -0.3431  1.0961
 9019SOL    HW238691   2.094   3.233  11.790  2.1268 -1.3320  1.3022
 9020SOL     OW38692   1.064   2.745   2.490  0.3791  0.0642 -0.0913
 9020SOL    HW138693   1.062   2.653   2.462  0.0311 -0.7311  2.5407
 9020SOL    HW238694   1.107   2.794   2.420  2.2589 -2.0231 -0.3868
 9021SOL     OW38695   1.187   4.435   8.822 -0.7542 -0.2183 -0.5019
 9021SOL    HW138696   1.258   4.483   8.780  1.8000 -1.3992  2.4654
 9021SOL    HW238697   1.205   4.353   8.776 -0.7122  0.2024 -1.2348
 9022SOL     OW38698   3.820   2.780   1.270  0.1890 -0.4318  0.1892
 9022SOL    HW138699   3.905   2.743   1.296 -0.4666 -0.6634  2.0020
 9022SOL    HW238700   3.852   2.833   1.198 -2.6930 -0.4012 -1.0390
 9023SOL     OW38701   0.230   3.709  10.586  0.4114  0.0275  0.3457
 9023SOL    HW138702   0.273   3.781  10.540  0.0838  0.4417  0.6911
 9023SOL    HW238703   0.305   3.649  10.591  0.7627  0.2632 -2.1170
 9024SOL     OW38704   1.121   3.175  17.071 -0.7471 -0.3267 -0.0856
 9024SOL    HW138705   1.142   3.087  17.101 -1.1407  0.0619  1.3364
 9024SOL    HW238706   1.112   3.159  16.977 -0.8863  2.5380 -0.5854
 9025SOL     OW38707   2.071   3.610   6.336 -0.0535  0.5298  0.4328
 9025SOL    HW138708   2.037   3.613   6.246 -3.3639 -1.3575  1.6433
 9025SOL    HW238709   2.053   3.521   6.368 -0.6477  0.1542 -0.9375
 9026SOL     OW38710   4.337   4.023   3.305  0.4768  0.4582 -0.2671
 9026SOL    HW138711   4.253   4.015   3.260  0.7628  1.8126 -1.0408
 9026SOL    HW238712   4.306   4.074   3.381  1.3437  0.9112 -0.2162
 9027SOL     OW38713   3.669   4.371  10.653 -0.3677 -0.0493 -0.1042
 9027SOL    HW138714   3.675   4.453  10.605 -0.4556 -0.7997 -1.3898
 9027SOL    HW238715   3.751   4.327  10.633 -0.3851 -0.1062 -0.0509
 9028SOL     OW38716   0.171   2.856  13.996  0.0380  0.0569  0.3621
 9028SOL    HW138717   0.208   2.869  13.909  0.4114  1.9191  0.8003
 9028SOL    HW238718   0.146   2.763  13.989 -1.0019  0.4579 -1.2209
 9029SOL     OW38719   4.377   3.303   4.560  0.0178  0.1517 -0.2395
 9029SOL    HW138720   4.404   3.217   4.592 -2.4164 -0.0950  1.1199
 9029SOL    HW238721   4.310   3.328   4.623  0.7638  1.4931  0.0339
 9030SOL     OW38722   4.037   2.604   2.353 -0.0036  0.0983  0.2176
 9030SOL    HW138723   4.061   2.684   2.307  0.8443 -0.8878 -1.0433
 9030SOL    HW238724   4.030   2.534   2.287 -0.5164 -0.1198  0.5017
 9031SOL     OW38725   0.416   3.478  16.233 -0.2440  0.3500 -0.1297
 9031SOL    HW138726   0.419   3.569  16.205  1.8063  0.0923 -0.7056
 9031SOL    HW238727   0.457   3.431  16.161 -0.1286  0.2436  0.0043
 9032SOL     OW38728   2.681   2.110   5.819  0.0667 -0.6308 -0.0342
 9032SOL    HW138729   2.692   2.033   5.762 -0.4653  1.1205 -2.4889
 9032SOL    HW238730   2.724   2.180   5.771 -0.9537  1.4702  2.1348
 9033SOL     OW38731   2.544   3.037   5.399 -0.4434  0.7850  0.1340
 9033SOL    HW138732   2.505   3.111   5.351 -0.1667  0.1997 -0.9933
 9033SOL    HW238733   2.514   2.962   5.348  1.2978  0.8186 -0.9174
 9034SOL     OW38734   3.401   0.907   5.619 -0.2477  0.5863  0.3439
 9034SOL    HW138735   3.335   0.969   5.588  0.8950  1.4677 -0.2876
 9034SOL    HW238736   3.343   0.834   5.641  1.7520 -1.2777 -0.5455
 9035SOL     OW38737   2.296   1.408   2.145 -0.0416  0.7708 -0.0695
 9035SOL    HW138738   2.295   1.358   2.226  3.0681  0.8733  0.0283
 9035SOL    HW238739   2.226   1.466   2.173 -1.2766 -0.0168 -1.5314
 9036SOL     OW38740   1.108   2.980   6.406 -0.0333  0.1115 -0.2863
 9036SOL    HW138741   1.140   2.907   6.460 -2.2866 -1.4465 -1.0755
 9036SOL    HW238742   1.185   3.037   6.401  1.9935 -2.6964 -1.0150
 9037SOL     OW38743   4.333   0.879   7.074  0.6791 -0.5404  0.4563
 9037SOL    HW138744   4.415   0.868   7.026  0.9953  1.2531  0.5827
 9037SOL    HW238745   4.277   0.810   7.039 -1.5464  2.3007 -1.6394
 9038SOL     OW38746   0.876   2.973   8.649 -0.2465  0.1308 -0.4545
 9038SOL    HW138747   0.859   2.881   8.630 -2.0379  0.5313 -0.8129
 9038SOL    HW238748   0.804   2.998   8.706 -0.6914  1.5589 -1.6234
 9039SOL     OW38749   3.282   4.646   9.847  0.1629 -0.9164 -0.0710
 9039SOL    HW138750   3.349   4.678   9.907 -0.3835  0.9596 -0.4796
 9039SOL    HW238751   3.217   4.715   9.836 -0.2183 -1.1373  0.7331
 9040SOL     OW38752   1.595   4.676  13.123  0.1493 -0.1875 -0.5003
 9040SOL    HW138753   1.533   4.632  13.066 -1.0286 -2.0034  2.1686
 9040SOL    HW238754   1.536   0.009  13.154  0.8621 -0.3965  1.3166
 9041SOL     OW38755   1.614   0.358  15.409 -0.3368 -0.0816  0.4235
 9041SOL    HW138756   1.541   0.296  15.412 -1.1642  0.6907 -3.2727
 9041SOL    HW238757   1.572   0.406  15.337 -1.1455 -0.6146  0.5342
 9042SOL     OW38758   0.087   2.296   3.144  0.5459  0.4522 -0.5066
 9042SOL    HW138759   0.006   2.342   3.120  0.7255  0.9766 -0.0967
 9042SOL    HW238760   0.087   2.312   3.238  0.9949  1.4567 -0.6847
 9043SOL     OW38761   3.550   3.671  12.175  0.3527 -0.0295 -0.2263
 9043SOL    HW138762   3.642   3.690  12.158  0.3707  0.4135  0.3653
 9043SOL    HW238763   3.513   3.749  12.134  0.0828  1.2111  2.3318
 9044SOL     OW38764   0.253   3.630   5.173  0.4463 -0.3875 -0.0319
 9044SOL    HW138765   0.186   3.690   5.141  1.2459  1.2022  1.2346
 9044SOL    HW238766   0.330   3.671   5.134  1.8914 -2.8465  0.2419
 9045SOL     OW38767   0.284   0.032   1.873 -0.4124 -0.2755 -0.0228
 9045SOL    HW138768   0.222   4.712   1.826 -0.7935 -0.3753  0.5872
 9045SOL    HW238769   0.318   4.694   1.922 -2.4402 -1.0102  0.2681
 9046SOL     OW38770   3.044   0.976  11.202 -0.2794  0.1513  0.3684
 9046SOL    HW138771   3.056   1.068  11.225 -1.5384  0.4210 -0.0436
 9046SOL    HW238772   3.073   0.931  11.282 -0.9226 -0.3232  0.3288
 9047SOL     OW38773   1.494   2.333   5.697 -0.2736  0.6489 -0.2700
 9047SOL    HW138774   1.489   2.426   5.719 -0.8847  0.4707  0.3642
 9047SOL    HW238775   1.581   2.322   5.659  0.7428  0.6197  2.0163
 9048SOL     OW38776   3.215   4.368   9.429  0.9849 -0.2656 -0.4605
 9048SOL    HW138777   3.287   4.391   9.488  0.0093 -1.5508  1.2391
 9048SOL    HW238778   3.191   4.292   9.482 -0.5279  1.7332  1.7708
 9049SOL     OW38779   1.827   0.501   4.496  0.0096 -0.0261  0.0361
 9049SOL    HW138780   1.791   0.587   4.517  1.4274 -0.0544  2.5930
 9049SOL    HW238781   1.882   0.479   4.572  0.7983  2.4741  0.1700
 9050SOL     OW38782   2.005   0.134   2.307 -0.1446 -0.0183 -0.2352
 9050SOL    HW138783   1.978   0.181   2.387 -1.0832 -0.6785 -0.1560
 9050SOL    HW238784   1.939   0.065   2.304 -2.1595  1.7949  1.2158
 9051SOL     OW38785   4.265   0.240   9.857  0.2137  0.5607  0.3625
 9051SOL    HW138786   4.296   0.299   9.926  0.0503 -0.2289  1.1263
 9051SOL    HW238787   4.205   0.300   9.813  0.8138 -0.3253 -1.6612
 9052SOL     OW38788   3.389   1.515   5.373  0.7831 -0.1419 -0.2362
 9052SOL    HW138789   3.462   1.576   5.363 -1.5120  2.7021  0.3467
 9052SOL    HW238790   3.402   1.489   5.465 -1.3100  0.5577  0.2745
 9053SOL     OW38791   3.425   1.663   8.074 -0.0201  0.0628 -0.2323
 9053SOL    HW138792   3.401   1.634   8.162  0.2560 -1.8607 -0.8083
 9053SOL    HW238793   3.515   1.692   8.091  0.1956 -0.2845 -0.7944
 9054SOL     OW38794   3.421   2.156   8.537  0.2685  0.0673  0.6332
 9054SOL    HW138795   3.447   2.090   8.601 -1.2278 -0.9396  0.2214
 9054SOL    HW238796   3.371   2.210   8.598  1.3819 -1.4291  2.8419
 9055SOL     OW38797   1.752   4.101  12.189  0.2381 -0.0706 -0.3005
 9055SOL    HW138798   1.756   4.009  12.217  0.1084  0.1987  0.5818
 9055SOL    HW238799   1.663   4.128  12.210 -0.6328 -2.9600 -0.1676
 9056SOL     OW38800   3.850   1.092  17.103 -0.0636  0.5033  0.3168
 9056SOL    HW138801   3.806   1.022  17.151 -0.0437  0.2209 -0.0786
 9056SOL    HW238802   3.910   1.129  17.169  0.8887 -0.3544 -0.0678
 9057SOL     OW38803   0.696   1.062   3.476 -0.1151  0.0600 -0.2703
 9057SOL    HW138804   0.655   1.148   3.486 -0.7487 -0.2459 -0.2720
 9057SOL    HW238805   0.741   1.072   3.560  0.5045 -2.4948 -0.2957
 9058SOL     OW38806   4.576   0.865   2.396 -0.2186 -0.3174  0.1283
 9058SOL    HW138807   4.512   0.878   2.326 -0.9646 -0.8640  0.7133
 9058SOL    HW238808   4.520   0.841   2.470  1.4596 -0.0598  1.5039
 9059SOL     OW38809   1.948   2.120   4.792 -0.0515  0.0914  0.7241
 9059SOL    HW138810   1.957   2.174   4.871 -3.6646  2.7153 -0.6537
 9059SOL    HW238811   1.938   2.031   4.826 -0.1225 -0.1691  0.0094
 9060SOL     OW38812   2.146   2.484   4.257 -0.6330 -0.6418  0.1113
 9060SOL    HW138813   2.104   2.559   4.215 -0.0303  0.1172  0.8569
 9060SOL    HW238814   2.109   2.499   4.344  1.1047 -0.1229  0.7594
 9061SOL     OW38815   4.486   2.246   8.809  0.6338 -0.2230 -0.1561
 9061SOL    HW138816   4.419   2.202   8.756 -2.1175  3.3574  0.3441
 9061SOL    HW238817   4.549   2.175   8.821  1.5184  0.4859 -0.6811
 9062SOL     OW38818   3.461   0.080   9.575 -0.0671 -0.6859  0.1924
 9062SOL    HW138819   3.530   0.046   9.631  1.3866  1.1757 -0.4583
 9062SOL    HW238820   3.448   0.016   9.505  2.5943 -0.5872 -0.4043
 9063SOL     OW38821   3.319   1.001  13.297 -0.1409 -0.5642  0.1753
 9063SOL    HW138822   3.300   0.929  13.237 -0.7600  0.5739 -0.9848
 9063SOL    HW238823   3.397   0.966  13.340  0.0098 -2.7331 -1.8555
 9064SOL     OW38824   3.842   0.374   2.426 -0.5525  1.1149 -0.3783
 9064SOL    HW138825   3.778   0.307   2.449 -0.9425  2.0487  1.2067
 9064SOL    HW238826   3.917   0.338   2.472 -1.2890 -0.4615 -0.4090
 9065SOL     OW38827   3.844   0.616  14.371 -0.0351 -0.2915  0.1049
 9065SOL    HW138828   3.863   0.562  14.448  1.7324  0.8928  0.5065
 9065SOL    HW238829   3.854   0.707  14.397 -3.7718  0.4497 -1.0407
 9066SOL     OW38830   3.199   3.656   2.570 -0.1148  0.3606 -0.2958
 9066SOL    HW138831   3.196   3.599   2.494 -2.6831 -0.3825  0.3570
 9066SOL    HW238832   3.235   3.739   2.539  0.5062 -0.2246 -1.1341
 9067SOL     OW38833   2.803   3.087   5.488 -0.0005  0.2356  0.1160
 9067SOL    HW138834   2.758   3.024   5.432 -2.0387 -0.7838  2.9458
 9067SOL    HW238835   2.748   3.164   5.478 -0.8885 -0.9369 -4.0077
 9068SOL     OW38836   0.243   4.333  13.644  0.3166 -0.2303  0.3617
 9068SOL    HW138837   0.338   4.342  13.639  0.4691 -1.5653  1.0737
 9068SOL    HW238838   0.231   4.407  13.585 -1.1317 -1.5460 -0.9850
 9069SOL     OW38839   1.290   1.462  16.908  0.0133  0.2975  0.5168
 9069SOL    HW138840   1.385   1.467  16.898 -0.3975  0.2489 -3.3068
 9069SOL    HW238841   1.283   1.492  16.999 -2.2346  2.0729 -0.2480
 9070SOL     OW38842   2.215   0.554   3.552  0.3037 -0.0430  0.2444
 9070SOL    HW138843   2.291   0.515   3.509  0.2937 -0.2988  0.4604
 9070SOL    HW238844   2.243   0.563   3.644 -1.6799 -1.3629  0.9728
 9071SOL     OW38845   2.424   0.533   3.100 -0.5095  0.4457  0.4548
 9071SOL    HW138846   2.499   0.531   3.160 -0.0832  1.7620 -0.0389
 9071SOL    HW238847   2.454   0.463   3.043 -2.4395 -0.0230  0.0244
 9072SOL     OW38848   1.685   1.810   2.803 -0.1038  0.4117 -0.4067
 9072SOL    HW138849   1.650   1.823   2.891  1.5059 -1.2091  0.4858
 9072SOL    HW238850   1.682   1.900   2.773 -1.3655  0.1044 -1.2077
 9073SOL     OW38851   4.670   3.524   6.047 -0.3732  0.3677 -0.7967
 9073SOL    HW138852   0.018   3.538   6.004  0.8203 -2.0267  0.7971
 9073SOL    HW238853   4.686   3.547   6.138  0.1688  0.8504 -1.0150
 9074SOL     OW38854   1.839   1.841  13.351 -0.2971 -0.0376  0.3497
 9074SOL    HW138855   1.856   1.800  13.266  4.0496  3.1531 -0.3148
 9074SOL    HW238856   1.816   1.928  13.320  0.6305 -0.6771 -2.0999
 9075SOL     OW38857   1.808   4.372  12.444  0.1350 -0.1957 -0.0349
 9075SOL    HW138858   1.713   4.367  12.432  0.1105 -0.6322  0.3244
 9075SOL    HW238859   1.807   4.402  12.535  1.5426 -0.0987 -0.0479
 9076SOL     OW38860   0.065   2.838   2.770  0.1196  0.0156 -0.2972
 9076SOL    HW138861   0.070   2.838   2.866  1.7667  0.2235 -0.3934
 9076SOL    HW238862   0.098   2.750   2.752 -1.6970 -0.8643  0.6376
 9077SOL     OW38863   1.018   4.037  16.194 -0.0006 -0.5483  0.1953
 9077SOL    HW138864   1.111   4.037  16.219  0.1051 -1.7101 -0.1756
 9077SOL    HW238865   0.999   4.131  16.189  0.7684 -0.4692 -1.2796
 9078SOL     OW38866   4.137   0.125  16.595 -0.2555 -0.2698  0.4428
 9078SOL    HW138867   4.105   0.035  16.597 -1.7825  0.3065  1.7695
 9078SOL    HW238868   4.190   0.126  16.516  1.8378 -0.7816  1.8379
 9079SOL     OW38869   1.213   3.538   3.168  0.6148 -0.2978 -0.2224
 9079SOL    HW138870   1.148   3.490   3.219  1.6693 -1.9468 -0.4240
 9079SOL    HW238871   1.225   3.490   3.086 -0.3801  1.9638 -1.6673
 9080SOL     OW38872   4.602   1.139  14.750  0.1151  0.2063 -0.2880
 9080SOL    HW138873   4.520   1.184  14.771  0.0514  0.0159 -0.1347
 9080SOL    HW238874   4.584   1.068  14.688  0.7068  0.1012 -0.3394
 9081SOL     OW38875   3.650   0.730  16.171  0.2984  0.7185  0.0323
 9081SOL    HW138876   3.738   0.749  16.137  0.5564 -0.9183 -0.1704
 9081SOL    HW238877   3.594   0.806  16.154 -0.7176 -0.6206 -2.5451
 9082SOL     OW38878   3.896   3.072   3.917 -0.0935  0.4493 -0.0556
 9082SOL    HW138879   3.846   3.040   3.842 -0.4751  3.1414 -0.9259
 9082SOL    HW238880   3.839   3.052   3.992  2.6671 -2.6742  1.2155
 9083SOL     OW38881   2.287   2.162   9.697  0.0465  0.1554  0.4306
 9083SOL    HW138882   2.289   2.069   9.673 -2.5224  0.5950 -1.4988
 9083SOL    HW238883   2.322   2.167   9.786  0.0385  1.8990  0.3280
 9084SOL     OW38884   0.504   2.188   9.146 -0.1801  0.1542  0.2182
 9084SOL    HW138885   0.509   2.186   9.242 -3.5789  0.0488  0.3848
 9084SOL    HW238886   0.562   2.113   9.127 -0.5069 -0.2907  0.9621
 9085SOL     OW38887   3.351   4.284  14.698  0.4251  0.0465 -0.4132
 9085SOL    HW138888   3.435   4.276  14.744  0.1871  0.4630  0.0975
 9085SOL    HW238889   3.302   4.254  14.775  0.5628  0.5890 -0.1127
 9086SOL     OW38890   4.128   4.389   2.674 -0.0763  0.2704 -0.0578
 9086SOL    HW138891   4.104   4.427   2.758  0.4562  0.4840  0.0011
 9086SOL    HW238892   4.192   4.452   2.639 -0.4704  1.7011  1.7746
 9087SOL     OW38893   2.608   4.554  13.049  0.2405  0.1136 -0.6820
 9087SOL    HW138894   2.664   4.583  12.977  1.3034 -0.3511 -0.0484
 9087SOL    HW238895   2.672   4.545  13.120 -0.2448  1.4004 -0.0925
 9088SOL     OW38896   1.554   1.457   3.528 -0.2712 -0.2735 -0.2608
 9088SOL    HW138897   1.534   1.551   3.524  0.3026 -0.1768 -0.8859
 9088SOL    HW238898   1.506   1.427   3.452  0.1483 -0.0625 -0.6086
 9089SOL     OW38899   3.318   1.246  13.452 -0.2204 -0.2339 -0.2062
 9089SOL    HW138900   3.266   1.194  13.513 -2.2161 -0.9372 -2.5083
 9089SOL    HW238901   3.334   1.178  13.386 -1.3876 -1.1335  0.4539
 9090SOL     OW38902   0.349   2.318   9.806  0.3064 -0.4862 -0.0323
 9090SOL    HW138903   0.351   2.355   9.895 -1.5533 -1.5981  0.4552
 9090SOL    HW238904   0.327   2.226   9.821  0.6047 -0.3762  1.1459
 9091SOL     OW38905   4.335   0.777  12.247  1.0304 -0.1691 -0.2343
 9091SOL    HW138906   4.369   0.821  12.168  1.2327  0.3996  0.1677
 9091SOL    HW238907   4.259   0.731  12.212  0.0111  1.3029  0.0598
 9092SOL     OW38908   3.545   1.429  12.429  0.1141 -0.4034  0.0288
 9092SOL    HW138909   3.636   1.451  12.449  0.0230 -0.0426  0.0499
 9092SOL    HW238910   3.516   1.369  12.498  0.2568  0.1195  0.5484
 9093SOL     OW38911   4.050   2.806   7.333  0.3763 -0.2874  0.0803
 9093SOL    HW138912   4.124   2.865   7.346  0.5417 -0.2085 -1.2623
 9093SOL    HW238913   4.033   2.808   7.239 -1.1022 -1.3050  0.3298
 9094SOL     OW38914   3.492   3.540  12.414 -0.5353 -0.1913  0.5045
 9094SOL    HW138915   3.521   3.455  12.382  0.0706 -0.1647  0.9811
 9094SOL    HW238916   3.507   3.602  12.342  2.4683  0.7873  1.9280
 9095SOL     OW38917   1.792   3.253   7.787  0.0730  0.8862 -0.0995
 9095SOL    HW138918   1.721   3.308   7.756  0.5828  0.0523 -2.7108
 9095SOL    HW238919   1.787   3.246   7.882  0.3139 -4.3094 -0.4220
 9096SOL     OW38920   1.209   3.386  15.615  0.2659 -0.3456  0.1645
 9096SOL    HW138921   1.290   3.387  15.564 -0.1733 -1.2317 -0.5459
 9096SOL    HW238922   1.153   3.378  15.538 -1.9100 -0.0898  1.7334
 9097SOL     OW38923   3.362   1.251   1.502  0.0195 -0.1352 -0.0266
 9097SOL    HW138924   3.313   1.169   1.489 -0.7840  0.3171  0.1442
 9097SOL    HW238925   3.286   1.309   1.494  0.8721  1.1411  1.3429
 9098SOL     OW38926   1.870   4.338   9.356  0.0858  0.4994 -0.3336
 9098SOL    HW138927   1.856   4.431   9.338 -0.2266  0.5142 -0.0064
 9098SOL    HW238928   1.790   4.304   9.316  0.5693 -0.7202 -0.2634
 9099SOL     OW38929   1.661   3.205   3.073 -0.1278 -0.4119  0.1379
 9099SOL    HW138930   1.582   3.157   3.100 -0.2601  0.4893  1.3474
 9099SOL    HW238931   1.636   3.297   3.075 -0.7223 -0.5886  0.8235
 9100SOL     OW38932   4.506   0.862  15.146 -0.4048  0.2667  0.1546
 9100SOL    HW138933   4.527   0.770  15.166  2.8626  0.6099 -1.7089
 9100SOL    HW238934   4.555   0.917  15.207 -0.5715 -0.6631  1.1234
 9101SOL     OW38935   0.569   2.843   4.028  0.3680  0.1332 -0.4314
 9101SOL    HW138936   0.600   2.892   3.952  0.0584  1.7467  0.4831
 9101SOL    HW238937   0.653   2.815   4.065  0.0626 -1.0377 -0.6211
 9102SOL     OW38938   1.387   0.543   4.280  0.0606  0.6270 -0.0444
 9102SOL    HW138939   1.368   0.619   4.336  0.7279  0.2368  0.7139
 9102SOL    HW238940   1.460   0.496   4.322 -0.2906  0.7733  0.7252
 9103SOL     OW38941   3.984   2.038   5.683 -0.1684 -0.3115 -0.3260
 9103SOL    HW138942   3.899   2.079   5.672 -1.2608 -1.9606  1.7626
 9103SOL    HW238943   4.008   2.003   5.597  0.3069  1.6751 -0.9898
 9104SOL     OW38944   3.574   4.515   8.556  0.4246  0.0834  0.9131
 9104SOL    HW138945   3.614   4.466   8.484  0.9436  0.3581  1.0095
 9104SOL    HW238946   3.568   4.600   8.512 -0.8232  0.1672  1.2551
 9105SOL     OW38947   3.320   4.412   7.197  0.4688 -0.6862 -0.0515
 9105SOL    HW138948   3.254   4.430   7.264  1.5291 -0.3656  0.8964
 9105SOL    HW238949   3.368   4.495   7.199 -0.2784 -0.2520 -0.0531
 9106SOL     OW38950   1.316   0.846  12.128 -0.3618  0.3990 -0.2566
 9106SOL    HW138951   1.278   0.775  12.179  2.0408  0.6290  1.8087
 9106SOL    HW238952   1.268   0.924  12.157  0.5388  0.1041  1.9681
 9107SOL     OW38953   4.695   0.868  13.529 -0.0777  0.1995  0.1255
 9107SOL    HW138954   4.646   0.908  13.601 -1.1657  1.1532 -1.1389
 9107SOL    HW238955   0.024   0.938  13.520 -1.6501  1.5680 -0.7672
 9108SOL     OW38956   3.482   1.829   3.951 -0.1757 -0.5378  0.4766
 9108SOL    HW138957   3.578   1.826   3.955 -0.1380  0.7371  0.3590
 9108SOL    HW238958   3.476   1.913   3.907 -1.7152 -0.3163  1.1005
 9109SOL     OW38959   2.986   3.752   5.996 -0.0250 -0.1606  0.5899
 9109SOL    HW138960   2.973   3.776   6.088 -0.7095  2.1119 -0.0865
 9109SOL    HW238961   2.898   3.720   5.978 -0.3375  0.5394  0.8817
 9110SOL     OW38962   2.031   1.808  12.817 -0.4931  0.3702  0.8171
 9110SOL    HW138963   2.119   1.830  12.846  0.8382 -1.3386 -1.9615
 9110SOL    HW238964   1.985   1.856  12.886 -1.1932  1.6021 -0.5140
 9111SOL     OW38965   1.858   3.789   4.767  0.3407  0.4402  0.6539
 9111SOL    HW138966   1.953   3.780   4.773  0.4292  2.1772  1.8912
 9111SOL    HW238967   1.835   3.707   4.724 -2.1501  0.5596  1.7458
 9112SOL     OW38968   1.226   3.357   3.719 -0.4247  0.2579 -0.1626
 9112SOL    HW138969   1.136   3.355   3.686  0.1375  0.7488 -1.7055
 9112SOL    HW238970   1.223   3.293   3.790  0.4286  0.4360  0.0307
 9113SOL     OW38971   1.833   4.617   2.362 -0.6187 -0.0758  0.5291
 9113SOL    HW138972   1.890   4.561   2.414 -1.8365 -1.1967  0.6656
 9113SOL    HW238973   1.780   4.556   2.311  1.1117 -0.2528 -1.0747
 9114SOL     OW38974   1.401   2.037   6.528 -0.2025  0.8459  0.0682
 9114SOL    HW138975   1.423   1.944   6.525 -3.2183  0.0880  1.7434
 9114SOL    HW238976   1.346   2.045   6.606  0.6788 -0.0358  0.7799
 9115SOL     OW38977   4.360   4.087   0.229  0.2190 -0.7607 -0.3046
 9115SOL    HW138978   4.435   4.055   0.180 -0.6304 -1.2145 -1.3219
 9115SOL    HW238979   4.336   4.167   0.181 -0.1306 -0.5192  0.2760
 9116SOL     OW38980   0.281   0.672  12.701 -0.1346 -0.3974  0.2511
 9116SOL    HW138981   0.331   0.727  12.641 -0.6754  0.2222  0.3693
 9116SOL    HW238982   0.194   0.689  12.666 -0.4199 -0.0201  1.1449
 9117SOL     OW38983   4.481   4.407   2.866  0.2740  0.8181  0.1119
 9117SOL    HW138984   4.398   4.377   2.901  0.8406 -0.6664  0.1937
 9117SOL    HW238985   4.544   4.338   2.886  0.5669  0.8320 -0.7398
 9118SOL     OW38986   1.565   2.706   1.719 -0.4220 -0.3301 -0.1612
 9118SOL    HW138987   1.503   2.647   1.676 -0.9538 -0.1673  0.3852
 9118SOL    HW238988   1.587   2.760   1.642 -4.4579  3.2889  1.1986
 9119SOL     OW38989   2.701   1.463   4.491  0.1159  0.4637  0.3034
 9119SOL    HW138990   2.778   1.457   4.547 -0.3564  1.2696  1.0237
 9119SOL    HW238991   2.739   1.433   4.408 -0.3166  1.4633 -0.2678
 9120SOL     OW38992   2.678   2.404   6.198  0.5714 -0.2689  0.4301
 9120SOL    HW138993   2.639   2.368   6.118  1.6118  1.2366 -0.7417
 9120SOL    HW238994   2.600   2.445   6.235  0.5975 -1.2349  1.5647
 9121SOL     OW38995   0.131   4.584   3.943  0.0632  0.5490 -0.0911
 9121SOL    HW138996   0.043   4.621   3.942  0.0486  0.5111 -0.2023
 9121SOL    HW238997   0.196   4.655   3.944 -0.7097  1.3299 -3.5167
 9122SOL     OW38998   4.157   0.786   4.335  0.7695 -0.2635  0.0851
 9122SOL    HW138999   4.179   0.721   4.268 -1.1642 -2.6953  1.7875
 9122SOL    HW239000   4.062   0.780   4.347  0.4857 -1.2610 -2.6596
 9123SOL     OW39001   0.536   2.534   9.771 -0.0049 -0.2003 -0.3528
 9123SOL    HW139002   0.481   2.462   9.741 -0.4262 -0.0432  0.0482
 9123SOL    HW239003   0.619   2.499   9.737  0.0860  0.3166 -0.6630
 9124SOL     OW39004   0.254   4.288  11.621 -0.0027  0.4433 -0.3514
 9124SOL    HW139005   0.291   4.337  11.695  1.6053  0.6745 -1.2962
 9124SOL    HW239006   0.253   4.350  11.548  0.8763  0.0078 -0.7438
 9125SOL     OW39007   0.242   0.276  10.675  0.1387  0.7727  0.1937
 9125SOL    HW139008   0.258   0.367  10.701 -0.8917  0.1249  3.0385
 9125SOL    HW239009   0.184   0.251  10.747  1.4775 -1.4026  0.5095
 9126SOL     OW39010   1.648   3.324   6.421 -0.5094 -0.2568 -0.6089
 9126SOL    HW139011   1.580   3.270   6.382 -0.8283 -0.1505 -0.1998
 9126SOL    HW239012   1.599   3.400   6.452  0.3310 -1.4559  3.6245
 9127SOL     OW39013   0.268   2.813  16.991 -0.0096 -0.2504  0.4946
 9127SOL    HW139014   0.208   2.842  16.922  0.9863  2.3345  0.7206
 9127SOL    HW239015   0.266   2.892  17.044  1.5578  1.2488 -1.7011
 9128SOL     OW39016   3.920   1.853  14.034  0.0383 -0.0562  0.2164
 9128SOL    HW139017   3.922   1.916  14.106  1.8862  0.2137 -0.0579
 9128SOL    HW239018   4.000   1.878  13.987 -0.4173 -0.3225 -0.7070
 9129SOL     OW39019   0.103   3.838   2.620 -0.0834 -0.3315 -0.0389
 9129SOL    HW139020   0.066   3.802   2.701 -1.0346  1.6148  0.3811
 9129SOL    HW239021   0.086   3.759   2.567  0.7099  0.8965 -2.1409
 9130SOL     OW39022   0.061   2.201   0.384  0.4283  0.4711 -0.5332
 9130SOL    HW139023   0.021   2.188   0.298 -0.7160 -2.6467  0.4466
 9130SOL    HW239024   0.152   2.184   0.361  0.7571  1.4563  0.0848
 9131SOL     OW39025   2.746   4.162   2.131 -0.0940 -0.1600  0.1595
 9131SOL    HW139026   2.834   4.182   2.164  0.5290 -0.8833 -1.0781
 9131SOL    HW239027   2.696   4.218   2.190 -1.4148 -1.6826  0.4883
 9132SOL     OW39028   3.236   1.905   4.436  0.2363  0.1570 -0.0365
 9132SOL    HW139029   3.301   1.913   4.365 -0.3884  1.1772 -0.4956
 9132SOL    HW239030   3.255   1.996   4.461 -2.6243  0.0996  2.2688
 9133SOL     OW39031   2.245   1.749  14.607 -0.0808  0.1760 -0.1957
 9133SOL    HW139032   2.188   1.691  14.558  0.2073  0.0197 -0.3468
 9133SOL    HW239033   2.183   1.820  14.621 -0.0486  0.0057  0.8384
 9134SOL     OW39034   1.373   1.444   4.832  0.1020 -0.4168  0.0448
 9134SOL    HW139035   1.394   1.511   4.767 -1.8857  0.5409  0.3600
 9134SOL    HW239036   1.397   1.479   4.918  3.9540  2.1964 -2.1138
 9135SOL     OW39037   1.342   1.559   0.152 -0.1125 -0.3387  0.8935
 9135SOL    HW139038   1.320   1.650   0.133 -1.6815 -0.9894 -0.3468
 9135SOL    HW239039   1.340   1.555   0.248 -2.3923  0.9802  0.8884
 9136SOL     OW39040   1.776   1.823  15.361  0.1568 -0.4017 -0.1982
 9136SOL    HW139041   1.732   1.806  15.444 -0.7851 -0.6758 -0.7548
 9136SOL    HW239042   1.785   1.918  15.371 -3.7699  0.0106 -0.8096
 9137SOL     OW39043   4.615   4.341  16.868  0.6219 -0.0774 -0.6933
 9137SOL    HW139044   4.602   4.426  16.911 -0.4379  0.1842 -1.5285
 9137SOL    HW239045   4.621   4.378  16.780 -0.5721 -0.9946 -1.1678
 9138SOL     OW39046   0.507   3.162  15.086  0.0051  0.5875 -0.1292
 9138SOL    HW139047   0.513   3.119  15.171 -0.9585  1.3495  0.3356
 9138SOL    HW239048   0.457   3.242  15.106  0.1487  1.2291 -2.2725
 9139SOL     OW39049   2.248   1.244   6.831  0.0162  0.1174 -0.2828
 9139SOL    HW139050   2.195   1.300   6.773  1.0031  0.7611 -0.5706
 9139SOL    HW239051   2.285   1.179   6.771 -0.6826 -0.8290  0.3200
 9140SOL     OW39052   1.075   3.885   9.439  0.2854 -0.5471  0.6981
 9140SOL    HW139053   1.014   3.895   9.512  1.3080  2.0332  1.2034
 9140SOL    HW239054   1.149   3.932   9.477  3.8678 -3.7682 -2.4050
 9141SOL     OW39055   1.261   1.789   5.025  0.1168  0.3335  0.6147
 9141SOL    HW139056   1.233   1.844   4.952 -0.6480 -0.6849  0.1433
 9141SOL    HW239057   1.227   1.845   5.095  1.0251  1.8968 -0.1965
 9142SOL     OW39058   4.131   0.753  10.325 -0.2340  0.5441 -0.0123
 9142SOL    HW139059   4.084   0.830  10.292 -0.0833  0.8914  0.5743
 9142SOL    HW239060   4.089   0.749  10.411 -0.4608 -1.6948 -0.2422
 9143SOL     OW39061   3.536   4.482   4.556  0.7222 -0.9463  0.3429
 9143SOL    HW139062   3.447   4.457   4.531 -1.3796  3.9170  2.9551
 9143SOL    HW239063   3.558   4.501   4.465  0.9035  0.0989  0.5979
 9144SOL     OW39064   1.959   1.126  14.529 -0.5788 -0.1463 -0.9237
 9144SOL    HW139065   1.998   1.112  14.615 -0.8925  0.4587 -0.6859
 9144SOL    HW239066   2.033   1.162  14.481  1.3221 -2.2017  0.4500
 9145SOL     OW39067   0.106   4.659   4.465 -0.0192  0.3682  0.1432
 9145SOL    HW139068   0.194   4.644   4.501 -0.0501 -1.8253 -0.7170
 9145SOL    HW239069   0.106   0.017   4.450  0.9395  0.5725  1.3808
 9146SOL     OW39070   0.236   1.516   5.304  0.3029  0.0314  0.3153
 9146SOL    HW139071   0.160   1.570   5.282  1.3272  1.5707  0.4868
 9146SOL    HW239072   0.204   1.432   5.273 -0.2388  0.5750 -0.5966
 9147SOL     OW39073   2.789   0.058   8.705  0.4440 -0.5238  0.8897
 9147SOL    HW139074   2.774   4.703   8.678  1.0634 -0.1543 -0.7011
 9147SOL    HW239075   2.882   0.062   8.725  0.9997 -3.7560 -1.0408
 9148SOL     OW39076   4.030   0.787  16.544  0.5082  0.6525 -0.3581
 9148SOL    HW139077   4.110   0.774  16.596 -0.7733 -1.9516  0.9894
 9148SOL    HW239078   3.971   0.745  16.607  0.9139  1.5247  0.5926
 9149SOL     OW39079   2.420   0.635   6.221  0.4426  0.3109 -0.1638
 9149SOL    HW139080   2.365   0.583   6.162  0.3241 -0.8110  0.9386
 9149SOL    HW239081   2.458   0.702   6.165 -0.1962  0.8451  0.0539
 9150SOL     OW39082   1.418   0.921   6.592 -0.0884 -0.6899 -0.0313
 9150SOL    HW139083   1.371   0.860   6.649 -0.6187 -0.0194  0.2372
 9150SOL    HW239084   1.500   0.877   6.566 -0.1720 -0.8313 -0.0603
 9151SOL     OW39085   2.205   1.830   4.569  0.2110 -0.1665  0.4493
 9151SOL    HW139086   2.173   1.743   4.544  1.6908 -1.3878  2.7567
 9151SOL    HW239087   2.232   1.852   4.480  0.3252 -1.7818  0.0733
 9152SOL     OW39088   0.125   3.318   6.454  0.4537  0.1809 -0.1579
 9152SOL    HW139089   0.212   3.285   6.430  0.1304 -1.5952  1.1752
 9152SOL    HW239090   0.109   3.267   6.533 -1.1655  3.9572  1.9288
 9153SOL     OW39091   0.361   3.613   8.183  0.1441  0.1681  0.5468
 9153SOL    HW139092   0.441   3.653   8.218 -0.9119  3.0215 -0.3505
 9153SOL    HW239093   0.399   3.584   8.100  2.9426  1.1354  1.4856
 9154SOL     OW39094   4.309   1.165  16.822 -0.3273  0.8866 -0.3666
 9154SOL    HW139095   4.372   1.221  16.868 -0.1140 -0.6581  1.2551
 9154SOL    HW239096   4.356   1.110  16.760 -1.2008  2.1457 -2.1464
 9155SOL     OW39097   0.194   0.984   1.298 -0.1531  0.1354 -0.4497
 9155SOL    HW139098   0.143   0.916   1.342  0.8971 -1.3877 -1.6067
 9155SOL    HW239099   0.151   1.069   1.310  1.3783  0.8859 -0.2854
 9156SOL     OW39100   4.153   1.562  17.691  0.4892 -0.2342 -0.1626
 9156SOL    HW139101   4.189   1.651  17.687 -0.0274  0.0147  0.6942
 9156SOL    HW239102   4.141   1.537  17.600  1.2319 -0.6199 -0.1552
 9157SOL     OW39103   0.658   2.676   7.404  0.4657 -0.6536  0.1206
 9157SOL    HW139104   0.653   2.678   7.308  1.8006 -3.4177 -0.0107
 9157SOL    HW239105   0.621   2.589   7.421  0.3416 -0.4469  0.9049
 9158SOL     OW39106   2.939   0.650   3.050  0.4435  0.1467 -0.1069
 9158SOL    HW139107   2.956   0.739   3.020 -0.2849  0.8467  1.5613
 9158SOL    HW239108   2.903   0.599   2.977 -0.7464 -0.7806  1.1425
 9159SOL     OW39109   2.278   2.840  15.640 -0.1767 -0.0188 -0.1564
 9159SOL    HW139110   2.193   2.861  15.601 -1.7164 -3.7614  1.1123
 9159SOL    HW239111   2.336   2.902  15.597 -0.6638  2.3967  2.6652
 9160SOL     OW39112   0.085   0.286  13.569  0.3233 -0.3499 -0.4839
 9160SOL    HW139113   0.040   0.370  13.578  0.4921 -0.3247  0.0837
 9160SOL    HW239114   0.170   0.313  13.604 -0.3929 -0.2921  1.2025
 9161SOL     OW39115   2.836   4.528   8.922  0.1830 -0.0176  0.0971
 9161SOL    HW139116   2.854   4.569   9.006  0.2527  2.5917 -1.1765
 9161SOL    HW239117   2.925   4.521   8.887  0.3728  0.2984  0.5237
 9162SOL     OW39118   0.278   4.302  15.075  0.9091  0.2320 -0.2224
 9162SOL    HW139119   0.320   4.383  15.105  0.2476  0.3149  0.4751
 9162SOL    HW239120   0.193   4.320  15.116 -0.0385 -3.2285 -0.6388
 9163SOL     OW39121   3.035   3.045   9.453  0.0454 -0.0290  0.2550
 9163SOL    HW139122   3.036   3.063   9.547  1.1527  0.4367  0.1486
 9163SOL    HW239123   3.059   3.129   9.414  1.2925 -0.1906  0.6704
 9164SOL     OW39124   4.332   3.331  15.381  0.5849 -0.2920  0.7932
 9164SOL    HW139125   4.399   3.355  15.446  0.5105 -2.0279  1.4982
 9164SOL    HW239126   4.375   3.344  15.297  0.5714  1.2210  1.0073
 9165SOL     OW39127   0.720   2.539   1.427 -0.2515 -0.2085 -0.5004
 9165SOL    HW139128   0.667   2.460   1.414 -0.8022  0.5782 -3.0080
 9165SOL    HW239129   0.789   2.533   1.361  0.4706  0.5863  0.1859
 9166SOL     OW39130   4.029   3.588   6.217  0.3174  0.2053  0.2489
 9166SOL    HW139131   4.014   3.656   6.151  0.5083  0.7455  0.7671
 9166SOL    HW239132   4.054   3.637   6.295  0.9291 -0.9202  0.7494
 9167SOL     OW39133   0.822   4.385   5.882 -0.0272 -0.7917 -0.0147
 9167SOL    HW139134   0.815   4.463   5.938  1.5306 -0.3012 -0.4995
 9167SOL    HW239135   0.872   4.411   5.805 -0.8645  2.0124  0.3790
 9168SOL     OW39136   0.279   1.759   5.876 -0.2120  0.3826  0.3095
 9168SOL    HW139137   0.284   1.805   5.791 -0.9361 -1.9670 -0.9897
 9168SOL    HW239138   0.229   1.819   5.932  1.8988 -0.0092  2.5906
 9169SOL     OW39139   2.269   4.476   6.819  0.7427  0.3203 -0.1873
 9169SOL    HW139140   2.201   4.413   6.797  0.2527  0.8075 -0.0840
 9169SOL    HW239141   2.217   4.532   6.878 -1.7219 -0.6257 -1.4548
 9170SOL     OW39142   1.220   0.914  10.710 -0.2829 -0.0963  0.1562
 9170SOL    HW139143   1.189   0.823  10.708  1.5674 -0.6912 -1.2687
 9170SOL    HW239144   1.158   0.950  10.647  1.1578 -0.2737 -1.3654
 9171SOL     OW39145   2.240   1.553   2.753 -0.4469 -0.7175 -0.0325
 9171SOL    HW139146   2.188   1.497   2.695 -0.7146  0.4279 -0.9009
 9171SOL    HW239147   2.310   1.496   2.785  0.9491  0.7938 -0.3424
 9172SOL     OW39148   1.978   4.229  12.951  0.0738 -0.7966 -0.2505
 9172SOL    HW139149   2.023   4.146  12.968  3.6331  1.4378  1.3136
 9172SOL    HW239150   2.020   4.285  13.017 -1.5309  1.2319 -0.9725
 9173SOL     OW39151   1.582   4.643   2.736 -0.3979 -0.0444 -0.0725
 9173SOL    HW139152   1.516   4.709   2.755 -1.8972 -1.2519 -1.1188
 9173SOL    HW239153   1.520   4.570   2.734 -1.1389  0.6037 -0.9893
 9174SOL     OW39154   1.131   2.556   4.570  0.6641 -0.0899  0.0114
 9174SOL    HW139155   1.108   2.638   4.526 -0.0628 -0.8985 -1.1377
 9174SOL    HW239156   1.044   2.524   4.593  0.9403 -0.9693 -0.1452
 9175SOL     OW39157   0.521   3.599  12.347  0.3476 -0.1886  0.1136
 9175SOL    HW139158   0.557   3.615  12.260 -1.9891  4.2714 -0.0547
 9175SOL    HW239159   0.592   3.644  12.391  0.0619 -0.6568  1.0677
 9176SOL     OW39160   0.159   2.097   7.025 -0.3268  0.0663 -0.5408
 9176SOL    HW139161   0.198   2.096   6.938 -0.2570  1.0371 -0.5226
 9176SOL    HW239162   0.115   2.182   7.026 -1.3198 -0.4579  1.2771
 9177SOL     OW39163   1.978   2.163  14.626  0.2546 -0.3518 -0.9102
 9177SOL    HW139164   1.939   2.247  14.604  0.8919  0.5357  1.3777
 9177SOL    HW239165   2.016   2.125  14.547  1.2800 -1.5891  0.1793
 9178SOL     OW39166   0.036   3.683  12.824  0.1610  0.6138  0.6953
 9178SOL    HW139167   0.019   3.777  12.834 -0.2831  0.3342  2.5343
 9178SOL    HW239168   0.065   3.656  12.911 -0.2381 -1.0351  0.3126
 9179SOL     OW39169   3.402   4.143   4.728  0.3323 -0.1618 -0.3838
 9179SOL    HW139170   3.397   4.082   4.654  0.6787  1.3430 -1.6719
 9179SOL    HW239171   3.495   4.168   4.727  0.2631  0.1098  1.1703
 9180SOL     OW39172   1.285   0.521  10.904 -0.1516  0.0888 -0.0615
 9180SOL    HW139173   1.371   0.527  10.945  0.5879 -0.6839 -1.5117
 9180SOL    HW239174   1.236   0.591  10.948  0.1829  0.5429 -0.4155
 9181SOL     OW39175   3.083   4.642  17.478  0.2101  0.1592  0.0442
 9181SOL    HW139176   3.056   4.724  17.519 -0.4065 -0.5412  1.0094
 9181SOL    HW239177   3.078   4.583  17.553 -3.6717 -0.3413 -0.6120
 9182SOL     OW39178   4.393   2.970   7.465  0.1539  0.2737  0.2166
 9182SOL    HW139179   4.425   3.047   7.512  0.8616  0.7526 -1.0380
 9182SOL    HW239180   4.333   2.934   7.530 -0.6316 -0.9502 -1.1918
 9183SOL     OW39181   2.266   2.673  10.104 -0.1786 -0.6349  0.1060
 9183SOL    HW139182   2.186   2.720  10.126 -0.5810  0.1057 -2.9262
 9183SOL    HW239183   2.323   2.671  10.181 -0.3448 -1.8741  0.2025
 9184SOL     OW39184   1.222   0.893   6.028 -0.7691 -0.1733  0.5388
 9184SOL    HW139185   1.143   0.841   6.043 -0.6628 -0.1931  1.0301
 9184SOL    HW239186   1.206   0.978   6.069 -0.6887  0.8064 -1.4485
 9185SOL     OW39187   3.041   3.663   4.750 -0.1845 -0.3867  0.1074
 9185SOL    HW139188   2.999   3.666   4.665  1.4381 -0.8557 -0.7184
 9185SOL    HW239189   3.136   3.660   4.733 -0.0444  0.0774  0.7774
 9186SOL     OW39190   0.082   2.171  17.360 -0.1528  0.0036 -0.1901
 9186SOL    HW139191   0.058   2.259  17.388 -1.3211  0.5689 -3.0274
 9186SOL    HW239192   0.069   2.163  17.266  2.0396  0.0743 -0.5153
 9187SOL     OW39193   4.110   0.319   5.977  0.2402 -0.6438 -0.1819
 9187SOL    HW139194   4.160   0.381   6.030 -2.3238  1.8765 -0.7020
 9187SOL    HW239195   4.036   0.292   6.030  1.7742 -0.5504  1.9837
 9188SOL     OW39196   4.045   1.536   3.341  0.4604  0.3391 -0.5071
 9188SOL    HW139197   4.136   1.512   3.362  0.1993 -0.8159 -0.6703
 9188SOL    HW239198   4.063   1.602   3.274  3.3569 -1.0519 -1.1336
 9189SOL     OW39199   3.957   3.236   0.221  0.3927  0.3933  0.7090
 9189SOL    HW139200   3.916   3.149   0.221  3.1005 -0.8737  1.2035
 9189SOL    HW239201   3.874   3.284   0.228 -0.5261 -0.7381 -2.3884
 9190SOL     OW39202   3.988   3.609   7.835 -0.3594  0.2034  0.5611
 9190SOL    HW139203   3.975   3.578   7.924  0.0402 -1.1087  0.1581
 9190SOL    HW239204   3.934   3.543   7.792  0.1837 -1.0906  1.8895
 9191SOL     OW39205   0.794   1.164  15.296 -0.0207  0.2816 -0.4673
 9191SOL    HW139206   0.761   1.220  15.226  1.0030 -0.3885 -1.4950
 9191SOL    HW239207   0.716   1.134  15.343  0.2634 -1.5422 -1.1511
 9192SOL     OW39208   2.243   2.731   7.935 -0.6997  0.0137  0.4529
 9192SOL    HW139209   2.160   2.753   7.978 -0.8731 -0.5078  0.3874
 9192SOL    HW239210   2.266   2.818   7.901  0.0569  0.2676  1.6057
 9193SOL     OW39211   1.538   0.315   0.900  0.6530  0.1942 -0.3997
 9193SOL    HW139212   1.627   0.346   0.885  0.0525  2.8696  1.3992
 9193SOL    HW239213   1.503   0.375   0.966  0.1655 -1.0883  0.4859
 9194SOL     OW39214   1.426   3.078   4.263  0.3431  0.0857 -0.0192
 9194SOL    HW139215   1.443   2.984   4.258 -1.2783 -0.2685  0.8948
 9194SOL    HW239216   1.350   3.079   4.205  0.1380  0.0874  0.2459
 9195SOL     OW39217   2.517   2.531   5.862 -0.5136  0.0581  0.1540
 9195SOL    HW139218   2.572   2.587   5.917 -0.6177 -0.3330  0.6559
 9195SOL    HW239219   2.495   2.463   5.926  2.4435 -0.3035  0.7900
 9196SOL     OW39220   0.393   2.756  12.285 -0.1630  0.3489 -0.4423
 9196SOL    HW139221   0.363   2.701  12.212  0.4734  0.3482 -0.7054
 9196SOL    HW239222   0.331   2.738  12.356  3.5671 -0.2099  2.6981
 9197SOL     OW39223   3.084   3.400  12.463  0.2808  0.2186  0.4003
 9197SOL    HW139224   3.104   3.307  12.475 -2.0791 -0.3079  0.3806
 9197SOL    HW239225   3.140   3.406  12.386 -2.2342  1.7285 -1.3152
 9198SOL     OW39226   0.959   1.607   7.472  0.3969 -0.7310  0.2865
 9198SOL    HW139227   1.009   1.671   7.523  2.1322 -1.6739 -0.2350
 9198SOL    HW239228   1.023   1.536   7.464  0.6106 -0.2992 -1.8905
 9199SOL     OW39229   0.617   2.401   8.278  0.3887 -0.1540  0.1324
 9199SOL    HW139230   0.658   2.323   8.315 -0.1380 -0.3618  0.2760
 9199SOL    HW239231   0.544   2.414   8.338 -1.0978  1.7178 -2.0728
 9200SOL     OW39232   2.176   3.860   8.227  0.5617 -0.4839  0.1977
 9200SOL    HW139233   2.123   3.783   8.246 -0.7951  0.1749 -0.9672
 9200SOL    HW239234   2.110   3.914   8.271  0.1823 -0.9550  0.2006
 9201SOL     OW39235   0.708   0.096  14.666  0.2193 -0.3089  0.2799
 9201SOL    HW139236   0.715   0.147  14.585  3.2927 -1.3586 -0.1380
 9201SOL    HW239237   0.614   0.096  14.682 -0.1776  0.3267 -2.1233
 9202SOL     OW39238   3.864   0.165   6.755  0.4065 -0.3200 -0.4000
 9202SOL    HW139239   3.939   0.161   6.814 -0.4063 -1.1192  0.5791
 9202SOL    HW239240   3.900   0.105   6.689 -1.4882 -1.3531 -0.4770
 9203SOL     OW39241   2.236   4.053   5.122 -0.1522  0.2169 -0.2889
 9203SOL    HW139242   2.238   4.149   5.113 -0.5926  0.3094  0.6929
 9203SOL    HW239243   2.331   4.042   5.130 -0.1748 -0.2418 -0.6448
 9204SOL     OW39244   0.457   3.565   5.861 -0.1996  0.3814  0.6401
 9204SOL    HW139245   0.466   3.574   5.766  0.4949 -1.9880  0.4843
 9204SOL    HW239246   0.541   3.553   5.905 -0.4393 -1.5586  0.5523
 9205SOL     OW39247   0.952   3.767   2.882 -0.1136 -0.1884 -0.0662
 9205SOL    HW139248   0.909   3.685   2.858  1.3545 -0.9088 -0.2234
 9205SOL    HW239249   1.042   3.736   2.886  0.2174  0.8137  0.3475
 9206SOL     OW39250   1.436   2.285   8.243  0.0292 -0.5320  0.6654
 9206SOL    HW139251   1.479   2.207   8.276  0.9827 -0.0363  0.6004
 9206SOL    HW239252   1.362   2.282   8.304  0.6633  1.8886  1.5495
 9207SOL     OW39253   3.597   2.144   1.359 -0.5258  0.1277 -0.0176
 9207SOL    HW139254   3.541   2.069   1.383 -0.9432  0.3199 -0.4028
 9207SOL    HW239255   3.573   2.153   1.267 -1.3402  0.8314  0.2688
 9208SOL     OW39256   2.539   2.790   0.483  0.2087  0.2804  0.0300
 9208SOL    HW139257   2.633   2.790   0.500  0.3915  1.3560 -1.0311
 9208SOL    HW239258   2.528   2.723   0.415  1.2014  1.2766 -1.0972
 9209SOL     OW39259   0.677   3.427   7.389 -0.2714 -0.1517  0.5247
 9209SOL    HW139260   0.584   3.440   7.370 -0.4633 -2.9609 -0.3696
 9209SOL    HW239261   0.694   3.445   7.482  1.8834 -1.0535  0.3110
 9210SOL     OW39262   0.720   0.479  12.046 -0.0963  0.6345 -0.2009
 9210SOL    HW139263   0.625   0.476  12.045 -0.0000 -2.0672  0.9034
 9210SOL    HW239264   0.729   0.574  12.033  0.7659  0.7762  1.4104
 9211SOL     OW39265   3.122   0.373   7.694 -0.1068 -0.2202  0.2834
 9211SOL    HW139266   3.096   0.295   7.744 -3.4297  0.8171  0.2080
 9211SOL    HW239267   3.036   0.415   7.689  0.0847  0.1164 -0.1349
 9212SOL     OW39268   2.271   0.223  16.757  0.0150  0.8144 -0.1754
 9212SOL    HW139269   2.306   0.200  16.843 -0.9522  0.0986  0.0211
 9212SOL    HW239270   2.311   0.155  16.703  0.1797  2.4518 -2.1262
 9213SOL     OW39271   2.849   0.781   2.228 -0.5333  0.0998 -0.2013
 9213SOL    HW139272   2.863   0.732   2.147 -0.8234 -0.2146 -0.0612
 9213SOL    HW239273   2.822   0.707   2.282 -1.4079  0.3055 -0.3426
 9214SOL     OW39274   3.076   3.485   4.990  0.3427  0.0527 -0.4291
 9214SOL    HW139275   3.001   3.495   5.049  1.2218 -1.3687  0.9138
 9214SOL    HW239276   3.060   3.547   4.918 -0.7558 -2.1533 -2.0983
 9215SOL     OW39277   0.415   0.364   5.840  0.0127 -0.7152  0.1396
 9215SOL    HW139278   0.361   0.435   5.805  2.3977  1.0286 -0.0157
 9215SOL    HW239279   0.462   0.353   5.757 -1.5213 -0.9086 -0.7136
 9216SOL     OW39280   3.630   4.000  16.568  0.7248  0.2846  0.8249
 9216SOL    HW139281   3.720   3.972  16.552  0.8659  0.6229  1.0126
 9216SOL    HW239282   3.615   4.058  16.493 -1.3030 -2.6300 -1.0390
 9217SOL     OW39283   4.640   3.904   4.145  0.1856  0.4060 -0.0225
 9217SOL    HW139284   4.645   3.973   4.079 -0.1599 -1.5744 -2.1456
 9217SOL    HW239285   4.681   3.833   4.095 -0.0348 -0.9686  1.7450
 9218SOL     OW39286   0.049   1.800   7.607 -0.3185 -0.4832  0.2361
 9218SOL    HW139287   0.038   1.770   7.517 -0.7634 -1.2397  0.5505
 9218SOL    HW239288   0.029   1.894   7.598 -1.4922 -0.7531  0.0705
 9219SOL     OW39289   0.699   3.888   7.515  0.8275  0.1477 -0.6956
 9219SOL    HW139290   0.757   3.850   7.582 -0.0886 -2.3443 -1.3166
 9219SOL    HW239291   0.690   3.814   7.455 -0.0420 -0.1553 -0.1926
 9220SOL     OW39292   0.673   2.096   2.174  0.0466  0.3569 -0.3833
 9220SOL    HW139293   0.692   2.050   2.256  0.2981  0.2458 -0.5059
 9220SOL    HW239294   0.651   2.020   2.120  1.9742 -0.2142 -0.3549
 9221SOL     OW39295   2.484   0.755   9.760 -0.2249 -0.3895 -0.0834
 9221SOL    HW139296   2.485   0.816   9.834  1.1848 -0.0883 -0.3638
 9221SOL    HW239297   2.396   0.717   9.770 -0.4071  0.4678  1.5973
 9222SOL     OW39298   1.907   3.833   7.369 -0.1260 -1.0868  0.3595
 9222SOL    HW139299   1.909   3.836   7.464  0.7824 -1.0080  0.3418
 9222SOL    HW239300   1.946   3.914   7.335 -0.5383 -1.0817 -0.1048
 9223SOL     OW39301   1.154   1.134   9.446 -0.2095  1.3190 -0.1155
 9223SOL    HW139302   1.153   1.228   9.465  0.8441  0.8310  2.3572
 9223SOL    HW239303   1.166   1.092   9.531  0.1712  0.1351 -0.7476
 9224SOL     OW39304   3.166   4.042   7.662  0.2115 -0.4925  0.2348
 9224SOL    HW139305   3.082   3.996   7.663 -0.5738  0.9677  0.7501
 9224SOL    HW239306   3.183   4.056   7.569  2.4333  3.3112  1.2418
 9225SOL     OW39307   1.171   2.809   0.097 -0.2644 -0.4550 -0.5478
 9225SOL    HW139308   1.161   2.796   0.191  0.8020 -1.0214 -0.5087
 9225SOL    HW239309   1.114   2.743   0.057 -1.0749  1.3725 -2.4126
 9226SOL     OW39310   0.197   3.301   7.501 -0.6201  0.4757  0.4450
 9226SOL    HW139311   0.182   3.288   7.408 -0.4321 -0.4032  0.5381
 9226SOL    HW239312   0.243   3.220   7.524  0.6013  0.5372 -1.8817
 9227SOL     OW39313   1.286   2.991   6.034 -0.5924  0.1231  0.4367
 9227SOL    HW139314   1.202   2.948   6.049  0.4231 -1.6484  1.0762
 9227SOL    HW239315   1.257   3.076   6.066 -2.4730 -0.8028  1.1675
 9228SOL     OW39316   4.056   1.610  14.021  0.0644  0.1886  0.5905
 9228SOL    HW139317   4.112   1.624  13.945  0.6472  0.5463  1.0842
 9228SOL    HW239318   4.002   1.688  14.010  0.5317 -0.0425 -3.3983
 9229SOL     OW39319   0.879   0.882   2.119 -0.2186 -0.0875  0.2047
 9229SOL    HW139320   0.929   0.801   2.107  1.5553  0.6557  2.6846
 9229SOL    HW239321   0.907   0.936   2.045 -0.8744 -0.7131 -0.4938
 9230SOL     OW39322   4.588   1.769   9.949  0.0514  0.0881 -0.0059
 9230SOL    HW139323   4.548   1.769  10.036 -1.3950  0.8617 -0.6565
 9230SOL    HW239324   4.531   1.721   9.888 -1.1934  2.5141 -0.7904
 9231SOL     OW39325   4.095   1.257   8.735 -0.6412  0.1365  0.1913
 9231SOL    HW139326   4.042   1.318   8.684  1.1773  2.2874  0.8879
 9231SOL    HW239327   4.072   1.174   8.692  0.8240  0.2712 -0.8318
 9232SOL     OW39328   4.458   2.482   7.881 -0.0586  0.4099  0.2203
 9232SOL    HW139329   4.520   2.436   7.938  1.8821  1.0786 -1.3230
 9232SOL    HW239330   4.400   2.524   7.945  1.8074 -0.7202  2.6397
 9233SOL     OW39331   1.217   1.813   3.416 -0.4090 -0.3154 -0.0235
 9233SOL    HW139332   1.141   1.856   3.456  0.7750  1.9708 -0.2520
 9233SOL    HW239333   1.282   1.867   3.461 -0.8901  0.1583  0.1204
 9234SOL     OW39334   3.622   0.551   4.947  0.3647 -0.1984 -0.5600
 9234SOL    HW139335   3.609   0.542   5.041  1.4194  0.0659 -0.3932
 9234SOL    HW239336   3.555   0.490   4.916  2.0955 -2.0159 -0.7393
 9235SOL     OW39337   2.607   2.833   3.541  0.4383  0.1547  0.2417
 9235SOL    HW139338   2.686   2.785   3.563  1.0691  0.8433 -0.5603
 9235SOL    HW239339   2.565   2.769   3.483 -0.8269 -0.2326  1.5596
 9236SOL     OW39340   4.628   3.262  15.135 -0.0692  0.5424 -0.0726
 9236SOL    HW139341   4.559   3.221  15.083 -0.3518  4.4332 -2.7908
 9236SOL    HW239342   4.625   3.208  15.214  2.8142 -0.4571 -0.6262
 9237SOL     OW39343   3.017   3.842   5.757  0.7967  0.5549 -0.3115
 9237SOL    HW139344   3.003   3.806   5.844  0.8976  1.6751  0.1639
 9237SOL    HW239345   2.983   3.929   5.777  0.9754 -0.4383  4.2003
 9238SOL     OW39346   0.728   1.412   0.559 -0.3317  0.1979 -0.0953
 9238SOL    HW139347   0.688   1.393   0.643 -1.3432  0.3510 -0.5427
 9238SOL    HW239348   0.662   1.387   0.494 -0.0287 -1.4031  0.2256
 9239SOL     OW39349   3.599   2.903  10.392 -0.4194 -0.0703 -0.2871
 9239SOL    HW139350   3.511   2.923  10.360  0.1545  2.3534 -0.3170
 9239SOL    HW239351   3.576   2.812  10.415 -1.6462  0.7793  1.8579
 9240SOL     OW39352   4.390   0.138  12.254 -0.5983  0.1693  0.3739
 9240SOL    HW139353   4.377   0.064  12.313  0.6343  1.9331  2.9069
 9240SOL    HW239354   4.486   0.144  12.262 -0.5805 -0.6044  0.7271
 9241SOL     OW39355   0.200   3.295   7.214  0.6349  0.4603 -0.3136
 9241SOL    HW139356   0.172   3.325   7.128  0.3078  2.2933  0.4248
 9241SOL    HW239357   0.277   3.240   7.204  1.6823  1.7993  0.4479
 9242SOL     OW39358   4.574   1.193  15.069 -0.6353 -0.2931 -0.0556
 9242SOL    HW139359   4.655   1.199  15.017 -0.1679 -0.6834  0.6166
 9242SOL    HW239360   4.524   1.274  15.059  0.1256  0.0895 -0.8234
 9243SOL     OW39361   0.094   2.411  17.636  0.3962 -0.1795  0.2782
 9243SOL    HW139362   0.136   2.487  17.675 -1.8858  1.0046  0.4373
 9243SOL    HW239363   0.132   2.345  17.693 -1.1883  0.3195  1.9143
 9244SOL     OW39364   1.123   3.053   7.088  0.4297 -0.4738 -0.1577
 9244SOL    HW139365   1.155   2.976   7.135 -0.9105 -0.7449  0.3000
 9244SOL    HW239366   1.064   3.022   7.019 -0.0337 -1.0427  0.4985
 9245SOL     OW39367   4.281   1.915   2.832 -0.2083 -0.1097  0.6280
 9245SOL    HW139368   4.284   1.823   2.858  1.8301 -0.3726 -0.5139
 9245SOL    HW239369   4.355   1.924   2.772 -1.5900 -0.6680 -1.1585
 9246SOL     OW39370   2.863   2.237   4.902  0.2517  0.7309  0.3247
 9246SOL    HW139371   2.835   2.167   4.961  0.0777  0.9894  0.5495
 9246SOL    HW239372   2.897   2.191   4.825  0.0849  0.0939  0.6326
 9247SOL     OW39373   2.259   0.961   0.934 -0.3537  0.4505  0.1646
 9247SOL    HW139374   2.225   0.884   0.889  0.7650 -0.1994  0.4412
 9247SOL    HW239375   2.273   0.928   1.023  0.4901  0.5337  0.0583
 9248SOL     OW39376   1.168   1.876   2.408  0.5571  0.0739  0.2515
 9248SOL    HW139377   1.183   1.908   2.498  0.5605 -2.8923  1.3086
 9248SOL    HW239378   1.158   1.966   2.376  0.0386 -0.7913 -1.9391
 9249SOL     OW39379   3.352   0.655   6.814 -0.1763  0.2983  0.5721
 9249SOL    HW139380   3.259   0.656   6.790 -0.0118 -0.2821 -0.1001
 9249SOL    HW239381   3.345   0.721   6.883  1.8257  2.0209 -0.8799
 9250SOL     OW39382   2.006   3.460  13.548 -0.0986  0.1649  0.2249
 9250SOL    HW139383   2.025   3.418  13.631  2.1273 -0.1575 -0.4319
 9250SOL    HW239384   1.927   3.412  13.524 -0.7342  0.0027  2.6688
 9251SOL     OW39385   0.637   3.576   7.893  0.2138 -0.2618 -0.2635
 9251SOL    HW139386   0.644   3.671   7.902 -2.9476  0.0676 -1.1394
 9251SOL    HW239387   0.656   3.549   7.983  0.8020 -0.1632 -0.3576
 9252SOL     OW39388   4.241   0.636   5.203 -0.3406 -0.1324 -0.0109
 9252SOL    HW139389   4.160   0.625   5.154 -0.3534 -0.1732  0.0197
 9252SOL    HW239390   4.292   0.560   5.173 -1.0076 -0.0443 -1.3550
 9253SOL     OW39391   3.330   3.420  17.529 -0.1184 -0.2169  0.2097
 9253SOL    HW139392   3.236   3.437  17.515 -0.5080 -2.1890  0.3588
 9253SOL    HW239393   3.338   3.347  17.468  0.8103  0.3813 -0.3880
 9254SOL     OW39394   2.667   0.589   2.035  0.2623  0.2173 -0.6455
 9254SOL    HW139395   2.683   0.499   2.063 -1.8738  0.4839  1.4664
 9254SOL    HW239396   2.596   0.610   2.097  1.1679  0.0071  0.4647
 9255SOL     OW39397   4.515   1.314   4.115 -0.9017  0.4752  0.4681
 9255SOL    HW139398   4.475   1.400   4.122 -3.3120 -0.3124 -3.7207
 9255SOL    HW239399   4.523   1.287   4.207 -0.9444 -0.2471  0.2644
 9256SOL     OW39400   3.003   0.274  11.709 -0.1920  0.1037 -0.3963
 9256SOL    HW139401   3.076   0.333  11.696 -0.4426  0.1770 -1.4314
 9256SOL    HW239402   3.020   0.204  11.646 -2.3944  0.7483 -1.7061
 9257SOL     OW39403   3.825   1.978   2.025  0.3839  0.7608  0.3998
 9257SOL    HW139404   3.916   1.962   2.050  0.1312  0.8849  1.3924
 9257SOL    HW239405   3.784   1.972   2.111  2.7238 -0.8960  1.3951
 9258SOL     OW39406   1.440   4.582   4.743  0.1434 -0.5984 -0.2634
 9258SOL    HW139407   1.471   4.628   4.820 -0.2482 -0.7116 -0.0377
 9258SOL    HW239408   1.380   4.644   4.701  1.1844 -0.0970 -0.9819
 9259SOL     OW39409   3.238   2.560   5.738 -0.0238 -0.2360 -0.1590
 9259SOL    HW139410   3.157   2.606   5.718 -0.2659 -0.8340 -0.5664
 9259SOL    HW239411   3.214   2.534   5.827 -1.0065 -1.8684 -0.9019
 9260SOL     OW39412   0.286   3.464  12.471 -0.3751  0.3906 -0.1001
 9260SOL    HW139413   0.297   3.529  12.540 -2.3274  0.5289  0.0643
 9260SOL    HW239414   0.349   3.499  12.408 -0.6078  0.5181 -0.2581
 9261SOL     OW39415   1.733   3.493   2.054  0.5590 -0.4106 -0.0798
 9261SOL    HW139416   1.810   3.474   2.001  0.7657  0.5643 -0.1224
 9261SOL    HW239417   1.662   3.455   2.001  1.5970 -2.5628  0.0473
 9262SOL     OW39418   4.183   3.277   3.557 -0.1521  0.2550  0.2904
 9262SOL    HW139419   4.157   3.271   3.649 -1.0601 -0.4173 -0.0057
 9262SOL    HW239420   4.116   3.337   3.523  0.7183  1.4006  0.6109
 9263SOL     OW39421   4.629   3.902   7.234 -0.2912 -0.2935  0.1014
 9263SOL    HW139422   4.581   3.985   7.239 -1.7891 -1.1104 -0.6574
 9263SOL    HW239423   4.631   3.880   7.327 -0.1293  0.6374  0.3198
 9264SOL     OW39424   0.759   4.119   7.789  0.0058  0.0227  0.0148
 9264SOL    HW139425   0.683   4.061   7.799 -1.6864  1.8690 -2.0050
 9264SOL    HW239426   0.821   4.082   7.851 -0.9245 -0.9937  0.3476
 9265SOL     OW39427   0.990   2.943   2.773 -0.1050  0.6601  0.0056
 9265SOL    HW139428   0.969   2.872   2.712  0.6075 -0.0417  0.5786
 9265SOL    HW239429   1.081   2.925   2.796  0.3643  0.6543 -1.7810
 9266SOL     OW39430   4.616   1.721   9.569  0.5114 -0.3850 -0.2576
 9266SOL    HW139431   4.551   1.675   9.622  0.6516 -2.5673 -2.0123
 9266SOL    HW239432   4.579   1.810   9.572 -2.4930 -1.5927 -1.5664
 9267SOL     OW39433   3.184   0.472  12.591  0.0114 -0.3129  0.5783
 9267SOL    HW139434   3.129   0.424  12.529 -0.3024  1.0198 -0.1591
 9267SOL    HW239435   3.147   0.559  12.578 -0.1916 -0.4189  0.4568
 9268SOL     OW39436   3.090   2.760   7.984  0.4872  0.6136 -0.2528
 9268SOL    HW139437   3.172   2.730   7.944 -1.5446 -2.5319 -2.0164
 9268SOL    HW239438   3.119   2.767   8.075  0.7821 -2.7565 -0.1131
 9269SOL     OW39439   2.434   0.285  17.721  0.6367 -0.3397  0.0542
 9269SOL    HW139440   2.410   0.351  17.656 -0.5344 -0.7787  0.0533
 9269SOL    HW239441   2.365   0.301   0.042  1.1076 -1.2402  0.7768
 9270SOL     OW39442   0.605   0.942   9.800 -0.0440 -0.0499 -0.0495
 9270SOL    HW139443   0.552   0.862   9.811  1.8302 -1.2324  0.3071
 9270SOL    HW239444   0.618   0.937   9.706 -1.2932  0.5060 -0.2606
 9271SOL     OW39445   4.131   1.531  14.750 -0.5997 -0.3851  0.1366
 9271SOL    HW139446   4.213   1.574  14.727  0.1151 -1.4191  0.7445
 9271SOL    HW239447   4.159   1.496  14.835  1.2496 -0.3770 -0.4718
 9272SOL     OW39448   2.374   2.972   5.614  0.0320 -0.1467 -0.4797
 9272SOL    HW139449   2.431   3.019   5.553 -0.0578 -0.4563 -0.8047
 9272SOL    HW239450   2.404   2.882   5.603 -0.3084 -0.3437  0.2433
 9273SOL     OW39451   1.606   0.556   7.438 -0.4129 -0.3157 -0.7793
 9273SOL    HW139452   1.696   0.526   7.425 -0.3275  0.4257 -1.9409
 9273SOL    HW239453   1.564   0.473   7.416 -0.6145 -0.1471 -1.0415
 9274SOL     OW39454   1.446   0.174  17.637  0.2372  0.0184 -0.4983
 9274SOL    HW139455   1.464   0.249  17.694 -0.2989  1.3067 -1.9918
 9274SOL    HW239456   1.357   0.155  17.667 -0.2119 -1.5035 -2.7731
 9275SOL     OW39457   4.454   4.657   2.394  0.1543 -0.4861  0.5857
 9275SOL    HW139458   4.539   4.691   2.421 -0.8314  1.6983  0.9158
 9275SOL    HW239459   4.487   4.591   2.333 -1.4146  0.4307 -1.2866
 9276SOL     OW39460   1.035   2.213   7.126  0.0867  0.1187  0.0129
 9276SOL    HW139461   0.963   2.192   7.066  0.0671 -0.4359  0.2307
 9276SOL    HW239462   1.057   2.122   7.145  2.0841  0.3351 -1.2780
 9277SOL     OW39463   1.173   2.907  15.106 -0.2675  0.2842 -0.1792
 9277SOL    HW139464   1.144   2.818  15.127 -0.2371  0.4102  0.3874
 9277SOL    HW239465   1.102   2.951  15.152 -0.1478  0.6312 -0.3223
 9278SOL     OW39466   0.722   3.826   8.020  0.0634  0.7439 -0.3184
 9278SOL    HW139467   0.691   3.911   8.051  0.4093 -0.1076  2.4273
 9278SOL    HW239468   0.803   3.847   7.974 -1.4066 -1.2955 -3.8051
 9279SOL     OW39469   1.187   0.376   4.165  0.1243 -0.2682  0.0401
 9279SOL    HW139470   1.267   0.409   4.207  0.5400 -1.2249  0.0133
 9279SOL    HW239471   1.131   0.450   4.143  1.8132  1.2593  0.8867
 9280SOL     OW39472   3.558   4.270  11.825  0.4185  0.5763 -0.3684
 9280SOL    HW139473   3.491   4.280  11.893  2.3152 -0.4601  1.6390
 9280SOL    HW239474   3.634   4.299  11.875  0.7276 -1.1108  0.1332
 9281SOL     OW39475   3.220   0.053   3.190  0.1376 -0.0373  0.0426
 9281SOL    HW139476   3.141   0.013   3.226  1.7514 -3.9118 -0.6762
 9281SOL    HW239477   3.297   0.014   3.232  1.1550  1.1690 -0.7058
 9282SOL     OW39478   2.081   3.037   1.669 -0.2966 -0.5183 -0.3264
 9282SOL    HW139479   2.081   3.055   1.763 -0.3810 -2.3070  0.0222
 9282SOL    HW239480   2.120   2.949   1.666  1.1767 -0.0333  3.9453
 9283SOL     OW39481   4.499   3.794   4.721 -0.1917  0.6209  0.0142
 9283SOL    HW139482   4.555   3.828   4.792  0.7200  1.8283 -1.2742
 9283SOL    HW239483   4.573   3.756   4.673 -1.0239  0.2035 -0.9249
 9284SOL     OW39484   3.583   0.982  13.891 -0.6811  0.2241  0.4577
 9284SOL    HW139485   3.626   1.048  13.946  0.6470 -1.0471  0.9365
 9284SOL    HW239486   3.594   0.903  13.945 -1.3440  0.1868  0.5414
 9285SOL     OW39487   3.194   2.870   9.763  0.4232 -0.5998  0.1724
 9285SOL    HW139488   3.142   2.886   9.841  0.7833 -0.2610  0.3447
 9285SOL    HW239489   3.133   2.826   9.705  0.2782  0.3957 -0.4331
 9286SOL     OW39490   1.894   0.737   7.093  0.0832 -0.7481  0.0182
 9286SOL    HW139491   1.931   0.700   7.012  0.4891 -0.6770  0.1712
 9286SOL    HW239492   1.937   0.823   7.091  0.2511 -0.8117  1.0262
 9287SOL     OW39493   4.649   4.427   3.587  0.3004  0.9380  0.1014
 9287SOL    HW139494   4.604   4.366   3.528  1.1086 -0.0387  0.4954
 9287SOL    HW239495   4.599   4.504   3.559 -1.7955 -0.3659  0.2670
 9288SOL     OW39496   2.418   3.717   8.164 -0.0581  0.6877  0.3850
 9288SOL    HW139497   2.368   3.799   8.171 -0.9551  0.0433  1.4771
 9288SOL    HW239498   2.501   3.748   8.126 -0.2362  2.1589  1.1660
 9289SOL     OW39499   1.757   2.451   1.711 -0.5287  0.0473  0.1484
 9289SOL    HW139500   1.825   2.394   1.674 -1.5762 -0.9851 -0.1751
 9289SOL    HW239501   1.811   2.528   1.728  2.6085 -2.0265 -0.2333
 9290SOL     OW39502   0.917   4.367   8.089  0.5405 -0.2015  0.2011
 9290SOL    HW139503   0.852   4.327   8.146  1.9200 -0.9192  1.2563
 9290SOL    HW239504   0.859   4.426   8.040 -0.8546 -1.8146 -0.0954
 9291SOL     OW39505   1.938   3.070   5.761 -0.4218  0.0273  0.3965
 9291SOL    HW139506   2.033   3.079   5.774 -0.2326  0.7755 -1.3962
 9291SOL    HW239507   1.896   3.151   5.787  0.9860  0.1697  2.2121
 9292SOL     OW39508   3.800   3.331   3.124  0.5399  0.5556 -0.0515
 9292SOL    HW139509   3.728   3.394   3.127 -0.7413 -0.7850 -2.4285
 9292SOL    HW239510   3.864   3.379   3.176 -0.9227  0.2221  2.0775
 9293SOL     OW39511   2.455   1.571  14.658  0.1615  0.6883 -0.2034
 9293SOL    HW139512   2.435   1.564  14.565  0.1426  1.1019 -0.2299
 9293SOL    HW239513   2.376   1.623  14.673 -2.0318 -2.6487 -0.3227
 9294SOL     OW39514   1.892   3.350  14.297  0.6356 -0.0443 -0.5943
 9294SOL    HW139515   1.934   3.376  14.379  0.3072  0.8856 -0.7216
 9294SOL    HW239516   1.850   3.434  14.278  0.2666  0.4152  2.1691
 9295SOL     OW39517   0.262   0.543   5.700 -0.3805  1.0214  0.1693
 9295SOL    HW139518   0.293   0.551   5.610 -3.3595  1.1812 -0.8490
 9295SOL    HW239519   0.188   0.604   5.699 -2.0555 -0.9276  2.7776
 9296SOL     OW39520   2.225   0.276   1.702  0.2030  0.0911  0.2264
 9296SOL    HW139521   2.284   0.298   1.631 -1.0387  1.9550 -0.2276
 9296SOL    HW239522   2.155   0.337   1.680  1.8707  1.7952 -0.3377
 9297SOL     OW39523   4.606   0.506   7.799  0.1522 -0.2925 -0.2625
 9297SOL    HW139524   4.624   0.571   7.730  0.7397 -0.8856 -0.6689
 9297SOL    HW239525   4.516   0.509   7.831  1.0745  0.4725  2.2452
 9298SOL     OW39526   1.493   0.304   5.595 -0.4431 -0.2787  0.3575
 9298SOL    HW139527   1.399   0.290   5.585 -0.5061 -0.1345  0.7784
 9298SOL    HW239528   1.506   0.366   5.667  0.1909  1.1058 -0.9392
 9299SOL     OW39529   4.479   0.746   6.796 -0.1394  0.2910  0.2901
 9299SOL    HW139530   4.547   0.779   6.854 -1.8855  3.0751  0.7215
 9299SOL    HW239531   4.527   0.751   6.713  0.4012  0.3398  0.6090
 9300SOL     OW39532   1.369   3.533  14.479  0.2601 -0.4358 -0.4662
 9300SOL    HW139533   1.335   3.576  14.557 -2.8643 -0.3311 -1.8711
 9300SOL    HW239534   1.321   3.576  14.408 -1.0311 -1.1784 -0.0303
 9301SOL     OW39535   4.322   1.781   9.515  0.0709  0.0449  0.0601
 9301SOL    HW139536   4.266   1.742   9.582  3.2999 -1.6069  1.7431
 9301SOL    HW239537   4.247   1.807   9.461 -0.7224 -0.9225  0.6917
 9302SOL     OW39538   2.522   1.104   3.560  0.0472 -0.3948 -0.0828
 9302SOL    HW139539   2.440   1.142   3.593  1.4670  3.2178 -0.7021
 9302SOL    HW239540   2.506   1.012   3.540 -0.0265 -0.0081 -1.8511
 9303SOL     OW39541   4.129   4.438   8.166  0.7485 -0.1829 -0.0291
 9303SOL    HW139542   4.204   4.453   8.109  0.8617 -0.5564  0.0221
 9303SOL    HW239543   4.106   4.530   8.176  0.6882 -0.0887 -1.1091
 9304SOL     OW39544   4.106   1.855   7.056 -0.1744 -0.4358 -0.4438
 9304SOL    HW139545   4.059   1.860   7.139 -0.0108  0.9020 -0.4449
 9304SOL    HW239546   4.042   1.824   6.992  1.3510 -2.4707 -0.9839
 9305SOL     OW39547   0.443   0.963  14.926  0.0818 -0.2060 -0.2600
 9305SOL    HW139548   0.355   0.961  14.887  1.2019 -0.0174 -2.7957
 9305SOL    HW239549   0.487   1.039  14.890 -0.4813  0.7342  1.0239
 9306SOL     OW39550   2.158   1.351   7.099  0.3322  0.7540 -0.4189
 9306SOL    HW139551   2.156   1.310   7.013  0.4325  0.5068 -0.3026
 9306SOL    HW239552   2.205   1.291   7.156  0.5327  2.5938  1.3614
 9307SOL     OW39553   4.373   2.513   3.457 -0.4343 -0.5367  0.1862
 9307SOL    HW139554   4.358   2.419   3.464  0.5264 -0.6985  0.1861
 9307SOL    HW239555   4.342   2.534   3.545  0.5449 -1.1572  0.6769
 9308SOL     OW39556   3.458   0.426   8.791 -0.2497  1.0564 -0.0256
 9308SOL    HW139557   3.435   0.486   8.862 -1.8070  0.1894  0.2065
 9308SOL    HW239558   3.408   0.460   8.717 -0.7865  2.1698  0.8376
 9309SOL     OW39559   3.003   0.753   1.046  0.0987 -0.1394 -0.7459
 9309SOL    HW139560   3.025   0.725   1.135 -2.3556  2.2922  0.6218
 9309SOL    HW239561   3.006   0.848   1.056  0.2589 -0.1898 -0.2999
 9310SOL     OW39562   4.642   0.918   3.737 -0.2542 -0.2471 -0.1273
 9310SOL    HW139563   4.549   0.902   3.721 -0.3718  0.4783 -0.1693
 9310SOL    HW239564   4.634   1.004   3.778 -0.8563 -0.9257  1.1652
 9311SOL     OW39565   2.580   1.707   6.864  0.0417  0.3558  0.5288
 9311SOL    HW139566   2.501   1.761   6.862 -0.4939 -0.4662 -0.6663
 9311SOL    HW239567   2.545   1.618   6.858 -0.6502  0.7209 -0.9694
 9312SOL     OW39568   3.740   2.793  17.424  0.0084 -0.2971 -0.2211
 9312SOL    HW139569   3.763   2.796  17.331  1.9723  1.8755  0.3438
 9312SOL    HW239570   3.700   2.706  17.430  0.5854 -0.5858 -0.5405
 9313SOL     OW39571   1.563   2.795   4.257  0.3361 -0.3002 -0.0191
 9313SOL    HW139572   1.491   2.732   4.259  0.3975 -0.3971 -1.2074
 9313SOL    HW239573   1.614   2.780   4.178  0.3007 -2.3814  0.3505
 9314SOL     OW39574   0.372   4.616  15.114 -0.6601 -0.1877 -0.9375
 9314SOL    HW139575   0.282   4.637  15.140  0.3480  0.2502  2.1631
 9314SOL    HW239576   0.374   4.666  15.032 -0.7942  3.1174  1.1250
 9315SOL     OW39577   1.030   3.711   5.721 -0.2018 -0.0100 -0.4919
 9315SOL    HW139578   1.121   3.685   5.730 -0.3749 -0.1862  0.7053
 9315SOL    HW239579   1.032   3.788   5.777 -2.0790 -0.6451  0.4540
 9316SOL     OW39580   0.226   1.824   3.664  0.4637 -0.1161 -0.0492
 9316SOL    HW139581   0.198   1.849   3.576 -0.2070  0.5499  0.3463
 9316SOL    HW239582   0.304   1.879   3.670  1.0958 -1.1560  1.1114
 9317SOL     OW39583   1.337   1.668   9.133  0.5312  0.4644 -0.7253
 9317SOL    HW139584   1.380   1.653   9.049  0.1851 -0.5760 -0.7123
 9317SOL    HW239585   1.389   1.741   9.166 -0.6792  0.4403  1.2689
 9318SOL     OW39586   1.391   0.892  10.929 -0.2681 -0.0778 -0.1560
 9318SOL    HW139587   1.337   0.828  10.974  0.7845 -0.8688 -0.0148
 9318SOL    HW239588   1.325   0.914  10.863 -1.4554 -4.0995 -0.2723
 9319SOL     OW39589   2.144   3.278   2.969  0.6559  0.7471  0.5321
 9319SOL    HW139590   2.095   3.359   2.982 -0.8805 -0.3110  1.3288
 9319SOL    HW239591   2.235   3.307   2.965  0.3797  1.4120 -1.0673
 9320SOL     OW39592   4.510   4.046   7.737 -0.1487 -0.4564 -0.6306
 9320SOL    HW139593   4.574   4.027   7.805 -1.7470  0.7658  1.1999
 9320SOL    HW239594   4.462   3.963   7.738 -1.1362  0.1360  1.3993
 9321SOL     OW39595   3.796   2.926  15.769  0.5285 -0.0700  0.4629
 9321SOL    HW139596   3.868   2.981  15.737 -0.9663  1.8792  0.3709
 9321SOL    HW239597   3.732   2.997  15.779  0.7463  0.0291  1.1326
 9322SOL     OW39598   1.670   1.526   5.517 -0.2555  0.6653  0.2617
 9322SOL    HW139599   1.593   1.471   5.507  1.1364 -1.4855  1.4560
 9322SOL    HW239600   1.678   1.541   5.423  4.3686  1.1250  0.6903
 9323SOL     OW39601   1.129   1.926  16.931  0.0078  0.2609  0.1146
 9323SOL    HW139602   1.068   1.986  16.888  0.0533  1.4524  1.7015
 9323SOL    HW239603   1.123   1.850  16.873 -2.8288  1.2526 -0.8971
 9324SOL     OW39604   2.444   1.341   0.990 -0.7587 -0.7166  0.4521
 9324SOL    HW139605   2.470   1.251   0.973 -0.0530 -0.7316  1.6827
 9324SOL    HW239606   2.426   1.340   1.084  0.3446 -1.3217  0.6591
 9325SOL     OW39607   1.515   0.074   0.186  0.4960 -0.3323 -0.0665
 9325SOL    HW139608   1.424   0.074   0.157 -0.3481  1.6297  2.6004
 9325SOL    HW239609   1.534   4.722   0.155 -0.0534  0.0540 -1.4745
 9326SOL     OW39610   2.742   0.885   7.866 -1.1408 -0.3925 -0.5538
 9326SOL    HW139611   2.769   0.966   7.909 -1.0642 -0.4488 -0.4953
 9326SOL    HW239612   2.820   0.838   7.837 -1.1941 -1.4314  0.9464
 9327SOL     OW39613   1.911   0.885  10.370 -0.4067 -0.3483 -0.2965
 9327SOL    HW139614   1.838   0.895  10.430  0.7128  0.9895  0.8328
 9327SOL    HW239615   1.900   0.966  10.320  1.2568  0.8230  1.2755
 9328SOL     OW39616   1.031   3.175  12.165 -0.1727  0.2476  0.0252
 9328SOL    HW139617   1.009   3.108  12.100 -0.0124  0.7083 -0.5046
 9328SOL    HW239618   1.097   3.122  12.210 -1.2031 -0.9583  0.1109
 9329SOL     OW39619   4.433   4.338   9.970 -0.0220  0.1129  0.3066
 9329SOL    HW139620   4.413   4.369  10.058  0.4810  0.5077  0.2834
 9329SOL    HW239621   4.348   4.336   9.926  1.0271  1.7101 -1.7895
 9330SOL     OW39622   1.459   0.007   4.953  0.3172 -0.1665 -0.2281
 9330SOL    HW139623   1.443   0.100   4.969  1.1533  0.0614 -0.7250
 9330SOL    HW239624   1.367   4.715   4.951  0.8305 -1.7416 -1.2080
 9331SOL     OW39625   0.668   3.170   7.774  0.2195 -0.2804  0.4742
 9331SOL    HW139626   0.659   3.079   7.804 -0.5202 -0.4271 -0.2020
 9331SOL    HW239627   0.734   3.204   7.835 -2.5560  2.2475  2.0665
 9332SOL     OW39628   1.275   0.949  16.959 -0.5723  0.6115 -0.3380
 9332SOL    HW139629   1.266   1.044  16.963 -1.2034  0.5353  0.0227
 9332SOL    HW239630   1.271   0.937  16.864 -0.3269 -0.6360 -0.1961
 9333SOL     OW39631   1.283   2.587   2.834  0.1879 -0.6237  0.3841
 9333SOL    HW139632   1.209   2.576   2.894  1.5142  2.9913  2.6293
 9333SOL    HW239633   1.266   2.664   2.779 -1.3936  0.2511  2.0966
 9334SOL     OW39634   1.368   3.809   7.905  0.6154  0.1039 -0.0917
 9334SOL    HW139635   1.440   3.749   7.883  0.5021 -0.7671  1.9513
 9334SOL    HW239636   1.290   3.754   7.906  0.2565  0.6310  0.5204
 9335SOL     OW39637   2.090   1.929  14.448 -0.4259  0.3664 -0.1677
 9335SOL    HW139638   2.010   1.904  14.402 -0.0581 -1.1676  0.0242
 9335SOL    HW239639   2.159   1.903  14.386  0.8709 -0.6334  1.6985
 9336SOL     OW39640   0.745   1.556  15.345 -0.1543  0.3894 -0.3216
 9336SOL    HW139641   0.698   1.483  15.385 -0.7958 -0.1080 -2.0075
 9336SOL    HW239642   0.798   1.596  15.414  2.8085 -1.4667 -1.4674
 9337SOL     OW39643   0.641   4.366  14.066  0.1029  0.0060  0.0993
 9337SOL    HW139644   0.612   4.386  13.977 -0.2251  1.5685  0.5591
 9337SOL    HW239645   0.729   4.333  14.045  0.4607  0.3754  1.0314
 9338SOL     OW39646   2.508   1.248  13.742 -0.3182 -0.4469  0.3987
 9338SOL    HW139647   2.494   1.179  13.807  0.5538  0.0066  1.0812
 9338SOL    HW239648   2.449   1.315  13.777 -0.4434 -0.6579  0.5951
 9339SOL     OW39649   2.416   3.261  13.274  0.1543  0.3693 -0.1086
 9339SOL    HW139650   2.464   3.321  13.217  1.0148 -1.9096 -1.7706
 9339SOL    HW239651   2.373   3.331  13.325 -0.0230  0.2978 -0.1599
 9340SOL     OW39652   0.780   3.952   8.421  0.8526 -0.2154 -0.2791
 9340SOL    HW139653   0.725   3.970   8.497  0.7404  0.5183 -0.5350
 9340SOL    HW239654   0.866   3.959   8.462  0.9048  0.1854 -0.4529
 9341SOL     OW39655   2.976   2.246   2.505 -0.1401  0.0609 -0.0686
 9341SOL    HW139656   2.914   2.290   2.447 -0.2432  1.9595  1.4683
 9341SOL    HW239657   2.920   2.176   2.538  0.9644 -0.2792  1.0829
 9342SOL     OW39658   3.964   4.143  11.571 -0.1502 -0.3135  0.0663
 9342SOL    HW139659   3.872   4.142  11.598  0.2134 -1.6061  1.2667
 9342SOL    HW239660   3.997   4.200  11.640  0.1571 -3.4935  2.5460
 9343SOL     OW39661   2.076   4.225   1.362 -0.1635  0.4802 -0.2258
 9343SOL    HW139662   2.101   4.243   1.271  0.7559  1.3826  0.2009
 9343SOL    HW239663   1.987   4.261   1.356 -0.8742 -1.1170  0.7433
 9344SOL     OW39664   4.210   3.613   7.658 -0.3792 -0.2835 -0.3078
 9344SOL    HW139665   4.170   3.572   7.582 -0.3071  0.5733 -0.8068
 9344SOL    HW239666   4.136   3.620   7.718  2.0690 -0.1197  2.7142
 9345SOL     OW39667   1.035   0.441   2.628 -0.7282 -0.1865  0.2068
 9345SOL    HW139668   0.952   0.398   2.647 -0.2275 -2.2234 -2.1488
 9345SOL    HW239669   1.095   0.366   2.629 -0.5916 -0.0968 -2.6718
 9346SOL     OW39670   1.708   0.931   2.299 -0.1192  0.0482 -0.1701
 9346SOL    HW139671   1.621   0.932   2.339 -0.4897  1.3853 -1.0122
 9346SOL    HW239672   1.759   0.946   2.378 -0.2658  0.9983 -0.2571
 9347SOL     OW39673   1.332   0.703   1.519  0.4138 -0.0289 -0.0115
 9347SOL    HW139674   1.311   0.620   1.562 -0.0535  0.3146  0.4197
 9347SOL    HW239675   1.383   0.670   1.445  0.3437 -0.3930  0.1047
 9348SOL     OW39676   0.258   1.123  12.656  0.1208  0.5914 -0.1615
 9348SOL    HW139677   0.322   1.109  12.726  2.5978  0.4130 -2.4581
 9348SOL    HW239678   0.190   1.063  12.685  1.4991  0.0737  2.0365
 9349SOL     OW39679   2.903   3.554   4.456 -0.5416  0.1927 -0.2802
 9349SOL    HW139680   2.846   3.595   4.521  1.8360  2.4928  0.3291
 9349SOL    HW239681   2.853   3.558   4.375  1.3559  2.1829 -1.3537
 9350SOL     OW39682   4.279   4.206   2.164  0.1880  0.2592 -0.1785
 9350SOL    HW139683   4.323   4.231   2.245  1.0613  2.1928 -1.2424
 9350SOL    HW239684   4.337   4.253   2.104 -0.4477  0.9567 -0.2397
 9351SOL     OW39685   4.055   2.074   8.007  0.2250  0.0916 -0.0591
 9351SOL    HW139686   3.974   2.118   7.980 -0.2673 -0.5728  0.3448
 9351SOL    HW239687   4.085   2.025   7.931 -1.2082  0.8385 -1.1306
 9352SOL     OW39688   2.676   0.165   2.785 -0.8791 -0.1378 -0.2166
 9352SOL    HW139689   2.733   0.116   2.726 -0.5447 -0.1491  0.1176
 9352SOL    HW239690   2.639   0.091   2.832 -1.5614  0.2912 -0.0701
 9353SOL     OW39691   3.758   0.006   3.309 -0.0578 -0.0026  0.0122
 9353SOL    HW139692   3.739   0.057   3.388 -0.0809  1.0822 -0.6999
 9353SOL    HW239693   3.818   4.675   3.340  0.8713  0.8791  0.1061
 9354SOL     OW39694   1.597   3.803   4.726 -0.2820 -0.2572 -0.3093
 9354SOL    HW139695   1.693   3.808   4.732 -0.4639  2.0606  0.7352
 9354SOL    HW239696   1.573   3.805   4.819 -0.0967  1.4653 -0.2975
 9355SOL     OW39697   0.316   2.050   9.504 -0.8953  0.4005  0.7280
 9355SOL    HW139698   0.380   1.992   9.464  0.0298  2.8127 -1.2589
 9355SOL    HW239699   0.333   2.035   9.597  1.4840 -1.3549  0.0166
 9356SOL     OW39700   2.881   1.710  13.750  0.3821  0.5820 -0.5451
 9356SOL    HW139701   2.876   1.689  13.657 -1.2007 -1.0987 -0.0892
 9356SOL    HW239702   2.798   1.680  13.786  0.4916 -1.9009 -2.3350
 9357SOL     OW39703   0.597   3.245   5.741 -0.2728 -0.6626 -0.2044
 9357SOL    HW139704   0.688   3.254   5.715 -0.4384  0.6466 -0.3537
 9357SOL    HW239705   0.543   3.316   5.706 -0.0421 -0.4024 -0.0330
 9358SOL     OW39706   2.377   1.931   1.898  0.1041  0.1792 -0.1287
 9358SOL    HW139707   2.283   1.939   1.911  0.0555  1.7038 -1.4201
 9358SOL    HW239708   2.391   1.884   1.981 -0.6400 -0.2403 -0.2411
 9359SOL     OW39709   3.442   2.666   2.231 -0.1011 -0.4045  0.2148
 9359SOL    HW139710   3.396   2.744   2.260  0.4601 -0.4174  1.1352
 9359SOL    HW239711   3.524   2.669   2.281 -0.3056 -0.7896  0.5755
 9360SOL     OW39712   2.427   2.948   1.897  0.0958 -0.0651  0.3074
 9360SOL    HW139713   2.508   2.995   1.876 -0.9737  1.5182 -0.3080
 9360SOL    HW239714   2.407   2.991   1.980 -2.1407 -0.6434  0.0608
 9361SOL     OW39715   0.028   3.615   2.507 -0.4825 -0.1124  0.1582
 9361SOL    HW139716   4.711   3.637   2.430 -0.0302  0.0843 -0.0961
 9361SOL    HW239717   0.038   3.521   2.494 -0.5448  0.0312 -0.9387
 9362SOL     OW39718   2.222   1.508   3.964 -0.5816  0.0887  0.0370
 9362SOL    HW139719   2.170   1.557   3.900 -0.4150  0.8059  0.4473
 9362SOL    HW239720   2.199   1.419   3.939  1.4657 -0.2726 -0.5368
 9363SOL     OW39721   2.709   4.188   4.866 -0.4397  0.3856  0.5992
 9363SOL    HW139722   2.732   4.109   4.914  0.6960  0.5406  0.2923
 9363SOL    HW239723   2.619   4.169   4.841  0.0733 -0.3640 -0.6387
 9364SOL     OW39724   3.907   2.614   8.361 -0.3245 -0.2049 -0.4758
 9364SOL    HW139725   3.899   2.598   8.455  0.9878  2.5270  0.1120
 9364SOL    HW239726   4.000   2.639   8.352 -0.3447 -0.6957 -1.9949
 9365SOL     OW39727   4.535   0.260  14.975 -0.0745 -0.5868  0.3587
 9365SOL    HW139728   4.503   0.189  15.030  1.4615 -1.7525 -0.2615
 9365SOL    HW239729   4.564   0.212  14.897  0.7853 -0.3800  0.5507
 9366SOL     OW39730   0.622   2.378   9.405 -0.4843  0.0250  0.4658
 9366SOL    HW139731   0.662   2.299   9.369  0.6772 -0.1121  2.0612
 9366SOL    HW239732   0.546   2.347   9.453  0.9549 -0.0197  2.7347
 9367SOL     OW39733   4.336   3.249   3.110 -0.2253  0.0089 -0.1776
 9367SOL    HW139734   4.330   3.240   3.205  0.2344  0.7050 -0.0869
 9367SOL    HW239735   4.249   3.224   3.077  0.4785  1.2823 -2.9414
 9368SOL     OW39736   4.441   2.020   1.471  0.3851  0.6076  0.1056
 9368SOL    HW139737   4.497   2.066   1.532  2.0288  0.2024 -1.1054
 9368SOL    HW239738   4.463   2.077   1.397 -0.8853 -0.2064 -0.9118
 9369SOL     OW39739   2.112   4.245   4.148  0.1273  0.0905  0.0627
 9369SOL    HW139740   2.064   4.170   4.114  0.2297 -0.0085  0.1394
 9369SOL    HW239741   2.160   4.283   4.075 -1.8532  0.5470 -1.0183
 9370SOL     OW39742   0.695   0.369   6.168 -0.4542  0.1164 -0.1936
 9370SOL    HW139743   0.689   0.418   6.086  0.8530  1.9351  0.7922
 9370SOL    HW239744   0.626   0.407   6.223 -2.2384 -1.2239 -1.4745
 9371SOL     OW39745   2.743   1.522   2.908 -0.0750  0.5373  0.6188
 9371SOL    HW139746   2.648   1.517   2.910 -0.0936  0.7603  0.2153
 9371SOL    HW239747   2.761   1.476   2.826  0.6183  0.8651  0.5896
 9372SOL     OW39748   2.619   0.102   1.535 -0.1072  0.0723 -0.0577
 9372SOL    HW139749   2.643   0.170   1.598  0.6008 -1.4906  1.3572
 9372SOL    HW239750   2.630   0.143   1.450  1.6523 -0.9204 -0.2973
 9373SOL     OW39751   3.852   0.523  12.169  0.3169 -0.5389  0.1517
 9373SOL    HW139752   3.889   0.568  12.245  0.3686  1.7259 -1.2346
 9373SOL    HW239753   3.776   0.576  12.143  0.0730 -0.2485  1.4654
 9374SOL     OW39754   3.759   1.762  16.435  0.4155  0.9492 -0.0753
 9374SOL    HW139755   3.680   1.813  16.421  1.1648  1.7148 -1.5696
 9374SOL    HW239756   3.733   1.690  16.377 -0.4551  1.7353 -0.6581
 9375SOL     OW39757   3.330   1.611   3.902  0.1494  0.3196 -0.5323
 9375SOL    HW139758   3.388   1.684   3.921  0.1833  0.8440 -2.6766
 9375SOL    HW239759   3.397   1.544   3.890 -0.6785 -0.8596  1.3723
 9376SOL     OW39760   2.958   0.454   2.807 -0.6562 -0.1569  0.2035
 9376SOL    HW139761   2.953   0.399   2.729 -2.0084  0.3527 -0.0676
 9376SOL    HW239762   3.023   0.518   2.777 -0.7447 -1.2683 -2.4139
 9377SOL     OW39763   1.958   0.340   2.923 -0.6904  0.1702 -0.9164
 9377SOL    HW139764   1.968   0.288   3.003  0.7907 -0.9454 -1.8175
 9377SOL    HW239765   1.863   0.333   2.923 -0.7620  1.1712 -0.1273
 9378SOL     OW39766   0.448   3.333  12.639 -0.9775  0.7268  0.0161
 9378SOL    HW139767   0.397   3.362  12.563  0.6296 -0.1753 -1.4066
 9378SOL    HW239768   0.414   3.389  12.708  1.0047  0.4080  1.2416
 9379SOL     OW39769   0.005   3.124   3.060 -0.5097  0.5772 -0.0191
 9379SOL    HW139770   0.012   3.143   3.154 -1.8396  0.0693  0.1768
 9379SOL    HW239771   4.721   3.031   3.054 -1.6992  0.8650 -0.3220
 9380SOL     OW39772   1.961   4.689  12.955  0.1669 -0.5773  0.3065
 9380SOL    HW139773   1.891   0.016  12.970  0.1540 -0.1610 -1.5479
 9380SOL    HW239774   2.041   0.004  12.969 -0.6728  0.5198  1.1618
 9381SOL     OW39775   3.138   0.268  12.804 -0.0315  0.0906  0.0465
 9381SOL    HW139776   3.172   0.343  12.755  0.6912 -0.1787  0.1512
 9381SOL    HW239777   3.163   0.199  12.743  0.0868  0.5398 -0.4202
 9382SOL     OW39778   4.346   2.740   1.010  0.2330  0.4486  0.2094
 9382SOL    HW139779   4.346   2.760   0.917  3.6732  0.2017  0.1673
 9382SOL    HW239780   4.425   2.687   1.020  0.7355  1.0432 -0.7089
 9383SOL     OW39781   3.685   3.035   0.441 -0.3660 -0.0661 -0.4235
 9383SOL    HW139782   3.702   3.115   0.489 -2.2520 -1.5534  2.6737
 9383SOL    HW239783   3.689   2.978   0.517 -1.9929  0.3572 -0.0255
 9384SOL     OW39784   0.007   0.435   6.309 -0.2723  0.2068  0.5520
 9384SOL    HW139785   4.668   0.433   6.250  1.1811  0.5946 -1.3370
 9384SOL    HW239786   0.079   0.425   6.245 -0.8303 -0.7822  0.0720
 9385SOL     OW39787   1.652   3.003   3.967  0.2763  0.3113  0.0772
 9385SOL    HW139788   1.568   3.005   3.921  1.1682 -1.5563 -1.6643
 9385SOL    HW239789   1.674   2.911   3.951  1.9269  0.4009  1.7865
 9386SOL     OW39790   0.238   3.184  17.569  0.4736 -0.2455  0.4753
 9386SOL    HW139791   0.238   3.244  17.643  0.5774  0.8617 -0.4067
 9386SOL    HW239792   0.306   3.120  17.590  0.6094  0.0779  1.0148
 9387SOL     OW39793   0.421   2.641   0.514 -0.4616  0.4791 -0.0798
 9387SOL    HW139794   0.426   2.617   0.607  1.0193 -0.9901 -0.5358
 9387SOL    HW239795   0.359   2.576   0.479 -1.6683  2.1870 -1.1012
 9388SOL     OW39796   0.812   0.008  13.512  0.0615  0.8102  0.2336
 9388SOL    HW139797   0.900   0.022  13.476  0.4942 -1.1901  0.5641
 9388SOL    HW239798   0.797   0.098  13.542  1.1181  1.1235 -0.1655
 9389SOL     OW39799   0.319   0.389  13.650  0.2175 -0.2810  0.4847
 9389SOL    HW139800   0.313   0.484  13.665 -1.4115  0.0910 -2.7688
 9389SOL    HW239801   0.393   0.380  13.711 -0.2501 -0.5715  1.0054
 9390SOL     OW39802   1.201   3.106   2.491  0.1511  0.3331  0.0253
 9390SOL    HW139803   1.168   3.143   2.573  0.2791 -1.4793  0.9055
 9390SOL    HW239804   1.292   3.137   2.496  0.7422 -1.2821 -0.6441
 9391SOL     OW39805   0.831   1.627   3.372  0.2976 -0.6390  0.3086
 9391SOL    HW139806   0.820   1.602   3.464  0.2012 -0.8888  0.2297
 9391SOL    HW239807   0.919   1.594   3.354 -0.7075 -3.6597  0.9118
 9392SOL     OW39808   3.960   4.494  16.971  0.1975  0.0329 -0.3105
 9392SOL    HW139809   3.963   4.560  16.901 -2.1139  1.6728  1.1791
 9392SOL    HW239810   3.920   4.422  16.922  0.0904 -2.2250  3.1066
 9393SOL     OW39811   0.092   2.631   5.401  0.2710  0.2613 -0.5523
 9393SOL    HW139812   0.077   2.702   5.338  0.7125  0.0434 -0.9014
 9393SOL    HW239813   0.175   2.660   5.439  0.1471  1.5986 -1.3113
 9394SOL     OW39814   3.489   4.125  16.772  0.6286 -0.3690  0.2640
 9394SOL    HW139815   3.527   4.066  16.707 -3.2137 -0.0473 -2.2553
 9394SOL    HW239816   3.539   4.205  16.759 -0.9809  0.6902  0.5903
 9395SOL     OW39817   0.042   1.979   4.574  0.7515 -0.3291  0.6675
 9395SOL    HW139818   0.116   1.997   4.633  1.2824  0.3532 -0.2133
 9395SOL    HW239819   4.724   1.931   4.637 -0.1250  1.8898  1.6114
 9396SOL     OW39820   1.582   0.163  14.063  0.4124  0.0081  0.1472
 9396SOL    HW139821   1.637   0.154  14.141 -0.2236  0.2482  0.6134
 9396SOL    HW239822   1.558   0.255  14.054 -2.0053 -0.6421  0.1073
 9397SOL     OW39823   2.069   4.728   3.550 -0.0542  0.1755  0.0771
 9397SOL    HW139824   2.133   0.061   3.530 -0.7330  1.1767  1.3896
 9397SOL    HW239825   2.134   4.665   3.580 -1.0584 -0.8806  0.0424
 9398SOL     OW39826   1.737   0.596  10.301 -0.0887 -0.4030  0.0259
 9398SOL    HW139827   1.827   0.629  10.308 -0.2462  0.0145  0.0230
 9398SOL    HW239828   1.759   0.513  10.344  0.6904 -0.5013 -0.5588
 9399SOL     OW39829   3.601   2.411   9.858 -0.8960  0.1015 -0.1664
 9399SOL    HW139830   3.546   2.489   9.855 -0.9666  0.0784  0.4257
 9399SOL    HW239831   3.609   2.397   9.952  1.1765  0.9750 -0.2108
 9400SOL     OW39832   0.933   0.890   3.584  0.3234 -0.2351  0.3752
 9400SOL    HW139833   0.973   0.962   3.534  0.1239  0.2311  0.8958
 9400SOL    HW239834   0.998   0.821   3.573  0.6284 -0.1771  1.8412
 9401SOL     OW39835   1.234   1.550   9.718  0.1786 -0.2384 -0.1243
 9401SOL    HW139836   1.171   1.582   9.782  1.8029  1.2415  0.7345
 9401SOL    HW239837   1.291   1.496   9.772 -1.0054 -0.5437  0.8032
 9402SOL     OW39838   0.669   2.266   4.873 -0.2589  0.0415  0.4739
 9402SOL    HW139839   0.756   2.293   4.846  0.4222 -0.0257  2.5406
 9402SOL    HW239840   0.680   2.219   4.956 -0.4528 -2.0112 -0.6464
 9403SOL     OW39841   1.300   2.918   5.348  0.2250 -0.4993 -0.0840
 9403SOL    HW139842   1.352   2.930   5.269 -1.9045  0.5722 -1.3235
 9403SOL    HW239843   1.293   2.822   5.341 -0.3129 -0.4670 -0.0082
 9404SOL     OW39844   4.716   4.307   3.194  0.2998 -0.4478  0.0280
 9404SOL    HW139845   4.647   4.309   3.261 -0.0351 -2.1325 -0.2841
 9404SOL    HW239846   4.662   4.308   3.115  0.8063 -2.0443 -0.3298
 9405SOL     OW39847   0.989   4.284   7.606  0.3151  0.8537 -0.0981
 9405SOL    HW139848   1.025   4.196   7.618 -1.4192  0.0676 -0.6991
 9405SOL    HW239849   0.977   4.268   7.512  1.1895 -2.1184  0.2904
 9406SOL     OW39850   0.902   0.187  10.190  0.5995  0.6493 -0.2218
 9406SOL    HW139851   0.921   0.279  10.206  2.1933  0.4801 -1.1263
 9406SOL    HW239852   0.809   0.179  10.207  0.6049 -1.0003 -0.9331
 9407SOL     OW39853   4.239   1.209   7.349  0.0359 -0.0318 -0.1660
 9407SOL    HW139854   4.233   1.132   7.293  0.9758 -0.5323  0.4190
 9407SOL    HW239855   4.301   1.257   7.294 -0.7877  1.6033  0.3317
 9408SOL     OW39856   3.520   0.045   2.432  0.5247 -0.4792 -0.1566
 9408SOL    HW139857   3.592   0.070   2.489 -1.3742  0.6974  1.7386
 9408SOL    HW239858   3.465   4.730   2.491  0.0866  1.2393  0.9333
 9409SOL     OW39859   4.706   2.206   3.475  0.3429 -0.1764  0.2233
 9409SOL    HW139860   0.032   2.273   3.448 -0.3992 -0.3183 -1.8793
 9409SOL    HW239861   4.625   2.244   3.442 -2.3433 -4.1791  2.1162
 9410SOL     OW39862   4.314   0.629  15.753  0.5392 -0.0191  0.2235
 9410SOL    HW139863   4.311   0.587  15.839  0.3134  0.6816  0.5600
 9410SOL    HW239864   4.358   0.713  15.766 -0.6709  0.5288  0.8238
 9411SOL     OW39865   1.681   3.357  17.590  0.2660  0.6410 -0.5599
 9411SOL    HW139866   1.650   3.275  17.552 -0.9904  1.0176 -0.3715
 9411SOL    HW239867   1.731   3.329  17.666 -0.9148 -0.3167 -0.1490
 9412SOL     OW39868   0.651   0.712   8.440 -0.0177 -0.3104 -0.5424
 9412SOL    HW139869   0.567   0.740   8.405  0.6619  2.6232  0.1947
 9412SOL    HW239870   0.629   0.633   8.489 -0.0656 -0.6651 -1.1327
 9413SOL     OW39871   2.057   3.299  16.672 -0.5336  0.4367 -0.0211
 9413SOL    HW139872   2.075   3.270  16.761 -0.9348  0.2021 -0.0132
 9413SOL    HW239873   1.974   3.344  16.693 -1.7942 -1.4625 -0.9228
 9414SOL     OW39874   1.775   3.625   7.293  0.0727  0.5411 -0.0117
 9414SOL    HW139875   1.729   3.631   7.377 -1.3839  1.8710 -0.9181
 9414SOL    HW239876   1.842   3.692   7.308  1.0211  0.0139 -1.8405
 9415SOL     OW39877   4.061   0.614   9.910  0.7679  0.2989 -0.5905
 9415SOL    HW139878   4.106   0.661   9.840  1.3699  0.0278 -0.3936
 9415SOL    HW239879   4.039   0.528   9.874 -0.7666  0.4592 -0.0226
 9416SOL     OW39880   2.339   1.738  13.955 -0.8426  0.1781  0.0005
 9416SOL    HW139881   2.349   1.833  13.963  1.3158  0.0172 -0.7726
 9416SOL    HW239882   2.412   1.724  13.895 -1.1848 -1.9827  0.0882
 9417SOL     OW39883   0.672   1.337   8.273 -0.3626  0.5072 -0.2225
 9417SOL    HW139884   0.604   1.275   8.248 -0.6197  0.7348 -0.0979
 9417SOL    HW239885   0.723   1.273   8.322 -1.4111  0.2899  0.5936
 9418SOL     OW39886   4.527   2.458   9.206 -0.4150 -0.3038 -0.2642
 9418SOL    HW139887   4.459   2.391   9.199 -1.5872  0.6281  1.9964
 9418SOL    HW239888   4.483   2.539   9.231 -1.7040 -0.9814 -0.3226
 9419SOL     OW39889   1.822   2.670   8.693  0.6634 -0.0652  0.2227
 9419SOL    HW139890   1.816   2.596   8.754  2.6785 -0.8111 -0.4849
 9419SOL    HW239891   1.732   2.701   8.683  1.6542  2.3482 -1.4731
 9420SOL     OW39892   3.638   2.818   1.483 -0.2184  0.0920 -1.0364
 9420SOL    HW139893   3.680   2.805   1.398  0.4308 -0.1026 -0.6913
 9420SOL    HW239894   3.680   2.751   1.537  1.3848 -0.5748 -3.1125
 9421SOL     OW39895   4.222   0.427   6.231  0.3329 -0.1354 -0.3488
 9421SOL    HW139896   4.148   0.421   6.291  0.7196 -1.4585 -0.0121
 9421SOL    HW239897   4.285   0.385   6.289  1.0689  2.1888  0.5429
 9422SOL     OW39898   2.026   2.607   0.182 -0.5253 -0.2775 -0.4397
 9422SOL    HW139899   2.035   2.584   0.090 -2.3893  0.6539 -0.8620
 9422SOL    HW239900   2.115   2.596   0.216 -0.2922 -1.7770 -1.5462
 9423SOL     OW39901   0.169   2.730   7.870 -0.1025  0.5330 -0.3738
 9423SOL    HW139902   0.087   2.694   7.836 -0.3320  0.0286  0.7056
 9423SOL    HW239903   0.170   2.693   7.958  1.1783  0.4953 -0.4085
 9424SOL     OW39904   0.044   0.424   8.404  0.2342 -0.0907  0.4195
 9424SOL    HW139905   0.026   0.375   8.323 -2.0794 -0.9098  1.4251
 9424SOL    HW239906   0.089   0.364   8.464  0.5611 -0.3343 -0.0654
 9425SOL     OW39907   2.541   3.634   7.419  0.5038  0.4728  0.2293
 9425SOL    HW139908   2.542   3.662   7.510  1.6364 -4.3599  1.7038
 9425SOL    HW239909   2.461   3.680   7.394 -0.5898 -1.5297  0.0221
 9426SOL     OW39910   2.973   3.706   1.494 -0.0110  0.0702 -0.3028
 9426SOL    HW139911   2.906   3.758   1.450 -0.4182 -0.0142  0.2123
 9426SOL    HW239912   2.912   3.651   1.544 -2.1743  0.1755 -2.8298
 9427SOL     OW39913   0.977   0.617   2.992  0.1871  0.0511  0.0447
 9427SOL    HW139914   0.943   0.694   3.038 -0.8029 -0.8744  0.8320
 9427SOL    HW239915   1.016   0.658   2.914 -1.1379 -1.5189 -1.4430
 9428SOL     OW39916   2.831   0.521   9.274  0.2330 -0.0136 -0.1117
 9428SOL    HW139917   2.822   0.615   9.290  0.9334 -0.2262  1.4798
 9428SOL    HW239918   2.838   0.519   9.179  0.4761  1.9389 -0.1332
 9429SOL     OW39919   4.222   2.707   4.111 -0.6789 -0.0672 -0.2258
 9429SOL    HW139920   4.169   2.772   4.065 -0.1037  0.5545  0.0002
 9429SOL    HW239921   4.170   2.677   4.186 -0.8821  0.1731 -0.2740
 9430SOL     OW39922   3.891   4.248  17.249 -0.0013  0.5703  0.2650
 9430SOL    HW139923   3.920   4.171  17.201  0.8093  0.7009  0.5416
 9430SOL    HW239924   3.877   4.311  17.178  1.5997  1.4389  0.7041
 9431SOL     OW39925   1.891   1.834  13.076  0.0342 -0.1174 -0.2887
 9431SOL    HW139926   1.807   1.864  13.042 -0.2051 -1.0563 -0.5209
 9431SOL    HW239927   1.948   1.912  13.074  0.6150 -0.5593 -1.2016
 9432SOL     OW39928   1.155   4.084   5.595  0.4549 -0.4261 -0.0030
 9432SOL    HW139929   1.183   4.009   5.542 -2.5095  1.1869 -3.8221
 9432SOL    HW239930   1.217   4.070   5.667 -3.2512 -0.7323  3.0875
 9433SOL     OW39931   2.878   3.768   8.167  0.0393  0.2843  0.2933
 9433SOL    HW139932   2.904   3.860   8.157 -1.3291  0.6102 -0.3382
 9433SOL    HW239933   2.944   3.714   8.125  1.5188  1.1504  1.5053
 9434SOL     OW39934   4.583   0.162   8.211  0.1220  0.1264  0.0998
 9434SOL    HW139935   4.651   0.227   8.194 -1.2585  1.0934 -1.6904
 9434SOL    HW239936   4.517   0.193   8.148 -0.4218  1.8991  1.5462
 9435SOL     OW39937   3.348   2.079   8.290  0.0659  0.3020  0.1320
 9435SOL    HW139938   3.357   2.083   8.385 -0.3982  0.0523  0.1849
 9435SOL    HW239939   3.321   2.170   8.283  1.8719  0.9970  2.1549
 9436SOL     OW39940   3.877   1.598   7.317 -0.0753  0.3484  0.4836
 9436SOL    HW139941   3.878   1.585   7.412 -0.1578  3.1096  0.8736
 9436SOL    HW239942   3.796   1.556   7.289  0.2009  0.2341 -0.1500
 9437SOL     OW39943   3.797   3.960   7.172 -0.5086  0.1971 -0.2929
 9437SOL    HW139944   3.708   3.954   7.207  0.2002 -0.5599  1.3946
 9437SOL    HW239945   3.833   3.871   7.176  0.7167  0.6361 -1.7957
 9438SOL     OW39946   3.927   3.817   4.440 -0.5357  0.5410 -0.7257
 9438SOL    HW139947   4.014   3.778   4.442  0.0458  1.9620  1.2658
 9438SOL    HW239948   3.934   3.898   4.490 -1.1932  1.2637 -1.8044
 9439SOL     OW39949   1.868   2.187   5.805 -0.1218  0.4895  0.3988
 9439SOL    HW139950   1.829   2.236   5.733  0.3287  1.4027  0.7731
 9439SOL    HW239951   1.858   2.236   5.886 -2.6260  0.9468 -0.1886
 9440SOL     OW39952   4.731   1.936   3.526 -0.2730  0.1677  0.7048
 9440SOL    HW139953   0.036   1.926   3.440  0.1478 -1.3098  1.0770
 9440SOL    HW239954   4.703   2.027   3.518 -0.0000  0.0166 -1.9660
 9441SOL     OW39955   1.370   3.462   7.329 -1.0168  0.4094  0.2396
 9441SOL    HW139956   1.309   3.391   7.310  0.5205 -0.2521 -2.1337
 9441SOL    HW239957   1.449   3.417   7.361 -1.7947 -0.3845  1.0493
 9442SOL     OW39958   1.436   0.405   8.755 -0.3706 -0.1693 -0.3943
 9442SOL    HW139959   1.345   0.431   8.768  0.2128  0.1919  3.2198
 9442SOL    HW239960   1.484   0.473   8.803  0.5031  0.2414 -1.8751
 9443SOL     OW39961   1.248   3.031   7.878 -0.1199  0.4387 -0.4964
 9443SOL    HW139962   1.173   3.014   7.820 -0.4360 -0.9318  0.3242
 9443SOL    HW239963   1.325   3.016   7.823  0.8413  1.4736  0.5760
 9444SOL     OW39964   3.081   2.199   4.170 -0.5150 -0.2169 -0.1663
 9444SOL    HW139965   3.104   2.233   4.083 -3.2885 -0.0458 -0.8425
 9444SOL    HW239966   3.164   2.191   4.216 -0.8511  1.9036  0.7790
 9445SOL     OW39967   2.328   4.619  16.297  0.2591 -1.1959  0.3632
 9445SOL    HW139968   2.316   4.676  16.221 -0.1285  0.7988  1.9328
 9445SOL    HW239969   2.353   4.685  16.361 -0.2397 -2.1451  1.5387
 9446SOL     OW39970   2.030   3.583  15.281  0.0834 -0.6456  0.3365
 9446SOL    HW139971   2.079   3.662  15.304 -0.5477 -0.1518 -0.0334
 9446SOL    HW239972   2.054   3.578  15.188  0.2545 -2.1201  0.4624
 9447SOL     OW39973   3.734   3.260   6.394 -0.6070 -0.1162  0.2608
 9447SOL    HW139974   3.645   3.257   6.430 -0.1875  0.8483  1.3927
 9447SOL    HW239975   3.722   3.249   6.300 -0.9760  0.5833  0.2292
 9448SOL     OW39976   0.685   3.512   5.974 -0.5121  0.7688  0.1933
 9448SOL    HW139977   0.732   3.482   5.896 -0.9017  2.4522 -0.6831
 9448SOL    HW239978   0.742   3.577   6.017  0.4977  0.6916 -1.0135
 9449SOL     OW39979   0.864   2.659   8.664 -0.4478 -0.2727 -0.0080
 9449SOL    HW139980   0.919   2.693   8.735 -0.0811  1.2194 -1.0132
 9449SOL    HW239981   0.934   2.637   8.603 -0.2270 -0.1031  0.1845
 9450SOL     OW39982   1.366   0.046  13.944 -0.2784 -1.0230  0.0681
 9450SOL    HW139983   1.448   0.060  13.992  0.7737 -0.3416 -1.9255
 9450SOL    HW239984   1.300   0.081  14.004  0.3165  1.3973 -0.6802
 9451SOL     OW39985   3.513   1.835   9.424 -0.4013 -0.0435  0.0567
 9451SOL    HW139986   3.529   1.890   9.500  2.2639  1.2651 -1.4402
 9451SOL    HW239987   3.464   1.892   9.364 -1.1311  1.3392  1.9887
 9452SOL     OW39988   1.621   0.252   0.379  0.6582  0.3736  0.8441
 9452SOL    HW139989   1.601   0.177   0.322  1.9844  2.0789 -1.8712
 9452SOL    HW239990   1.666   0.213   0.453 -1.3541 -1.1466  1.2536
 9453SOL     OW39991   1.788   1.302   1.990 -0.4279 -0.0280  0.7779
 9453SOL    HW139992   1.694   1.291   2.002 -0.5060  0.8438  1.0092
 9453SOL    HW239993   1.812   1.210   1.982 -0.1033 -0.1020  2.5583
 9454SOL     OW39994   0.678   2.148   3.867 -0.2352  0.6276  1.1029
 9454SOL    HW139995   0.751   2.122   3.923  0.2197  0.2739  0.3448
 9454SOL    HW239996   0.622   2.071   3.880 -1.6286  1.3219 -0.7723
 9455SOL     OW39997   1.738   3.823   5.054 -0.0466 -0.0974 -0.2665
 9455SOL    HW139998   1.776   3.735   5.053  1.9241  0.7372  0.9044
 9455SOL    HW239999   1.665   3.811   4.994  0.3556 -0.6178 -0.6566
 9456SOL     OW40000   0.601   4.250  11.072  0.3207  0.1077 -0.0805
 9456SOL    HW140001   0.681   4.208  11.104 -0.7089  0.6980  3.2231
 9456SOL    HW240002   0.600   4.255  10.976  0.3701 -1.5366 -0.1630
 9457SOL     OW40003   1.055   2.494   8.931 -0.4327 -0.1219 -0.0918
 9457SOL    HW140004   1.086   2.412   8.892  1.1420  1.2757 -1.7530
 9457SOL    HW240005   1.125   2.557   8.911 -2.3116  2.3366  1.0948
 9458SOL     OW40006   4.059   2.294  14.158 -0.0216 -0.3723  0.1175
 9458SOL    HW140007   4.020   2.367  14.207  0.2640  0.0410 -0.2744
 9458SOL    HW240008   3.984   2.258  14.110  1.0088 -0.9241 -1.0938
 9459SOL     OW40009   0.103   0.311   8.132 -0.1042  0.4682  0.0394
 9459SOL    HW140010   0.168   0.240   8.125  1.1790  1.4594  1.7463
 9459SOL    HW240011   0.085   0.339   8.043  0.4114 -0.0409 -0.2254
 9460SOL     OW40012   4.544   2.539   4.909 -0.1916  0.3136  0.5390
 9460SOL    HW140013   4.498   2.482   4.847 -1.7049 -0.6894  2.5965
 9460SOL    HW240014   4.632   2.547   4.871 -0.2967  0.2675  0.2842
 9461SOL     OW40015   2.879   0.918   6.944 -0.5670  0.1506  0.0035
 9461SOL    HW140016   2.799   0.870   6.924 -0.3951  0.6105 -1.7930
 9461SOL    HW240017   2.941   0.884   6.879 -1.7059 -1.3742 -0.2641
 9462SOL     OW40018   0.074   3.107   5.324 -0.0624  0.0792 -0.4213
 9462SOL    HW140019   0.145   3.139   5.381 -1.2527  1.2819  0.3918
 9462SOL    HW240020   0.068   3.177   5.259 -2.9083  1.0424  0.8498
 9463SOL     OW40021   2.580   1.824   7.854 -0.9115 -0.1427 -0.2272
 9463SOL    HW140022   2.498   1.815   7.805 -1.3304 -0.3233  0.5093
 9463SOL    HW240023   2.616   1.736   7.853  0.2889  0.3472  0.2584
 9464SOL     OW40024   0.577   4.614   8.855  0.5684  0.6320 -0.1431
 9464SOL    HW140025   0.611   4.616   8.766 -0.0216 -1.5357 -0.4343
 9464SOL    HW240026   0.507   4.677   8.847 -0.2877 -0.1104  1.3994
 9465SOL     OW40027   1.751   4.595   4.051 -0.4707  0.2188 -0.6936
 9465SOL    HW140028   1.716   4.670   4.002  0.5464  0.2517 -1.3559
 9465SOL    HW240029   1.713   4.528   3.994 -1.4422  0.5141 -0.4050
 9466SOL     OW40030   4.060   4.564  16.533 -0.2699 -0.8777  0.0732
 9466SOL    HW140031   4.002   4.489  16.548 -0.8977 -0.3798  0.1746
 9466SOL    HW240032   4.002   4.613  16.474 -0.3743 -0.9039  0.1541
 9467SOL     OW40033   2.031   2.021   1.970 -0.4260 -0.4393 -0.0394
 9467SOL    HW140034   2.054   2.104   2.012 -2.1411 -0.2442  0.5185
 9467SOL    HW240035   1.938   2.005   1.989 -0.2757  0.4716  1.4825
 9468SOL     OW40036   2.614   4.603   2.115 -0.3243  0.1999 -0.2022
 9468SOL    HW140037   2.553   4.529   2.119 -2.2758  1.8541  0.7498
 9468SOL    HW240038   2.665   4.591   2.034 -0.6358 -4.2479  0.2428
 9469SOL     OW40039   0.243   2.844   2.478  0.1407  0.0563  0.0297
 9469SOL    HW140040   0.285   2.776   2.425  0.1909 -0.6222  0.9455
 9469SOL    HW240041   0.158   2.802   2.492  1.5924 -2.1966  1.9587
 9470SOL     OW40042   2.400   3.448   8.376  1.0686  0.5725  0.0947
 9470SOL    HW140043   2.344   3.392   8.430  1.7468 -1.1057 -0.9461
 9470SOL    HW240044   2.396   3.535   8.417 -2.3884  0.7984 -0.7170
 9471SOL     OW40045   3.963   2.376   5.037 -0.0232  0.2633  0.6670
 9471SOL    HW140046   3.879   2.400   5.076 -1.3807 -1.2355 -1.3654
 9471SOL    HW240047   3.948   2.284   5.017  0.2485  0.9389 -2.5583
 9472SOL     OW40048   4.727   2.542   3.594  0.7127 -0.3285  0.4091
 9472SOL    HW140049   0.043   2.593   3.656  0.6601 -0.3687  0.4875
 9472SOL    HW240050   4.647   2.593   3.581 -0.6837 -2.0188  2.3825
 9473SOL     OW40051   4.418   0.901   4.830  0.1089 -0.0640  0.2697
 9473SOL    HW140052   4.344   0.847   4.857  0.8235 -1.5548 -0.7425
 9473SOL    HW240053   4.367   0.976   4.800 -0.0323  0.8212  2.7831
 9474SOL     OW40054   3.743   3.520  10.249 -0.3684 -0.2443  0.3191
 9474SOL    HW140055   3.683   3.449  10.225 -1.1308  0.3624  0.4300
 9474SOL    HW240056   3.683   3.590  10.275 -1.0268  0.6257 -3.5140
 9475SOL     OW40057   0.119   3.296   6.953  0.5551 -0.4001 -0.5547
 9475SOL    HW140058   0.041   3.241   6.942  0.5582 -1.0699  2.6195
 9475SOL    HW240059   0.073   3.380   6.948 -1.5376 -1.5560 -1.0135
 9476SOL     OW40060   1.409   0.146  13.198  0.0593  0.1928 -0.3271
 9476SOL    HW140061   1.322   0.125  13.165  0.1114 -1.5391  0.6250
 9476SOL    HW240062   1.433   0.225  13.150 -0.4861 -0.4827 -1.7047
 9477SOL     OW40063   2.035   2.603  15.821  0.4505 -0.7210  0.0274
 9477SOL    HW140064   2.116   2.652  15.834  1.5015 -2.2506 -0.7196
 9477SOL    HW240065   2.055   2.527  15.766 -0.1095 -1.1968  0.4781
 9478SOL     OW40066   3.753   0.840   9.894 -0.1341 -0.5274 -0.1971
 9478SOL    HW140067   3.666   0.866   9.863 -0.8245 -1.8289  0.6400
 9478SOL    HW240068   3.752   0.760   9.841 -1.0238  0.0733 -1.0882
 9479SOL     OW40069   3.871   1.407   6.866 -0.0489  0.3372 -0.1122
 9479SOL    HW140070   3.807   1.467   6.829  0.7797  1.1777 -0.1783
 9479SOL    HW240071   3.939   1.429   6.802  0.4355 -1.4656 -0.2169
 9480SOL     OW40072   0.252   2.661   3.666 -0.0975  0.2347 -0.2484
 9480SOL    HW140073   0.332   2.645   3.615  0.0641 -0.3624  0.1965
 9480SOL    HW240074   0.287   2.646   3.754  0.3726  1.0251 -0.2939
 9481SOL     OW40075   1.996   2.399   8.460 -0.2145  0.0775  0.1177
 9481SOL    HW140076   2.053   2.357   8.524  0.6241  2.4018  0.8697
 9481SOL    HW240077   2.034   2.358   8.382 -0.6749 -0.8185  0.3641
 9482SOL     OW40078   1.117   1.859  16.005 -0.1899  0.1671  0.2439
 9482SOL    HW140079   1.125   1.819  15.918  1.0523 -2.3958  1.5274
 9482SOL    HW240080   1.191   1.919  16.007  0.3358 -0.5166  1.2363
 9483SOL     OW40081   0.541   0.494   8.597  0.1670 -0.3461 -0.0967
 9483SOL    HW140082   0.570   0.537   8.678  2.0787  0.2943 -1.1167
 9483SOL    HW240083   0.542   0.403   8.627 -2.3249 -0.6169 -0.8503
 9484SOL     OW40084   1.917   1.426   6.767 -0.4309  0.1779 -0.7714
 9484SOL    HW140085   1.863   1.410   6.845  3.2361 -1.2568  1.4782
 9484SOL    HW240086   1.957   1.510   6.787  1.2116 -0.9053  0.4649
 9485SOL     OW40087   4.163   2.149   9.134 -0.2698 -0.1714 -0.2179
 9485SOL    HW140088   4.145   2.236   9.098 -1.7957 -1.4571 -2.5787
 9485SOL    HW240089   4.081   2.105   9.108  0.1127 -0.6136 -0.6812
 9486SOL     OW40090   4.097   1.983   6.429 -0.6010  1.1953 -0.2175
 9486SOL    HW140091   4.159   1.959   6.360 -0.8344 -0.6378  0.1933
 9486SOL    HW240092   4.068   1.894   6.452  2.8893  0.1447  0.1716
 9487SOL     OW40093   1.196   2.131   1.981 -0.1110 -0.4476  0.2525
 9487SOL    HW140094   1.106   2.137   2.014 -0.2883 -2.2537  0.0947
 9487SOL    HW240095   1.222   2.217   2.013 -0.0614 -1.4274  2.8621
 9488SOL     OW40096   1.704   2.162   6.172 -0.0051 -0.3849 -0.3194
 9488SOL    HW140097   1.670   2.242   6.132  0.6233  0.1445  0.2017
 9488SOL    HW240098   1.696   2.178   6.266  2.1439 -1.3861  0.0400
 9489SOL     OW40099   0.563   0.055  13.104  0.1083 -0.0727 -0.2289
 9489SOL    HW140100   0.542   0.090  13.017  1.5526  1.0270 -0.1339
 9489SOL    HW240101   0.551   0.136  13.153  0.8615  0.2026 -0.5001
 9490SOL     OW40102   3.229   3.194   9.254  0.5562 -0.3384 -0.2268
 9490SOL    HW140103   3.229   3.201   9.158  3.0942 -0.8511 -0.2803
 9490SOL    HW240104   3.260   3.282   9.278  0.3947 -0.4983  0.5421
 9491SOL     OW40105   0.918   3.530   8.659  0.0025  0.0337 -0.2428
 9491SOL    HW140106   0.979   3.552   8.729  0.9478  0.3882 -1.1706
 9491SOL    HW240107   0.978   3.491   8.595 -0.1876 -0.6274 -0.0151
 9492SOL     OW40108   1.890   1.319   2.888 -0.2553  0.3545 -0.2682
 9492SOL    HW140109   1.971   1.301   2.936  0.5437  2.8354 -0.6856
 9492SOL    HW240110   1.868   1.409   2.914 -1.6412  0.1406 -0.7238
 9493SOL     OW40111   4.259   1.201   1.736  0.3344  0.0126 -0.4953
 9493SOL    HW140112   4.201   1.268   1.772 -0.0899  0.7371 -2.5414
 9493SOL    HW240113   4.330   1.259   1.705  0.5545 -1.1455 -2.1268
 9494SOL     OW40114   4.215   2.747   6.326  0.7567  0.0289 -0.5921
 9494SOL    HW140115   4.147   2.759   6.260 -0.5112  0.0601  0.7103
 9494SOL    HW240116   4.286   2.702   6.280  0.3343  1.0715 -2.2431
 9495SOL     OW40117   0.682   4.588   8.616  0.4753  0.2203  0.1164
 9495SOL    HW140118   0.686   4.657   8.549  1.1666  0.4245  0.3725
 9495SOL    HW240119   0.615   4.533   8.576 -0.4532  0.0858  1.8757
 9496SOL     OW40120   0.351   3.020   1.405 -0.3579 -0.6779  0.1308
 9496SOL    HW140121   0.363   3.052   1.315 -1.6133 -1.3625 -0.2762
 9496SOL    HW240122   0.381   3.092   1.461 -0.5810 -0.9501  0.5946
 9497SOL     OW40123   3.718   1.141   4.358 -0.5067 -0.3580 -0.2294
 9497SOL    HW140124   3.741   1.141   4.265 -3.5594  1.8342 -0.9941
 9497SOL    HW240125   3.712   1.233   4.384 -1.0456 -0.3352 -0.4457
 9498SOL     OW40126   3.268   3.596   5.992  0.1726  0.0298  0.0049
 9498SOL    HW140127   3.301   3.561   5.909  1.3160 -0.0215  0.4726
 9498SOL    HW240128   3.177   3.621   5.974  0.5433  0.2902 -1.4705
 9499SOL     OW40129   0.487   2.973  13.688  0.1682 -0.3279 -0.4054
 9499SOL    HW140130   0.575   2.939  13.704  0.7536  0.5897 -1.6534
 9499SOL    HW240131   0.503   3.058  13.647 -1.9042  0.6126  0.7417
 9500SOL     OW40132   1.743   1.670   3.746 -0.5297 -0.8172  0.4137
 9500SOL    HW140133   1.699   1.677   3.831 -1.1964 -0.6616  0.0594
 9500SOL    HW240134   1.674   1.633   3.690 -0.9268  1.3338 -0.5048
 9501SOL     OW40135   1.584   0.966   2.746 -0.3633  0.1820 -0.2124
 9501SOL    HW140136   1.612   1.047   2.702 -0.2599 -0.3341 -1.0979
 9501SOL    HW240137   1.490   0.961   2.732 -0.4701  0.0293  0.5465
 9502SOL     OW40138   0.493   0.780  13.892 -0.2818 -0.1043 -0.0567
 9502SOL    HW140139   0.483   0.835  13.969 -0.4925 -1.9170  1.2221
 9502SOL    HW240140   0.583   0.748  13.901 -0.3132 -0.3296 -0.5074
 9503SOL     OW40141   4.102   4.313   7.208 -0.0629 -0.4309 -0.5217
 9503SOL    HW140142   4.059   4.255   7.145 -1.2908 -2.0292  1.8066
 9503SOL    HW240143   4.064   4.283   7.290  0.2747 -3.3643 -1.4321
 9504SOL     OW40144   0.322   0.970  13.124  0.1875 -0.6959  0.3265
 9504SOL    HW140145   0.288   0.944  13.210  4.2851  1.5689  2.5598
 9504SOL    HW240146   0.358   1.056  13.145 -2.0080  0.5205 -0.8662
 9505SOL     OW40147   1.815   2.297   1.029 -0.2630  0.1862  0.0498
 9505SOL    HW140148   1.833   2.382   0.989  4.2183 -1.1499 -0.7900
 9505SOL    HW240149   1.750   2.267   0.966  0.4508 -3.9328  1.2857
 9506SOL     OW40150   0.388   1.367   4.713 -0.2435 -0.1701  0.3598
 9506SOL    HW140151   0.473   1.328   4.691 -0.4099  0.0327 -0.6346
 9506SOL    HW240152   0.363   1.393   4.625  0.2609 -1.8927 -0.3012
 9507SOL     OW40153   1.207   2.419  15.839  0.1651  0.5322 -0.2543
 9507SOL    HW140154   1.247   2.394  15.755  0.4276  3.0216 -0.8487
 9507SOL    HW240155   1.133   2.470  15.808 -0.0834 -0.1209 -0.7513
 9508SOL     OW40156   0.884   2.990   3.485  0.1091 -0.4465  0.3513
 9508SOL    HW140157   0.934   2.988   3.403 -0.4233 -3.8008  0.1408
 9508SOL    HW240158   0.956   2.993   3.548 -0.7946  2.3525  1.2653
 9509SOL     OW40159   2.361   2.629   5.270 -0.1430 -0.2183 -0.3868
 9509SOL    HW140160   2.392   2.538   5.273 -0.5398 -0.3840 -1.3178
 9509SOL    HW240161   2.423   2.675   5.326 -0.3580 -1.2451  0.6883
 9510SOL     OW40162   1.229   3.226   6.165  0.6892 -0.1986 -0.5593
 9510SOL    HW140163   1.144   3.262   6.190  0.9916  1.0884 -1.3697
 9510SOL    HW240164   1.280   3.305   6.145  1.8753 -0.8085  0.0850
 9511SOL     OW40165   4.510   4.192  11.294  0.4510 -0.3348 -0.0038
 9511SOL    HW140166   4.582   4.243  11.330 -0.8854  1.7794 -0.3130
 9511SOL    HW240167   4.535   4.106  11.327 -0.8549 -0.5740  0.3813
 9512SOL     OW40168   3.161   3.950   1.048 -0.3575 -0.5583  0.2210
 9512SOL    HW140169   3.233   3.893   1.020  0.2215  0.0002  0.5780
 9512SOL    HW240170   3.094   3.884   1.066  0.3388 -1.2484  0.2874
 9513SOL     OW40171   0.833   0.870  12.805  0.4002  0.7010  0.0355
 9513SOL    HW140172   0.813   0.944  12.748 -2.0893 -1.6490 -2.1129
 9513SOL    HW240173   0.880   0.819  12.739 -1.4575  1.5179 -1.9242
 9514SOL     OW40174   3.899   3.348   0.909 -0.4617  0.6326  0.1690
 9514SOL    HW140175   3.935   3.346   0.998  0.7296  0.5524 -0.3175
 9514SOL    HW240176   3.979   3.368   0.860 -0.5693 -0.0271 -0.2804
 9515SOL     OW40177   0.365   0.617  10.843 -0.4218 -0.3558 -0.0724
 9515SOL    HW140178   0.356   0.534  10.889 -1.2875 -1.4056 -2.0933
 9515SOL    HW240179   0.279   0.656  10.858 -0.3401  0.0104 -0.5398
 9516SOL     OW40180   2.558   3.555   5.069 -0.1611  0.3929  0.3430
 9516SOL    HW140181   2.519   3.508   4.996  1.1654 -1.3062  0.7379
 9516SOL    HW240182   2.499   3.629   5.083 -0.3648  0.2596  0.1787
 9517SOL     OW40183   4.026   1.080   5.461  0.1583  0.1552 -0.0278
 9517SOL    HW140184   3.975   1.126   5.394  0.6243 -0.4037 -0.7720
 9517SOL    HW240185   4.094   1.034   5.412  1.4725  2.2514 -0.2019
 9518SOL     OW40186   0.638   1.893   7.818 -0.2197  0.3566 -0.1471
 9518SOL    HW140187   0.586   1.973   7.819  0.3394  0.7105  1.3010
 9518SOL    HW240188   0.726   1.925   7.836 -0.7494  0.6578  1.8907
 9519SOL     OW40189   0.956   1.342   7.997  0.3990  0.3756  0.6482
 9519SOL    HW140190   0.900   1.405   8.042  1.4689  1.9350 -0.2056
 9519SOL    HW240191   1.043   1.341   8.036  0.5841  0.5101  0.2274
 9520SOL     OW40192   1.482   1.430   7.367  0.1505 -0.4458 -0.5777
 9520SOL    HW140193   1.433   1.460   7.443  0.4749  2.1719 -1.4066
 9520SOL    HW240194   1.555   1.492   7.357 -1.8236  1.7106 -1.6531
 9521SOL     OW40195   1.913   1.441  12.626 -0.2244 -0.0776  0.4958
 9521SOL    HW140196   1.874   1.355  12.609 -1.3818  0.3903  0.7693
 9521SOL    HW240197   1.887   1.480  12.543  0.8473 -0.3610  0.0280
 9522SOL     OW40198   1.290   1.194  17.064 -0.1735  0.0349  0.3881
 9522SOL    HW140199   1.369   1.246  17.048  0.4939 -1.0464  0.2184
 9522SOL    HW240200   1.244   1.249  17.127  0.9149  2.5052 -0.9649
 9523SOL     OW40201   2.610   1.086   2.189 -0.0818 -0.0971  0.5576
 9523SOL    HW140202   2.546   1.131   2.134  0.0583  1.0883  1.3613
 9523SOL    HW240203   2.561   1.010   2.220 -0.7317 -0.1717 -0.6381
 9524SOL     OW40204   3.560   3.624   3.971 -0.1073 -0.0353  0.0849
 9524SOL    HW140205   3.505   3.583   3.904  0.9611  0.7686 -1.2769
 9524SOL    HW240206   3.569   3.556   4.037 -2.1430  1.7146  2.1618
 9525SOL     OW40207   0.507   4.303   3.931 -0.1370  0.6219 -0.0739
 9525SOL    HW140208   0.511   4.361   4.007 -1.2505  0.9811 -0.2751
 9525SOL    HW240209   0.413   4.285   3.925  0.1495  0.1576 -3.1138
 9526SOL     OW40210   1.510   1.548   2.349 -0.0291 -0.4540  0.6419
 9526SOL    HW140211   1.595   1.506   2.340  0.6533  1.4749 -1.7270
 9526SOL    HW240212   1.487   1.574   2.260  1.8058 -1.6083 -0.1792
 9527SOL     OW40213   1.078   2.886  11.546  0.6636 -0.4803 -0.0177
 9527SOL    HW140214   1.173   2.886  11.559  0.7455  0.1478 -0.6305
 9527SOL    HW240215   1.059   2.953  11.480  0.6877  0.1052  0.5618
 9528SOL     OW40216   3.982   2.039  16.226  0.0053  0.5032 -0.1917
 9528SOL    HW140217   3.942   2.116  16.266 -1.6541  0.2990 -1.4352
 9528SOL    HW240218   3.980   1.977  16.299  0.7908 -0.5463 -1.0679
 9529SOL     OW40219   2.456   1.709  11.166 -0.1290  0.4137  0.3375
 9529SOL    HW140220   2.406   1.787  11.141  1.4266  1.7588  1.4268
 9529SOL    HW240221   2.383   1.647  11.166 -0.1577  0.4475  0.5723
 9530SOL     OW40222   0.304   3.298   7.778 -0.0167  0.5677  0.2188
 9530SOL    HW140223   0.353   3.238   7.834 -0.1711  0.4092  0.1854
 9530SOL    HW240224   0.217   3.271   7.809  0.9013 -1.4939  0.9995
 9531SOL     OW40225   4.633   3.899  17.370  0.6613  0.0784  0.2039
 9531SOL    HW140226   4.695   3.953  17.320  2.8669  0.1322  2.9827
 9531SOL    HW240227   4.684   3.820  17.386  2.0205  0.8314 -0.3708
 9532SOL     OW40228   2.806   1.143  11.588 -0.2197  0.7741 -0.7880
 9532SOL    HW140229   2.855   1.151  11.670 -2.7905  1.9306  0.6487
 9532SOL    HW240230   2.794   1.048  11.588 -0.6941  0.8333 -0.0185
 9533SOL     OW40231   2.267   1.609  16.785 -0.0840 -0.3952 -0.0130
 9533SOL    HW140232   2.268   1.652  16.699  1.4294 -1.1091 -0.3473
 9533SOL    HW240233   2.228   1.526  16.758 -2.7069  0.5416  0.9167
 9534SOL     OW40234   3.126   0.522   8.328  0.1010  0.0541 -0.2377
 9534SOL    HW140235   3.150   0.612   8.348  0.0354  0.1303 -0.4941
 9534SOL    HW240236   3.031   0.524   8.338  0.5566  0.7096  3.8013
 9535SOL     OW40237   2.257   4.135   2.802 -0.0303 -0.0808  0.2830
 9535SOL    HW140238   2.308   4.078   2.744  0.6682 -1.0031  1.7878
 9535SOL    HW240239   2.311   4.126   2.881  1.5193  0.6162 -0.6950
 9536SOL     OW40240   3.640   0.698  13.955  0.4735  0.3689 -0.1896
 9536SOL    HW140241   3.629   0.631  13.887 -0.7789 -0.4378  0.8070
 9536SOL    HW240242   3.571   0.666  14.013  0.1534  0.4588 -0.5152
 9537SOL     OW40243   0.752   4.669   2.802  0.4106 -0.3483  0.3452
 9537SOL    HW140244   0.790   4.674   2.889 -1.1177 -0.4859  1.0336
 9537SOL    HW240245   0.749   4.574   2.787  2.0990 -0.5644  1.4397
 9538SOL     OW40246   2.276   2.107   3.196  0.5127  0.0157 -0.7461
 9538SOL    HW140247   2.357   2.120   3.245  0.8253 -0.0242 -1.2537
 9538SOL    HW240248   2.215   2.163   3.244 -0.4461  1.2661 -3.4239
 9539SOL     OW40249   3.137   3.994   2.822 -0.3216 -0.7613 -0.3371
 9539SOL    HW140250   3.184   3.950   2.893  0.2458  1.3968  0.6279
 9539SOL    HW240251   3.196   4.070   2.823 -1.5321  0.1961 -0.5456
 9540SOL     OW40252   3.938   1.367   4.550  0.4169  0.7474  0.0688
 9540SOL    HW140253   3.997   1.423   4.500  0.2452  0.5834 -0.3178
 9540SOL    HW240254   3.852   1.410   4.541  0.9958  1.6542 -1.1147
 9541SOL     OW40255   1.335   0.850   5.129  0.0281  0.4000  0.3155
 9541SOL    HW140256   1.417   0.832   5.175  1.4890  0.2741 -2.3259
 9541SOL    HW240257   1.328   0.944   5.112  0.9237  0.4389  0.1203
 9542SOL     OW40258   2.575   3.222   6.023 -0.1297 -0.3533  0.1627
 9542SOL    HW140259   2.653   3.188   6.066  0.3157 -1.9645 -1.8863
 9542SOL    HW240260   2.521   3.143   6.015 -1.0595  0.2981 -0.0211
 9543SOL     OW40261   0.921   2.001   8.728  0.5542 -0.2712  0.4388
 9543SOL    HW140262   0.850   1.943   8.699 -0.2234  0.0122  1.7813
 9543SOL    HW240263   0.870   2.046   8.796  2.5838 -0.0065  1.7777
 9544SOL     OW40264   3.417   1.349  11.443 -0.1664  0.1903  0.2595
 9544SOL    HW140265   3.463   1.393  11.370 -1.7719 -0.4278 -1.1316
 9544SOL    HW240266   3.488   1.290  11.466  1.6169  1.0965 -2.8129
 9545SOL     OW40267   1.507   3.798   7.009 -0.3924  0.6781  0.2304
 9545SOL    HW140268   1.546   3.735   6.948  2.2218  0.9395  1.5953
 9545SOL    HW240269   1.417   3.768   7.020 -0.6480  1.3998  0.0981
 9546SOL     OW40270   4.165   1.316   2.632 -0.2223  0.2658  0.2834
 9546SOL    HW140271   4.134   1.359   2.712 -2.9925 -0.5844 -0.3319
 9546SOL    HW240272   4.087   1.320   2.576  0.0427  1.5896  0.0007
 9547SOL     OW40273   3.885   4.710   3.037 -0.1377 -0.1188  0.1106
 9547SOL    HW140274   3.976   4.687   3.056 -0.2323 -1.2180 -0.7732
 9547SOL    HW240275   3.841   4.679   3.117  0.5682  0.1527  0.6079
 9548SOL     OW40276   2.907   2.894  10.734  0.0809  0.3994  0.0157
 9548SOL    HW140277   2.907   2.961  10.802 -2.6779 -0.6651  1.0546
 9548SOL    HW240278   2.978   2.839  10.770  1.0269  1.5758 -0.0444
 9549SOL     OW40279   0.957   1.756  11.553 -0.3363 -0.3087 -0.3050
 9549SOL    HW140280   0.988   1.787  11.468 -0.0716  2.2944  0.7351
 9549SOL    HW240281   0.941   1.663  11.542  0.4275 -0.3938 -0.6486
 9550SOL     OW40282   0.130   1.317   1.734  0.6397  0.0282 -0.3435
 9550SOL    HW140283   0.217   1.299   1.698 -0.5731 -2.9119 -1.7726
 9550SOL    HW240284   0.157   1.384   1.797 -0.1687 -0.3670  0.4096
 9551SOL     OW40285   0.036   1.080   8.698  0.1334 -1.3326 -0.2931
 9551SOL    HW140286   4.715   1.113   8.768 -0.2851  0.9537 -1.7174
 9551SOL    HW240287   0.091   1.156   8.679 -0.0575 -0.9449  0.6835
 9552SOL     OW40288   2.657   0.138   0.030 -0.4892 -0.5394 -0.0024
 9552SOL    HW140289   2.638   0.103   0.117 -3.1330  0.1714 -0.2905
 9552SOL    HW240290   2.569   0.174   0.021  0.6545  2.3059  0.1027
 9553SOL     OW40291   2.264   2.062   7.652 -0.6886 -1.1100  0.1335
 9553SOL    HW140292   2.346   2.048   7.605 -0.6520 -0.8094  0.1109
 9553SOL    HW240293   2.220   2.014   7.582 -1.6820 -1.4139  0.9614
 9554SOL     OW40294   2.743   0.111   7.096 -0.2956  0.1655 -0.0210
 9554SOL    HW140295   2.763   0.196   7.137 -0.1352  0.1918 -0.1522
 9554SOL    HW240296   2.676   0.128   7.030 -1.3904  0.8131  1.2683
 9555SOL     OW40297   1.012   3.573   5.283  0.5114 -0.0970 -0.2146
 9555SOL    HW140298   0.995   3.656   5.238 -2.4884 -0.2376  0.6378
 9555SOL    HW240299   0.980   3.599   5.369  3.3020  0.9382  0.5095
 9556SOL     OW40300   3.372   1.634   6.368  0.4150  0.4185  0.0265
 9556SOL    HW140301   3.460   1.598   6.380  0.1620 -0.1952  0.0300
 9556SOL    HW240302   3.317   1.567   6.408 -0.5314  1.0612 -0.2075
 9557SOL     OW40303   4.143   1.779   5.117 -0.1511 -0.7359 -0.7394
 9557SOL    HW140304   4.141   1.874   5.109  0.7199 -0.7962 -1.7314
 9557SOL    HW240305   4.148   1.762   5.211 -0.9822  1.3708 -0.3102
 9558SOL     OW40306   2.044   1.789  15.534 -0.3428  0.4482  0.5657
 9558SOL    HW140307   1.986   1.715  15.520  1.3471 -0.7202 -0.3043
 9558SOL    HW240308   2.105   1.783  15.460 -0.1902  1.1144  0.6342
 9559SOL     OW40309   2.077   3.976  11.422 -0.1427  0.1397  0.1631
 9559SOL    HW140310   2.033   4.015  11.346 -2.1867 -1.1931  0.6505
 9559SOL    HW240311   2.009   3.915  11.453 -0.0655  0.0178  0.0952
 9560SOL     OW40312   1.466   1.737   7.806 -0.2242  0.7093  0.4037
 9560SOL    HW140313   1.426   1.714   7.890 -1.3630  1.3481  0.0317
 9560SOL    HW240314   1.554   1.762   7.833  0.1488 -1.2462  1.0002
 9561SOL     OW40315   0.012   3.832   3.869 -0.2584  0.2763 -0.5138
 9561SOL    HW140316   4.685   3.807   3.801 -1.8575  0.9154  0.7632
 9561SOL    HW240317   0.010   3.927   3.857 -4.3268  0.1338 -0.8757
 9562SOL     OW40318   3.531   3.835   2.993 -0.4235  0.1653  0.4350
 9562SOL    HW140319   3.539   3.866   2.903  0.0972  1.3496  0.8843
 9562SOL    HW240320   3.442   3.863   3.011 -1.1097 -0.4994 -1.9499
 9563SOL     OW40321   1.653   3.833  12.514  0.1335 -0.6256  0.1101
 9563SOL    HW140322   1.631   3.873  12.430  0.9438  1.6559  0.9699
 9563SOL    HW240323   1.680   3.749  12.477  2.1401 -0.1504  0.5208
 9564SOL     OW40324   3.975   4.441   2.440  0.3656  0.6984 -0.3857
 9564SOL    HW140325   4.004   4.422   2.529  0.6456 -3.1753 -1.3028
 9564SOL    HW240326   4.035   4.509   2.410  0.3636  0.9741  0.2256
 9565SOL     OW40327   2.314   0.884   9.308  0.5462  0.0751 -0.1968
 9565SOL    HW140328   2.380   0.913   9.372 -1.6219 -1.6909  2.8287
 9565SOL    HW240329   2.319   0.790   9.323 -0.1626  0.0717  0.0391
 9566SOL     OW40330   0.698   2.213   7.720  0.6593  0.7365 -0.7302
 9566SOL    HW140331   0.603   2.200   7.715  0.7468 -0.2105  0.1118
 9566SOL    HW240332   0.732   2.182   7.637  1.6932  2.3422 -0.9042
 9567SOL     OW40333   2.166   1.855   5.956  0.1262 -0.0453 -0.0469
 9567SOL    HW140334   2.086   1.807   5.973 -0.2742  0.9037  0.7387
 9567SOL    HW240335   2.176   1.826   5.865  2.1759 -0.8917  0.4380
 9568SOL     OW40336   0.593   3.790   3.484 -0.7033  0.7173  0.3119
 9568SOL    HW140337   0.559   3.846   3.414 -0.8242  0.1859 -0.0548
 9568SOL    HW240338   0.515   3.735   3.495  0.4123 -0.6491  1.3921
 9569SOL     OW40339   3.183   0.955  15.500 -0.2124  0.1180  0.1783
 9569SOL    HW140340   3.093   0.988  15.492 -0.4320 -0.4937  0.1536
 9569SOL    HW240341   3.197   0.922  15.589  1.1314 -0.9281 -0.4328
 9570SOL     OW40342   0.799   1.673   4.951 -0.1296  0.2408 -0.4359
 9570SOL    HW140343   0.786   1.694   5.044 -0.8525 -3.4973  0.3381
 9570SOL    HW240344   0.815   1.759   4.914 -0.9489  0.5810 -0.0070
 9571SOL     OW40345   3.299   3.626   6.936 -0.1509  0.0459 -0.3059
 9571SOL    HW140346   3.236   3.608   7.006  0.4345 -2.0710 -0.3426
 9571SOL    HW240347   3.273   3.714   6.906  3.4231  1.2784  0.2230
   4.73618   4.73618  17.74326
