Membrane in water
40344
    1TMC1    C1    1   1.856   2.733  11.734 -0.2957 -0.1252 -0.3927
    1TMC1    C2    2   1.811   2.831  11.651  0.5257 -0.5603 -0.4424
    1TMC1    C3    3   1.887   2.859  11.543  0.3431 -0.4801  0.5213
    1TMC1    C4    4   1.984   2.671  11.719 -0.1191  0.0586 -0.5375
    1TMC1    C5    5   2.060   2.719  11.620 -0.8745  0.1537 -0.2628
    1TMC1    C6    6   2.008   2.805  11.524  0.9088 -0.1295  0.7484
    1TMC1     C    7   1.768   2.682  11.831 -0.4643 -0.6576 -0.2175
    1TMC1     O    8   1.653   2.719  11.812  0.0946 -0.1348  0.0360
    1TMC1     H    9   1.707   2.860  11.639  0.2042 -1.6969 -0.3595
    1TMC1    H1   10   2.013   2.577  11.766  1.5976  0.8758  0.0493
    1TMC1    H2   11   2.070   2.846  11.445  0.4522  0.0179  0.4684
    1TMC1    C7   12   2.181   2.637  11.591  0.1101 -0.5529  0.5857
    1TMC1    C8   13   1.815   2.930  11.431  1.2219 -0.0401 -0.5252
    1TMC1    O1   14   2.184   2.524  11.634 -0.0185 -0.2723  0.0371
    1TMC1    O2   15   1.868   2.935  11.321 -0.3284 -0.6499  0.1191
    1TMC1    O3   16   2.272   2.710  11.532  0.3125 -0.3605 -0.4909
    1TMC1    H3   17   2.246   2.804  11.521 -1.4095 -0.7795  0.0656
    1TMC1    O5   18   1.728   3.022  11.474 -0.1807 -0.0222 -0.5767
    1TMC1    H5   19   1.725   3.036  11.571  1.2460 -2.7173 -0.1441
    2MPD2     C   20   1.647   2.388  12.234  0.4471  1.1481 -0.4972
    2MPD2    C1   21   1.564   2.482  12.161  0.7056 -0.7095 -0.3605
    2MPD2    C2   22   1.618   2.551  12.053  0.3541 -0.1938  0.7207
    2MPD2    C3   23   1.755   2.533  12.026  0.3078 -0.2271  0.0729
    2MPD2    C4   24   1.832   2.450  12.100  0.2828 -0.0628 -0.2345
    2MPD2    C5   25   1.779   2.385  12.205 -0.2571 -0.0681 -1.2990
    2MPD2     H   26   1.559   2.609  11.984  0.7672 -0.6139  0.0102
    2MPD2    H1   27   1.938   2.443  12.082  0.4197  1.9744 -0.1711
    2MPD2    H2   28   1.605   2.336  12.319  1.2460 -0.7926 -1.2921
    2MPD2    H3   29   1.848   2.322  12.260 -1.7293 -1.3374 -0.8904
    2MPD2     N   30   1.823   2.595  11.919  0.1197  0.3148 -0.2959
    2MPD2    H5   31   1.924   2.584  11.919  0.3301  2.2603  0.8530
    2MPD2    N1   32   1.424   2.491  12.180 -0.2323  0.7772 -0.4302
    2MPD2    H7   33   1.374   2.561  12.126  0.7998  1.8334  0.0032
    3TMC1    C1   34   0.745   3.767  10.712 -0.0750  0.0495  0.0696
    3TMC1    C2   35   0.734   3.629  10.719  0.8217 -0.3374  0.7937
    3TMC1    C3   36   0.840   3.552  10.696  0.6261  0.3981  0.1286
    3TMC1    C4   37   0.866   3.823  10.670  0.1698  0.0606 -0.5012
    3TMC1    C5   38   0.976   3.737  10.657 -0.3483  0.3419 -0.3006
    3TMC1    C6   39   0.968   3.602  10.674 -0.6319  0.5578 -0.9752
    3TMC1     C   40   0.624   3.840  10.695  0.0156 -0.1100 -0.2427
    3TMC1     O   41   0.516   3.790  10.709 -0.1412  0.3376  0.1791
    3TMC1     H   42   0.640   3.580  10.740 -0.0224 -0.0133 -2.3247
    3TMC1    H1   43   0.885   3.929  10.665 -0.2492  0.1884  0.6234
    3TMC1    H2   44   1.054   3.535  10.674 -0.2674  1.0290 -1.5591
    3TMC1    C7   45   1.100   3.802  10.620  0.4061  0.0877  0.0695
    3TMC1    C8   46   0.824   3.405  10.705 -0.0193 -0.1616 -0.4406
    3TMC1    O1   47   1.094   3.918  10.577 -0.3083  0.1293  0.1606
    3TMC1    O2   48   0.724   3.358  10.758  0.4292  0.1870 -0.4480
    3TMC1    O3   49   1.201   3.722  10.654 -0.7855 -0.0063 -0.4924
    3TMC1    H3   50   1.167   3.641  10.697  0.6660 -0.0516  0.5466
    3TMC1    O5   51   0.903   3.341  10.621 -0.2673 -0.1810  0.4942
    3TMC1    H5   52   0.950   3.396  10.554  0.4339 -1.1966  0.1565
    4MPD2     C   53   0.330   4.251  10.637  0.2070 -0.3918 -0.5132
    4MPD2    C1   54   0.449   4.294  10.685  0.3583  0.5735 -0.5045
    4MPD2    C2   55   0.555   4.202  10.697 -0.1220  0.6992 -0.0328
    4MPD2    C3   56   0.540   4.067  10.659 -0.0399  0.0774  0.5336
    4MPD2    C4   57   0.422   4.032  10.593 -0.7479 -0.1463  0.7534
    4MPD2    C5   58   0.318   4.121  10.586 -0.4150  0.5202 -0.0643
    4MPD2     H   59   0.650   4.224  10.745 -0.8089  2.5148  0.4871
    4MPD2    H1   60   0.402   3.932  10.556  1.4126 -2.2767  5.3312
    4MPD2    H2   61   0.250   4.322  10.622 -0.1823 -1.0637 -1.6074
    4MPD2    H3   62   0.220   4.096  10.548  0.2890 -1.3511 -0.6676
    4MPD2     N   63   0.650   3.973  10.678 -0.4108 -0.4281  0.1278
    4MPD2    H5   64   0.745   4.003  10.698  0.3153 -3.9421  2.0022
    4MPD2    N1   65   0.463   4.428  10.734  0.2183  0.1894  0.2383
    4MPD2    H7   66   0.557   4.463  10.753 -0.2523  0.9185  1.2141
    5TCq1    O1   67   2.114   0.263  11.589 -0.0649  0.2201 -0.6284
    5TCq1    C1   68   2.060   0.158  11.524  0.3186  0.1659  0.3140
    5TCq1    O2   69   2.122   0.090  11.442  0.1032 -0.0026 -0.2939
    5TCq1    C2   70   1.923   0.181  11.503 -0.1172 -0.1798 -0.3206
    5TCq1    C3   71   1.839   0.228  11.601 -0.1369 -1.0987  0.3243
    5TCq1    C4   72   1.719   0.282  11.566  1.1254 -0.6691 -0.0736
    5TCq1    C5   73   1.679   0.282  11.437 -0.1816 -0.1526  0.4731
    5TCq1    C6   74   1.759   0.226  11.337 -0.5364  0.5030 -0.6524
    5TCq1    C7   75   1.889   0.185  11.368  0.0387  0.6156 -0.7189
    5TCq1    C8   76   1.723   0.260  11.200 -0.2803  0.4863 -0.0244
    5TCq1    O4   77   1.798   0.224  11.112  0.2288 -0.4787 -0.0351
    5TCq1    C9   78   1.632   0.334  11.673  0.0497 -1.1022  0.4023
    5TCq1    O5   79   1.519   0.375  11.638 -0.2500  0.0020 -0.2784
    5TCq1    O6   80   1.676   0.333  11.791  0.2086 -0.1497  0.4373
    5TCq1    H1   81   2.061   0.343  11.606  0.1231  0.1475  0.3106
    5TCq1    H2   82   1.873   0.228  11.704 -1.2281  1.6632  0.6672
    5TCq1    H3   83   1.579   0.322  11.422  0.4250  2.0265  2.2959
    5TCq1    H4   84   1.949   0.150  11.285 -0.5386  0.2249 -0.9779
    6MPD2     C   85   1.463   0.470  11.073  0.1579  0.4391  0.4924
    6MPD2    C1   86   1.566   0.387  11.064 -0.3970 -0.4784 -0.4634
    6MPD2    C2   87   1.612   0.355  10.933 -0.4717  0.2052 -0.2309
    6MPD2    C3   88   1.558   0.403  10.819 -0.6926 -0.3515 -0.3727
    6MPD2    C4   89   1.445   0.482  10.830 -0.3403 -0.7219  0.4738
    6MPD2    C5   90   1.403   0.517  10.955 -0.2653 -0.2983  0.5200
    6MPD2     H   91   1.696   0.289  10.917 -0.7802 -0.3723  0.5719
    6MPD2    H1   92   1.405   0.530  10.741  2.3316  0.3939 -0.1190
    6MPD2    H2   93   1.419   0.495  11.168 -2.4924 -0.0491 -0.6250
    6MPD2    H3   94   1.312   0.576  10.955  0.2406  0.5144 -2.4583
    6MPD2     N   95   1.619   0.364  10.697 -0.0567 -0.0031  0.2354
    6MPD2    H5   96   1.705   0.310  10.701 -0.1521 -0.1696  0.0618
    6MPD2    N1   97   1.607   0.335  11.185 -0.2952  0.5374  0.3658
    6MPD2    H7   98   1.563   0.365  11.271 -1.4558  2.8412 -1.0396
    7TCq1    O1   99   2.757   0.205  13.692 -0.5549  0.0428  0.0521
    7TCq1    C1  100   2.843   0.100  13.711  0.2724  0.1908 -0.1787
    7TCq1    O2  101   2.860   0.048  13.820  0.0235 -0.8800  0.6097
    7TCq1    C2  102   2.914   0.067  13.584  0.6348  0.1115 -0.2572
    7TCq1    C3  103   2.933   0.162  13.492 -0.0748 -0.2685  0.0640
    7TCq1    C4  104   3.031   0.145  13.397 -0.5487  0.4753  0.2244
    7TCq1    C5  105   3.097   0.028  13.381  0.0825 -0.0690  0.0906
    7TCq1    C6  106   3.069   4.669  13.477  0.8966  0.4990 -0.0557
    7TCq1    C7  107   2.984   4.688  13.582  0.5037 -0.7628 -0.7604
    7TCq1    C8  108   3.159   4.550  13.481 -0.5187 -0.5390  0.2490
    7TCq1    O4  109   3.169   4.484  13.585  0.3211  0.1586 -0.7418
    7TCq1    C9  110   3.066   0.265  13.323  0.1169  0.1153  0.5258
    7TCq1    O5  111   3.184   0.280  13.289 -0.6704  0.0582  0.5952
    7TCq1    O6  112   2.979   0.354  13.311  0.2399  0.6685 -0.1535
    7TCq1    H1  113   2.728   0.224  13.600 -0.0236 -2.3801 -0.6321
    7TCq1    H2  114   2.866   0.245  13.475 -1.3784 -0.6701  3.2518
    7TCq1    H3  115   3.177   0.008  13.311 -0.5833 -0.0471 -0.6801
    7TCq1    H4  116   2.974   4.603  13.649 -1.8384  0.8582  0.9286
    8MPD2     C  117   3.436   4.203  13.239  0.2261  0.4300  0.7413
    8MPD2    C1  118   3.430   4.230  13.372  0.1304  0.5473 -0.1720
    8MPD2    C2  119   3.352   4.337  13.416  0.2224  0.3755 -0.2000
    8MPD2    C3  120   3.275   4.411  13.326 -0.3700 -0.3775 -0.5019
    8MPD2    C4  121   3.283   4.375  13.190  0.0933 -0.1349  0.5621
    8MPD2    C5  122   3.354   4.269  13.148  0.1306 -0.0863  0.2203
    8MPD2     H  123   3.355   4.366  13.521  2.3199 -1.6181  0.2771
    8MPD2    H1  124   3.235   4.436  13.114  0.3899  0.4536  0.8466
    8MPD2    H2  125   3.497   4.121  13.205  1.3325  0.8512  1.7031
    8MPD2    H3  126   3.371   4.239  13.046  2.1560  0.1465  0.4784
    8MPD2     N  127   3.200   4.520  13.359 -0.1045 -0.0523 -0.7345
    8MPD2    H5  128   3.163   4.574  13.281 -0.5787  0.0921 -0.4104
    8MPD2    N1  129   3.508   4.144  13.463  0.5657 -0.3691 -0.0464
    8MPD2    H7  130   3.553   4.062  13.423  0.4877 -1.3094  1.8075
    9TMC1    C1  131   1.090   2.718  10.910  0.1203  0.4298  0.3717
    9TMC1    C2  132   1.019   2.600  10.903  0.5485 -0.0075 -0.3707
    9TMC1    C3  133   0.897   2.606  10.847  0.5155 -0.1307  0.1145
    9TMC1    C4  134   1.036   2.845  10.886 -0.2085  0.5174  0.0705
    9TMC1    C5  135   0.907   2.847  10.844 -0.5226 -0.1936 -0.1699
    9TMC1    C6  136   0.843   2.731  10.823 -0.0773 -0.7687  0.5152
    9TMC1     C  137   1.200   2.716  11.004 -0.5353  0.0524  0.4290
    9TMC1     O  138   1.291   2.642  10.972 -0.1775  0.6965 -0.5730
    9TMC1     H  139   1.048   2.507  10.951 -1.7104 -0.5250  0.0050
    9TMC1    H1  140   1.106   2.927  10.898  0.1667  0.0547  0.9766
    9TMC1    H2  141   0.746   2.728  10.774 -0.4973 -1.6936  1.3941
    9TMC1    C7  142   0.873   2.944  10.746 -0.1364  1.1880 -0.1553
    9TMC1    C8  143   0.810   2.523  10.921  0.4179  0.0115 -0.2643
    9TMC1    O1  144   0.829   2.929  10.636  0.3525  0.3077 -0.3332
    9TMC1    O2  145   0.746   2.582  11.005 -0.6306  0.1573 -0.7728
    9TMC1    O3  146   0.909   3.067  10.786  0.3952 -0.2956 -0.0759
    9TMC1    H3  147   0.924   3.085  10.881  1.9492 -0.3263 -0.3086
    9TMC1    O5  148   0.747   2.449  10.828 -0.2398 -0.6198  0.2337
    9TMC1    H5  149   0.806   2.439  10.750  0.9095  2.4110  0.7360
   10MPD2     C  150   1.390   2.787  11.220  0.1287  0.0734  0.4287
   10MPD2    C1  151   1.265   2.845  11.204 -0.1450 -0.6157 -0.0437
   10MPD2    C2  152   1.216   2.941  11.298  0.0531  1.1897  0.1240
   10MPD2    C3  153   1.292   2.967  11.415 -0.4648 -0.5278  0.7287
   10MPD2    C4  154   1.421   2.917  11.425  0.3556  0.3519 -0.8026
   10MPD2    C5  155   1.470   2.833  11.326  0.3242  0.2032  0.3163
   10MPD2     H  156   1.119   2.988  11.286  0.1238  1.3730  0.2629
   10MPD2    H1  157   1.480   2.934  11.514  0.1575  2.0991 -1.0032
   10MPD2    H2  158   1.435   2.715  11.153  0.5832  1.6355 -0.9457
   10MPD2    H3  159   1.572   2.796  11.332 -0.0116 -0.8978 -0.5513
   10MPD2     N  160   1.255   3.066  11.508 -0.6551 -0.9242  0.0788
   10MPD2    H5  161   1.314   3.065  11.591 -1.1781  0.3251  0.4706
   10MPD2    N1  162   1.182   2.817  11.094 -0.2396 -0.2861  0.5129
   10MPD2    H7  163   1.095   2.869  11.100  1.5451  2.7102  0.4437
   11TCq1    O1  164   1.408   3.925  14.065  0.0463 -0.1257 -0.3872
   11TCq1    C1  165   1.282   3.894  14.045 -0.1284  0.1292  0.2459
   11TCq1    O2  166   1.202   3.963  13.990  0.6330 -0.1737  0.4228
   11TCq1    C2  167   1.255   3.768  14.103  0.4715  0.2229 -0.6186
   11TCq1    C3  168   1.338   3.703  14.195 -0.6841 -0.5094 -0.1402
   11TCq1    C4  169   1.306   3.573  14.223 -0.1341  0.3685  0.2293
   11TCq1    C5  170   1.193   3.511  14.167  0.3099  0.2676 -0.3184
   11TCq1    C6  171   1.131   3.575  14.066 -0.0154 -0.0635  0.1926
   11TCq1    C7  172   1.160   3.700  14.036 -0.4398 -0.2300  0.4789
   11TCq1    C8  173   1.046   3.497  13.979 -1.1462  0.7043  0.1449
   11TCq1    O4  174   0.950   3.552  13.927  0.0708  0.9488 -0.1822
   11TCq1    C9  175   1.388   3.487  14.309 -0.4227 -0.4912  0.1695
   11TCq1    O5  176   1.371   3.362  14.310  0.2256  0.5370  0.2248
   11TCq1    O6  177   1.479   3.540  14.376  0.1921  0.3740 -0.3584
   11TCq1    H1  178   1.466   3.849  14.086 -1.7384 -2.1327 -2.8513
   11TCq1    H2  179   1.413   3.759  14.251 -0.3647 -1.2449  0.1670
   11TCq1    H3  180   1.180   3.409  14.199  3.5429  0.6278  2.1390
   11TCq1    H4  181   1.110   3.753  13.956 -0.6300 -0.6792  0.3008
   12MPD2     C  182   0.957   3.279  13.800 -0.0862 -0.1368 -0.4226
   12MPD2    C1  183   1.057   3.256  13.896  0.3987 -0.2562 -0.1756
   12MPD2    C2  184   1.115   3.127  13.906  0.1529 -0.2645  0.3472
   12MPD2    C3  185   1.071   3.031  13.814  0.2877  0.0491 -0.0386
   12MPD2    C4  186   0.983   3.055  13.717 -0.4699 -0.5395 -0.5294
   12MPD2    C5  187   0.930   3.183  13.705 -0.1033 -0.7523  0.1808
   12MPD2     H  188   1.197   3.112  13.976 -0.1317  0.9633  0.9322
   12MPD2    H1  189   0.970   2.982  13.638  1.0007 -1.4819  0.0869
   12MPD2    H2  190   0.902   3.371  13.787 -0.2778 -0.1192  0.5169
   12MPD2    H3  191   0.866   3.198  13.618 -0.6017  0.8843  0.8225
   12MPD2     N  192   1.124   2.902  13.809  0.0677 -0.0959 -0.0608
   12MPD2    H5  193   1.086   2.838  13.740 -0.0299 -1.1472  0.9798
   12MPD2    N1  194   1.094   3.366  13.978  0.1611 -0.5980 -0.3644
   12MPD2    H7  195   1.178   3.360  14.033 -0.0001 -2.1755 -0.2976
   13TCq1    O1  196   1.856   3.692  11.811  0.3471  0.1656 -0.3798
   13TCq1    C1  197   1.745   3.695  11.730  0.8616 -0.5922 -0.5647
   13TCq1    O2  198   1.697   3.803  11.695  0.4903 -0.1330  0.1239
   13TCq1    C2  199   1.705   3.566  11.673 -0.0030 -0.2628  0.3280
   13TCq1    C3  200   1.754   3.451  11.729 -0.0277 -0.3834  0.0141
   13TCq1    C4  201   1.710   3.327  11.678  0.4351 -0.4759  0.3644
   13TCq1    C5  202   1.622   3.325  11.569 -0.0365 -0.2118 -0.1305
   13TCq1    C6  203   1.573   3.443  11.523 -0.2477  0.4800 -0.7000
   13TCq1    C7  204   1.610   3.566  11.572 -0.2988  0.2602  0.5403
   13TCq1    C8  205   1.451   3.435  11.438 -0.3722  1.4728 -0.4092
   13TCq1    O4  206   1.367   3.521  11.443  1.0252 -0.1646 -0.7159
   13TCq1    C9  207   1.772   3.201  11.742  0.1467  0.6801  0.1655
   13TCq1    O5  208   1.708   3.097  11.718  0.0950 -0.2779  0.0853
   13TCq1    O6  209   1.867   3.214  11.825  0.2972  0.4896  0.5518
   13TCq1    H1  210   1.896   3.608  11.842 -0.7236 -0.7187 -1.3803
   13TCq1    H2  211   1.821   3.453  11.813  0.7474  0.3441 -0.6245
   13TCq1    H3  212   1.588   3.232  11.524  0.1108 -0.6899  0.7439
   13TCq1    H4  213   1.573   3.661  11.535 -2.5376 -1.1295 -0.7687
   14MPD2     C  214   1.433   3.198  11.160 -0.3057 -0.3353 -0.3158
   14MPD2    C1  215   1.386   3.299  11.243  0.3306 -0.4633  0.7081
   14MPD2    C2  216   1.257   3.335  11.236 -0.0602 -0.2560 -0.2013
   14MPD2    C3  217   1.174   3.279  11.146 -0.1825  0.5783 -0.0910
   14MPD2    C4  218   1.221   3.188  11.053 -0.0872  0.3440 -0.1026
   14MPD2    C5  219   1.356   3.153  11.053  0.2281  0.6396 -0.5286
   14MPD2     H  220   1.213   3.410  11.301 -0.6977 -1.4122  0.7018
   14MPD2    H1  221   1.165   3.128  10.983  1.6536  0.1767 -1.3627
   14MPD2    H2  222   1.533   3.158  11.168 -0.1117  0.3835  1.0148
   14MPD2    H3  223   1.395   3.076  10.988 -0.3786  2.7742 -3.3926
   14MPD2     N  224   1.036   3.294  11.174  0.3861  0.2755 -0.0896
   14MPD2    H5  225   1.004   3.359  11.246  0.2062 -0.6190  0.6402
   14MPD2    N1  226   1.472   3.334  11.349  0.2482  0.0298  0.1811
   14MPD2    H7  227   1.566   3.296  11.348  0.1367 -0.2458  0.0865
   15TCq1    O1  228   2.730   2.688   1.288  0.5516 -0.0871 -0.2460
   15TCq1    C1  229   2.740   2.573   1.227  0.3684  0.5839  0.8418
   15TCq1    O2  230   2.664   2.534   1.141  0.0934  0.5029 -0.1915
   15TCq1    C2  231   2.844   2.490   1.287 -0.6173  0.2820  0.1867
   15TCq1    C3  232   2.949   2.549   1.355  0.3352 -0.1766  0.1684
   15TCq1    C4  233   3.048   2.465   1.384 -0.2298  0.1845  0.0992
   15TCq1    C5  234   3.046   2.334   1.358  0.2430 -0.6440 -0.6866
   15TCq1    C6  235   2.939   2.287   1.293  0.6467  0.0333 -0.0642
   15TCq1    C7  236   2.839   2.361   1.248 -0.1953  0.2539  0.0229
   15TCq1    C8  237   2.944   2.156   1.243  0.3082 -0.1487  0.0013
   15TCq1    O4  238   2.997   2.079   1.324  0.6795 -0.4940  0.2115
   15TCq1    C9  239   3.172   2.513   1.441  0.5748 -0.7543 -0.7876
   15TCq1    O5  240   3.181   2.639   1.438  0.4887  0.2737 -0.5870
   15TCq1    O6  241   3.243   2.433   1.498 -0.2097  0.1494 -0.4926
   15TCq1    H1  242   2.789   2.700   1.364 -0.6364 -0.1160  0.6869
   15TCq1    H2  243   2.962   2.656   1.366  0.6142  0.2683 -4.4542
   15TCq1    H3  244   3.127   2.269   1.388 -0.5721 -1.2012  0.2959
   15TCq1    H4  245   2.753   2.314   1.201 -1.7442  1.8193  1.3013
   16MPD2     C  246   2.879   2.079   0.893  0.5497 -0.3595  0.2953
   16MPD2    C1  247   2.900   2.047   1.026  0.4047 -0.0611 -0.6913
   16MPD2    C2  248   2.902   1.917   1.054 -0.6249  0.2432 -0.1504
   16MPD2    C3  249   2.887   1.817   0.958  0.2753 -0.7122  0.2018
   16MPD2    C4  250   2.870   1.854   0.827  0.4396 -0.4228 -0.0386
   16MPD2    C5  251   2.863   1.989   0.793 -0.0017  0.4450 -0.9862
   16MPD2     H  252   2.928   1.882   1.153  3.3693  1.6684 -0.6800
   16MPD2    H1  253   2.855   1.784   0.747  3.0863 -0.9608 -0.0650
   16MPD2    H2  254   2.876   2.183   0.861 -4.1435 -0.2119  1.1448
   16MPD2    H3  255   2.831   2.020   0.694 -2.0332  1.9207  0.1101
   16MPD2     N  256   2.910   1.683   0.992 -0.0754 -0.7382 -0.2105
   16MPD2    H5  257   2.912   1.662   1.092  1.9676  1.0253  0.1196
   16MPD2    N1  258   2.911   2.156   1.108  0.3471 -0.3225  0.0349
   16MPD2    H7  259   2.903   2.246   1.062 -0.3569 -0.3185  0.1695
   17TMC1    C1  260   1.565   2.070  12.044 -0.2341 -0.4167 -0.1934
   17TMC1    C2  261   1.692   2.022  12.051 -0.2686 -0.0869 -0.7220
   17TMC1    C3  262   1.735   1.951  12.163 -0.0952 -0.4465 -0.4676
   17TMC1    C4  263   1.478   2.058  12.150  0.7955 -0.8266 -0.7820
   17TMC1    C5  264   1.517   1.979  12.258  0.0306 -0.4932  0.0413
   17TMC1    C6  265   1.645   1.922  12.262 -0.3665  0.1993 -0.0376
   17TMC1     C  266   1.528   2.179  11.957 -0.7682 -0.3081  0.1242
   17TMC1     O  267   1.408   2.201  11.956 -0.5661 -0.1229  0.1700
   17TMC1     H  268   1.757   2.039  11.966  0.1595  0.0654 -0.3655
   17TMC1    H1  269   1.382   2.106  12.154  1.7053  0.9695 -0.5000
   17TMC1    H2  270   1.671   1.857  12.345 -1.1714 -1.0002 -0.7189
   17TMC1    C7  271   1.416   1.926  12.348 -0.4665  0.1323 -0.4852
   17TMC1    C8  272   1.835   1.843  12.173  0.1257 -0.5318  0.0062
   17TMC1    O1  273   1.443   1.882  12.456 -0.0103  0.6969 -0.3645
   17TMC1    O2  274   1.803   1.736  12.222 -0.1150  0.1888 -0.3006
   17TMC1    O3  275   1.345   1.858  12.265  0.0391  0.0721 -0.1720
   17TMC1    H3  276   1.356   1.874  12.169 -0.0208  0.5714 -0.0964
   17TMC1    O5  277   1.917   1.859  12.066  0.2708 -0.0206  0.0233
   17TMC1    H5  278   1.914   1.949  12.026 -0.9411  0.2011  0.6073
   18MPD2     C  279   1.494   2.383  11.750 -0.2317  0.1276 -0.0363
   18MPD2    C1  280   1.603   2.302  11.760 -0.7315  0.1646 -0.0023
   18MPD2    C2  281   1.705   2.323  11.672 -0.3754  0.2242  0.6564
   18MPD2    C3  282   1.700   2.420  11.567  0.5201  0.2416  0.2378
   18MPD2    C4  283   1.582   2.493  11.554 -0.2569  0.1240 -0.0742
   18MPD2    C5  284   1.483   2.482  11.651  0.1771 -0.4149  0.2092
   18MPD2     H  285   1.797   2.266  11.679  0.2932  1.4056  1.5197
   18MPD2    H1  286   1.559   2.549  11.464  2.4638 -0.5782 -1.2105
   18MPD2    H2  287   1.406   2.370  11.811 -0.5292  0.8238 -0.3129
   18MPD2    H3  288   1.393   2.542  11.654  0.6272  0.2861 -0.5331
   18MPD2     N  289   1.807   2.431  11.483  0.0015  0.4543 -0.2551
   18MPD2    H5  290   1.878   2.358  11.488 -0.5034  0.0088  0.3688
   18MPD2    N1  291   1.627   2.216  11.866  0.1235  0.2535 -0.2896
   18MPD2    H7  292   1.720   2.178  11.878 -0.4667 -1.4149 -0.9471
   19TMC2    C1  293   2.705   3.370  14.224 -0.0080  0.2591 -0.0513
   19TMC2    C2  294   2.660   3.467  14.149 -0.2061 -0.0076 -0.4027
   19TMC2    C3  295   2.533   3.516  14.168 -0.7035 -0.1817 -0.1557
   19TMC2    C4  296   2.618   3.309  14.318 -0.2189 -0.1218 -0.2145
   19TMC2    C5  297   2.487   3.346  14.323  0.0683 -0.0481  0.6952
   19TMC2    C6  298   2.444   3.455  14.257 -0.3457 -0.6458  0.1433
   19TMC2     C  299   2.817   3.293  14.184 -0.0063 -0.9733 -0.1411
   19TMC2     O  300   2.866   3.293  14.071 -0.0547 -0.6146  0.2974
   19TMC2     H  301   2.731   3.506  14.078  2.0616 -0.3060  1.7266
   19TMC2    H1  302   2.655   3.243  14.396  1.1274 -0.8873 -1.5148
   19TMC2    H2  303   2.348   3.504  14.273 -0.7751 -1.5579  0.3730
   19TMC2    C7  304   2.407   3.223  14.316 -0.2361 -0.5087  0.1222
   19TMC2    C8  305   2.487   3.633  14.093 -0.2671 -0.6444 -0.2857
   19TMC2    O1  306   2.472   3.126  14.285 -0.3437  0.2644 -0.1151
   19TMC2    O2  307   2.366   3.653  14.089 -0.0790  0.0472  0.6180
   19TMC2    O5  308   2.584   3.724  14.117 -0.2046  0.4656 -0.0281
   19TMC2    H5  309   2.672   3.684  14.135 -0.1158  0.2450 -0.9240
   20MPD2     C  310   2.940   3.030  14.161 -0.0092  0.0936 -0.5182
   20MPD2    C1  311   2.929   3.092  14.283  0.4403 -0.0370 -0.6219
   20MPD2    C2  312   2.974   3.036  14.402 -0.7226 -0.6039 -0.3935
   20MPD2    C3  313   3.044   2.919  14.400 -0.3538  0.7408 -0.4388
   20MPD2    C4  314   3.051   2.852  14.281 -0.0962 -0.8382 -0.4492
   20MPD2    C5  315   3.001   2.904  14.161  0.1610  1.1074 -0.7521
   20MPD2     H  316   2.961   3.086  14.497 -0.5498  1.7866 -1.6352
   20MPD2    H1  317   3.114   2.764  14.269  0.5441 -0.0737 -2.8186
   20MPD2    H2  318   2.891   3.058  14.068 -1.0408  0.2407  0.0755
   20MPD2    H3  319   2.994   2.847  14.069 -1.6247  0.6066 -0.3146
   20MPD2     N  320   3.129   2.865  14.501 -0.1391  0.1600  0.2444
   20MPD2    H5  321   3.170   2.773  14.488  0.8824  0.7034 -0.3700
   20MPD2    N1  322   2.853   3.211  14.293 -0.2806 -0.3305  0.0030
   20MPD2    H7  323   2.824   3.252  14.381  0.9412 -0.2472  0.3639
   21TMC2    C1  324   0.314   3.587  14.327 -0.1653 -0.2112  1.4704
   21TMC2    C2  325   0.362   3.466  14.296  0.1849  0.2401 -0.3709
   21TMC2    C3  326   0.273   3.360  14.306  0.3577  0.2755  0.3746
   21TMC2    C4  327   0.179   3.605  14.360 -0.5052 -0.2964  0.5835
   21TMC2    C5  328   0.096   3.498  14.379  0.2252  0.4478  0.3325
   21TMC2    C6  329   0.141   3.372  14.359  0.1291  0.7349  0.0870
   21TMC2     C  330   0.408   3.652  14.417  0.0481 -0.8617 -0.2606
   21TMC2     O  331   0.489   3.571  14.453  0.8650 -0.2781  0.2797
   21TMC2     H  332   0.460   3.464  14.251 -0.2519 -0.8092 -1.2754
   21TMC2    H1  333   0.130   3.700  14.380 -0.0184 -0.2166  1.3862
   21TMC2    H2  334   0.069   3.292  14.371  0.1703  0.4238 -1.7976
   21TMC2    C7  335   4.716   3.501  14.464  0.8092  0.0534  0.5834
   21TMC2    C8  336   0.350   3.241  14.335  0.6226  0.6709  0.0594
   21TMC2    O1  337   4.692   3.406  14.540 -0.2670 -0.5575  0.0108
   21TMC2    O2  338   0.352   3.197  14.451 -0.3847 -0.4788  0.3537
   21TMC2    O5  339   0.425   3.216  14.227 -0.0880  0.6387  0.0146
   21TMC2    H5  340   0.373   3.246  14.149  0.8092 -1.4100 -1.3610
   22MPD2     C  341   0.371   3.842  14.894  0.1082  0.2267 -1.1209
   22MPD2    C1  342   0.410   3.716  14.853 -0.3335 -0.2473 -0.1768
   22MPD2    C2  343   0.398   3.673  14.723 -0.1676  0.0550  0.4661
   22MPD2    C3  344   0.356   3.768  14.632  0.1389 -0.0700 -0.2656
   22MPD2    C4  345   0.307   3.895  14.675  0.5492 -0.1183 -0.5568
   22MPD2    C5  346   0.326   3.932  14.802  0.5116  0.0370  0.4252
   22MPD2     H  347   0.420   3.572  14.689  0.2354  0.4688 -0.4755
   22MPD2    H1  348   0.267   3.970  14.608 -0.2928 -1.3952 -1.5012
   22MPD2    H2  349   0.360   3.874  14.997 -0.7677  0.6326 -1.3424
   22MPD2    H3  350   0.304   4.035  14.824  0.9047  0.4637 -1.1396
   22MPD2     N  351   0.339   3.744  14.491  0.3413  0.2175 -0.0409
   22MPD2    H5  352   0.274   3.805  14.444  1.2024  0.0514 -1.4505
   22MPD2    N1  353   0.453   3.621  14.948  0.5334 -0.1152  0.2296
   22MPD2    H7  354   0.470   3.529  14.909 -0.4525 -0.4950  0.6973
   23TMC2    C1  355   1.002   3.866  14.447  0.5160 -0.1709  0.2056
   23TMC2    C2  356   0.982   3.757  14.368  0.5465 -0.2191 -0.9724
   23TMC2    C3  357   0.851   3.737  14.323 -0.5181  0.1540  0.9976
   23TMC2    C4  358   0.900   3.929  14.509  0.2525  0.4228 -0.2667
   23TMC2    C5  359   0.773   3.890  14.480 -0.0174  0.1584 -0.2514
   23TMC2    C6  360   0.746   3.789  14.385  0.2879 -0.1285 -0.1691
   23TMC2     C  361   1.141   3.898  14.489 -0.0945  0.4109  0.3441
   23TMC2     O  362   1.229   3.809  14.493  0.0682  0.0445 -0.0590
   23TMC2     H  363   1.061   3.687  14.344 -1.8465 -2.6311 -1.8059
   23TMC2    H1  364   0.911   4.015  14.575 -2.0034  0.9730 -0.6099
   23TMC2    H2  365   0.650   3.746  14.358 -1.5934  2.0836  2.9703
   23TMC2    C7  366   0.672   3.977  14.512 -0.5266 -0.1884  0.8232
   23TMC2    C8  367   0.834   3.603  14.274  0.4777 -0.1200  0.6942
   23TMC2    O1  368   0.677   4.037  14.619 -0.1845  0.0408 -0.1185
   23TMC2    O2  369   0.910   3.513  14.299  0.0985  0.3580 -0.3219
   23TMC2    O5  370   0.726   3.589  14.197 -0.2229 -0.0618  0.4865
   23TMC2    H5  371   0.678   3.674  14.180 -0.1992  0.0553  1.0234
   24MPD2     C  372   1.429   4.271  14.702 -0.3600  0.0442 -0.2597
   24MPD2    C1  373   1.466   4.139  14.680  0.4669  0.3434 -0.0609
   24MPD2    C2  374   1.377   4.068  14.605  0.3257  0.7911 -0.1295
   24MPD2    C3  375   1.250   4.115  14.569 -0.3853 -0.1721  0.4807
   24MPD2    C4  376   1.220   4.248  14.592 -0.6847 -0.0038 -0.2667
   24MPD2    C5  377   1.310   4.321  14.658 -0.1144  0.2372  0.2581
   24MPD2     H  378   1.409   3.967  14.585 -0.0959  0.5394  0.4372
   24MPD2    H1  379   1.126   4.286  14.555 -0.3876  1.4057  0.4108
   24MPD2    H2  380   1.491   4.329  14.770  0.5733 -0.3577 -0.7744
   24MPD2    H3  381   1.278   4.421  14.684 -0.2752  0.6464 -1.5449
   24MPD2     N  382   1.146   4.032  14.506  0.0159 -0.4080 -0.0921
   24MPD2    H5  383   1.061   4.082  14.482  1.4733  1.4002 -1.5388
   24MPD2    N1  384   1.596   4.085  14.704 -0.6824 -0.2409  0.1839
   24MPD2    H7  385   1.619   3.996  14.661  2.3740  1.2384 -1.1736
   25TMC2    C1  386   0.916   1.608  11.623  0.3466  0.2754  0.5171
   25TMC2    C2  387   1.034   1.679  11.635 -0.7332  0.2369 -0.7599
   25TMC2    C3  388   1.029   1.808  11.676 -0.5470  0.3280 -0.1933
   25TMC2    C4  389   0.799   1.664  11.658 -0.0338  1.1558 -1.0730
   25TMC2    C5  390   0.802   1.791  11.711  0.6517  0.1441  0.1266
   25TMC2    C6  391   0.914   1.870  11.717  0.8593  0.2430 -0.1830
   25TMC2     C  392   0.922   1.483  11.542 -0.7095  0.1679 -0.1136
   25TMC2     O  393   1.026   1.413  11.555 -0.5641  0.4280 -0.0066
   25TMC2     H  394   1.126   1.637  11.597  1.1124  2.6290  1.0891
   25TMC2    H1  395   0.717   1.593  11.660  0.7357  0.3617  2.2025
   25TMC2    H2  396   0.903   1.967  11.764  0.8572  0.9426 -1.6226
   25TMC2    C7  397   0.682   1.824  11.786  0.5456  0.1747  0.1027
   25TMC2    C8  398   1.136   1.895  11.659 -0.3501  0.3975  0.4763
   25TMC2    O1  399   0.650   1.944  11.792  0.2245  0.1534 -0.0773
   25TMC2    O2  400   1.108   1.999  11.605 -0.1520 -0.0199  0.1840
   25TMC2    O5  401   1.241   1.820  11.641  0.2533  0.1368 -0.6144
   25TMC2    H5  402   1.233   1.731  11.681 -1.9833  1.7266  2.4891
   26MPD2     C  403   0.715   1.170  11.186 -0.2937 -0.7002  0.4471
   26MPD2    C1  404   0.615   1.243  11.241 -0.7166 -0.1844 -0.2837
   26MPD2    C2  405   0.648   1.344  11.329  0.7916 -0.4930 -0.1686
   26MPD2    C3  406   0.778   1.364  11.368  0.2136  0.4419 -0.5365
   26MPD2    C4  407   0.879   1.289  11.316 -0.6102 -0.5211 -0.3233
   26MPD2    C5  408   0.849   1.194  11.217 -1.0499  0.3258 -0.1298
   26MPD2     H  409   0.566   1.403  11.371  1.4287 -0.0292  0.4265
   26MPD2    H1  410   0.978   1.295  11.360 -0.5230 -0.5078 -0.5207
   26MPD2    H2  411   0.701   1.095  11.109  0.2171 -1.7052  1.3253
   26MPD2    H3  412   0.927   1.132  11.173 -0.8503  1.1231 -0.8963
   26MPD2     N  413   0.807   1.463  11.464  0.0013  0.5403  0.5731
   26MPD2    H5  414   0.722   1.515  11.484 -1.9445 -2.3469 -0.1899
   26MPD2    N1  415   0.484   1.228  11.194 -0.1761 -0.5128  0.6468
   26MPD2    H7  416   0.470   1.160  11.120 -1.6531  1.5616 -0.9942
   27TMC2    C1  417   4.400   4.027  11.761 -0.0492 -0.1287 -0.3330
   27TMC2    C2  418   4.300   4.068  11.681 -0.0485  0.7522  0.2477
   27TMC2    C3  419   4.310   4.186  11.619 -0.4812  0.5622  1.1445
   27TMC2    C4  420   4.499   4.114  11.793 -1.1056 -0.2220 -0.2276
   27TMC2    C5  421   4.492   4.247  11.746 -0.1282  0.0129 -0.3548
   27TMC2    C6  422   4.403   4.283  11.650  0.4086  0.0314  0.0925
   27TMC2     C  423   4.366   3.944  11.883 -0.4582  0.3013 -0.9906
   27TMC2     O  424   4.447   3.863  11.916  0.4050 -0.2028  0.2387
   27TMC2     H  425   4.227   3.994  11.651 -0.0987  1.2128 -0.7887
   27TMC2    H1  426   4.569   4.087  11.872  0.6466 -1.2088 -2.1350
   27TMC2    H2  427   4.397   4.378  11.599  1.8873  0.0427 -0.0504
   27TMC2    C7  428   4.490   4.340  11.863 -0.5530 -0.4031  0.1207
   27TMC2    C8  429   4.182   4.244  11.571  0.5687 -0.3498  0.4608
   27TMC2    O1  430   4.510   4.280  11.968  0.0464 -0.0771 -0.4534
   27TMC2    O2  431   4.162   4.364  11.565  0.3173 -0.2550  0.1249
   27TMC2    O5  432   4.127   4.153  11.489  0.2307 -0.1083  0.7115
   27TMC2    H5  433   4.169   4.066  11.503 -1.5430 -0.7983  1.7173
   28MPD2     C  434   4.114   3.857  12.314 -0.3780  0.0691 -0.1718
   28MPD2    C1  435   4.043   3.952  12.248 -0.4216 -0.0724  0.2789
   28MPD2    C2  436   4.089   3.984  12.117 -0.5929 -0.1957  0.2193
   28MPD2    C3  437   4.199   3.923  12.060  0.6987 -0.5089 -0.5599
   28MPD2    C4  438   4.271   3.826  12.138 -0.3429  0.0189 -0.1088
   28MPD2    C5  439   4.223   3.799  12.264  0.0681 -0.2969 -0.9282
   28MPD2     H  440   4.039   4.068  12.070 -2.2614 -1.3448 -0.0183
   28MPD2    H1  441   4.361   3.775  12.106 -0.6027 -1.2658  1.2252
   28MPD2    H2  442   4.097   3.831  12.418  1.7884 -1.7937 -0.2865
   28MPD2    H3  443   4.269   3.723  12.325 -2.4212 -1.2184 -0.1909
   28MPD2     N  444   4.244   3.973  11.931  0.3769 -0.3517  0.0643
   28MPD2    H5  445   4.182   4.042  11.892 -1.8101 -2.5045 -0.2884
   28MPD2    N1  446   3.929   4.002  12.309 -1.0754 -0.3119 -0.1857
   28MPD2    H7  447   3.910   3.975  12.405 -1.5365 -0.6655 -0.3767
   29TMC2    C1  448   3.603   1.880  14.225 -0.2027 -0.9193 -0.3287
   29TMC2    C2  449   3.664   1.875  14.348 -0.0156  0.1699  0.1830
   29TMC2    C3  450   3.711   2.000  14.383  0.3522  0.3009  0.4186
   29TMC2    C4  451   3.592   1.990  14.149 -0.4722  0.0438  0.2179
   29TMC2    C5  452   3.632   2.114  14.200 -0.3094  0.6588  0.0363
   29TMC2    C6  453   3.687   2.121  14.319 -0.1905  0.4284 -0.6383
   29TMC2     C  454   3.559   1.750  14.178  0.1177  0.4267 -0.3837
   29TMC2     O  455   3.595   1.651  14.244  0.1393  0.1257  0.0282
   29TMC2     H  456   3.676   1.784  14.405  2.1428  1.8710  2.3963
   29TMC2    H1  457   3.538   1.980  14.056 -1.4436  0.6675  0.7125
   29TMC2    H2  458   3.724   2.211  14.366  1.7642 -0.0902 -1.1867
   29TMC2    C7  459   3.667   2.212  14.102  0.0504 -0.3736 -0.1838
   29TMC2    C8  460   3.791   1.996  14.499 -0.2734  0.6480 -0.5181
   29TMC2    O1  461   3.628   2.191  13.989  0.1446  0.2092  0.6139
   29TMC2    O2  462   3.865   1.905  14.535 -0.0440 -0.4503 -0.4156
   29TMC2    O5  463   3.726   2.079  14.580 -0.3832 -0.0172  0.6111
   29TMC2    H5  464   3.657   2.131  14.534 -1.1118 -0.9111  0.6968
   30MPD2     C  465   3.320   1.443  13.857  0.2601 -0.1705  0.4861
   30MPD2    C1  466   3.436   1.425  13.921 -0.5496  0.6712 -0.7244
   30MPD2    C2  467   3.477   1.515  14.008  0.3834  0.0847 -0.0133
   30MPD2    C3  468   3.409   1.634  14.019  0.0231 -0.2647  0.0798
   30MPD2    C4  469   3.305   1.663  13.944  0.3177 -0.5086  0.1854
   30MPD2    C5  470   3.249   1.564  13.869  0.7530 -0.4001  0.1271
   30MPD2     H  471   3.572   1.505  14.059 -0.6300 -1.0337  1.6957
   30MPD2    H1  472   3.271   1.766  13.942  1.0944 -0.2671 -0.4690
   30MPD2    H2  473   3.272   1.364  13.800  1.2258 -2.1117  2.3135
   30MPD2    H3  474   3.158   1.575  13.811 -0.9183 -3.2180  2.1859
   30MPD2     N  475   3.459   1.748  14.085 -1.0871 -0.3729  0.5775
   30MPD2    H5  476   3.407   1.833  14.066  1.3348  0.8984 -0.2758
   30MPD2    N1  477   3.510   1.310  13.910  0.1963  0.5611  0.1743
   30MPD2    H7  478   3.576   1.292  13.985  0.4549 -0.3224 -0.2635
   31TMC2    C1  479   1.566   0.580  15.141  0.2837 -0.5066 -0.3131
   31TMC2    C2  480   1.441   0.637  15.153  0.0346 -0.0994  0.0390
   31TMC2    C3  481   1.358   0.570  15.245  0.0856 -0.2612  0.3517
   31TMC2    C4  482   1.614   0.480  15.223  0.1283  0.0656 -0.2163
   31TMC2    C5  483   1.525   0.434  15.318 -0.1555 -0.3065  0.1443
   31TMC2    C6  484   1.398   0.470  15.332  0.2028  0.0326 -0.2017
   31TMC2     C  485   1.671   0.622  15.054  0.0180  0.0287 -0.8959
   31TMC2     O  486   1.791   0.595  15.074  0.2551  0.6577  0.0801
   31TMC2     H  487   1.399   0.709  15.084 -1.3061 -1.3600 -0.4626
   31TMC2    H1  488   1.716   0.442  15.217  1.4017  3.2207  1.2966
   31TMC2    H2  489   1.331   0.400  15.381  1.3583  1.2267  3.0514
   31TMC2    C7  490   1.575   0.350  15.429  1.0383 -0.6814  0.4938
   31TMC2    C8  491   1.219   0.606  15.233 -0.2596  0.7419  0.6480
   31TMC2    O1  492   1.686   0.304  15.414 -0.5302  0.7466 -0.1024
   31TMC2    O2  493   1.177   0.650  15.126  0.9949  0.6383  0.3106
   31TMC2    O5  494   1.151   0.525  15.317 -0.1757 -0.3229 -0.5408
   31TMC2    H5  495   1.205   0.515  15.398  1.5149  1.7104 -1.4019
   32MPD2     C  496   1.817   0.964  14.702 -0.5482 -0.5627  0.4182
   32MPD2    C1  497   1.679   0.944  14.687 -0.4286  0.0979 -0.2727
   32MPD2    C2  498   1.619   0.851  14.771 -0.2235  0.5226  0.0847
   32MPD2    C3  499   1.694   0.783  14.866 -0.3649  0.2357 -0.0098
   32MPD2    C4  500   1.828   0.806  14.870 -0.0162 -0.3890 -0.8803
   32MPD2    C5  501   1.891   0.890  14.787 -0.3435 -0.0025  0.8214
   32MPD2     H  502   1.514   0.827  14.773 -0.3862  1.2740  0.8760
   32MPD2    H1  503   1.897   0.760  14.940  1.2060  0.1208 -1.7561
   32MPD2    H2  504   1.877   1.033  14.644 -1.5597  0.4329  0.5576
   32MPD2    H3  505   1.995   0.916  14.803 -0.1414  0.6261 -1.4880
   32MPD2     N  506   1.617   0.692  14.947 -0.6131  0.0289  0.2747
   32MPD2    H5  507   1.518   0.676  14.929  0.0342 -0.8688 -2.4325
   32MPD2    N1  508   1.601   1.012  14.584 -0.4602 -0.0551 -0.3742
   32MPD2    H7  509   1.662   1.055  14.515  0.9995  1.3595  1.7849
   33TMC2    C1  510   2.281   3.354  10.985 -1.0620  0.2708  0.4225
   33TMC2    C2  511   2.306   3.454  11.075  0.2879 -0.4507 -0.9887
   33TMC2    C3  512   2.307   3.584  11.039  0.1868  0.0586 -0.1386
   33TMC2    C4  513   2.262   3.390  10.856  0.1084  0.3582 -0.4053
   33TMC2    C5  514   2.291   3.518  10.820 -0.1152 -0.6615 -0.3485
   33TMC2    C6  515   2.312   3.620  10.909 -0.2035  0.8800 -0.4223
   33TMC2     C  516   2.316   3.218  11.014 -0.2556  0.1437 -0.7205
   33TMC2     O  517   2.269   3.134  10.936  0.3436  0.2732  0.0312
   33TMC2     H  518   2.300   3.417  11.176 -2.0745  4.0238  0.5408
   33TMC2    H1  519   2.237   3.316  10.781  3.8436 -1.2726 -0.0343
   33TMC2    H2  520   2.329   3.725  10.885 -0.3907  0.9314 -0.3259
   33TMC2    C7  521   2.326   3.544  10.682 -0.3098 -0.4096 -0.3337
   33TMC2    C8  522   2.376   3.674  11.125 -0.5018  0.6768  0.3633
   33TMC2    O1  523   2.411   3.629  10.668 -0.2068  0.2694 -0.5157
   33TMC2    O2  524   2.448   3.629  11.215 -0.3138 -0.4722  0.6873
   33TMC2    O5  525   2.292   3.775  11.135  0.0164 -0.8527 -0.2606
   33TMC2    H5  526   2.255   3.798  11.047  0.0813  0.5207  0.0779
   34MPD2     C  527   2.544   2.852  11.270 -0.3627  0.1906 -0.4759
   34MPD2    C1  528   2.406   2.855  11.224 -1.1794 -0.3044 -0.8708
   34MPD2    C2  529   2.364   2.976  11.164  0.5766 -0.5691  0.2630
   34MPD2    C3  530   2.457   3.080  11.153 -0.8779  0.0193  0.3032
   34MPD2    C4  531   2.580   3.078  11.215  0.3462  0.8589 -0.7127
   34MPD2    C5  532   2.630   2.961  11.270  0.7784 -0.2319 -0.1252
   34MPD2     H  533   2.265   2.977  11.120  0.6453 -0.3752  0.1141
   34MPD2    H1  534   2.652   3.157  11.197  1.1021 -0.1157 -1.9359
   34MPD2    H2  535   2.579   2.764  11.323  1.6679  2.9941  2.8846
   34MPD2    H3  536   2.731   2.953  11.309 -0.2946 -1.3743  2.4587
   34MPD2     N  537   2.421   3.205  11.095 -0.0589 -0.2800 -0.1038
   34MPD2    H5  538   2.467   3.292  11.122  1.1228 -0.3016 -2.0563
   34MPD2    N1  539   2.329   2.738  11.230  0.5961 -0.0197  0.0911
   34MPD2    H7  540   2.378   2.657  11.267 -1.7395 -1.3340  0.3731
   35TMC2    C1  541   2.897   4.511  11.063  0.1677 -0.2047  0.0581
   35TMC2    C2  542   2.793   4.513  10.970  0.0983 -0.1136 -0.2578
   35TMC2    C3  543   2.689   4.432  10.991  0.1315  0.1825 -0.3330
   35TMC2    C4  544   2.892   4.438  11.182 -0.1043  0.1666 -0.3015
   35TMC2    C5  545   2.782   4.356  11.195 -1.1777 -0.0128 -0.4068
   35TMC2    C6  546   2.680   4.361  11.105  0.3430  1.2497 -0.4288
   35TMC2     C  547   3.017   4.578  11.011 -0.2496 -0.1946 -0.9413
   35TMC2     O  548   3.008   4.684  10.943  0.0194 -0.5902 -0.3370
   35TMC2     H  549   2.799   4.582  10.887 -1.9521  0.6938  0.2776
   35TMC2    H1  550   2.961   4.443  11.266 -3.5413  3.4473  2.3375
   35TMC2    H2  551   2.591   4.310  11.141  0.3344  1.2466 -0.4545
   35TMC2    C7  552   2.796   4.235  11.260  0.6071 -0.2756  0.6152
   35TMC2    C8  553   2.568   4.462  10.909  0.3195  0.3735  0.2003
   35TMC2    O1  554   2.697   4.164  11.258  0.3061  0.0870 -0.1791
   35TMC2    O2  555   2.533   4.574  10.876 -0.2814 -0.3557  0.0705
   35TMC2    O5  556   2.477   4.367  10.920 -0.0587 -0.6209  0.8106
   35TMC2    H5  557   2.520   4.283  10.948 -0.3833 -0.1830  2.6070
   36MPD2     C  558   3.494   4.719  11.160 -0.9990  0.0398 -0.3091
   36MPD2    C1  559   3.463   4.597  11.220 -0.1958 -0.0993 -0.5657
   36MPD2    C2  560   3.340   4.535  11.188  0.1779  0.1030 -0.6033
   36MPD2    C3  561   3.252   4.591  11.096 -0.2043 -0.3542 -0.3756
   36MPD2    C4  562   3.294   4.708  11.034  0.3765 -0.2887 -0.2940
   36MPD2    C5  563   3.412   0.036  11.062 -0.5412 -0.5369  0.4251
   36MPD2     H  564   3.304   4.445  11.238 -2.0804 -0.2683 -2.9393
   36MPD2    H1  565   3.227   0.024  10.967 -0.2101 -0.6545  0.0138
   36MPD2    H2  566   3.587   0.037  11.177 -1.2483  0.6066 -0.7180
   36MPD2    H3  567   3.430   0.133  11.018 -0.7243 -0.9767 -0.6216
   36MPD2     N  568   3.127   4.532  11.079 -0.3388 -0.0790  0.2066
   36MPD2    H5  569   3.117   4.448  11.135  1.8125  0.3008  1.1811
   36MPD2    N1  570   3.558   4.540  11.309 -0.4116  0.1089 -0.3825
   36MPD2    H7  571   3.637   4.601  11.324  1.9949 -3.0669 -0.3383
   37TMC2    C1  572   1.432   4.089  11.499  0.4616 -0.6207  0.4535
   37TMC2    C2  573   1.430   3.956  11.464  0.0223  0.2645 -0.0748
   37TMC2    C3  574   1.513   3.917  11.362  0.1485  0.0572 -0.7643
   37TMC2    C4  575   1.496   4.176  11.424  0.5171 -0.3395  0.3690
   37TMC2    C5  576   1.568   4.135  11.314 -0.1135 -0.9392  0.5875
   37TMC2    C6  577   1.581   4.004  11.280  0.2285 -0.4620  0.0571
   37TMC2     C  578   1.352   4.137  11.604  0.4219  0.1180  0.5370
   37TMC2     O  579   1.390   4.242  11.656 -0.0866 -0.0311 -0.3180
   37TMC2     H  580   1.374   3.883  11.522 -0.3569  0.4870 -0.1577
   37TMC2    H1  581   1.481   4.282  11.443  2.6780 -0.0108  0.2872
   37TMC2    H2  582   1.615   3.964  11.186 -0.6041 -0.3982 -0.2685
   37TMC2    C7  583   1.557   4.230  11.207 -0.3654 -0.0614  0.1381
   37TMC2    C8  584   1.466   3.798  11.298 -0.5779 -0.3054  0.0765
   37TMC2    O1  585   1.482   4.321  11.225 -0.1826  0.2583 -0.1449
   37TMC2    O2  586   1.349   3.791  11.253  0.4400  0.3770  0.5110
   37TMC2    O5  587   1.573   3.734  11.241 -0.3493 -0.0968 -0.1215
   37TMC2    H5  588   1.654   3.772  11.281 -0.0361  2.3189 -3.0763
   38MPD2     C  589   0.876   4.195  11.788  0.2046  0.1305  0.3140
   38MPD2    C1  590   0.996   4.243  11.832 -0.9510  0.1960  0.1322
   38MPD2    C2  591   1.116   4.199  11.777  0.1411  0.0947  0.1846
   38MPD2    C3  592   1.111   4.118  11.663  1.0071  0.5517  0.2550
   38MPD2    C4  593   0.994   4.068  11.624 -0.6407 -0.4680 -0.1866
   38MPD2    C5  594   0.873   4.101  11.682 -0.0886  0.4084 -0.0643
   38MPD2     H  595   1.212   4.231  11.815  2.0744 -1.7935 -3.1468
   38MPD2    H1  596   0.984   4.001  11.540 -1.2702  0.3115 -0.7373
   38MPD2    H2  597   0.783   4.216  11.839  0.8783 -1.8358  2.3293
   38MPD2    H3  598   0.774   4.061  11.662  0.8059 -1.2569 -1.1064
   38MPD2     N  599   1.227   4.078  11.594 -0.6841  0.1544  0.5517
   38MPD2    H5  600   1.212   4.002  11.528 -1.7060  1.6683 -0.9449
   38MPD2    N1  601   1.004   4.327  11.943  0.1567  0.4991 -0.6018
   38MPD2    H7  602   1.098   4.346  11.976 -0.6012 -0.1752  2.0092
   39TMC2    C1  603   3.412   0.869   1.766  0.1703 -0.7866  0.2096
   39TMC2    C2  604   3.358   0.827   1.880  0.5004 -0.2330 -0.2352
   39TMC2    C3  605   3.420   0.859   1.991 -0.3169 -0.6061  0.4807
   39TMC2    C4  606   3.525   0.952   1.757 -0.5587  0.1768 -0.8956
   39TMC2    C5  607   3.581   0.990   1.879  0.7634 -0.0296  0.3245
   39TMC2    C6  608   3.535   0.937   2.002  0.5052 -0.7770 -0.0487
   39TMC2     C  609   3.351   0.834   1.647 -0.0075 -0.4239 -0.2317
   39TMC2     O  610   3.230   0.827   1.650  0.1869 -0.4708  0.7010
   39TMC2     H  611   3.287   0.746   1.889 -0.6022  0.7452 -0.1656
   39TMC2    H1  612   3.558   0.987   1.660 -0.3939  0.5800 -0.6915
   39TMC2    H2  613   3.575   0.979   2.094 -0.2744 -2.4025  1.0275
   39TMC2    C7  614   3.598   1.134   1.890 -0.2605 -0.0020 -0.4974
   39TMC2    C8  615   3.378   0.800   2.118  0.0932  0.2852 -0.1919
   39TMC2    O1  616   3.554   1.181   1.995  0.4982  0.2617 -0.1204
   39TMC2    O2  617   3.258   0.770   2.128  0.0930 -0.5397 -0.0661
   39TMC2    O5  618   3.488   0.730   2.149 -0.2740  0.1597  0.4023
   39TMC2    H5  619   3.567   0.786   2.133  0.5276 -0.7637  1.1610
   40MPD2     C  620   3.518   0.759   1.329 -0.0358  0.4883 -0.4046
   40MPD2    C1  621   3.409   0.790   1.408  0.0087  1.1100 -0.2908
   40MPD2    C2  622   3.287   0.807   1.350 -0.1433  0.0660 -0.8320
   40MPD2    C3  623   3.266   0.762   1.216  0.7647 -0.7795 -0.2805
   40MPD2    C4  624   3.373   0.716   1.146 -0.0359 -0.4010 -0.3732
   40MPD2    C5  625   3.497   0.721   1.197 -0.0392  0.0634  0.3653
   40MPD2     H  626   3.200   0.835   1.409  0.8760  1.3009  0.0928
   40MPD2    H1  627   3.361   0.690   1.041 -2.9264 -0.1032 -0.1207
   40MPD2    H2  628   3.618   0.736   1.362  0.0346  0.4501 -0.6426
   40MPD2    H3  629   3.585   0.684   1.146 -1.4008 -0.6494 -1.4733
   40MPD2     N  630   3.146   0.763   1.145  0.6237  0.5060 -0.1478
   40MPD2    H5  631   3.147   0.733   1.048 -0.2151 -0.5716  0.1699
   40MPD2    N1  632   3.437   0.802   1.548  0.0158  0.0749 -0.7417
   40MPD2    H7  633   3.535   0.792   1.572 -0.3780 -0.6297  0.5613
   41TMC2    C1  634   3.049   0.109  12.991  0.1747  0.6656  1.2280
   41TMC2    C2  635   2.942   0.192  12.951 -0.0975  0.1451 -0.5420
   41TMC2    C3  636   2.975   0.312  12.897  0.5177 -0.2250 -0.7030
   41TMC2    C4  637   3.182   0.145  12.958 -0.4052  0.0421  0.5458
   41TMC2    C5  638   3.207   0.270  12.925 -0.2931  0.3428  0.2579
   41TMC2    C6  639   3.105   0.358  12.892 -0.2634 -0.1539  0.6366
   41TMC2     C  640   3.031   4.721  13.064 -0.2105 -0.2193 -0.5902
   41TMC2     O  641   3.133   4.655  13.076  0.4650  0.4911 -0.0683
   41TMC2     H  642   2.840   0.155  12.960 -0.0182  0.4855  1.8712
   41TMC2    H1  643   3.256   0.082  13.005  0.6620  2.1565  1.6850
   41TMC2    H2  644   3.123   0.453  12.843 -2.0699 -1.5217 -2.6166
   41TMC2    C7  645   3.335   0.296  12.859 -0.4269 -0.6711 -0.0877
   41TMC2    C8  646   2.864   0.408  12.870  0.0029  0.3045 -0.3285
   41TMC2    O1  647   3.388   0.405  12.875 -0.3437  0.3492 -0.7604
   41TMC2    O2  648   2.861   0.489  12.778  0.0685 -0.2139  0.9923
   41TMC2    O5  649   2.760   0.379  12.953  0.3724 -0.2623  0.5297
   41TMC2    H5  650   2.791   0.311  13.016 -0.7008  0.0833  1.4249
   42MPD2     C  651   2.930   4.476  13.173 -0.3122  0.3549 -0.4209
   42MPD2    C1  652   2.878   4.594  13.199 -0.2369  0.5155 -0.5555
   42MPD2    C2  653   2.772   4.603  13.296  0.7038  0.6730 -0.6653
   42MPD2    C3  654   2.748   4.498  13.382  0.3247 -0.7328 -0.5110
   42MPD2    C4  655   2.806   4.379  13.352 -0.1379 -0.1891 -0.3919
   42MPD2    C5  656   2.895   4.369  13.246  0.1471  0.3072 -0.0449
   42MPD2     H  657   2.734   4.704  13.305 -3.1117 -0.8834  0.4569
   42MPD2    H1  658   2.787   4.292  13.413  0.5075  0.6912  1.0463
   42MPD2    H2  659   3.005   4.457  13.097  1.4610 -0.9684  1.6609
   42MPD2    H3  660   2.937   4.271  13.228  0.0797 -0.0049  1.4627
   42MPD2     N  661   2.673   4.508  13.499  0.2965  0.1843  0.4037
   42MPD2    H5  662   2.662   4.421  13.550  0.6315 -0.7611 -1.1646
   42MPD2    N1  663   2.906   4.713  13.124 -0.2246  0.3896  0.5709
   42MPD2    H7  664   2.847   0.060  13.136  1.4104  1.6853 -0.3264
   43TMC2    C1  665   3.542   2.550   0.373 -0.7126  0.0940 -0.6661
   43TMC2    C2  666   3.434   2.619   0.314  0.4967  0.4358 -0.8150
   43TMC2    C3  667   3.406   2.746   0.366 -0.0771 -0.4051 -0.5728
   43TMC2    C4  668   3.616   2.606   0.477  0.1504 -0.3601 -0.2005
   43TMC2    C5  669   3.579   2.730   0.528  0.7690  0.7738 -0.9335
   43TMC2    C6  670   3.474   2.798   0.473  0.4152  0.6363  0.7932
   43TMC2     C  671   3.586   2.432   0.310 -0.8166 -0.0290  1.1557
   43TMC2     O  672   3.685   2.383   0.367  0.5250 -0.2754  0.5956
   43TMC2     H  673   3.374   2.574   0.236  1.8229 -2.1530 -0.3306
   43TMC2    H1  674   3.697   2.550   0.522  0.4329 -0.6601 -1.0818
   43TMC2    H2  675   3.439   2.892   0.515  2.0298  0.9036  1.5322
   43TMC2    C7  676   3.651   2.791   0.637  0.4861  0.4248 -0.2555
   43TMC2    C8  677   3.325   2.838   0.296 -0.4680  0.6132 -0.0415
   43TMC2    O1  678   3.587   2.886   0.679 -0.5529  0.1317 -0.2837
   43TMC2    O2  679   3.298   2.949   0.341  0.0061  0.1723  0.0188
   43TMC2    O5  680   3.334   2.797   0.173 -0.3406  0.3280  0.0728
   43TMC2    H5  681   3.389   2.719   0.151 -1.0853 -0.2783  0.3503
   44MPD2     C  682   3.607   2.078  17.686  0.7852 -0.4193  0.1859
   44MPD2    C1  683   3.664   2.079   0.073  0.2869  0.2794 -0.1716
   44MPD2    C2  684   3.633   2.173   0.168 -0.5461  0.2507 -0.6446
   44MPD2    C3  685   3.549   2.273   0.125  0.0903 -0.5941 -0.4127
   44MPD2    C4  686   3.485   2.268  17.739 -0.5118  0.3914 -0.1552
   44MPD2    C5  687   3.520   2.178  17.647 -0.5123  0.4453  0.0325
   44MPD2     H  688   3.676   2.160   0.267  0.6451 -1.4429 -1.3843
   44MPD2    H1  689   3.412   2.344  17.713  0.1629  1.0998 -0.0068
   44MPD2    H2  690   3.630   1.996  17.618 -1.3230 -0.8890  0.0385
   44MPD2    H3  691   3.483   2.176  17.545  1.2061  0.5932 -0.6048
   44MPD2     N  692   3.515   2.391   0.197  0.4085  0.0014  0.6950
   44MPD2    H5  693   3.451   2.454   0.150  1.4484 -0.1643 -0.9403
   44MPD2    N1  694   3.750   1.984   0.127 -0.1549 -0.2236  0.6216
   44MPD2    H7  695   3.760   1.974   0.228  3.3653 -3.5296 -0.0427
   45TMC2    C1  696   4.504   4.586   9.577 -0.5041 -0.3117  0.1009
   45TMC2    C2  697   4.466   4.608   9.448 -0.1275  0.2370  0.6791
   45TMC2    C3  698   4.460   0.001   9.404 -0.4187  0.2653 -0.5299
   45TMC2    C4  699   4.540   4.689   9.657 -0.4441  0.3831  0.8467
   45TMC2    C5  700   4.527   0.082   9.610  0.1587  0.7547  0.6603
   45TMC2    C6  701   4.500   0.111   9.478 -0.1797 -0.1255  0.0993
   45TMC2     C  702   4.490   4.452   9.634  0.2657  0.1541  0.0417
   45TMC2     O  703   4.553   4.434   9.740 -0.2830  0.5610  0.1921
   45TMC2     H  704   4.442   4.530   9.376 -0.2490 -0.7659  1.8092
   45TMC2    H1  705   4.559   4.672   9.763  1.1416 -2.0926  0.1517
   45TMC2    H2  706   4.497   0.212   9.439  0.1362 -0.3750 -0.5754
   45TMC2    C7  707   4.547   0.193   9.703  0.1145 -0.1179  0.4751
   45TMC2    C8  708   4.416   0.019   9.263  0.5472  0.5665 -0.6728
   45TMC2    O1  709   4.619   0.169   9.799  0.4979  0.6154 -0.0096
   45TMC2    O2  710   4.350   4.670   9.209  0.3810 -0.4200  0.3018
   45TMC2    O5  711   4.450   0.131   9.204 -0.5195 -0.2084  0.0916
   45TMC2    H5  712   4.493   0.204   9.253 -1.4220  0.3997 -0.0261
   46MPD2     C  713   4.441   4.162   9.692 -0.8252  0.1689 -0.2813
   46MPD2    C1  714   4.358   4.247   9.615 -0.0237  0.1854  0.1836
   46MPD2    C2  715   4.238   4.199   9.568 -0.0053 -0.6797 -0.3877
   46MPD2    C3  716   4.186   4.074   9.610  0.2240  0.1224  0.0991
   46MPD2    C4  717   4.269   3.995   9.682  0.1536 -0.1728 -0.7062
   46MPD2    C5  718   4.390   4.039   9.726  0.3965  0.7709  0.4053
   46MPD2     H  719   4.188   4.270   9.503  0.7783 -0.6753 -0.9862
   46MPD2    H1  720   4.245   3.897   9.721  0.2096 -0.7176 -2.0463
   46MPD2    H2  721   4.538   4.194   9.729 -0.3924 -1.0494 -0.3529
   46MPD2    H3  722   4.461   3.978   9.782 -1.6302 -0.4117  1.7148
   46MPD2     N  723   4.055   4.039   9.576 -0.3707  0.0027  0.2259
   46MPD2    H5  724   4.017   4.119   9.526  0.4843  0.7133  0.6941
   46MPD2    N1  725   4.394   4.378   9.572 -0.1816  0.1377 -0.7209
   46MPD2    H7  726   4.329   4.425   9.510  1.0458  0.6615 -1.6045
   47TMC2    C1  727   2.491   0.889   8.820  0.5915  0.2254  0.2629
   47TMC2    C2  728   2.556   0.786   8.758  0.8333  0.4040 -1.3817
   47TMC2    C3  729   2.537   0.780   8.616 -0.1800  0.3473  0.0603
   47TMC2    C4  730   2.418   0.986   8.754  0.1053 -0.8640 -0.6466
   47TMC2    C5  731   2.404   0.974   8.618 -0.3245  0.2111  0.2272
   47TMC2    C6  732   2.462   0.873   8.551  0.0050  0.0442  0.2775
   47TMC2     C  733   2.508   0.911   8.961  0.3536 -0.1249 -0.0544
   47TMC2     O  734   2.491   1.028   8.995 -0.1179 -0.3333 -0.1626
   47TMC2     H  735   2.617   0.709   8.805 -1.3712 -1.5882 -1.7786
   47TMC2    H1  736   2.379   1.076   8.801  0.5366 -0.9408 -0.1453
   47TMC2    H2  737   2.433   0.841   8.452 -0.1112 -1.2983  0.7492
   47TMC2    C7  738   2.308   1.060   8.549 -0.4455 -0.1099  0.1673
   47TMC2    C8  739   2.555   0.649   8.548  0.0180  0.4928 -0.1610
   47TMC2    O1  740   2.321   1.067   8.424  0.4591  0.5175 -0.1288
   47TMC2    O2  741   2.591   0.550   8.610  0.2530  0.6897  0.5010
   47TMC2    O5  742   2.611   0.684   8.435  0.4389 -0.2399  0.6776
   47TMC2    H5  743   2.613   0.781   8.421  1.6463 -0.4199 -0.4161
   48MPD2     C  744   2.474   0.879   9.252  0.0560  0.2505  0.1483
   48MPD2    C1  745   2.524   0.779   9.170  0.5302 -0.3159  1.1173
   48MPD2    C2  746   2.568   0.663   9.234  0.3265 -0.1529  0.0180
   48MPD2    C3  747   2.547   0.652   9.371 -0.5398  0.7420 -0.5295
   48MPD2    C4  748   2.482   0.750   9.442  0.8068 -0.4494 -0.4823
   48MPD2    C5  749   2.446   0.867   9.382 -0.0878 -0.1406 -0.0776
   48MPD2     H  750   2.632   0.588   9.189  0.8787 -0.3583  1.1298
   48MPD2    H1  751   2.462   0.739   9.548 -0.3247 -0.4293 -0.6966
   48MPD2    H2  752   2.447   0.976   9.212 -1.8996  0.0536  0.9689
   48MPD2    H3  753   2.413   0.952   9.441  0.7903  1.1221 -1.4060
   48MPD2     N  754   2.603   0.535   9.430  0.0579  0.1085 -0.5066
   48MPD2    H5  755   2.633   0.462   9.367  1.9561  0.9271 -0.5407
   48MPD2    N1  756   2.536   0.792   9.031  0.5707 -0.9940 -0.1862
   48MPD2    H7  757   2.556   0.707   8.979 -0.2398 -1.6010  0.4848
   49TMC2    C1  758   1.693   2.477  10.959  0.0192  0.1942 -0.1777
   49TMC2    C2  759   1.829   2.472  10.944 -0.2146  0.2461  0.7850
   49TMC2    C3  760   1.891   2.579  10.883  0.1079  0.7531  0.4228
   49TMC2    C4  761   1.616   2.579  10.908 -0.0052  0.4089 -1.1782
   49TMC2    C5  762   1.683   2.677  10.846  0.7411 -0.0845 -0.2020
   49TMC2    C6  763   1.818   2.683  10.834 -0.3998 -0.1183 -0.0807
   49TMC2     C  764   1.639   2.395  11.074 -0.8890 -1.1611  0.0022
   49TMC2     O  765   1.719   2.315  11.121  0.3340 -0.4808  0.3043
   49TMC2     H  766   1.892   2.393  10.983  0.0325 -0.8006 -1.7434
   49TMC2    H1  767   1.508   2.577  10.913  0.0689 -1.8471 -0.2405
   49TMC2    H2  768   1.850   2.779  10.795  3.1598 -1.7692 -1.1901
   49TMC2    C7  769   1.616   2.786  10.779  0.1247  0.7329 -0.5893
   49TMC2    C8  770   2.038   2.568  10.865  0.3001  0.4331 -0.1375
   49TMC2    O1  771   1.660   2.899  10.780 -0.5092  0.3438 -0.2879
   49TMC2    O2  772   2.108   2.470  10.867  0.1849 -0.0714 -0.3221
   49TMC2    O5  773   2.086   2.697  10.884  0.3778  0.4339  0.0842
   49TMC2    H5  774   2.023   2.766  10.914 -2.2689 -1.7717 -0.5195
   50MPD2     C  775   1.499   2.292  11.307  0.6446  0.5106 -0.1159
   50MPD2    C1  776   1.436   2.378  11.219 -0.9618  0.2093  0.6531
   50MPD2    C2  777   1.299   2.413  11.248  0.7709 -0.4259 -0.7925
   50MPD2    C3  778   1.233   2.359  11.355  0.4171 -0.2801 -0.0147
   50MPD2    C4  779   1.287   2.261  11.429 -0.2718  0.6417  0.0731
   50MPD2    C5  780   1.420   2.232  11.406 -0.1433 -0.6889 -1.0147
   50MPD2     H  781   1.249   2.477  11.176 -0.0211 -0.8086 -0.5766
   50MPD2    H1  782   1.242   2.214  11.516 -2.0428  3.7202  0.8147
   50MPD2    H2  783   1.605   2.270  11.314  0.3256 -1.5107 -1.8335
   50MPD2    H3  784   1.466   2.159  11.471  1.0447  0.0816 -0.9913
   50MPD2     N  785   1.099   2.404  11.388 -0.2198  0.0030 -0.0828
   50MPD2    H5  786   1.051   2.367  11.470  1.8680  2.6924  2.3668
   50MPD2    N1  787   1.509   2.436  11.111 -0.2613  0.2202 -0.3633
   50MPD2    H7  788   1.458   2.509  11.063  1.1668  0.3572 -1.6728
   51TMC2    C1  789   1.010   0.819   0.743  0.5670 -0.3145  0.7132
   51TMC2    C2  790   0.969   0.932   0.808  0.2957 -0.1174  0.8285
   51TMC2    C3  791   0.900   1.025   0.739 -0.4085 -0.4527 -0.0663
   51TMC2    C4  792   0.986   0.811   0.608  0.0867 -0.1500  0.3052
   51TMC2    C5  793   0.927   0.919   0.542  0.2193  0.4376  0.4284
   51TMC2    C6  794   0.885   1.031   0.606 -0.2078  0.6470  0.0866
   51TMC2     C  795   1.119   0.742   0.792  0.5033  1.1183 -0.2955
   51TMC2     O  796   1.189   0.685   0.712  0.0280 -0.1181 -0.0159
   51TMC2     H  797   0.973   0.943   0.916  2.7722  2.9373  0.4264
   51TMC2    H1  798   1.004   0.718   0.555 -0.4123  0.0993 -0.3069
   51TMC2    H2  799   0.821   1.106   0.561 -3.3444 -1.2305  1.3647
   51TMC2    C7  800   0.980   0.931   0.408  0.0801  0.7384 -0.4095
   51TMC2    C8  801   0.844   1.131   0.822 -0.1061  0.2599 -0.5107
   51TMC2    O1  802   1.062   0.846   0.381 -0.5774 -0.6944  0.1006
   51TMC2    O2  803   0.842   1.121   0.946 -0.3821  0.4055  0.0880
   51TMC2    O5  804   0.882   1.249   0.759 -0.0801 -0.3132  0.1379
   51TMC2    H5  805   0.907   1.243   0.664  1.1085  0.8012  0.3715
   52MPD2     C  806   1.426   0.577   1.169  0.2183  0.0575  0.0623
   52MPD2    C1  807   1.431   0.548   1.035 -0.3462 -0.0361 -1.1101
   52MPD2    C2  808   1.333   0.604   0.953  0.6478  0.1140  0.7051
   52MPD2    C3  809   1.236   0.686   1.005  0.0817 -0.0448 -0.6817
   52MPD2    C4  810   1.232   0.705   1.137  0.3241  0.7505  0.6589
   52MPD2    C5  811   1.325   0.654   1.221 -0.0923  0.1602 -0.2049
   52MPD2     H  812   1.331   0.574   0.849 -0.7679 -2.8882  1.6078
   52MPD2    H1  813   1.165   0.778   1.182 -0.7063  1.3036 -1.7653
   52MPD2    H2  814   1.508   0.551   1.235 -0.5461  1.3614  1.5265
   52MPD2    H3  815   1.316   0.670   1.328  0.5368 -0.8154 -0.0020
   52MPD2     N  816   1.137   0.754   0.929 -0.2180 -0.9217 -0.2870
   52MPD2    H5  817   1.071   0.804   0.987  0.6139 -0.9283  0.6545
   52MPD2    N1  818   1.525   0.464   0.976 -0.1062  0.3159  0.2219
   52MPD2    H7  819   1.539   0.474   0.876 -1.2648  0.7630  0.1019
   53TMC2    C1  820   1.395   0.071  10.812 -0.2656  0.4131 -0.0705
   53TMC2    C2  821   1.310   0.146  10.740 -0.2804  0.5782  0.0335
   53TMC2    C3  822   1.231   0.228  10.807 -0.5390  0.9662  0.7224
   53TMC2    C4  823   1.396   0.087  10.950  0.2831 -0.1652  0.1226
   53TMC2    C5  824   1.304   0.169  11.008 -0.0329  0.5169 -0.0588
   53TMC2    C6  825   1.221   0.242  10.938  0.2126  0.3872 -0.9463
   53TMC2     C  826   1.458   4.684  10.757  0.2186  0.5843  0.3114
   53TMC2     O  827   1.481   4.677  10.637  0.7210  0.2102  0.0573
   53TMC2     H  828   1.323   0.135  10.633 -0.7795 -0.0135  0.0319
   53TMC2    H1  829   1.481   0.056  11.010  0.7755  1.1365  0.1130
   53TMC2    H2  830   1.153   0.311  10.987 -1.2010 -0.2815 -1.9716
   53TMC2    C7  831   1.242   0.118  11.136  0.2737  0.0077  0.0257
   53TMC2    C8  832   1.128   0.290  10.735  0.7363 -0.1428  0.3092
   53TMC2    O1  833   1.140   0.179  11.158  0.1948  0.4106  0.2169
   53TMC2    O2  834   1.019   0.317  10.788  0.4166 -0.0963 -0.0946
   53TMC2    O5  835   1.158   0.317  10.610 -0.5565 -0.0421  0.2078
   53TMC2    H5  836   1.256   0.323  10.602 -0.7980 -0.3151 -3.2689
   54MPD2     C  837   1.625   4.430  10.733  0.4220  0.2122  0.4657
   54MPD2    C1  838   1.561   4.475  10.848 -0.4061 -0.1893  0.3882
   54MPD2    C2  839   1.573   4.411  10.967 -0.2492  1.1015  1.0610
   54MPD2    C3  840   1.636   4.289  10.978 -0.8484  0.5233  1.1979
   54MPD2    C4  841   1.700   4.238  10.866 -0.2417 -0.1711 -0.7595
   54MPD2    C5  842   1.689   4.306  10.742 -0.1737  0.2648  0.5800
   54MPD2     H  843   1.533   4.468  11.051  0.9981  0.7135  1.9105
   54MPD2    H1  844   1.739   4.137  10.861 -6.2175 -2.5320  0.1439
   54MPD2    H2  845   1.618   4.484  10.639 -0.2570  1.2664  1.1091
   54MPD2    H3  846   1.736   4.263  10.654  1.2788  1.4394  0.7788
   54MPD2     N  847   1.636   4.203  11.093  0.3684 -0.5964  0.0958
   54MPD2    H5  848   1.698   4.122  11.089 -1.5277 -1.9803 -1.6290
   54MPD2    N1  849   1.496   4.595  10.860  0.0146  0.3881  0.6300
   54MPD2    H7  850   1.476   4.618  10.957 -0.7047 -1.2780  0.8689
   55TMC2    C1  851   2.329   2.213  17.279  0.7158  0.1972 -0.5512
   55TMC2    C2  852   2.291   2.215  17.143  0.8067  0.1101  0.6933
   55TMC2    C3  853   2.243   2.098  17.103 -0.0639  0.8327 -0.4278
   55TMC2    C4  854   2.303   2.109  17.370  0.3090  0.7952 -0.1673
   55TMC2    C5  855   2.250   1.999  17.310 -0.3464  0.5495 -0.1326
   55TMC2    C6  856   2.221   1.981  17.177 -0.0669 -0.0916  0.4933
   55TMC2     C  857   2.345   2.345  17.337  0.8532  1.0126  0.4040
   55TMC2     O  858   2.374   2.351  17.456 -0.2417  0.0928 -0.5393
   55TMC2     H  859   2.284   2.301  17.078  0.0791  0.1376  0.8088
   55TMC2    H1  860   2.344   2.120  17.469 -1.0950 -0.8677  0.6008
   55TMC2    H2  861   2.183   1.890  17.131 -0.4166  0.6558 -0.7097
   55TMC2    C7  862   2.241   1.878  17.398  0.3654 -0.3182 -0.5812
   55TMC2    C8  863   2.231   2.085  16.961  0.8701 -0.6742 -0.7222
   55TMC2    O1  864   2.253   1.765  17.350 -0.1693 -0.0226  0.2088
   55TMC2    O2  865   2.298   2.159  16.890  0.2469 -0.5305 -0.3882
   55TMC2    O5  866   2.112   2.022  16.920 -0.0372 -0.3508  0.5425
   55TMC2    H5  867   2.054   1.992  16.993 -2.5751  0.4434 -1.1718
   56MPD2     C  868   2.372   2.685  17.173  0.3410  0.5064 -0.6624
   56MPD2    C1  869   2.360   2.593  17.276 -0.5061  0.0640  0.1183
   56MPD2    C2  870   2.335   2.642  17.402 -0.0069 -0.5086  0.0973
   56MPD2    C3  871   2.314   2.771  17.433 -0.4035 -0.0218 -0.5377
   56MPD2    C4  872   2.330   2.863  17.334  0.7118 -0.6979 -0.7808
   56MPD2    C5  873   2.341   2.818  17.203 -0.1168  0.0181 -0.3269
   56MPD2     H  874   2.326   2.577  17.489 -0.1191  3.2271  2.9013
   56MPD2    H1  875   2.319   2.971  17.343  1.6986 -0.5226 -1.6005
   56MPD2    H2  876   2.401   2.655  17.073 -0.5957 -0.1467 -0.7325
   56MPD2    H3  877   2.340   2.887  17.120 -1.4384  0.2201 -0.1415
   56MPD2     N  878   2.270   2.805  17.565  0.1081 -0.8994 -0.2265
   56MPD2    H5  879   2.260   2.740  17.642  1.7079  0.3129  0.9930
   56MPD2    N1  880   2.364   2.452  17.244 -0.2299  0.2090 -0.3247
   56MPD2    H7  881   2.358   2.422  17.148  1.1474  3.4975 -1.4325
   57TMC2    C1  882   0.669   2.903  13.303  0.1224 -0.2171 -0.4690
   57TMC2    C2  883   0.611   2.832  13.204 -0.6454  0.1257  0.5462
   57TMC2    C3  884   0.689   2.772  13.115 -0.1282  0.1255 -0.7726
   57TMC2    C4  885   0.801   2.935  13.302 -0.1061  0.1581  0.2535
   57TMC2    C5  886   0.875   2.884  13.203  0.3760  0.4016  0.5469
   57TMC2    C6  887   0.824   2.788  13.121  0.3009  0.3243  0.1371
   57TMC2     C  888   0.579   2.947  13.409 -0.8973 -0.0612 -0.7605
   57TMC2     O  889   0.457   2.953  13.391 -0.4654  0.1650 -0.6779
   57TMC2     H  890   0.507   2.802  13.210  0.1067 -2.3556  1.1218
   57TMC2    H1  891   0.832   3.003  13.380 -0.3295  0.4549  0.0808
   57TMC2    H2  892   0.886   2.759  13.037 -3.5255 -2.2224 -1.8237
   57TMC2    C7  893   1.008   2.937  13.168 -0.4043 -0.2492 -0.1094
   57TMC2    C8  894   0.630   2.688  13.013  0.3674 -0.0847 -0.5699
   57TMC2    O1  895   1.025   3.058  13.174  0.2353 -0.0947 -0.2981
   57TMC2    O2  896   0.685   2.591  12.964 -0.0384  0.2621  0.5678
   57TMC2    O5  897   0.531   2.764  12.957 -0.2629 -0.1697 -0.0757
   57TMC2    H5  898   0.509   2.851  12.996  1.0733  0.7490 -1.3849
   58MPD2     C  899   0.529   3.134  13.886 -0.2708  0.1397  0.1240
   58MPD2    C1  900   0.468   3.165  13.764  0.6627  0.3527 -0.7375
   58MPD2    C2  901   0.515   3.110  13.650  0.2119  0.0303  0.4553
   58MPD2    C3  902   0.612   3.018  13.648  0.3561  0.5762  0.0118
   58MPD2    C4  903   0.666   2.984  13.767  0.6654 -0.0157  0.7086
   58MPD2    C5  904   0.625   3.039  13.880  0.0540  0.0867 -0.0082
   58MPD2     H  905   0.455   3.116  13.559 -1.9036 -0.1216  1.8468
   58MPD2    H1  906   0.755   2.924  13.780  0.7799  0.0775  0.3587
   58MPD2    H2  907   0.509   3.186  13.979 -1.5214  1.6986 -1.0017
   58MPD2    H3  908   0.668   3.006  13.974 -1.7352  1.4398  1.2835
   58MPD2     N  909   0.648   2.954  13.529 -0.2747 -0.4428  0.0684
   58MPD2    H5  910   0.742   2.914  13.532 -0.0499 -0.0047 -0.9129
   58MPD2    N1  911   0.376   3.276  13.753  0.2282  0.2852 -0.1258
   58MPD2    H7  912   0.342   3.295  13.659  0.9619 -0.9003 -0.6313
   59TMC2    C1  913   3.692   3.673  12.379  0.3280  0.2759 -0.2007
   59TMC2    C2  914   3.586   3.584  12.396 -0.0378  0.2456  0.8466
   59TMC2    C3  915   3.533   3.515  12.297 -0.2698  0.6701  0.0589
   59TMC2    C4  916   3.758   3.683  12.259  0.1755  0.3226  0.1177
   59TMC2    C5  917   3.713   3.592  12.163 -0.0876 -0.8255 -0.0745
   59TMC2    C6  918   3.600   3.513  12.173 -0.3509 -0.2448  1.1680
   59TMC2     C  919   3.725   3.771  12.471 -0.2029 -0.5033 -0.3791
   59TMC2     O  920   3.843   3.806  12.481  0.4524  0.2856  0.0430
   59TMC2     H  921   3.551   3.562  12.496  0.8589 -1.2430  0.8315
   59TMC2    H1  922   3.855   3.732  12.257  0.1692  0.2791 -1.2954
   59TMC2    H2  923   3.557   3.454  12.092  3.4568 -0.6756 -0.5269
   59TMC2    C7  924   3.767   3.595  12.027  0.2939 -0.7151  0.4715
   59TMC2    C8  925   3.405   3.443  12.324 -0.3384  0.5243  0.3323
   59TMC2    O1  926   3.733   3.494  11.961 -0.2794 -0.5567 -0.8818
   59TMC2    O2  927   3.356   3.423  12.436  0.2433 -0.3979  0.4082
   59TMC2    O5  928   3.325   3.450  12.216  0.6081  0.3617  0.2230
   59TMC2    H5  929   3.354   3.511  12.145  1.2536 -2.3300 -1.8379
   60MPD2     C  930   3.481   3.934  12.694 -0.7715 -0.8638  0.6399
   60MPD2    C1  931   3.608   3.911  12.645  0.1939  0.0584 -0.8402
   60MPD2    C2  932   3.722   3.959  12.702  0.4761 -0.0915 -0.0392
   60MPD2    C3  933   3.701   4.034  12.818  0.1381  0.0098  0.2419
   60MPD2    C4  934   3.578   4.071  12.862  0.1821 -0.7333  0.4116
   60MPD2    C5  935   3.465   4.021  12.802  0.3407  0.0907 -0.3363
   60MPD2     H  936   3.826   3.947  12.673  1.0860  2.9327  0.9642
   60MPD2    H1  937   3.563   4.146  12.938  0.4119  0.9897 -1.2588
   60MPD2    H2  938   3.392   3.905  12.640 -0.2097 -0.0114 -0.7689
   60MPD2    H3  939   3.367   4.047  12.841 -0.1095 -0.4064 -1.1469
   60MPD2     N  940   3.817   4.077  12.890 -0.2526 -0.1827 -0.9101
   60MPD2    H5  941   3.903   4.049  12.844  0.9458  2.0885 -0.0381
   60MPD2    N1  942   3.611   3.826  12.525  0.6293 -0.3979  0.6891
   60MPD2    H7  943   3.528   3.775  12.496  1.4448 -1.5110  0.3140
   61TMC2    C1  944   2.717   0.229  15.778 -0.4044 -0.4038 -0.6397
   61TMC2    C2  945   2.676   0.194  15.902 -0.2327  0.7972  0.0374
   61TMC2    C3  946   2.563   0.261  15.949  0.2878  0.2317 -0.1639
   61TMC2    C4  947   2.667   0.331  15.703  0.3211 -0.0807 -0.3272
   61TMC2    C5  948   2.556   0.399  15.757  0.4773  0.0402 -0.2330
   61TMC2    C6  949   2.496   0.359  15.876 -0.6352 -0.1882 -0.4515
   61TMC2     C  950   2.783   0.116  15.711 -0.4503 -0.4391  0.4152
   61TMC2     O  951   2.833   0.032  15.786  0.2683 -0.5484 -0.2577
   61TMC2     H  952   2.733   0.119  15.956 -1.7311 -0.9815 -0.8915
   61TMC2    H1  953   2.725   0.361  15.616  0.4473  2.0336  0.4755
   61TMC2    H2  954   2.394   0.386  15.904 -0.9351 -0.7401 -1.0280
   61TMC2    C7  955   2.492   0.506  15.686 -0.7533 -0.0219  0.7374
   61TMC2    C8  956   2.525   0.218  16.083 -0.0487 -0.4603  0.3609
   61TMC2    O1  957   2.382   0.529  15.729 -0.6071  0.2108 -0.0143
   61TMC2    O2  958   2.570   0.119  16.133  0.2508 -0.2340  0.0157
   61TMC2    O5  959   2.475   0.320  16.152 -0.4637 -0.7117 -0.6070
   61TMC2    H5  960   2.455   0.401  16.100 -2.2408 -0.8825 -0.2194
   62MPD2     C  961   2.877   4.630  15.526  0.7918  0.3173 -0.9005
   62MPD2    C1  962   2.848   0.025  15.484  0.4708  0.4107  0.8491
   62MPD2    C2  963   2.860   0.047  15.348 -0.0980  0.2590 -0.0778
   62MPD2    C3  964   2.903   4.685  15.253 -0.4110  0.1620 -0.2159
   62MPD2    C4  965   2.932   4.562  15.294 -1.1125  0.0001 -0.4458
   62MPD2    C5  966   2.926   4.537  15.433 -0.1833 -0.2297  0.3195
   62MPD2     H  967   2.837   0.148  15.315 -0.5432  0.1894  0.0214
   62MPD2    H1  968   2.981   4.487  15.233  0.6014  2.6082 -2.2488
   62MPD2    H2  969   2.883   4.600  15.630 -1.1200  2.3861 -0.1812
   62MPD2    H3  970   2.958   4.440  15.471 -0.1018  1.0362  3.5151
   62MPD2     N  971   2.925   4.713  15.114  0.9410  0.1077  0.7654
   62MPD2    H5  972   2.950   4.641  15.047  0.3917  0.3521  0.2987
   62MPD2    N1  973   2.798   0.126  15.574 -0.0988  0.4126 -0.0431
   62MPD2    H7  974   2.796   0.219  15.534  1.6084  0.2862 -0.4192
   63TMC2    C1  975   2.214   0.429  10.078 -0.2594 -0.0639 -0.3796
   63TMC2    C2  976   2.304   0.405  10.172 -0.2917 -0.2011  0.0121
   63TMC2    C3  977   2.363   0.516  10.222 -0.3609 -0.1500 -0.1542
   63TMC2    C4  978   2.176   0.553  10.030 -0.1820  0.1504 -0.0870
   63TMC2    C5  979   2.227   0.659  10.091  0.2511 -0.2475  0.0566
   63TMC2    C6  980   2.320   0.642  10.191 -0.3583  0.2479  0.2677
   63TMC2     C  981   2.120   0.324  10.042 -0.1729 -0.1521 -0.4990
   63TMC2     O  982   2.034   0.339   9.957  0.2748  0.5927  0.1960
   63TMC2     H  983   2.345   0.305  10.185  0.9319  0.0801 -1.7552
   63TMC2    H1  984   2.096   0.566   9.958 -0.0400 -0.3633 -0.3361
   63TMC2    H2  985   2.341   0.722  10.261  1.0125 -0.5724  0.7992
   63TMC2    C7  986   2.160   0.785  10.055 -0.2544  0.5154 -0.2770
   63TMC2    C8  987   2.427   0.489  10.356 -0.7659  0.0109 -0.0221
   63TMC2    O1  988   2.148   0.815   9.936  0.7725  0.3897  0.2021
   63TMC2    O2  989   2.434   0.376  10.402  0.3591 -0.3943  0.4844
   63TMC2    O5  990   2.524   0.580  10.391 -0.2588 -0.2329  0.3325
   63TMC2    H5  991   2.533   0.666  10.344  2.2077 -0.6565  0.0352
   64MPD2     C  992   1.987   4.564  10.089  0.4284  0.4780 -0.8948
   64MPD2    C1  993   2.094   4.590  10.167  0.4767 -0.3064 -0.5215
   64MPD2    C2  994   2.144   4.721  10.164 -0.7713 -0.3955  0.5061
   64MPD2    C3  995   2.095   0.080  10.082 -0.0914  0.4614 -0.6511
   64MPD2    C4  996   1.999   0.044   9.986 -0.8848 -0.1097  0.4402
   64MPD2    C5  997   1.946   4.657   9.997 -0.4760 -0.2542  0.1326
   64MPD2     H  998   2.205   0.027  10.244 -0.1802  0.1027 -0.2017
   64MPD2    H1  999   1.970   0.111   9.906 -1.3058 -0.7649  0.0409
   64MPD2    H2 1000   1.951   4.462  10.096  1.7942 -0.1886 -3.4703
   64MPD2    H3 1001   1.872   4.620   9.927 -1.2301  1.7149 -0.1139
   64MPD2     N 1002   2.158   0.209  10.104 -0.9483  0.5439  0.0090
   64MPD2    H5 1003   2.230   0.213  10.175  1.3592 -0.1804 -2.2879
   64MPD2    N1 1004   2.134   4.500  10.270  0.2619  0.1709 -0.2280
   64MPD2    H7 1005   2.074   4.420  10.288  1.2760 -0.3992  0.5895
   65TMC2    C1 1006   3.975   4.624  15.571  0.1905  0.3637  0.2881
   65TMC2    C2 1007   3.944   4.593  15.435 -0.4486 -0.3396 -0.0970
   65TMC2    C3 1008   3.910   4.703  15.359  0.4523  0.2128 -0.0318
   65TMC2    C4 1009   3.981   0.019  15.613  0.1556  0.7333 -0.3773
   65TMC2    C5 1010   3.958   0.123  15.526 -0.5020 -0.1805 -0.7309
   65TMC2    C6 1011   3.913   0.096  15.396 -0.2261  0.1335 -0.1890
   65TMC2     C 1012   3.940   4.528  15.676 -0.5196 -0.2281  0.4236
   65TMC2     O 1013   3.974   4.559  15.791 -0.2898  0.7764  0.5120
   65TMC2     H 1014   3.927   4.491  15.404  0.4292 -0.7889  0.8924
   65TMC2    H1 1015   4.005   0.046  15.716 -2.3267 -5.1654  1.7421
   65TMC2    H2 1016   3.919   0.178  15.325 -0.5029  0.3587  0.0450
   65TMC2    C7 1017   3.903   0.245  15.575  0.3691 -0.1843  0.7700
   65TMC2    C8 1018   3.876   4.672  15.226 -1.2744 -0.5421  0.5038
   65TMC2    O1 1019   3.911   0.338  15.499  0.0614 -0.6324 -0.3682
   65TMC2    O2 1020   3.920   4.567  15.176 -0.1315 -0.0713  0.7187
   65TMC2    O5 1021   3.768   0.007  15.200  0.2079 -0.6558  0.0615
   65TMC2    H5 1022   3.747   0.075  15.267  0.4523 -1.9212  1.4363
   66MPD2     C 1023   3.846   4.303  15.835  0.1713  0.3114  0.3843
   66MPD2    C1 1024   3.801   4.328  15.714 -0.4948  0.5807 -0.1683
   66MPD2    C2 1025   3.707   4.249  15.656  0.5025 -0.0857  0.2099
   66MPD2    C3 1026   3.658   4.138  15.728  0.5240  0.7357  0.3580
   66MPD2    C4 1027   3.716   4.095  15.846  0.2030 -0.1050 -0.9947
   66MPD2    C5 1028   3.809   4.181  15.900 -0.1674 -0.6692  0.1469
   66MPD2     H 1029   3.689   4.275  15.552  0.0411 -1.0048  0.0548
   66MPD2    H1 1030   3.683   4.005  15.897  1.2146 -1.3817 -2.5981
   66MPD2    H2 1031   3.924   4.357  15.888 -1.2149  0.5036  2.2585
   66MPD2    H3 1032   3.836   4.169  16.004  0.9985  1.2188  0.0767
   66MPD2     N 1033   3.579   4.044  15.667  0.5126  0.2907 -0.1730
   66MPD2    H5 1034   3.554   3.963  15.723 -1.9622  2.0769  1.2867
   66MPD2    N1 1035   3.849   4.433  15.633 -0.6648  0.2189 -0.0727
   66MPD2    H7 1036   3.804   4.445  15.543 -1.3395 -2.4557 -0.0789
   67TMC2    C1 1037   3.601   3.270  14.267 -1.2168  0.3783  0.3796
   67TMC2    C2 1038   3.595   3.166  14.350 -0.4123 -0.0078  0.4572
   67TMC2    C3 1039   3.604   3.199  14.480 -0.6289 -0.6962  0.3404
   67TMC2    C4 1040   3.631   3.395  14.310 -0.0623  0.9264  0.4320
   67TMC2    C5 1041   3.645   3.422  14.445  0.2790 -0.1486  0.4938
   67TMC2    C6 1042   3.628   3.321  14.537  0.0795 -0.1542  0.2675
   67TMC2     C 1043   3.593   3.241  14.126 -0.1226 -0.0323  0.5013
   67TMC2     O 1044   3.622   3.123  14.100 -0.3944  0.3283  0.4885
   67TMC2     H 1045   3.579   3.064  14.314  1.8654 -0.0982 -0.3495
   67TMC2    H1 1046   3.648   3.475  14.238 -0.3406 -0.4779 -1.1922
   67TMC2    H2 1047   3.656   3.328  14.641  0.3079 -1.0696  0.2696
   67TMC2    C7 1048   3.735   3.527  14.479 -0.5144 -0.8827  0.1927
   67TMC2    C8 1049   3.588   3.090  14.577  0.0417  0.7094 -1.0090
   67TMC2    O1 1050   3.782   3.591  14.384  0.3528  0.2143  0.4752
   67TMC2    O2 1051   3.537   3.114  14.688  0.0208 -0.1583  0.8108
   67TMC2    O5 1052   3.687   3.002  14.548  0.0335  0.0819  0.1546
   67TMC2    H5 1053   3.736   3.021  14.466 -0.0747 -0.0736  0.0539
   68MPD2     C 1054   3.560   3.241  13.835  0.3811 -0.4854  0.1324
   68MPD2    C1 1055   3.505   3.340  13.918  0.4111  0.8403  0.7449
   68MPD2    C2 1056   3.410   3.427  13.867 -0.2392 -0.0517  0.0442
   68MPD2    C3 1057   3.366   3.420  13.737  0.0177 -0.1590 -0.6196
   68MPD2    C4 1058   3.427   3.330  13.649  0.4695  0.3481 -0.3599
   68MPD2    C5 1059   3.521   3.243  13.700  0.6839  0.3376  0.0638
   68MPD2     H 1060   3.355   3.492  13.934 -0.6491  2.2833 -2.5512
   68MPD2    H1 1061   3.395   3.336  13.545  0.2248  0.2641 -0.2880
   68MPD2    H2 1062   3.623   3.166  13.880  1.2777 -0.4801 -1.1116
   68MPD2    H3 1063   3.566   3.165  13.641 -1.1731  0.6571 -1.7552
   68MPD2     N 1064   3.245   3.483  13.699  0.1617  0.1407 -0.2780
   68MPD2    H5 1065   3.218   3.456  13.604 -2.0234 -0.7609  0.5960
   68MPD2    N1 1066   3.540   3.344  14.053 -0.2488  1.0312 -0.1860
   68MPD2    H7 1067   3.516   3.429  14.103  1.0003  1.4580 -0.3069
   69TMC2    C1 1068   1.305   0.054  11.817 -0.3264 -0.2635 -0.3234
   69TMC2    C2 1069   1.234   0.138  11.743  0.1811 -0.3005 -0.1369
   69TMC2    C3 1070   1.287   0.160  11.625  0.3144  0.0492 -0.4986
   69TMC2    C4 1071   1.421   4.720  11.770 -0.9168 -0.0456  0.3970
   69TMC2    C5 1072   1.461   0.003  11.642  0.9478 -0.5900  0.2405
   69TMC2    C6 1073   1.399   0.099  11.571  0.2729 -0.4537 -0.1941
   69TMC2     C 1074   1.261   0.032  11.958  0.2044  0.6734  0.5640
   69TMC2     O 1075   1.145   0.037  11.985  0.2804  0.3238 -0.0325
   69TMC2     H 1076   1.152   0.197  11.783  0.8802  1.8251 -1.8650
   69TMC2    H1 1077   1.486   4.664  11.836 -0.1297 -0.7803 -1.0261
   69TMC2    H2 1078   1.429   0.111  11.467  2.4734  0.2406  0.5325
   69TMC2    C7 1079   1.556   4.650  11.577  0.1234 -0.7715  0.8423
   69TMC2    C8 1080   1.221   0.249  11.537 -0.2330 -0.4882  0.1032
   69TMC2    O1 1081   1.602   4.687  11.471 -0.5579  0.0606  0.5003
   69TMC2    O2 1082   1.100   0.270  11.539  0.0253 -0.0429 -0.0826
   69TMC2    O5 1083   1.311   0.328  11.466 -0.0891  0.0599 -0.2639
   69TMC2    H5 1084   1.392   0.323  11.520  0.7824 -2.0174 -1.7769
   70MPD2     C 1085   1.477   0.094  12.245  0.6696  0.3192 -0.5876
   70MPD2    C1 1086   1.362   0.057  12.177  0.1698 -0.5773  0.1157
   70MPD2    C2 1087   1.253   0.032  12.259 -0.2409  0.4294 -0.2122
   70MPD2    C3 1088   1.255   0.031  12.397 -0.2790  0.5267 -0.4203
   70MPD2    C4 1089   1.375   0.042  12.456 -0.0613  0.3999 -0.2207
   70MPD2    C5 1090   1.481   0.083  12.384 -0.3445  0.4623  0.2928
   70MPD2     H 1091   1.159   0.003  12.212  0.6754 -2.1447 -0.4526
   70MPD2    H1 1092   1.381   0.038  12.564 -3.5259  1.3401  0.0190
   70MPD2    H2 1093   1.561   0.136  12.190 -0.8129 -0.5856 -3.5352
   70MPD2    H3 1094   1.570   0.120  12.435  1.3073 -1.1036 -1.4195
   70MPD2     N 1095   1.151   4.711  12.479  0.1944 -0.1514  0.3529
   70MPD2    H5 1096   1.165   4.688  12.577  2.2740  2.0776  0.5968
   70MPD2    N1 1097   1.368   0.053  12.041  0.6324 -0.3595  0.2562
   70MPD2    H7 1098   1.456   0.082  11.999 -0.5666  1.8132 -0.7424
   71TMC2    C1 1099   2.971   4.374   1.358 -0.4820 -0.2787  0.6666
   71TMC2    C2 1100   3.038   4.299   1.455 -0.3058 -0.4096 -0.1685
   71TMC2    C3 1101   2.988   4.179   1.478 -0.0216  0.1154 -0.1647
   71TMC2    C4 1102   2.847   4.334   1.306 -0.1196  0.3888  0.1409
   71TMC2    C5 1103   2.809   4.211   1.339 -0.2308  0.3367 -0.1752
   71TMC2    C6 1104   2.884   4.128   1.415 -0.0531 -0.8977 -0.9264
   71TMC2     C 1105   3.028   4.491   1.298 -0.0309 -0.7765  0.8164
   71TMC2     O 1106   2.964   4.561   1.225  0.5701  0.0405  0.1179
   71TMC2     H 1107   3.114   4.342   1.520 -0.8548 -0.6467  0.6221
   71TMC2    H1 1108   2.805   4.382   1.219 -0.1016 -0.0058 -0.0859
   71TMC2    H2 1109   2.849   4.029   1.441  0.3389 -0.3391  1.8009
   71TMC2    C7 1110   2.700   4.148   1.275  0.5695  0.2362  1.0688
   71TMC2    C8 1111   3.087   4.075   1.518  0.0273  1.0297 -0.2561
   71TMC2    O1 1112   2.702   4.029   1.269  0.4772  0.0097 -0.0791
   71TMC2    O2 1113   3.099   3.973   1.453 -0.0496 -0.1599 -0.5523
   71TMC2    O5 1114   3.090   4.089   1.656  0.0033  0.3131 -0.3169
   71TMC2    H5 1115   3.047   4.174   1.680  2.3412  1.7403 -1.1377
   72MPD2     C 1116   3.426   0.057   1.192 -0.7498  0.1558  0.3745
   72MPD2    C1 1117   3.304   0.047   1.137 -0.3147  0.4353  0.5300
   72MPD2    C2 1118   3.218   4.685   1.176 -1.4969 -0.7336  0.1626
   72MPD2    C3 1119   3.246   4.615   1.291  0.4160  0.0899 -0.3386
   72MPD2    C4 1120   3.363   4.639   1.362 -0.5528 -0.2376 -0.1142
   72MPD2    C5 1121   3.452   4.725   1.307 -0.2877 -0.1232 -0.3145
   72MPD2     H 1122   3.121   4.685   1.128 -0.9171  2.2087 -1.0056
   72MPD2    H1 1123   3.383   4.578   1.450  0.7340 -3.5807 -2.7491
   72MPD2    H2 1124   3.505   0.114   1.145 -2.0145  2.1108  0.6176
   72MPD2    H3 1125   3.552   0.009   1.345 -0.5855 -0.8847  0.8324
   72MPD2     N 1126   3.154   4.512   1.342 -0.2458  0.0136  0.5617
   72MPD2    H5 1127   3.188   4.455   1.418  1.0146 -0.5203 -0.4131
   72MPD2    N1 1128   3.276   0.117   1.021  0.2413  0.0269  1.1721
   72MPD2    H7 1129   3.203   0.091   0.955  1.4502 -1.0537  0.2601
   73TMC2    C1 1130   2.622   2.731  14.225 -0.0175  0.5401  0.0434
   73TMC2    C2 1131   2.621   2.819  14.335  0.1348 -1.4723 -0.8851
   73TMC2    C3 1132   2.696   2.772  14.442  0.1182  0.3748  0.4853
   73TMC2    C4 1133   2.690   2.610  14.226 -0.0179 -0.0080  0.5761
   73TMC2    C5 1134   2.771   2.583  14.333  0.4339  0.2787  0.7285
   73TMC2    C6 1135   2.769   2.653  14.444 -0.0168 -1.4587  0.0406
   73TMC2     C 1136   2.612   2.775  14.085  0.6097 -0.1395  0.1612
   73TMC2     O 1137   2.655   2.692  14.004 -0.1825 -0.0161 -0.4239
   73TMC2     H 1138   2.570   2.913  14.350 -1.5039 -2.4831 -0.0981
   73TMC2    H1 1139   2.680   2.527  14.157  1.2621  0.6369 -0.3883
   73TMC2    H2 1140   2.851   2.641  14.514 -0.8256  1.9854  1.6175
   73TMC2    C7 1141   2.902   2.532  14.301 -0.7869  0.3835 -0.6067
   73TMC2    C8 1142   2.688   2.835  14.574  0.4710  0.3828 -0.2330
   73TMC2    O1 1143   2.984   2.500  14.386  0.3611  0.0259  0.2105
   73TMC2    O2 1144   2.780   2.812  14.658  0.6837  0.8151  0.0413
   73TMC2    O5 1145   2.557   2.833  14.608 -0.0490 -0.0572 -0.1020
   73TMC2    H5 1146   2.498   2.835  14.529  0.8343 -1.7516 -0.7835
   74MPD2     C 1147   2.690   3.132  13.723 -0.3774  0.0605  0.4236
   74MPD2    C1 1148   2.727   2.994  13.723 -0.4322  0.4532 -0.8085
   74MPD2    C2 1149   2.700   2.917  13.834 -0.0368 -0.0990  0.3009
   74MPD2    C3 1150   2.635   2.974  13.942 -0.6891 -1.1093 -0.1242
   74MPD2    C4 1151   2.606   3.108  13.936  0.3027 -0.1731  0.3582
   74MPD2    C5 1152   2.635   3.185  13.830 -0.1502  0.5002  0.0650
   74MPD2     H 1153   2.723   2.813  13.853  0.4333 -0.3189 -1.4433
   74MPD2    H1 1154   2.548   3.152  14.017  1.0225  0.3983  0.5655
   74MPD2    H2 1155   2.725   3.201  13.647  1.5904 -0.6214  0.7110
   74MPD2    H3 1156   2.613   3.291  13.838 -1.0567  0.4186 -1.4358
   74MPD2     N 1157   2.598   2.910  14.065  0.6047 -0.0199 -0.1716
   74MPD2    H5 1158   2.553   2.960  14.141 -0.6810 -0.7233 -0.4650
   74MPD2    N1 1159   2.806   2.944  13.613  0.0615  0.2499 -0.1640
   74MPD2    H7 1160   2.822   3.013  13.540  1.2948 -0.8161 -0.8919
   75TMC2    C1 1161   3.019   3.543  13.717 -0.8194  0.3108 -0.7045
   75TMC2    C2 1162   2.913   3.569  13.810  0.3166 -0.1922  0.4525
   75TMC2    C3 1163   2.793   3.596  13.744  0.1025 -0.4124 -0.1617
   75TMC2    C4 1164   3.000   3.531  13.583 -0.4284  0.1264  0.3224
   75TMC2    C5 1165   2.881   3.541  13.530  0.1009  0.1213  0.1648
   75TMC2    C6 1166   2.780   3.585  13.608 -0.2779 -0.6274  0.4376
   75TMC2     C 1167   3.146   3.530  13.783 -0.7128 -0.6715  0.9559
   75TMC2     O 1168   3.143   3.541  13.904 -0.0008 -0.1905 -0.1855
   75TMC2     H 1169   2.931   3.580  13.916 -0.2930  1.5779  0.3838
   75TMC2    H1 1170   3.076   3.495  13.515 -0.5936 -0.8189  0.6474
   75TMC2    H2 1171   2.685   3.613  13.564  0.1898  0.1121 -0.0890
   75TMC2    C7 1172   2.864   3.541  13.380 -0.0252  0.7175 -0.4500
   75TMC2    C8 1173   2.719   3.708  13.797  0.0332  0.7730 -0.7518
   75TMC2    O1 1174   2.763   3.592  13.337 -0.2246  0.5844  0.4011
   75TMC2    O2 1175   2.610   3.730  13.751  0.1659 -0.0903 -0.4107
   75TMC2    O5 1176   2.811   3.781  13.856  0.7759  0.3217  0.4994
   75TMC2    H5 1177   2.905   3.754  13.845  0.2112 -0.5496 -2.1519
   76TMC2    C1 1178   2.708   3.985  11.796 -0.0304 -0.2316 -0.0623
   76TMC2    C2 1179   2.632   3.895  11.861 -0.2085 -0.6598  0.2638
   76TMC2    C3 1180   2.690   3.801  11.938 -0.4924  0.5081  0.5385
   76TMC2    C4 1181   2.841   4.000  11.817 -0.3637 -0.2001  0.4505
   76TMC2    C5 1182   2.896   3.905  11.899 -0.4732 -0.1201 -0.2730
   76TMC2    C6 1183   2.820   3.800  11.952  0.4341  0.4338  0.6733
   76TMC2     C 1184   2.639   4.087  11.712  0.0592  0.3086 -0.3927
   76TMC2     O 1185   2.517   4.070  11.691  0.1592 -0.3067  0.3960
   76TMC2     H 1186   2.526   3.899  11.842  0.1538  3.8951 -0.7349
   76TMC2    H1 1187   2.897   4.075  11.762 -0.3305 -0.9718 -0.5628
   76TMC2    H2 1188   2.863   3.719  12.010 -1.2710  1.4027  3.3238
   76TMC2    C7 1189   3.037   3.880  11.901 -0.1255  0.0007  0.2371
   76TMC2    C8 1190   2.641   3.664  11.939 -0.3843  0.1841 -0.0565
   76TMC2    O1 1191   3.058   3.762  11.902  0.5490 -0.1263 -0.1233
   76TMC2    O2 1192   2.703   3.564  11.897  0.5606  0.8154 -0.0281
   76TMC2    O5 1193   2.508   3.671  11.948 -0.4555  0.1741 -0.1477
   76TMC2    H5 1194   2.487   3.758  11.988 -0.8154  0.3195 -0.6519
   77MPD2     C 1195   2.619   4.534  11.443  0.1469 -0.3908 -0.5516
   77MPD2    C1 1196   2.530   4.423  11.446  0.4441 -0.4898  0.0849
   77MPD2    C2 1197   2.558   4.317  11.530 -0.3343  0.0814  0.4323
   77MPD2    C3 1198   2.672   4.312  11.609 -0.4183  0.7888 -0.3812
   77MPD2    C4 1199   2.765   4.415  11.603 -0.2000  0.3514  0.3759
   77MPD2    C5 1200   2.730   4.528  11.529  0.3179 -0.4443  0.6589
   77MPD2     H 1201   2.493   4.231  11.537 -0.2856 -0.0360 -0.5663
   77MPD2    H1 1202   2.858   4.425  11.658 -0.6157  0.7722  0.9855
   77MPD2    H2 1203   2.602   4.616  11.374 -0.5082  0.2514  0.3739
   77MPD2    H3 1204   2.799   4.611  11.516 -0.4690  0.3577  1.5824
   77MPD2     N 1205   2.712   4.203  11.691 -0.2203 -0.3592  0.2866
   77MPD2    H5 1206   2.798   4.205  11.746 -0.1544 -1.0470  0.2134
   77MPD2    N1 1207   2.412   4.402  11.364 -0.4572 -0.1937  0.6152
   77MPD2    H7 1208   2.362   4.315  11.378  0.8615 -1.0202  0.1694
   78TMC2    C1 1209   0.302   3.605   2.026 -0.1473 -0.1747 -0.4468
   78TMC2    C2 1210   0.362   3.482   2.042 -0.2219  0.6008  1.7158
   78TMC2    C3 1211   0.391   3.420   1.925  0.0681 -0.4822 -0.0469
   78TMC2    C4 1212   0.258   3.652   1.900  0.8437 -0.1081  0.0037
   78TMC2    C5 1213   0.283   3.584   1.792  0.3211 -0.7453  0.0259
   78TMC2    C6 1214   0.363   3.476   1.796 -0.5022  0.4464  0.0925
   78TMC2     C 1215   0.261   3.671   2.147  0.5011  0.6778  0.1329
   78TMC2     O 1216   0.274   3.606   2.251 -0.1400  0.5431  0.4878
   78TMC2     H 1217   0.372   3.436   2.139  0.2372 -1.2301  0.8148
   78TMC2    H1 1218   0.189   3.736   1.901 -0.0496 -0.8266 -1.0341
   78TMC2    H2 1219   0.408   3.423   1.713  0.6937  0.1021  0.9497
   78TMC2    C7 1220   0.216   3.623   1.674 -0.0442  0.6399  0.1461
   78TMC2    C8 1221   0.485   3.307   1.920  0.0408  0.0965  0.7849
   78TMC2    O1 1222   0.120   3.698   1.692  0.0929  0.2621  0.6688
   78TMC2    O2 1223   0.497   3.236   1.823 -0.0539 -0.0076 -0.3551
   78TMC2    O5 1224   0.560   3.300   2.033 -0.1524  0.4616 -0.1882
   78TMC2    H5 1225   0.550   3.373   2.098 -0.2164  1.7038 -1.5900
   79MPD1     C 1226   0.126   4.068   2.438 -0.3198  0.0488 -0.2928
   79MPD1    C1 1227   0.112   3.932   2.463  0.1010  0.5746  0.5191
   79MPD1    C2 1228   0.130   3.843   2.361  0.1363 -0.2543 -0.1279
   79MPD1    C3 1229   0.182   3.881   2.240 -0.1311  0.1871 -0.0366
   79MPD1    C4 1230   0.196   4.020   2.216  0.1662 -1.1569 -0.3052
   79MPD1    C5 1231   0.163   4.111   2.316  0.3484 -0.3267 -1.0651
   79MPD1     H 1232   0.102   3.742   2.388  0.8509 -0.6198 -0.7431
   79MPD1    H1 1233   0.223   4.056   2.117 -0.5270 -1.0799 -0.4606
   79MPD1    H2 1234   0.095   4.144   2.508 -0.1093 -0.0449 -0.0994
   79MPD1    H3 1235   0.162   4.217   2.292 -2.6826 -0.1803 -0.2463
   79MPD1     N 1236   0.227   3.806   2.128  0.0662  0.3180 -0.5086
   79MPD1    H5 1237   0.253   3.852   2.042  1.4154  0.7835  0.1421
   79MPD1    N1 1238   0.052   3.881   2.577  0.9773  0.3023 -0.1879
   79MPD1    H6 1239   0.080   3.787   2.605  1.6182  0.1200 -1.4102
   79MPD1    H7 1240   0.047   3.949   2.652 -1.4077 -0.2091  0.1193
   80TMC2    C1 1241   1.105   3.708  11.704 -0.3705 -0.0324 -0.2299
   80TMC2    C2 1242   1.116   3.676  11.568 -0.0450 -0.3847 -0.0230
   80TMC2    C3 1243   1.003   3.642  11.505  1.1128 -0.2691  0.3678
   80TMC2    C4 1244   0.986   3.713  11.768  0.0373 -0.6857  0.0431
   80TMC2    C5 1245   0.873   3.677  11.694  0.0036  0.0744  0.9215
   80TMC2    C6 1246   0.876   3.634  11.564  0.3839  0.4070  0.4393
   80TMC2     C 1247   1.222   3.774  11.771 -0.0748 -0.2668 -0.6072
   80TMC2     O 1248   1.325   3.752  11.710 -0.4935  0.2890  0.1538
   80TMC2     H 1249   1.208   3.682  11.511  0.2928  1.7140  0.7288
   80TMC2    H1 1250   0.971   3.746  11.870  1.0184  0.5268 -0.2031
   80TMC2    H2 1251   0.791   3.583  11.520  1.3660 -1.3916  0.6370
   80TMC2    C7 1252   0.751   3.713  11.746  0.1378  0.2581 -0.1081
   80TMC2    C8 1253   1.016   3.552  11.394  0.0504 -0.2427 -0.0889
   80TMC2    O1 1254   0.680   3.766  11.662  0.3555 -0.3361  0.2849
   80TMC2    O2 1255   0.941   3.461  11.366 -0.4160 -0.2612 -0.1042
   80TMC2    O5 1256   1.093   3.628  11.309  0.1808 -0.1877 -0.1270
   80TMC2    H5 1257   1.107   3.714  11.353 -0.2599 -1.1529  1.8989
   81MPD2     C 1258   1.409   3.981  11.881 -0.2186  0.4135  0.6769
   81MPD2    C1 1259   1.281   3.959  11.924 -0.4226 -0.7088 -0.1017
   81MPD2    C2 1260   1.225   4.041  12.016  0.1447  0.4956 -0.2953
   81MPD2    C3 1261   1.299   4.140  12.075 -0.5604 -0.3147  0.1073
   81MPD2    C4 1262   1.432   4.159  12.044 -0.2495  0.4426 -0.4026
   81MPD2    C5 1263   1.481   4.084  11.940 -0.2399  0.4292 -0.7806
   81MPD2     H 1264   1.124   4.032  12.052  0.9234  2.7434  2.4001
   81MPD2    H1 1265   1.498   4.224  12.100  0.3601 -1.0652  0.6338
   81MPD2    H2 1266   1.454   3.911  11.812 -0.1862  1.0487  0.0592
   81MPD2    H3 1267   1.585   4.095  11.913 -0.5173 -0.4581 -2.2337
   81MPD2     N 1268   1.228   4.226  12.162  0.5278 -0.2684 -0.2042
   81MPD2    H5 1269   1.138   4.185  12.185  0.4919  0.6195  1.2253
   81MPD2    N1 1270   1.192   3.864  11.867 -0.4278 -0.4472 -0.2659
   81MPD2    H7 1271   1.093   3.873  11.889  0.2037  0.7043  2.1509
   82TMC2    C1 1272   4.308   3.377  11.028  0.5416  0.0353  0.0582
   82TMC2    C2 1273   4.439   3.397  11.064 -0.2250 -0.3759  0.1007
   82TMC2    C3 1274   4.511   3.297  11.119  0.4999  0.2221  0.0273
   82TMC2    C4 1275   4.249   3.257  11.037 -0.5934 -0.4102  0.1343
   82TMC2    C5 1276   4.331   3.156  11.087  0.1548 -0.0970  0.3460
   82TMC2    C6 1277   4.458   3.168  11.139  0.3694 -0.1188  0.9110
   82TMC2     C 1278   4.222   3.480  10.961  0.3940 -0.4980 -0.9304
   82TMC2     O 1279   4.102   3.454  10.945 -0.2232  0.8069  0.4386
   82TMC2     H 1280   4.488   3.489  11.035  0.3959 -0.2186  1.6474
   82TMC2    H1 1281   4.151   3.232  10.999  0.0405  0.2622 -1.9327
   82TMC2    H2 1282   4.520   3.091  11.184  0.0968 -1.7567 -1.5389
   82TMC2    C7 1283   4.256   3.036  11.131  0.4522 -0.2525 -0.2585
   82TMC2    C8 1284   4.650   3.316  11.128 -0.0166  0.4989  0.0923
   82TMC2    O1 1285   4.305   2.975  11.225 -0.3972 -0.8306 -0.5073
   82TMC2    O2 1286   4.726   3.231  11.092 -0.7308 -0.6404  0.0786
   82TMC2    O5 1287   4.682   3.432  11.192 -0.0915 -0.2581  0.1518
   82TMC2    H5 1288   4.603   3.480  11.225  0.0673 -0.3674  0.6841
   83MPD2     C 1289   4.126   3.908  10.701 -0.3931  0.6923 -0.1480
   83MPD2    C1 1290   4.054   3.797  10.708 -0.7389 -0.4826 -0.9204
   83MPD2    C2 1291   4.106   3.695  10.781  0.0598  0.2751 -0.0541
   83MPD2    C3 1292   4.225   3.701  10.851 -0.5528  0.1605 -0.1331
   83MPD2    C4 1293   4.296   3.816  10.837  0.0831  0.2373 -0.2794
   83MPD2    C5 1294   4.245   3.920  10.761  0.2194  0.1929  0.2008
   83MPD2     H 1295   4.058   3.599  10.771 -1.2241  0.9869 -0.6535
   83MPD2    H1 1296   4.391   3.836  10.885 -0.1511  0.2911  0.1679
   83MPD2    H2 1297   4.093   3.994  10.644 -1.2768  0.7812  0.4884
   83MPD2    H3 1298   4.304   4.010  10.767 -1.3170  1.1599  0.5922
   83MPD2     N 1299   4.285   3.598  10.927 -0.1947  0.4419  0.0387
   83MPD2    H5 1300   4.378   3.617  10.962 -0.0281 -2.2774  1.0968
   83MPD2    N1 1301   3.937   3.780  10.632 -0.1692  0.5644  0.1868
   83MPD2    H7 1302   3.912   3.868  10.588  1.1652  0.3922 -0.8910
   84TMC2    C1 1303   0.712   2.664  11.403  0.0729  0.0261 -0.7675
   84TMC2    C2 1304   0.718   2.664  11.543  0.6966  0.1110 -0.0295
   84TMC2    C3 1305   0.822   2.603  11.606 -1.0779  0.4903  0.5432
   84TMC2    C4 1306   0.812   2.605  11.330  0.1577 -0.1014 -0.2579
   84TMC2    C5 1307   0.908   2.540  11.408 -0.4716 -0.7342 -0.9618
   84TMC2    C6 1308   0.912   2.528  11.538 -0.4982 -0.3366  0.5948
   84TMC2     C 1309   0.647   2.778  11.352 -0.1206  0.4878 -0.8181
   84TMC2     O 1310   0.634   2.866  11.437 -0.6930  0.7770  0.2322
   84TMC2     H 1311   0.648   2.718  11.605  2.0883  1.7006  0.1811
   84TMC2    H1 1312   0.821   2.612  11.222 -1.0330  0.0438 -0.3396
   84TMC2    H2 1313   0.982   2.466  11.592  0.1028  0.5515  0.8400
   84TMC2    C7 1314   1.018   2.493  11.325 -0.0424 -0.0382  0.0390
   84TMC2    C8 1315   0.797   2.584  11.748 -0.7602  0.0416  0.1096
   84TMC2    O1 1316   1.037   2.537  11.213 -0.1648 -0.7283  0.3591
   84TMC2    O2 1317   0.694   2.524  11.783 -0.2796  0.0344 -0.1951
   84TMC2    O5 1318   0.915   2.576  11.812 -0.2960 -0.0916 -0.3258
   84TMC2    H5 1319   0.978   2.610  11.745 -0.6978  1.2557 -0.0056
   85TMC2    C1 1320   1.158   1.039  16.138 -0.5716  0.0657  0.2244
   85TMC2    C2 1321   1.114   1.114  16.242  0.3975 -0.0400 -0.3358
   85TMC2    C3 1322   1.121   1.248  16.233 -0.0841  0.7725  0.4969
   85TMC2    C4 1323   1.229   1.104  16.042 -0.3507 -0.1282 -0.4635
   85TMC2    C5 1324   1.213   1.233  16.018  0.0104  0.1596 -0.2233
   85TMC2    C6 1325   1.159   1.314  16.115 -0.3249 -0.2152 -0.3159
   85TMC2     C 1326   1.220   0.911  16.178  0.0752  0.1824  0.0420
   85TMC2     O 1327   1.326   0.922  16.230  0.0054  0.1768 -0.2839
   85TMC2     H 1328   1.079   1.072  16.335  0.9488 -1.5521 -0.8034
   85TMC2    H1 1329   1.286   1.046  15.971 -1.1700 -0.0888 -1.1617
   85TMC2    H2 1330   1.158   1.422  16.107 -0.7517 -0.0528  2.0145
   85TMC2    C7 1331   1.301   1.308  15.926 -0.4864 -0.4113 -0.3634
   85TMC2    C8 1332   1.047   1.318  16.337 -0.8003 -0.0953 -0.3178
   85TMC2    O1 1333   1.398   1.247  15.886 -0.4098  0.4629 -0.0664
   85TMC2    O2 1334   0.935   1.283  16.369  0.0505 -0.3499  0.2807
   85TMC2    O5 1335   1.113   1.436  16.359 -0.2620 -0.2733 -0.1056
   85TMC2    H5 1336   1.202   1.432  16.318 -0.8576 -1.5703 -1.2594
   86MPD2     C 1337   1.160   0.463  16.402 -0.7649 -0.2219  0.1656
   86MPD2    C1 1338   1.077   0.462  16.289 -0.0249 -0.5411  1.1162
   86MPD2    C2 1339   1.069   0.571  16.211 -0.0385 -0.8323 -0.2300
   86MPD2    C3 1340   1.157   0.681  16.235  0.2277  0.1957  0.7596
   86MPD2    C4 1341   1.238   0.681  16.353  0.3481  0.5607 -0.6264
   86MPD2    C5 1342   1.243   0.568  16.429  0.0598  0.0019  0.4263
   86MPD2     H 1343   1.000   0.564  16.128  0.4157 -1.3579 -0.5641
   86MPD2    H1 1344   1.297   0.766  16.384  1.5440  0.2860 -2.1341
   86MPD2    H2 1345   1.152   0.384  16.474  1.4440 -1.5423 -1.0271
   86MPD2    H3 1346   1.300   0.571  16.521 -0.6773  1.5077  0.8391
   86MPD2     N 1347   1.131   0.799  16.164  0.3667 -0.3706 -0.4834
   86MPD2    H5 1348   1.055   0.800  16.096 -0.7273 -0.1618  0.7510
   86MPD2    N1 1349   0.982   0.362  16.259 -0.9787  0.5170  0.0704
   86MPD2    H7 1350   0.917   0.386  16.186 -0.6293 -1.5582 -0.9213
   87TMC2    C1 1351   3.903   3.513   0.775  0.3272 -0.1254 -0.5776
   87TMC2    C2 1352   4.006   3.472   0.857 -0.3658 -0.0264 -0.5295
   87TMC2    C3 1353   3.980   3.484   0.990  0.1485  0.3895  0.0141
   87TMC2    C4 1354   3.784   3.560   0.816 -0.3271 -0.4487 -0.7241
   87TMC2    C5 1355   3.759   3.566   0.949 -0.0003 -0.0251  0.7931
   87TMC2    C6 1356   3.854   3.525   1.039 -0.0937 -0.4302 -0.1456
   87TMC2     C 1357   3.925   3.471   0.637 -0.2421 -0.1231  0.3243
   87TMC2     O 1358   3.987   3.370   0.617 -0.4720  0.3997 -0.0025
   87TMC2     H 1359   4.100   3.430   0.825  0.2375  1.4715 -0.7564
   87TMC2    H1 1360   3.707   3.597   0.750  0.1565 -3.4108 -2.9414
   87TMC2    H2 1361   3.840   3.503   1.144  1.5181 -0.4562  0.0609
   87TMC2    C7 1362   3.633   3.627   1.001 -0.0475 -0.0560 -0.1893
   87TMC2    C8 1363   4.039   3.370   1.061  0.8172  0.5060  0.2286
   87TMC2    O1 1364   3.579   3.715   0.936 -0.2774 -0.7520 -0.0453
   87TMC2    O2 1365   4.085   3.272   1.006 -0.2010  0.7755  0.0177
   87TMC2    O5 1366   4.054   3.401   1.188  0.3542  0.0379 -0.1784
   87TMC2    H5 1367   4.032   3.496   1.203 -3.3380 -0.8113 -0.1945
   88MPD2     C 1368   3.477   3.560   1.326 -0.2388 -0.1218 -0.5264
   88MPD2    C1 1369   3.506   3.625   1.207  0.2634 -0.7332  0.8037
   88MPD2    C2 1370   3.447   3.746   1.186  0.0686 -0.3120 -0.9646
   88MPD2    C3 1371   3.384   3.811   1.285  0.6717  0.6222 -0.3744
   88MPD2    C4 1372   3.357   3.752   1.402 -0.5497 -0.2689  0.0243
   88MPD2    C5 1373   3.398   3.624   1.421 -0.0742 -0.1402 -0.0706
   88MPD2     H 1374   3.446   3.794   1.089 -0.9071 -1.9731 -1.7920
   88MPD2    H1 1375   3.302   3.791   1.487  0.3899  1.9256 -0.3930
   88MPD2    H2 1376   3.515   3.460   1.344  0.2711  0.1137 -0.3152
   88MPD2    H3 1377   3.379   3.578   1.518 -2.6813  3.1124  0.9484
   88MPD2     N 1378   3.319   3.933   1.268  0.1411  0.2932  0.0897
   88MPD2    H5 1379   3.249   3.961   1.335 -0.6901 -1.3730 -0.0742
   88MPD2    N1 1380   3.602   3.566   1.117  0.2320 -0.0268  0.2893
   88MPD2    H7 1381   3.658   3.485   1.143 -2.6954 -1.6545  1.5878
   89TMC2    C1 1382   3.765   1.680   1.278 -0.7471 -0.1475  0.0396
   89TMC2    C2 1383   3.883   1.618   1.272  0.1442  0.2444 -0.5832
   89TMC2    C3 1384   3.969   1.651   1.175  0.1270 -0.1572 -0.3264
   89TMC2    C4 1385   3.727   1.776   1.188  0.0579  0.1266 -0.3710
   89TMC2    C5 1386   3.833   1.825   1.104 -0.7162 -0.6041 -0.5455
   89TMC2    C6 1387   3.944   1.748   1.088 -0.3953 -0.7780 -0.3802
   89TMC2     C 1388   3.682   1.663   1.403  0.1649 -0.6391  0.0071
   89TMC2     O 1389   3.590   1.741   1.425 -0.2338  0.3912 -0.6599
   89TMC2     H 1390   3.926   1.567   1.358 -1.2121 -0.7874 -0.5186
   89TMC2    H1 1391   3.634   1.828   1.209  1.7555  2.4114  1.5123
   89TMC2    H2 1392   4.004   1.760   0.999 -0.3905 -1.4028 -0.4620
   89TMC2    C7 1393   3.830   1.951   1.037 -0.4058 -0.4624 -0.1432
   89TMC2    C8 1394   4.066   1.549   1.146  0.7903  0.0068 -0.4045
   89TMC2    O1 1395   3.724   1.995   0.990 -0.4513 -0.2937 -0.2767
   89TMC2    O2 1396   4.058   1.441   1.203  0.2940 -0.1941  0.3172
   89TMC2    O5 1397   4.172   1.609   1.091  0.2208 -0.1314  0.6737
   89TMC2    H5 1398   4.154   1.706   1.086  0.4822 -0.1835 -1.1952
   90MPD2     C 1399   3.544   1.411   1.828  0.2908  0.0918  0.4541
   90MPD2    C1 1400   3.614   1.325   1.738 -0.2061 -0.4701 -0.4008
   90MPD2    C2 1401   3.663   1.375   1.620 -0.6063 -0.1020  0.6519
   90MPD2    C3 1402   3.647   1.499   1.583 -0.2203 -0.2178  0.1602
   90MPD2    C4 1403   3.587   1.586   1.664  0.1403 -0.7662 -0.5338
   90MPD2    C5 1404   3.532   1.544   1.788  1.0363 -0.3103 -0.4948
   90MPD2     H 1405   3.724   1.312   1.555  0.8921  1.5343  0.4795
   90MPD2    H1 1406   3.560   1.683   1.624 -0.4570 -0.5820  0.3009
   90MPD2    H2 1407   3.502   1.387   1.925 -0.1303  0.4394  0.3597
   90MPD2    H3 1408   3.480   1.615   1.851 -1.4407 -1.5679 -1.1036
   90MPD2     N 1409   3.706   1.541   1.459 -0.0952 -0.0311 -0.4031
   90MPD2    H5 1410   3.763   1.471   1.412 -0.4647 -0.3840 -0.3219
   90MPD2    N1 1411   3.637   1.187   1.767  0.5458  0.3714 -0.8375
   90MPD2    H7 1412   3.689   1.130   1.701  2.1287  1.1240 -0.2478
   91TMC2    C1 1413   0.904   1.665  16.342 -0.1572  0.3746  0.4536
   91TMC2    C2 1414   0.958   1.705  16.460  0.5068 -0.2270  0.3874
   91TMC2    C3 1415   0.910   1.642  16.571 -0.6387 -0.5157 -0.3841
   91TMC2    C4 1416   0.797   1.591  16.333  0.0802 -0.2995 -0.0584
   91TMC2    C5 1417   0.746   1.540  16.451  0.3992 -0.2663  0.7882
   91TMC2    C6 1418   0.805   1.556  16.573  0.3189  0.0322  0.2740
   91TMC2     C 1419   0.943   1.741  16.222  0.4134  0.2086 -0.3468
   91TMC2     O 1420   0.864   1.750  16.130 -0.3553 -0.2815  0.0445
   91TMC2     H 1421   1.029   1.787  16.462  0.8222 -0.3952 -2.5618
   91TMC2    H1 1422   0.754   1.578  16.235  0.6564  0.7133 -0.4472
   91TMC2    H2 1423   0.750   1.515  16.656  0.3554  1.4651  1.0037
   91TMC2    C7 1424   0.643   1.433  16.448  0.2198  0.3035 -0.3388
   91TMC2    C8 1425   0.991   1.664  16.691 -0.8086  0.0003 -0.1871
   91TMC2    O1 1426   0.646   1.348  16.539 -0.2370  0.3355 -0.4629
   91TMC2    O2 1427   1.076   1.751  16.707  0.7423 -0.1758 -0.1710
   91TMC2    O5 1428   0.915   1.622  16.799 -0.1449  0.1926  0.2351
   91TMC2    H5 1429   0.883   1.532  16.776  2.8811 -0.6817 -0.5734
   92MPD2     C 1430   1.075   1.872  15.992  0.2049 -0.0603  0.2702
   92MPD2    C1 1431   1.133   1.841  16.109 -0.2930  0.4903 -0.0319
   92MPD2    C2 1432   1.270   1.852  16.112 -0.1985  0.2575  0.0727
   92MPD2    C3 1433   1.341   1.903  16.004  0.6213  0.3634 -0.7200
   92MPD2    C4 1434   1.273   1.952  15.895 -1.0154 -0.1091  0.1180
   92MPD2    C5 1435   1.145   1.932  15.890  0.1578 -0.0832  0.1463
   92MPD2     H 1436   1.326   1.815  16.198  1.7584  0.1463 -1.2493
   92MPD2    H1 1437   1.310   2.005  15.808 -0.6773 -1.3868 -0.5168
   92MPD2    H2 1438   0.968   1.865  15.978  0.4014  0.5964 -1.5478
   92MPD2    H3 1439   1.085   1.965  15.806  0.3208 -0.7582 -0.2301
   92MPD2     N 1440   1.477   1.899  16.018 -0.5491 -0.1869 -0.3095
   92MPD2    H5 1441   1.510   1.855  16.103  0.5097 -0.5307 -0.9053
   92MPD2    N1 1442   1.075   1.786  16.223  0.5750 -0.5566  0.0295
   92MPD2    H7 1443   1.132   1.778  16.307 -1.0294  0.7686  1.2584
   93TMC2    C1 1444   2.654   2.381  13.802 -0.3712  0.6430 -0.0954
   93TMC2    C2 1445   2.617   2.312  13.916  0.7242 -0.0645  0.3276
   93TMC2    C3 1446   2.720   2.267  13.994  0.3099 -1.0233 -0.7247
   93TMC2    C4 1447   2.781   2.393  13.757 -0.0448  0.4497  0.1714
   93TMC2    C5 1448   2.884   2.340  13.830 -1.1210 -0.5434  0.1288
   93TMC2    C6 1449   2.849   2.295  13.956 -0.3701 -0.9081 -0.2616
   93TMC2     C 1450   2.554   2.378  13.696  0.2024 -0.0747  0.0031
   93TMC2     O 1451   2.578   2.443  13.598  0.1476 -0.2678 -0.1097
   93TMC2     H 1452   2.516   2.318  13.953  0.5552  0.7428 -0.2675
   93TMC2    H1 1453   2.803   2.434  13.658  0.1957 -1.7019 -0.6611
   93TMC2    H2 1454   2.928   2.259  14.021  0.8851  0.8786 -0.8046
   93TMC2    C7 1455   3.008   2.303  13.774  1.0534 -0.2915 -0.3048
   93TMC2    C8 1456   2.694   2.240  14.133 -0.5992 -0.1960 -0.3219
   93TMC2    O1 1457   3.089   2.248  13.843 -0.1194 -0.0494 -0.6159
   93TMC2    O2 1458   2.780   2.263  14.216  0.4853 -0.0170 -0.0927
   93TMC2    O5 1459   2.573   2.188  14.153  0.1088  0.1731  0.5011
   93TMC2    H5 1460   2.522   2.172  14.071 -1.3818 -3.9007  2.2016
   94MPD2     C 1461   2.364   2.280  13.495  0.4713 -0.2407 -0.8504
   94MPD2    C1 1462   2.395   2.214  13.609  0.3348  0.7883 -0.1814
   94MPD2    C2 1463   2.336   2.093  13.632  0.6922  0.7383  0.3930
   94MPD2    C3 1464   2.245   2.036  13.550 -0.1032  0.9435 -0.1029
   94MPD2    C4 1465   2.213   2.108  13.439 -0.7620  0.4674  0.2657
   94MPD2    C5 1466   2.273   2.226  13.404  0.2240 -0.3270 -0.0755
   94MPD2     H 1467   2.370   2.036  13.718  1.7935  0.8619  0.0477
   94MPD2    H1 1468   2.140   2.061  13.375  1.3869 -0.3069 -1.6078
   94MPD2    H2 1469   2.405   2.374  13.462 -0.2030 -0.0454 -1.1391
   94MPD2    H3 1470   2.247   2.281  13.314  0.9489  0.7895  0.3932
   94MPD2     N 1471   2.175   1.915  13.560 -0.1353  0.3456  0.6836
   94MPD2    H5 1472   2.095   1.905  13.499  0.4401 -0.6850  0.0847
   94MPD2    N1 1473   2.476   2.268  13.708 -0.1997  0.7925  0.7625
   94MPD2    H7 1474   2.495   2.203  13.783 -1.5969 -0.3219  0.1595
   95TMC2    C1 1475   2.886   3.163  15.886  0.3247 -0.0074  0.3504
   95TMC2    C2 1476   2.839   3.140  16.011 -0.3398  0.1772  0.1316
   95TMC2    C3 1477   2.832   3.012  16.059 -0.2099  0.9521 -0.7217
   95TMC2    C4 1478   2.932   3.064  15.811  0.2245  0.3507 -0.5873
   95TMC2    C5 1479   2.924   2.931  15.855 -0.9665  0.5607  0.7178
   95TMC2    C6 1480   2.877   2.903  15.981 -0.2144  0.5088  0.1946
   95TMC2     C 1481   2.965   3.287  15.868 -0.6919  0.5844 -0.3045
   95TMC2     O 1482   3.038   3.284  15.772 -0.3271  0.2499  0.6963
   95TMC2     H 1483   2.791   3.212  16.076 -1.2263 -0.4203  0.1515
   95TMC2    H1 1484   2.961   3.089  15.710  0.3206  3.1550  0.1350
   95TMC2    H2 1485   2.878   2.806  16.029  0.2208  0.9563  1.0776
   95TMC2    C7 1486   2.957   2.821  15.766  0.5133  0.0936  0.3290
   95TMC2    C8 1487   2.767   2.996  16.186  0.0960 -0.6562 -0.2256
   95TMC2    O1 1488   2.996   2.721  15.827  0.0999  0.2942  0.4131
   95TMC2    O2 1489   2.775   3.084  16.275 -0.0830  0.1417 -0.2357
   95TMC2    O5 1490   2.718   2.870  16.205 -0.3184  0.0561 -0.0731
   95TMC2    H5 1491   2.723   2.808  16.129 -0.1831 -1.2903  1.0363
   96MPD2     C 1492   3.143   3.759  15.953 -0.2189 -0.3845  0.2062
   96MPD2    C1 1493   3.166   3.673  15.849  0.7445 -0.1546  0.1388
   96MPD2    C2 1494   3.111   3.547  15.847 -0.4763 -0.5667  0.1378
   96MPD2    C3 1495   3.021   3.511  15.951 -0.0035  0.1997  0.2731
   96MPD2    C4 1496   2.998   3.597  16.052 -0.2081 -0.1095 -0.1978
   96MPD2    C5 1497   3.055   3.721  16.055  0.0287  0.2112 -0.6682
   96MPD2     H 1498   3.133   3.476  15.768  1.0526  0.9444 -0.7819
   96MPD2    H1 1499   2.945   3.556  16.137 -1.0300  0.2504 -0.5375
   96MPD2    H2 1500   3.185   3.859  15.961 -2.5798  0.5628  0.7783
   96MPD2    H3 1501   3.036   3.782  16.142 -2.0418  0.9350 -1.6419
   96MPD2     N 1502   2.963   3.383  15.968 -0.0157  0.6732  0.5289
   96MPD2    H5 1503   2.924   3.363  16.059  0.1876  2.2146  0.9491
   96MPD2    N1 1504   3.255   3.712  15.753 -0.7729 -1.2679 -0.2755
   96MPD2    H7 1505   3.281   3.809  15.766  0.0751 -1.9005  2.8262
   97TMC2    C1 1506   0.624   1.453   0.844  0.0486  0.3328 -0.7672
   97TMC2    C2 1507   0.641   1.494   0.977 -0.1833  0.5866 -0.1488
   97TMC2    C3 1508   0.724   1.596   1.005 -0.2202  0.1697 -0.4936
   97TMC2    C4 1509   0.696   1.517   0.743 -0.0080 -0.3514 -0.2620
   97TMC2    C5 1510   0.788   1.611   0.777  0.0936  0.0087  0.6936
   97TMC2    C6 1511   0.811   1.643   0.910 -0.2248 -0.2590  0.0296
   97TMC2     C 1512   0.524   1.351   0.811 -0.8914 -0.0251  0.2863
   97TMC2     O 1513   0.513   1.260   0.894  0.0580  0.0404  0.4180
   97TMC2     H 1514   0.598   1.436   1.057 -0.2571  0.9303  0.0613
   97TMC2    H1 1515   0.690   1.490   0.638  0.0622  0.5913 -0.5024
   97TMC2    H2 1516   0.886   1.714   0.944  0.0716 -0.7497  0.4078
   97TMC2    C7 1517   0.865   1.694   0.677 -0.5571  0.1253  0.6861
   97TMC2    C8 1518   0.774   1.602   1.145 -0.3714  0.7079  0.2243
   97TMC2    O1 1519   0.957   1.754   0.726 -0.3043 -0.3099  0.6506
   97TMC2    O2 1520   0.773   1.509   1.227  0.0499 -1.0203  0.0422
   97TMC2    O5 1521   0.809   1.729   1.174 -0.6174 -0.0087 -0.2712
   97TMC2    H5 1522   0.786   1.805   1.116 -2.3423  1.1364  1.9069
   98MPD2     C 1523   0.294   1.087   0.425  0.0344 -0.1423  0.0476
   98MPD2    C1 1524   0.289   1.060   0.565 -0.0280  0.0525 -0.2069
   98MPD2    C2 1525   0.349   1.147   0.652 -0.4882  0.8806 -0.1572
   98MPD2    C3 1526   0.424   1.257   0.604  0.1927  0.2781  0.3974
   98MPD2    C4 1527   0.427   1.274   0.468 -0.1438  0.4925 -0.4660
   98MPD2    C5 1528   0.363   1.197   0.381 -0.2328 -0.0339  0.2075
   98MPD2     H 1529   0.359   1.126   0.758 -1.0544  0.1038 -0.2590
   98MPD2    H1 1530   0.494   1.350   0.427  0.3423  0.8857  1.0712
   98MPD2    H2 1531   0.248   1.018   0.354 -1.7417 -1.1038  2.1420
   98MPD2    H3 1532   0.359   1.219   0.275 -2.0456  1.1771  0.5250
   98MPD2     N 1533   0.496   1.347   0.679 -0.6130 -0.1736  0.3840
   98MPD2    H5 1534   0.545   1.422   0.631  0.9629 -1.1703  0.4230
   98MPD2    N1 1535   0.226   0.944   0.618  0.0845  0.3827 -0.0221
   98MPD2    H7 1536   0.228   0.942   0.720  0.1397 -0.4354 -0.0401
   99TMC2    C1 1537   4.301   2.605   1.108 -0.2294 -0.2586  0.1652
   99TMC2    C2 1538   4.434   2.614   1.142  0.0675  0.8033 -0.1240
   99TMC2    C3 1539   4.497   2.511   1.205 -0.0981 -0.4669 -0.2451
   99TMC2    C4 1540   4.222   2.506   1.149  0.1410  0.1666  0.4676
   99TMC2    C5 1541   4.280   2.412   1.228  0.0800 -0.5409  0.5843
   99TMC2    C6 1542   4.416   2.411   1.257 -0.1174  0.6631  0.5155
   99TMC2     C 1543   4.245   2.720   1.043  1.1123 -0.1138 -0.1685
   99TMC2     O 1544   4.302   2.824   1.061  0.4605  0.3481 -0.3089
   99TMC2     H 1545   4.481   2.709   1.121  1.5986 -0.4855 -2.5307
   99TMC2    H1 1546   4.118   2.509   1.120 -0.1899  1.9499  1.8645
   99TMC2    H2 1547   4.441   2.338   1.334 -0.7926 -1.1956 -1.0240
   99TMC2    C7 1548   4.203   2.301   1.288 -0.2475  0.0538  0.1595
   99TMC2    C8 1549   4.634   2.518   1.244  0.1515  0.6800 -0.5451
   99TMC2    O1 1550   4.268   2.206   1.329 -0.0364 -0.3637  0.1948
   99TMC2    O2 1551   4.692   2.437   1.314 -0.0309  0.6150 -0.1992
   99TMC2    O5 1552   4.696   2.601   1.154  0.2645  0.4310 -0.4342
   99TMC2    H5 1553   4.642   2.645   1.084 -0.6260  1.1109  0.6666
  100MPD2     C 1554   4.033   2.897   0.967 -0.9354 -0.1844 -0.1965
  100MPD2    C1 1555   4.053   2.774   0.906  0.0858 -0.5718 -0.4967
  100MPD2    C2 1556   3.977   2.729   0.801 -0.2533  0.6396 -0.7772
  100MPD2    C3 1557   3.869   2.804   0.767 -0.0919 -0.7250 -0.5527
  100MPD2    C4 1558   3.841   2.922   0.832 -0.2045 -0.6533  0.1773
  100MPD2    C5 1559   3.927   2.973   0.926 -0.5084 -0.6645  0.8853
  100MPD2     H 1560   4.005   2.640   0.746 -2.0686 -1.3863  1.5622
  100MPD2    H1 1561   3.754   2.981   0.807 -0.4833 -1.3682 -0.5622
  100MPD2    H2 1562   4.106   2.929   1.041 -0.6579 -3.1806  0.8035
  100MPD2    H3 1563   3.909   3.068   0.974  0.8424 -0.8430  1.7309
  100MPD2     N 1564   3.783   2.746   0.673 -0.3345  0.3076  0.3872
  100MPD2    H5 1565   3.815   2.658   0.635 -0.1133  0.8060 -0.5951
  100MPD2    N1 1566   4.147   2.685   0.957 -0.0818  0.5030  0.0520
  100MPD2    H7 1567   4.150   2.590   0.923 -0.7321  0.6329 -0.3613
  101TMC2    C1 1568   4.477   4.624  12.501  0.0790  0.3813 -0.5056
  101TMC2    C2 1569   4.395   0.003  12.500 -0.6802 -0.0750 -0.3386
  101TMC2    C3 1570   4.418   0.094  12.397  0.1176  0.3934  0.7059
  101TMC2    C4 1571   4.575   4.602  12.410  0.3405  0.3820  0.1245
  101TMC2    C5 1572   4.588   4.695  12.305  0.1639  0.3635  0.3449
  101TMC2    C6 1573   4.508   0.070  12.293 -0.1355 -0.4073  0.4249
  101TMC2     C 1574   4.443   4.526  12.596  0.3345 -0.4484  0.2959
  101TMC2     O 1575   4.333   4.540  12.645  0.6800 -0.1569  0.0812
  101TMC2     H 1576   4.319   0.030  12.572  0.0272  2.6794 -0.6263
  101TMC2    H1 1577   4.639   4.515  12.419 -1.3213 -0.7329  0.9885
  101TMC2    H2 1578   4.522   0.150  12.221 -0.9815  0.2876  1.0265
  101TMC2    C7 1579   4.696   4.684  12.209  0.4469  0.1373 -0.3755
  101TMC2    C8 1580   4.332   0.218  12.404  0.0983  0.9203 -0.3115
  101TMC2    O1 1581   0.058   4.616  12.233  0.2489 -0.2468 -0.0537
  101TMC2    O2 1582   4.225   0.231  12.457 -0.5467  0.2943  0.0492
  101TMC2    O5 1583   4.416   0.317  12.374  0.8279  0.1837 -0.3895
  101TMC2    H5 1584   4.508   0.286  12.364  1.0042  0.4405  0.4250
  102MPD2     C 1585   4.651   4.256  12.739  0.2192  0.6756  0.0999
  102MPD2    C1 1586   4.534   4.335  12.725  1.1207  0.0824 -0.9271
  102MPD2    C2 1587   4.424   4.306  12.797 -0.1433 -0.5352 -0.2265
  102MPD2    C3 1588   4.426   4.193  12.883  0.0009  0.0530  0.0739
  102MPD2    C4 1589   4.537   4.108  12.883  0.1451 -0.7356 -0.4505
  102MPD2    C5 1590   4.653   4.150  12.825  0.4805 -0.1561 -0.0300
  102MPD2     H 1591   4.338   4.370  12.800 -1.9025 -2.9820  1.1324
  102MPD2    H1 1592   4.545   4.025  12.952 -2.9619 -1.9689 -1.5795
  102MPD2    H2 1593   0.010   4.279  12.690  0.5607  0.5735  0.7067
  102MPD2    H3 1594   0.009   4.093  12.840  0.1234 -0.6662  0.2095
  102MPD2     N 1595   4.309   4.170  12.952  0.0027 -0.1757 -0.2231
  102MPD2    H5 1596   4.229   4.231  12.934  0.3865  0.5534  0.5967
  102MPD2    N1 1597   4.542   4.440  12.630 -0.2976  0.4164 -0.0680
  102MPD2    H7 1598   4.626   4.452  12.574  0.6893  0.2218  1.3753
  103TMC2    C1 1599   3.551   4.445  12.070 -0.1205 -0.0057 -0.2768
  103TMC2    C2 1600   3.680   4.420  12.052 -1.0158 -0.1224  0.1221
  103TMC2    C3 1601   3.762   4.472  12.152  0.1683  0.3779  0.2870
  103TMC2    C4 1602   3.509   4.507  12.186 -0.1781  0.0914  0.3264
  103TMC2    C5 1603   3.593   4.533  12.290  0.0096  0.1495 -0.0966
  103TMC2    C6 1604   3.728   4.521  12.268  0.5701 -0.6158 -0.3075
  103TMC2     C 1605   3.457   4.347  12.015  0.2942  0.3833 -0.5201
  103TMC2     O 1606   3.340   4.367  12.044  0.4587  0.0730  0.2855
  103TMC2     H 1607   3.720   4.374  11.962  0.3655 -0.2914  0.8303
  103TMC2    H1 1608   3.403   4.525  12.201 -0.0312  2.1607 -1.2281
  103TMC2    H2 1609   3.803   4.537  12.345  0.2169  2.3925 -0.5962
  103TMC2    C7 1610   3.536   4.605  12.400  0.6607 -0.3982 -0.2048
  103TMC2    C8 1611   3.899   4.424  12.165 -0.1587 -0.7538  0.0385
  103TMC2    O1 1612   3.417   4.586  12.419  0.1822 -0.0650  0.7533
  103TMC2    O2 1613   3.932   4.353  12.259 -0.0977 -0.1670  0.4912
  103TMC2    O5 1614   3.939   4.398  12.043 -0.4102  0.5159  0.0758
  103TMC2    H5 1615   3.909   4.472  11.985  1.8818  0.8335 -0.7115
  104MPD2     C 1616   3.513   4.003  11.898  0.1454 -0.5011 -0.7420
  104MPD2    C1 1617   3.441   4.114  11.929  0.5673  0.9993  0.4707
  104MPD2    C2 1618   3.308   4.108  11.920 -0.6384 -0.0095  0.2057
  104MPD2    C3 1619   3.255   3.989  11.884  0.2802 -0.4127 -0.0263
  104MPD2    C4 1620   3.321   3.878  11.858  0.2326 -1.0357  0.1853
  104MPD2    C5 1621   3.452   3.886  11.862 -0.0077 -1.1254 -0.0686
  104MPD2     H 1622   3.247   4.197  11.923 -0.4142  0.2299 -2.9885
  104MPD2    H1 1623   3.286   3.786  11.812  0.3925 -1.2114  0.4187
  104MPD2    H2 1624   3.621   4.002  11.891  0.2176  2.3714 -0.3557
  104MPD2    H3 1625   3.511   3.800  11.831 -0.4205 -1.3740 -0.1579
  104MPD2     N 1626   3.109   3.995  11.891  0.0691 -0.4642  0.1037
  104MPD2    H5 1627   3.063   4.085  11.896  0.7048  0.0433 -3.3948
  104MPD2    N1 1628   3.514   4.236  11.950  0.0226  0.5801 -0.5061
  104MPD2    H7 1629   3.615   4.234  11.944  0.0569  1.5854 -0.3440
  105TMC2    C1 1630   4.127   2.944  17.704  0.5200  0.1599 -0.1213
  105TMC2    C2 1631   4.038   2.848   0.006 -0.3179  0.0138  0.5991
  105TMC2    C3 1632   3.924   2.885   0.063 -0.4078 -0.1152  0.2024
  105TMC2    C4 1633   4.105   3.075  17.733  1.2954 -0.2121 -0.0348
  105TMC2    C5 1634   3.988   3.107   0.043 -0.3028  0.1243  0.0478
  105TMC2    C6 1635   3.889   3.019   0.078 -0.0967 -0.0786  0.2950
  105TMC2     C 1636   4.250   2.889  17.652  0.6045 -0.5060 -0.4467
  105TMC2     O 1637   4.273   2.771  17.665 -0.3259  0.0053  0.2645
  105TMC2     H 1638   4.047   2.743  17.720 -0.7968  0.1316 -0.0600
  105TMC2    H1 1639   4.177   3.150  17.702  1.3420 -0.3081 -0.1577
  105TMC2    H2 1640   3.786   3.045   0.098 -1.1801 -3.1673 -1.2175
  105TMC2    C7 1641   3.951   3.247   0.052 -0.4108 -1.3910  0.2825
  105TMC2    C8 1642   3.831   2.784   0.106  0.2512 -0.2268  1.0459
  105TMC2    O1 1643   4.012   3.325  17.716 -0.4839 -0.4122  0.3319
  105TMC2    O2 1644   3.844   2.669   0.056 -0.1803  0.5177 -0.5911
  105TMC2    O5 1645   3.784   2.810   0.231 -0.2434  0.5170  0.6886
  105TMC2    H5 1646   3.781   2.907   0.250  2.2483  0.1250  3.2571
  106MPD2     C 1647   4.619   2.914  17.294 -0.1343  0.1457  0.2440
  106MPD2    C1 1648   4.574   3.048  17.318  0.2171  0.6316 -0.0605
  106MPD2    C2 1649   4.485   3.067  17.420  0.2312  0.3273 -0.0144
  106MPD2    C3 1650   4.438   2.956  17.490  0.0625 -0.3427 -0.3115
  106MPD2    C4 1651   4.484   2.828  17.463  0.7440 -0.5686 -0.4272
  106MPD2    C5 1652   4.577   2.814  17.363  0.1068 -0.4837  0.4719
  106MPD2     H 1653   4.447   3.165  17.444 -0.9750 -0.5736  1.7209
  106MPD2    H1 1654   4.442   2.737  17.505  3.4229 -1.9852 -0.8121
  106MPD2    H2 1655   4.687   2.898  17.210 -1.6940  0.2361 -1.0378
  106MPD2    H3 1656   4.627   2.718  17.358  1.5209  0.2745  0.1545
  106MPD2     N 1657   4.327   2.981  17.576  0.0738 -0.3557  0.3218
  106MPD2    H5 1658   4.301   3.077  17.598 -2.4012 -0.8917 -0.2561
  106MPD2    N1 1659   4.627   3.152  17.236 -0.0335  0.3260  0.5314
  106MPD2    H7 1660   4.684   3.128  17.156 -0.4982  1.5678 -0.1725
  107TMC2    C1 1661   0.152   3.466  11.395  0.3140 -0.4840  1.0057
  107TMC2    C2 1662   0.154   3.600  11.367  0.2327 -0.2310  0.0853
  107TMC2    C3 1663   0.222   3.641  11.256  0.6497  0.7644  0.5172
  107TMC2    C4 1664   0.210   3.370  11.318 -0.6676 -0.5816 -0.0933
  107TMC2    C5 1665   0.283   3.421  11.211  0.1827  0.3674 -0.5897
  107TMC2    C6 1666   0.293   3.556  11.175 -0.1302  0.2821 -0.4595
  107TMC2     C 1667   0.080   3.426  11.520  0.6026  0.1262  0.1229
  107TMC2     O 1668   0.001   3.505  11.572 -0.0267  0.2028 -0.3823
  107TMC2     H 1669   0.123   3.670  11.443  1.5529 -0.8377  1.1796
  107TMC2    H1 1670   0.195   3.265  11.342  0.6272 -0.0618  2.8862
  107TMC2    H2 1671   0.337   3.580  11.079 -0.2033  1.0079 -0.3159
  107TMC2    C7 1672   0.376   3.336  11.145  0.3323  0.5920  0.0212
  107TMC2    C8 1673   0.209   3.780  11.220 -0.1707  0.0843 -0.4328
  107TMC2    O1 1674   0.421   3.378  11.040  0.1361  0.4506  0.0654
  107TMC2    O2 1675   0.131   3.853  11.279  0.2838  0.7469 -0.0339
  107TMC2    O5 1676   0.336   3.825  11.184  0.0019 -0.4604  0.3057
  107TMC2    H5 1677   0.398   3.749  11.174  2.0047  1.3230 -0.8860
  108MPD2     C 1678   0.178   3.168  11.756 -0.4062 -0.5992  0.7627
  108MPD2    C1 1679   0.101   3.273  11.713  0.7355  0.9104  0.2492
  108MPD2    C2 1680   4.722   3.321  11.784  0.0858 -0.7620 -1.0552
  108MPD2    C3 1681   4.701   3.275  11.914 -0.8631  0.3760  0.0479
  108MPD2    C4 1682   0.047   3.172  11.963 -0.3850  0.4158  0.0523
  108MPD2    C5 1683   0.148   3.119  11.878 -0.2184  0.6711  0.5568
  108MPD2     H 1684   4.654   3.393  11.741 -0.9989 -1.4334 -0.4787
  108MPD2    H1 1685   0.051   3.145  12.068 -0.6419  1.7297  0.4062
  108MPD2    H2 1686   0.262   3.135  11.697 -2.1240 -3.6344  0.0235
  108MPD2    H3 1687   0.214   3.051  11.931  0.3709  0.0771 -0.9510
  108MPD2     N 1688   4.608   3.330  12.004 -0.0363 -0.0464 -0.0399
  108MPD2    H5 1689   4.610   3.281  12.093  2.4567  0.6766  0.3034
  108MPD2    N1 1690   0.136   3.317  11.578  0.6855  0.7003  0.0001
  108MPD2    H7 1691   0.212   3.270  11.530 -0.8054 -0.9746 -0.6920
  109TMC2    C1 1692   4.658   4.297   0.211  0.4419 -0.5285 -0.2841
  109TMC2    C2 1693   4.670   4.306   0.073 -0.7729 -1.3939 -0.5631
  109TMC2    C3 1694   4.663   4.434   0.020  0.0619 -0.0128 -0.9370
  109TMC2    C4 1695   4.637   4.418   0.285 -0.3666 -0.1119 -0.0746
  109TMC2    C5 1696   4.637   4.541   0.229  0.0404 -0.8968  0.1864
  109TMC2    C6 1697   4.655   4.555   0.093  0.0240 -0.8116 -0.5392
  109TMC2     C 1698   4.640   4.164   0.257  0.4295 -0.9573  0.1106
  109TMC2     O 1699   4.657   4.070   0.182  0.3953  0.0786 -0.0270
  109TMC2     H 1700   4.665   4.218   0.010  0.4151 -2.2575  0.5486
  109TMC2    H1 1701   4.616   4.418   0.391  0.0201  1.0806  0.0011
  109TMC2    H2 1702   4.654   4.647   0.035  2.6001 -1.5583 -1.7329
  109TMC2    C7 1703   4.636   4.664   0.301  1.1668 -0.3631  0.4397
  109TMC2    C8 1704   4.663   4.446  17.618  0.9836  0.3594  0.2530
  109TMC2    O1 1705   4.660   4.658   0.420 -0.1269 -0.0747 -0.5491
  109TMC2    O2 1706   4.717   4.366  17.547 -0.3496  0.1548 -0.5953
  109TMC2    O5 1707   4.555   4.513  17.582  0.1164 -0.3186 -0.0285
  109TMC2    H5 1708   4.507   4.542  17.663  0.1439 -0.8108  0.1672
  110MPD2     C 1709   4.539   3.839   0.637 -0.2304 -0.3952 -0.0769
  110MPD2    C1 1710   4.555   3.967   0.692  0.1802  0.6927  0.5334
  110MPD2    C2 1711   4.554   4.070   0.599 -0.0360 -0.0693  0.6761
  110MPD2    C3 1712   4.572   4.050   0.462 -0.1838  0.1866 -0.3330
  110MPD2    C4 1713   4.563   3.921   0.413  0.2176 -0.2200 -0.1733
  110MPD2    C5 1714   4.547   3.816   0.502  0.4040 -0.3073 -0.0769
  110MPD2     H 1715   4.565   4.172   0.635 -1.3408 -0.3444  1.8618
  110MPD2    H1 1716   4.554   3.902   0.307 -2.5137  1.4057 -0.2238
  110MPD2    H2 1717   4.524   3.755   0.704  2.1351 -0.8460 -0.0958
  110MPD2    H3 1718   4.539   3.716   0.461 -1.9547 -0.3305  0.4743
  110MPD2     N 1719   4.599   4.161   0.390  0.7233  0.4593  0.0355
  110MPD2    H5 1720   4.609   4.246   0.446 -1.2273  0.9030 -0.2712
  110MPD2    N1 1721   4.552   3.989   0.830 -0.0836 -0.4871  0.2655
  110MPD2    H7 1722   4.551   3.906   0.888  0.5449  0.5110  1.7033
  111TMC2    C1 1723   0.703   0.928  11.545  0.5959 -0.5659  0.4486
  111TMC2    C2 1724   0.798   0.937  11.450  0.2401  0.6127  0.1566
  111TMC2    C3 1725   0.932   0.915  11.489 -0.7993 -0.5786 -0.4265
  111TMC2    C4 1726   0.730   0.907  11.673  0.0703  0.2959  0.2618
  111TMC2    C5 1727   0.857   0.866  11.711  0.7772 -0.6334 -0.1430
  111TMC2    C6 1728   0.958   0.872  11.616 -0.0767  0.2706 -0.5825
  111TMC2     C 1729   0.564   0.900  11.495 -0.0582 -0.5398  0.4977
  111TMC2     O 1730   0.547   0.860  11.382  0.4089  0.0004  0.1734
  111TMC2     H 1731   0.773   0.953  11.346 -0.2644 -1.2128  0.0039
  111TMC2    H1 1732   0.650   0.887  11.743  0.5788  0.3876  0.8707
  111TMC2    H2 1733   1.060   0.844  11.639  0.0601  0.9589 -0.3453
  111TMC2    C7 1734   0.860   0.752  11.807  0.5388  0.3985 -0.1449
  111TMC2    C8 1735   1.038   0.917  11.393 -0.2656 -0.1879  0.2057
  111TMC2    O1 1736   0.750   0.690  11.810 -0.2057  0.6038 -0.0633
  111TMC2    O2 1737   1.028   0.913  11.272  0.6164 -0.4024  0.4322
  111TMC2    O5 1738   1.134   0.990  11.455 -0.1252  0.2133  0.6656
  111TMC2    H5 1739   1.112   1.031  11.541 -3.0251  1.2464 -0.5839
  112MPD2     C 1740   0.076   0.823  11.602 -0.3808 -0.2081 -0.4065
  112MPD2    C1 1741   0.143   0.817  11.481 -0.0884  0.1392  0.3708
  112MPD2    C2 1742   0.274   0.848  11.466  0.0261  0.2270  0.1612
  112MPD2    C3 1743   0.338   0.893  11.583  0.3338 -0.3975  0.4071
  112MPD2    C4 1744   0.269   0.898  11.702  0.3586 -0.1265  0.0299
  112MPD2    C5 1745   0.141   0.861  11.711 -0.5924 -0.1552  0.0318
  112MPD2     H 1746   0.319   0.832  11.368 -0.4617  1.5673 -0.2917
  112MPD2    H1 1747   0.330   0.930  11.786  1.4455 -2.1716  0.0095
  112MPD2    H2 1748   4.710   0.784  11.607 -1.6597  3.1131  0.0141
  112MPD2    H3 1749   0.099   0.838  11.808  0.5601  0.1427  0.6046
  112MPD2     N 1750   0.475   0.927  11.591 -0.3796 -0.2903  0.0538
  112MPD2    H5 1751   0.511   0.967  11.677  0.0997  2.2319 -1.2948
  112MPD2    N1 1752   0.078   0.761  11.364 -0.1111 -0.6442 -0.0779
  112MPD2    H7 1753   0.130   0.774  11.278  2.2123 -3.2232  0.9554
  113TMC2    C1 1754   2.994   2.631   0.367 -0.0610  0.1536 -0.0815
  113TMC2    C2 1755   2.940   2.756   0.363  0.3865 -0.0428 -0.5255
  113TMC2    C3 1756   2.871   2.790   0.249 -0.4946 -0.0933 -0.1471
  113TMC2    C4 1757   2.958   2.533   0.276 -0.5663  0.0810 -1.3666
  113TMC2    C5 1758   2.883   2.569   0.166  0.1600 -0.2310 -0.2325
  113TMC2    C6 1759   2.844   2.694   0.146 -0.5427  0.2163  0.1915
  113TMC2     C 1760   3.090   2.607   0.467  0.0506  0.5888 -0.1017
  113TMC2     O 1761   3.129   2.705   0.527  0.0570  0.0303  0.1751
  113TMC2     H 1762   2.967   2.833   0.435  0.3018 -0.3676 -0.1471
  113TMC2    H1 1763   2.990   2.430   0.271  2.6848  1.0733 -1.1186
  113TMC2    H2 1764   2.774   2.718   0.067 -0.9939  1.3388  0.9256
  113TMC2    C7 1765   2.804   2.466   0.096 -0.0620 -0.3912  0.2917
  113TMC2    C8 1766   2.842   2.929   0.229 -0.0037  0.7288  0.4581
  113TMC2    O1 1767   2.745   2.498  17.733  0.1436 -0.0796  0.3924
  113TMC2    O2 1768   2.835   3.011   0.317  0.0225 -0.6203 -0.1960
  113TMC2    O5 1769   2.883   2.956   0.103  0.0044 -0.1009  0.5910
  113TMC2    H5 1770   2.938   2.888   0.059 -0.9930 -1.2468  1.1130
  114MPD2     C 1771   3.436   2.333   0.724 -0.4282 -0.8687  0.4442
  114MPD2    C1 1772   3.415   2.465   0.722  0.7442 -0.2744  0.2943
  114MPD2    C2 1773   3.317   2.512   0.639 -0.5568 -0.1391  0.1347
  114MPD2    C3 1774   3.234   2.431   0.563 -0.2008  0.0843  0.1427
  114MPD2    C4 1775   3.261   2.294   0.565 -0.0918  0.0859 -0.1068
  114MPD2    C5 1776   3.351   2.250   0.655 -0.3044 -0.4420 -0.2076
  114MPD2     H 1777   3.315   2.620   0.629  0.6110 -0.2495 -1.2959
  114MPD2    H1 1778   3.200   2.223   0.511  0.5575  0.3312 -1.1653
  114MPD2    H2 1779   3.510   2.278   0.781 -0.3375 -1.5403 -0.3381
  114MPD2    H3 1780   3.358   2.142   0.657  0.7352 -0.4304 -2.5530
  114MPD2     N 1781   3.126   2.476   0.484 -0.2385 -0.0400 -0.5767
  114MPD2    H5 1782   3.058   2.409   0.449 -1.0207  0.3044  0.2972
  114MPD2    N1 1783   3.485   2.560   0.799 -0.3441 -0.0321  0.2313
  114MPD2    H7 1784   3.470   2.658   0.776 -1.3462 -0.6973 -1.9449
  115TMC2    C1 1785   3.892   0.480  17.283 -0.0370  0.7299 -0.0327
  115TMC2    C2 1786   3.976   0.396  17.345 -0.6622  0.7763 -0.2907
  115TMC2    C3 1787   4.053   0.446  17.440  0.0267  0.1577  1.2976
  115TMC2    C4 1788   3.895   0.621  17.293  0.1292  0.1307 -0.8365
  115TMC2    C5 1789   3.984   0.664  17.387  0.6312  0.6077 -0.8106
  115TMC2    C6 1790   4.055   0.579  17.464  0.0892  0.6397  0.0715
  115TMC2     C 1791   3.770   0.422  17.242 -0.3335 -0.2031 -0.2983
  115TMC2     O 1792   3.767   0.300  17.224  0.5247 -0.1354 -0.5429
  115TMC2     H 1793   3.970   0.291  17.321  2.4316  0.3745  0.7741
  115TMC2    H1 1794   3.832   0.691  17.239 -2.7628 -2.3568 -0.7057
  115TMC2    H2 1795   4.116   0.622  17.543 -2.9601  2.3064  1.5448
  115TMC2    C7 1796   3.994   0.805  17.414  0.7279  0.1660 -0.0244
  115TMC2    C8 1797   4.121   0.361  17.533 -0.1966  0.9579 -0.0323
  115TMC2    O1 1798   3.998   0.834  17.532  0.5178 -0.1597 -0.3647
  115TMC2    O2 1799   4.204   0.400  17.611  0.0801  0.4118  0.1294
  115TMC2    O5 1800   4.042   0.262  17.570 -0.5355 -0.2265  0.2386
  115TMC2    H5 1801   3.950   0.268  17.536  0.5028 -0.3243 -2.6330
  116MPD2     C 1802   3.279   0.441  17.355  0.2523  0.1381 -0.1399
  116MPD2    C1 1803   3.369   0.342  17.361 -0.1387  0.2749  0.0850
  116MPD2    C2 1804   3.491   0.355  17.310  0.0552 -0.2215 -0.0808
  116MPD2    C3 1805   3.536   0.486  17.273 -0.4586 -0.1064 -0.4302
  116MPD2    C4 1806   3.437   0.587  17.262 -0.4286 -0.1190 -0.8361
  116MPD2    C5 1807   3.310   0.563  17.304  0.0712 -0.8773  0.0343
  116MPD2     H 1808   3.553   0.269  17.288  1.0397  0.8878 -1.6402
  116MPD2    H1 1809   3.457   0.689  17.229  0.1227  0.5028  1.4448
  116MPD2    H2 1810   3.180   0.421  17.394  1.5130 -1.0685  2.4491
  116MPD2    H3 1811   3.237   0.642  17.299  1.2237  0.1660 -0.3250
  116MPD2     N 1812   3.673   0.518  17.254  0.3728 -0.1501  0.5506
  116MPD2    H5 1813   3.688   0.619  17.258 -0.5200 -0.0409  1.2119
  116MPD2    N1 1814   3.318   0.216  17.391 -0.3943 -0.4663  0.2125
  116MPD2    H7 1815   3.221   0.205  17.418 -1.0071  2.9857 -0.6348
  117TMC2    C1 1816   2.103   2.391  14.441  0.4144  0.2992 -0.0649
  117TMC2    C2 1817   2.174   2.352  14.552  0.4041 -0.5912  0.2439
  117TMC2    C3 1818   2.265   2.438  14.609  0.5230  0.1491 -0.4653
  117TMC2    C4 1819   2.148   2.502  14.378  0.3902  0.7282  0.3752
  117TMC2    C5 1820   2.242   2.585  14.433  0.7332 -0.0767 -0.6761
  117TMC2    C6 1821   2.306   2.551  14.549 -0.4610  0.1980 -0.4427
  117TMC2     C 1822   2.007   2.301  14.390  0.0400 -0.1870  0.7788
  117TMC2     O 1823   2.013   2.185  14.433  0.4078 -0.6997  0.7206
  117TMC2     H 1824   2.153   2.259  14.604  0.7884 -0.9040 -0.1569
  117TMC2    H1 1825   2.119   2.524  14.276  0.8176  1.2922  0.3759
  117TMC2    H2 1826   2.357   2.630  14.603 -1.6413  0.1128  0.8041
  117TMC2    C7 1827   2.253   2.727  14.392 -0.2381 -0.1135 -0.3564
  117TMC2    C8 1828   2.226   2.461  14.745 -0.5498 -0.5485 -0.0755
  117TMC2    O1 1829   2.361   2.777  14.429 -0.5582 -0.0065 -0.2385
  117TMC2    O2 1830   2.131   2.408  14.806  0.0021  0.6469  0.7151
  117TMC2    O5 1831   2.349   2.442  14.790  0.3404 -0.6202 -1.0775
  117TMC2    H5 1832   2.419   2.453  14.722 -0.1556 -3.7360 -2.1032
  118MPD2     C 1833   1.983   2.962  14.319 -0.3320 -0.3846 -0.1215
  118MPD2    C1 1834   2.112   2.923  14.329 -0.3444 -0.1233 -0.1051
  118MPD2    C2 1835   2.209   3.016  14.335 -0.2984  0.2760  0.6853
  118MPD2    C3 1836   2.175   3.151  14.330 -1.1107 -0.5265  0.2047
  118MPD2    C4 1837   2.043   3.188  14.330  0.2679 -0.1398 -0.4222
  118MPD2    C5 1838   1.946   3.092  14.329  0.7187  0.1414 -0.4201
  118MPD2     H 1839   2.312   2.984  14.326  0.0908  2.3464 -2.0166
  118MPD2    H1 1840   2.005   3.290  14.336  0.6679  0.1378 -2.4133
  118MPD2    H2 1841   1.899   2.894  14.306  0.5202 -1.3736 -0.5318
  118MPD2    H3 1842   1.843   3.118  14.305  0.7579 -2.5848 -3.5606
  118MPD2     N 1843   2.274   3.249  14.323 -0.3834  0.6131 -0.1910
  118MPD2    H5 1844   2.237   3.342  14.334 -2.3670 -0.0111 -1.6570
  118MPD2    N1 1845   2.137   2.782  14.345  0.0136  0.5487 -0.3769
  118MPD2    H7 1846   2.056   2.722  14.337 -1.3519  2.3118  0.2289
  119TMC2    C1 1847   0.141   3.423  13.023  0.1393  0.5051  0.1640
  119TMC2    C2 1848   0.156   3.488  12.905 -0.4310 -0.9351 -0.4477
  119TMC2    C3 1849   0.047   3.483  12.816  0.0200  0.6679  0.4709
  119TMC2    C4 1850   0.014   3.372  13.055 -0.1278 -1.1254 -0.1561
  119TMC2    C5 1851   4.643   3.402  12.972 -0.6042  0.5111  0.3566
  119TMC2    C6 1852   4.653   3.451  12.848  0.0731 -1.2938  0.2066
  119TMC2     C 1853   0.230   3.450  13.132  0.9694 -0.0013  0.1014
  119TMC2     O 1854   0.183   3.425  13.242  1.0148 -0.7093  0.2127
  119TMC2     H 1855   0.243   3.538  12.864  0.3978 -2.2836 -0.2945
  119TMC2    H1 1856   0.004   3.340  13.158  1.0108 -1.1685 -0.0641
  119TMC2    H2 1857   4.567   3.472  12.786 -2.1269  3.1262  4.7718
  119TMC2    C7 1858   4.509   3.380  13.024 -0.0988 -0.2472  0.3574
  119TMC2    C8 1859   0.069   3.543  12.688 -0.5373  0.0291  0.4823
  119TMC2    O1 1860   4.415   3.414  12.953 -0.4993  0.3486 -0.0868
  119TMC2    O2 1861   0.161   3.499  12.616 -0.4638  0.7534  0.1224
  119TMC2    O5 1862   0.036   3.676  12.704 -0.0852  0.2274 -0.5983
  119TMC2    H5 1863   4.716   3.680  12.785  0.0467  0.3221 -0.5142
  120MPD2     C 1864   0.646   3.638  13.352 -0.3347 -0.3781  0.5899
  120MPD2    C1 1865   0.514   3.637  13.391 -0.0675 -0.1356 -0.4124
  120MPD2    C2 1866   0.418   3.572  13.317  0.0723  0.2377  0.0730
  120MPD2    C3 1867   0.453   3.535  13.190  0.8693 -0.1593 -0.2252
  120MPD2    C4 1868   0.576   3.544  13.138  0.2547 -0.0495 -0.1022
  120MPD2    C5 1869   0.673   3.591  13.226  1.2921 -0.4014  0.7172
  120MPD2     H 1870   0.316   3.564  13.352 -0.0308 -1.1541 -0.5628
  120MPD2    H1 1871   0.595   3.520  13.034 -0.0088  0.2046 -0.2093
  120MPD2    H2 1872   0.725   3.673  13.418 -1.6238 -0.5743  2.2363
  120MPD2    H3 1873   0.778   3.581  13.198  0.9684  1.1838 -1.0828
  120MPD2     N 1874   0.361   3.489  13.091 -0.0451  0.5907 -0.3463
  120MPD2    H5 1875   0.404   3.464  13.002  1.3790  3.3171 -0.4313
  120MPD2    N1 1876   0.479   3.677  13.523 -0.1414  0.2767 -0.3934
  120MPD2    H7 1877   0.553   3.670  13.592  0.3568  0.0639 -0.9519
  121TMC2    C1 1878   1.768   0.680  14.436 -0.4291 -0.3163 -0.1947
  121TMC2    C2 1879   1.906   0.690  14.444  0.6862 -0.0385  1.0560
  121TMC2    C3 1880   1.956   0.608  14.541 -0.1624  0.4000 -0.4709
  121TMC2    C4 1881   1.693   0.592  14.512  0.3625  0.2310  0.0528
  121TMC2    C5 1882   1.748   0.494  14.585  0.3435 -0.1628  0.1551
  121TMC2    C6 1883   1.885   0.507  14.604  0.6247 -0.4377  0.0895
  121TMC2     C 1884   1.690   0.745  14.327  0.4033  0.2414 -0.0902
  121TMC2     O 1885   1.568   0.748  14.345 -0.1099 -0.3185  0.1242
  121TMC2     H 1886   1.962   0.771  14.397 -1.8321  1.0565 -0.0180
  121TMC2    H1 1887   1.586   0.607  14.511  0.2901  0.0075  3.5558
  121TMC2    H2 1888   1.943   0.432  14.655  0.9583  0.8689  1.6403
  121TMC2    C7 1889   1.669   0.381  14.630  0.2950 -0.2243 -0.5608
  121TMC2    C8 1890   2.097   0.624  14.571 -0.1251 -0.1307 -0.0968
  121TMC2    O1 1891   1.737   0.291  14.676  0.1381 -0.3914 -0.9929
  121TMC2    O2 1892   2.162   0.688  14.492  0.0394  0.4226  0.3284
  121TMC2    O5 1893   2.131   0.584  14.695  0.0818 -0.1889  0.1660
  121TMC2    H5 1894   2.058   0.565  14.758  0.6426 -1.4803  0.4394
  122MPD2     C 1895   1.606   0.850  14.060  0.3546  0.4120  0.3028
  122MPD2    C1 1896   1.731   0.827  14.099  0.2818 -0.5601  0.4993
  122MPD2    C2 1897   1.832   0.842  14.004  0.2004 -0.6394 -0.3199
  122MPD2    C3 1898   1.807   0.905  13.885  0.5762  0.2002  0.3507
  122MPD2    C4 1899   1.666   0.910  13.846  0.6563  0.0156  0.0043
  122MPD2    C5 1900   1.574   0.884  13.938  0.6865  0.2180 -0.7165
  122MPD2     H 1901   1.932   0.810  14.032 -0.3323 -0.3734  1.8570
  122MPD2    H1 1902   1.620   0.952  13.756 -0.3860 -1.1692 -0.0194
  122MPD2    H2 1903   1.520   0.812  14.114  0.8449  0.7793  1.3252
  122MPD2    H3 1904   1.473   0.903  13.905  0.6054  1.3974  0.1828
  122MPD2     N 1905   1.904   0.940  13.791  0.0330  0.4581 -1.0038
  122MPD2    H5 1906   1.868   0.956  13.698 -1.1113  0.5147 -0.5543
  122MPD2    N1 1907   1.773   0.782  14.224  0.4481 -0.3838 -0.3981
  122MPD2    H7 1908   1.870   0.753  14.236  0.8660  1.6684  1.3216
  123TMC2    C1 1909   0.949   3.594  10.058 -0.3841 -0.4152 -0.0562
  123TMC2    C2 1910   1.055   3.630   9.976  0.1911  0.0495  0.1917
  123TMC2    C3 1911   1.033   3.700   9.861 -0.0876 -0.1241 -1.0192
  123TMC2    C4 1912   0.819   3.642  10.033  0.4364  0.2942  0.2720
  123TMC2    C5 1913   0.797   3.719   9.918  0.1811  0.5247  0.1328
  123TMC2    C6 1914   0.905   3.749   9.836  0.9302  0.3234  0.4118
  123TMC2     C 1915   0.954   3.455  10.113  0.3328 -1.0147  0.4298
  123TMC2     O 1916   1.055   3.424  10.175  0.4110  0.0211 -0.4409
  123TMC2     H 1917   1.154   3.600  10.011 -0.7076 -4.2928 -0.9654
  123TMC2    H1 1918   0.732   3.618  10.093  0.4378 -0.1985  0.0788
  123TMC2    H2 1919   0.888   3.817   9.754  1.3415  0.0528  0.1053
  123TMC2    C7 1920   0.658   3.707   9.864  0.4014 -0.2186 -0.2650
  123TMC2    C8 1921   1.142   3.781   9.803 -1.2450 -0.7410 -0.4364
  123TMC2    O1 1922   0.576   3.642   9.924  0.0792 -0.7912 -0.0200
  123TMC2    O2 1923   1.252   3.798   9.850 -0.3035  0.4574 -0.5683
  123TMC2    O5 1924   1.121   3.769   9.673 -0.2557 -0.3157  0.1703
  123TMC2    H5 1925   1.042   3.716   9.652 -0.4740 -0.5288  1.5380
  124MPD2     C 1926   0.700   3.051  10.267  0.2631 -0.9329  0.1537
  124MPD2    C1 1927   0.617   3.121  10.174  0.3577  1.0328  0.3035
  124MPD2    C2 1928   0.664   3.244  10.121 -0.8748  0.0585 -0.0009
  124MPD2    C3 1929   0.794   3.275  10.139  0.2623  0.5010  0.3137
  124MPD2    C4 1930   0.880   3.196  10.223 -0.2558 -0.5419  0.2149
  124MPD2    C5 1931   0.827   3.089  10.294 -0.4168  0.0597  0.7043
  124MPD2     H 1932   0.604   3.318  10.070 -0.8965 -0.2661 -0.4336
  124MPD2    H1 1933   0.987   3.212  10.234 -0.2730  0.1229 -0.6038
  124MPD2    H2 1934   0.661   2.965  10.321  2.5518 -0.6991  2.1972
  124MPD2    H3 1935   0.882   3.035  10.371  1.1145 -1.1140 -1.2184
  124MPD2     N 1936   0.840   3.395  10.079  0.6140  0.1617  1.1957
  124MPD2    H5 1937   0.772   3.454  10.032  1.9320  0.5936 -0.1655
  124MPD2    N1 1938   0.480   3.079  10.161  0.0904  0.2093  0.3284
  124MPD2    H7 1939   0.438   3.015  10.227 -0.8346  1.0188  0.5121
  125TMC2    C1 1940   1.805   1.644   7.946 -0.4020 -0.2376 -0.2819
  125TMC2    C2 1941   1.921   1.626   7.877  0.0414  0.8174 -0.3952
  125TMC2    C3 1942   2.026   1.555   7.935 -0.4251  0.8593 -0.1038
  125TMC2    C4 1943   1.792   1.597   8.075 -0.1365  0.1230  0.4389
  125TMC2    C5 1944   1.903   1.524   8.132  0.5557 -0.4827  0.5491
  125TMC2    C6 1945   2.016   1.496   8.059 -0.1112 -0.5305  0.2108
  125TMC2     C 1946   1.701   1.734   7.891 -0.4959 -0.2151  0.5424
  125TMC2     O 1947   1.595   1.738   7.955  0.0536  0.0078 -0.4297
  125TMC2     H 1948   1.936   1.656   7.774  0.2204 -2.1953 -1.2601
  125TMC2    H1 1949   1.706   1.614   8.137 -0.6515  1.8091 -0.7305
  125TMC2    H2 1950   2.098   1.456   8.118  0.3502  2.3049  1.4907
  125TMC2    C7 1951   1.884   1.481   8.270  0.4092  0.4089  0.1579
  125TMC2    C8 1952   2.153   1.550   7.868 -0.2974  0.0135  0.0498
  125TMC2    O1 1953   1.788   1.517   8.336 -0.1491 -0.1232 -0.4644
  125TMC2    O2 1954   2.236   1.461   7.892  0.0164  0.2069 -0.3093
  125TMC2    O5 1955   2.174   1.658   7.787 -0.0452 -0.8900  0.0949
  125TMC2    H5 1956   2.098   1.720   7.794  1.3144  0.5560  2.2844
  126MPD1     C 1957   1.494   2.053   7.549 -0.0702  1.5561  0.0256
  126MPD1    C1 1958   1.625   2.058   7.528  0.3773  0.8026 -0.0339
  126MPD1    C2 1959   1.704   1.981   7.610 -0.3664 -0.5591  0.5874
  126MPD1    C3 1960   1.653   1.896   7.713 -0.6256 -0.2987  1.0749
  126MPD1    C4 1961   1.517   1.908   7.735 -0.4052 -0.1455 -0.1168
  126MPD1    C5 1962   1.438   1.984   7.654 -0.3241 -0.1428  0.3161
  126MPD1     H 1963   1.809   1.973   7.584  0.1353  0.3137  2.2887
  126MPD1    H1 1964   1.468   1.865   7.822  0.7348 -1.8256 -0.3173
  126MPD1    H2 1965   1.421   2.121   7.505 -1.2238 -0.0154 -0.5081
  126MPD1    H3 1966   1.335   2.002   7.684 -0.3793 -0.7611  0.4928
  126MPD1     N 1967   1.742   1.817   7.795  0.3501 -0.3059 -0.2852
  126MPD1    H5 1968   1.841   1.820   7.773  0.3231 -0.0982 -0.3750
  126MPD1    N1 1969   1.685   2.121   7.415 -0.3609  0.2635 -0.6002
  126MPD1    H6 1970   1.648   2.207   7.374 -0.8222  0.7650  0.8849
  126MPD1    H7 1971   1.783   2.147   7.428 -0.3811 -1.9504  3.6035
  127TMC2    C1 1972   2.654   4.046   9.927 -0.9055 -0.2431 -0.2721
  127TMC2    C2 1973   2.775   4.014   9.988  0.1654 -0.0669 -0.2496
  127TMC2    C3 1974   2.775   3.917  10.081  0.3287  0.0744  0.3471
  127TMC2    C4 1975   2.540   3.968   9.946  0.1091 -0.5014 -0.1142
  127TMC2    C5 1976   2.554   3.871  10.039  0.5896  0.5670 -0.2935
  127TMC2    C6 1977   2.665   3.851  10.114 -0.4257  0.3305  0.0533
  127TMC2     C 1978   2.653   4.170   9.850  0.1121  1.6239 -0.0264
  127TMC2     O 1979   2.749   4.245   9.857 -0.0987  0.4423  0.0497
  127TMC2     H 1980   2.858   4.081   9.969 -2.6268  3.5396  0.3478
  127TMC2    H1 1981   2.442   3.980   9.903  1.1555  2.0521 -1.8014
  127TMC2    H2 1982   2.664   3.771  10.187 -1.3753 -1.0279 -1.4582
  127TMC2    C7 1983   2.437   3.788  10.074  0.0660  0.3872  0.7113
  127TMC2    C8 1984   2.892   3.877  10.156  0.2148  0.4457  0.4312
  127TMC2    O1 1985   2.355   3.768   9.987  0.0455 -0.7148  0.3953
  127TMC2    O2 1986   2.891   3.830  10.268  0.3162 -0.2525 -0.2774
  127TMC2    O5 1987   2.998   3.900  10.074 -0.4411  0.4157  0.1166
  127TMC2    H5 1988   2.970   3.929   9.985  0.7464  1.0390 -0.0557
  128MPD2     C 1989   2.429   4.289   9.575  0.2463  0.3554  0.5462
  128MPD2    C1 1990   2.515   4.305   9.682  0.2861  0.3337 -0.3345
  128MPD2    C2 1991   2.582   4.425   9.693 -0.1484  0.1033  0.4775
  128MPD2    C3 1992   2.547   4.530   9.611  0.7773 -0.3807 -0.0193
  128MPD2    C4 1993   2.476   4.503   9.488 -0.0950 -0.2964 -0.1920
  128MPD2    C5 1994   2.421   4.378   9.471 -0.1162 -0.6355  0.3650
  128MPD2     H 1995   2.646   4.445   9.778  1.0138  1.0772 -0.6130
  128MPD2    H1 1996   2.462   4.581   9.413  2.5034 -1.5455 -1.9638
  128MPD2    H2 1997   2.381   4.193   9.560 -1.4358  1.3859 -0.6755
  128MPD2    H3 1998   2.347   4.358   9.393  0.9345 -1.6133 -0.3835
  128MPD2     N 1999   2.592   4.658   9.656  0.5281  0.7322 -0.0988
  128MPD2    H5 2000   2.663   4.659   9.728 -0.2249 -0.9493  0.6615
  128MPD2    N1 2001   2.536   4.197   9.770 -0.3474 -0.0174 -0.4437
  128MPD2    H7 2002   2.467   4.123   9.758  1.2294 -1.6594  0.5707
  129TMC2    C1 2003   1.619   4.132   1.525  0.3692 -0.7135  0.1199
  129TMC2    C2 2004   1.548   4.237   1.586 -0.2771 -0.1222  0.8581
  129TMC2    C3 2005   1.446   4.201   1.667  0.3462  0.2021  0.0242
  129TMC2    C4 2006   1.591   3.996   1.552  0.6069  0.6849 -0.1429
  129TMC2    C5 2007   1.473   3.972   1.617 -0.0659  0.3460 -0.1400
  129TMC2    C6 2008   1.398   4.070   1.684 -0.1997 -0.3796 -0.1639
  129TMC2     C 2009   1.708   4.159   1.414  0.0627 -0.3844  0.3679
  129TMC2     O 2010   1.794   4.076   1.388  0.4896 -0.6710  0.2566
  129TMC2     H 2011   1.579   4.340   1.575  0.0920 -0.4270 -1.0372
  129TMC2    H1 2012   1.643   3.925   1.488 -0.8092 -0.9588  0.5189
  129TMC2    H2 2013   1.300   4.049   1.724 -0.9746  1.9127 -0.8714
  129TMC2    C7 2014   1.409   3.833   1.604  0.4997 -0.8418  0.0617
  129TMC2    C8 2015   1.366   4.313   1.692  0.6084  0.3352  0.5732
  129TMC2    O1 2016   1.287   3.833   1.626  0.1201 -0.5258 -0.2269
  129TMC2    O2 2017   1.405   4.373   1.791  0.0156 -0.3073  0.5110
  129TMC2    O5 2018   1.365   4.371   1.569 -0.0160  0.3779  0.6298
  129TMC2    H5 2019   1.318   4.305   1.514 -1.2238 -0.1934  2.3557
  130MPD2     C 2020   1.830   4.245   1.157 -0.0099  0.1335  0.3589
  130MPD2    C1 2021   1.733   4.315   1.224  0.4932 -0.4312  0.1122
  130MPD2    C2 2022   1.691   4.434   1.166 -0.1109 -0.2940 -0.1112
  130MPD2    C3 2023   1.736   4.482   1.037 -0.0487 -0.1600 -0.4067
  130MPD2    C4 2024   1.829   4.403   0.971  0.0036  0.2989 -0.0346
  130MPD2    C5 2025   1.885   4.287   1.032 -0.0289 -0.2831  0.1107
  130MPD2     H 2026   1.627   4.501   1.222  0.8669 -1.7720  2.7651
  130MPD2    H1 2027   1.869   4.425   0.873  1.7294  0.3467  0.6666
  130MPD2    H2 2028   1.877   4.157   1.198  0.3260 -0.5078 -1.4211
  130MPD2    H3 2029   1.958   4.230   0.974 -0.5107  0.0511 -0.8345
  130MPD2     N 2030   1.693   4.608   0.986  0.1831 -0.2171 -0.0376
  130MPD2    H5 2031   1.634   4.664   1.047 -0.2485  0.0301 -0.6877
  130MPD2    N1 2032   1.681   4.278   1.350 -0.0321 -0.4531  0.0653
  130MPD2    H7 2033   1.610   4.342   1.385  0.8027  1.1377 -1.2069
  131TMC2    C1 2034   0.178   4.001   9.718  0.5262 -0.0144 -0.0066
  131TMC2    C2 2035   0.251   4.009   9.837  0.6282  1.1414  0.1018
  131TMC2    C3 2036   0.370   4.079   9.824 -0.3444 -0.4396  0.7245
  131TMC2    C4 2037   0.220   4.076   9.606  0.5278  0.0248 -0.5965
  131TMC2    C5 2038   0.329   4.155   9.619 -0.3939  0.1233 -0.1213
  131TMC2    C6 2039   0.410   4.158   9.726  0.2998 -0.5044  0.1237
  131TMC2     C 2040   0.069   3.908   9.694 -0.1314  0.0269 -0.2399
  131TMC2     O 2041   4.721   3.925   9.604 -0.1984 -0.4564 -0.1188
  131TMC2     H 2042   0.222   3.954   9.926 -0.7639  0.0619 -1.0314
  131TMC2    H1 2043   0.156   4.083   9.519  0.2326  0.2802 -0.3575
  131TMC2    H2 2044   0.498   4.221   9.731 -1.4165  1.8633  0.5937
  131TMC2    C7 2045   0.367   4.225   9.496  0.1868  0.4877  0.6893
  131TMC2    C8 2046   0.447   4.100   9.947 -0.0724 -0.1775  0.1804
  131TMC2    O1 2047   0.297   4.201   9.400  0.1067 -0.6738 -0.0351
  131TMC2    O2 2048   0.569   4.114   9.958 -0.9576  0.5709 -0.0035
  131TMC2    O5 2049   0.365   4.181  10.018  0.1790 -0.8365  0.0653
  131TMC2    H5 2050   0.271   4.157  10.005  0.2162 -1.3622  0.7439
  132MPD2     C 2051   4.595   3.699   9.754 -0.4350 -0.0084 -0.0754
  132MPD2    C1 2052   4.721   3.694   9.803  0.7283  0.7479 -0.4320
  132MPD2    C2 2053   0.026   3.581   9.873 -0.4877  0.5392  0.7247
  132MPD2    C3 2054   4.681   3.473   9.885  0.6076 -0.5515  0.1454
  132MPD2    C4 2055   4.552   3.479   9.839 -0.7374 -0.3328 -0.7299
  132MPD2    C5 2056   4.510   3.592   9.767  0.2568  0.1229  0.7160
  132MPD2     H 2057   0.126   3.571   9.911 -0.2561  0.0037 -0.0328
  132MPD2    H1 2058   4.485   3.393   9.837 -0.0129 -0.8947 -0.9150
  132MPD2    H2 2059   4.566   3.789   9.700  1.3412  0.2305 -0.6155
  132MPD2    H3 2060   4.412   3.590   9.720  0.6073 -0.0795 -0.0141
  132MPD2     N 2061   0.001   3.360   9.951  0.2456  0.0489  0.0010
  132MPD2    H5 2062   0.093   3.377   9.991  0.2234  1.7806 -0.6626
  132MPD2    N1 2063   0.084   3.797   9.776 -0.4963 -0.1474 -0.3654
  132MPD2    H7 2064   0.172   3.792   9.827 -1.0677  0.4961  0.6792
  133TMC2    C1 2065   3.510   0.053   9.259 -0.2933 -0.2710 -0.2895
  133TMC2    C2 2066   3.390   0.125   9.248  0.5307  0.0888  0.5011
  133TMC2    C3 2067   3.410   0.258   9.263  0.0179  0.1833 -0.3891
  133TMC2    C4 2068   3.635   0.113   9.276 -0.2863  0.3363 -0.6249
  133TMC2    C5 2069   3.643   0.250   9.286 -0.4450 -0.2842 -0.0433
  133TMC2    C6 2070   3.530   0.323   9.286  0.0595  0.2020 -0.1104
  133TMC2     C 2071   3.518   4.642   9.266  0.4831  0.1156 -0.6203
  133TMC2     O 2072   3.624   4.590   9.303 -0.4299  0.0767  0.2547
  133TMC2     H 2073   3.299   0.079   9.214  1.6137  1.3201 -4.1330
  133TMC2    H1 2074   3.729   0.062   9.253  0.1571  1.3457 -1.0540
  133TMC2    H2 2075   3.530   0.430   9.275 -1.8028  0.3045  0.9144
  133TMC2    C7 2076   3.772   0.316   9.324  0.2703  0.4807  0.2259
  133TMC2    C8 2077   3.304   0.338   9.215 -0.1530 -0.6405 -0.0467
  133TMC2    O1 2078   3.865   0.240   9.361 -0.2121 -0.9558  0.5088
  133TMC2    O2 2079   3.225   0.297   9.133  0.2995  0.4822 -0.2646
  133TMC2    O5 2080   3.282   0.448   9.290  0.0972 -0.1204  0.4343
  133TMC2    H5 2081   3.336   0.470   9.368  1.3779  2.4290 -1.1892
  134MPD2     C 2082   3.213   4.433   9.267  0.5793  0.1666  0.1235
  134MPD2    C1 2083   3.346   4.461   9.289  0.0691  0.0033  0.4038
  134MPD2    C2 2084   3.427   4.358   9.332 -0.1332 -0.2857 -0.3964
  134MPD2    C3 2085   3.376   4.230   9.360 -0.2169  0.7358  0.1889
  134MPD2    C4 2086   3.239   4.209   9.338 -0.3724  0.4423 -0.5113
  134MPD2    C5 2087   3.165   4.309   9.286  0.2105 -0.7770 -0.5067
  134MPD2     H 2088   3.530   4.386   9.348 -0.3183  1.4915 -2.3507
  134MPD2    H1 2089   3.190   4.114   9.356  0.2627  0.4731  1.3426
  134MPD2    H2 2090   3.146   4.511   9.231  1.2947  0.8926  0.3706
  134MPD2    H3 2091   3.060   4.289   9.271 -0.7871  3.9510  0.3936
  134MPD2     N 2092   3.464   4.130   9.415 -0.4089  0.4034  0.4551
  134MPD2    H5 2093   3.417   4.047   9.449  2.0685 -1.9793 -1.8317
  134MPD2    N1 2094   3.390   4.590   9.260  0.0406 -0.6828  0.6281
  134MPD2    H7 2095   3.318   4.654   9.229  1.0925  0.4990  0.6182
  135TMC2    C1 2096   1.441   1.544   9.153  0.2095  0.5613  0.1430
  135TMC2    C2 2097   1.478   1.440   9.062 -0.0632 -0.2621 -0.2879
  135TMC2    C3 2098   1.475   1.312   9.115 -0.1787 -0.0567  0.9376
  135TMC2    C4 2099   1.406   1.516   9.277  1.0166  0.4168  0.5556
  135TMC2    C5 2100   1.409   1.388   9.322 -0.7104 -0.3360  0.9811
  135TMC2    C6 2101   1.458   1.282   9.245 -0.7098  0.2675  0.6113
  135TMC2     C 2102   1.369   1.664   9.089  0.6686 -0.1963  0.5195
  135TMC2     O 2103   1.272   1.703   9.154 -0.5745 -0.2075  0.6697
  135TMC2     H 2104   1.496   1.452   8.956  0.5803  2.5215  0.1287
  135TMC2    H1 2105   1.370   1.597   9.339  2.9571 -0.2875  2.5811
  135TMC2    H2 2106   1.456   1.179   9.277 -3.2799  0.7177  1.8571
  135TMC2    C7 2107   1.395   1.367   9.458  0.1069 -0.1484 -0.2312
  135TMC2    C8 2108   1.524   1.202   9.032  0.0228 -0.4335 -0.7616
  135TMC2    O1 2109   1.317   1.441   9.510 -0.5863 -0.0419 -0.0006
  135TMC2    O2 2110   1.567   1.095   9.076  0.2927  0.3172 -0.2283
  135TMC2    O5 2111   1.486   1.222   8.900  0.9758  0.2050 -0.0118
  135TMC2    H5 2112   1.414   1.286   8.879  1.5253  0.6696 -0.4723
  136MPD2     C 2113   1.282   1.904   8.940 -0.0189  0.4848 -0.0435
  136MPD2    C1 2114   1.380   1.824   8.897  0.3337  0.0470  0.8151
  136MPD2    C2 2115   1.457   1.865   8.787  0.4396  0.1099  0.0603
  136MPD2    C3 2116   1.428   1.980   8.711  0.6724 -0.4203 -0.3453
  136MPD2    C4 2117   1.320   2.051   8.756  0.1648 -0.0714 -0.3476
  136MPD2    C5 2118   1.245   2.013   8.867  0.5035 -0.4473 -0.7139
  136MPD2     H 2119   1.547   1.810   8.763 -1.0319 -1.1972 -2.4312
  136MPD2    H1 2120   1.290   2.143   8.708  1.6712  0.4290 -0.2985
  136MPD2    H2 2121   1.218   1.881   9.024  0.8397  0.6365  0.6630
  136MPD2    H3 2122   1.163   2.079   8.894 -0.3632 -0.7205 -2.6740
  136MPD2     N 2123   1.499   2.037   8.603  0.0200  0.9546  0.2971
  136MPD2    H5 2124   1.461   2.126   8.571 -0.5554  0.9617  0.9970
  136MPD2    N1 2125   1.424   1.706   8.968 -0.0251  0.3811  0.4781
  136MPD2    H7 2126   1.505   1.656   8.933 -0.0580  0.3318  0.4720
  137TMC2    C1 2127   2.081   4.524   8.730  0.2361  0.0053 -0.1967
  137TMC2    C2 2128   2.169   4.440   8.665  0.4921 -0.3803 -1.0133
  137TMC2    C3 2129   2.127   4.316   8.626 -0.0869 -0.4304  0.0383
  137TMC2    C4 2130   1.953   4.490   8.762  0.0649 -0.5864 -0.0503
  137TMC2    C5 2131   1.919   4.366   8.727  0.2990  0.2970 -0.2179
  137TMC2    C6 2132   2.001   4.280   8.653 -0.0297  0.0023 -0.2271
  137TMC2     C 2133   2.112   4.667   8.732 -0.5714  0.7617  0.1192
  137TMC2     O 2134   2.045   0.007   8.797  0.4983 -0.2178  0.3505
  137TMC2     H 2135   2.277   4.453   8.655  0.5038  0.6399  0.3239
  137TMC2    H1 2136   1.890   4.568   8.805  1.6377  1.3662 -1.3198
  137TMC2    H2 2137   1.966   4.180   8.628 -2.7989  0.4986  1.6543
  137TMC2    C7 2138   1.786   4.321   8.739 -0.1867 -0.1776  0.9433
  137TMC2    C8 2139   2.234   4.221   8.582  0.1979  0.0962  0.0058
  137TMC2    O1 2140   1.748   4.227   8.675 -0.0175 -0.3794  0.1199
  137TMC2    O2 2141   2.329   4.264   8.520  0.2073 -0.1694  0.9436
  137TMC2    O5 2142   2.196   4.095   8.598  0.1779  0.6005  0.0787
  137TMC2    H5 2143   2.122   4.075   8.658 -0.4075 -1.0321 -1.1637
  138MPD2     C 2144   2.285   0.107   8.470  0.5403 -0.6563 -0.0922
  138MPD2    C1 2145   2.224   0.089   8.585 -0.1265 -0.7175 -0.2113
  138MPD2    C2 2146   2.213   0.196   8.660  0.6482 -0.3370  0.0096
  138MPD2    C3 2147   2.239   0.325   8.614  0.3752  0.3312 -0.1182
  138MPD2    C4 2148   2.299   0.342   8.491 -0.3646  0.1389 -0.3033
  138MPD2    C5 2149   2.333   0.229   8.426  0.5040  0.4106 -0.1731
  138MPD2     H 2150   2.183   0.184   8.763 -1.0986 -1.1639 -0.5941
  138MPD2    H1 2151   2.321   0.440   8.450 -0.4732 -0.1947 -1.1401
  138MPD2    H2 2152   2.301   0.026   8.400  1.8116  1.1274 -1.8873
  138MPD2    H3 2153   2.364   0.238   8.322  2.2716 -0.6443  0.2812
  138MPD2     N 2154   2.211   0.422   8.716 -0.9769  0.2112 -0.3737
  138MPD2    H5 2155   2.184   0.392   8.809  2.6739  0.1852  0.6920
  138MPD2    N1 2156   2.200   4.693   8.629  0.4149 -0.0188  0.7460
  138MPD2    H7 2157   2.240   4.624   8.567  0.9219  0.3306  0.6899
  139TMC2    C1 2158   2.414   3.491  13.403  0.4154  0.1119  0.0849
  139TMC2    C2 2159   2.486   3.458  13.292 -0.1505 -1.2821  0.7007
  139TMC2    C3 2160   2.438   3.487  13.168  0.2968 -0.4075 -0.4958
  139TMC2    C4 2161   2.291   3.545  13.393 -0.0519  0.6834 -0.3438
  139TMC2    C5 2162   2.248   3.576  13.267  0.2967 -0.1622  0.0464
  139TMC2    C6 2163   2.312   3.537  13.161 -0.3294  0.4995 -0.0403
  139TMC2     C 2164   2.412   3.382  13.495  0.0322  0.5640 -0.4360
  139TMC2     O 2165   2.463   3.278  13.456 -0.2751  0.3197 -0.0865
  139TMC2     H 2166   2.580   3.405  13.299  0.2972 -0.6271 -0.3194
  139TMC2    H1 2167   2.227   3.578  13.474 -0.3914 -2.5012  0.6741
  139TMC2    H2 2168   2.277   3.566  13.063  1.8924  3.2247 -0.0268
  139TMC2    C7 2169   2.108   3.578  13.255  0.2119  0.1151 -0.7442
  139TMC2    C8 2170   2.483   3.390  13.060 -0.0738 -0.5373  0.3406
  139TMC2    O1 2171   2.054   3.660  13.327  0.0797 -0.3778 -0.0445
  139TMC2    O2 2172   2.544   3.287  13.091  0.8750  0.1788  0.0656
  139TMC2    O5 2173   2.463   3.444  12.937 -0.4566  0.3626 -0.2379
  139TMC2    H5 2174   2.429   3.536  12.942  1.4787  0.9845  1.6220
  140MPD2     C 2175   2.299   3.398  13.841  0.0221 -1.2822 -0.2323
  140MPD2    C1 2176   2.333   3.340  13.721  0.4981 -0.4577 -0.1566
  140MPD2    C2 2177   2.330   3.200  13.716 -0.2582 -0.3850  0.7572
  140MPD2    C3 2178   2.286   3.123  13.824 -0.3997 -0.1224 -0.0613
  140MPD2    C4 2179   2.260   3.184  13.940 -0.6779  0.4095 -0.5145
  140MPD2    C5 2180   2.263   3.320  13.944  0.8700  0.1930  0.2617
  140MPD2     H 2181   2.374   3.145  13.634 -0.6729 -1.3541  1.1837
  140MPD2    H1 2182   2.235   3.140  14.036  1.4357 -0.3510 -0.3080
  140MPD2    H2 2183   2.309   3.506  13.846  0.6296 -1.3326 -0.3944
  140MPD2    H3 2184   2.249   3.365  14.041 -2.7378  2.1085 -1.1520
  140MPD2     N 2185   2.288   2.977  13.826 -0.0660  0.0415  0.0061
  140MPD2    H5 2186   2.319   2.925  13.745  1.2179  0.7598  0.0494
  140MPD2    N1 2187   2.362   3.422  13.617 -0.0944  0.3398 -0.1259
  140MPD2    H7 2188   2.366   3.522  13.635 -0.2811  0.3195  0.0213
  141TMC2    C1 2189   2.534   4.581  13.669  0.4804  0.0903  0.5228
  141TMC2    C2 2190   2.428   4.662  13.709  0.3892 -0.6075  0.2183
  141TMC2    C3 2191   2.399   4.662  13.840  0.5421 -0.3930  0.4323
  141TMC2    C4 2192   2.606   4.503  13.760 -0.1785  1.9056  0.2395
  141TMC2    C5 2193   2.576   4.515  13.890  0.5494  0.9048 -0.1990
  141TMC2    C6 2194   2.474   4.594  13.930 -0.4065  0.2765 -0.4015
  141TMC2     C 2195   2.603   4.619  13.545 -0.6972 -0.0439 -0.0545
  141TMC2     O 2196   2.577   4.730  13.498 -0.2195  0.3233 -0.2126
  141TMC2     H 2197   2.370   4.723  13.641 -0.3462 -1.3943  0.1391
  141TMC2    H1 2198   2.696   4.447  13.737 -0.6157  1.2899  0.0077
  141TMC2    H2 2199   2.449   4.594  14.036  0.8631  0.3580 -0.0895
  141TMC2    C7 2200   2.665   4.444  13.981 -0.1953  0.6591 -0.2222
  141TMC2    C8 2201   2.286   0.013  13.873  0.1916  0.2136 -0.7025
  141TMC2    O1 2202   2.705   4.331  13.958  0.8256 -0.3879  0.2404
  141TMC2    O2 2203   2.282   0.131  13.851 -0.3267 -0.0796  0.5828
  141TMC2    O5 2204   2.185   4.667  13.913 -0.1526 -0.1695  0.0006
  141TMC2    H5 2205   2.214   4.574  13.923  0.9402  0.6641  4.2117
  142TMC2    C1 2206   0.077   3.132   9.634 -0.2781  0.3568  0.1163
  142TMC2    C2 2207   4.682   3.163   9.604 -0.6076 -0.0443  0.1878
  142TMC2    C3 2208   4.675   3.296   9.552  0.2164  0.4096 -0.0350
  142TMC2    C4 2209   0.184   3.224   9.640 -0.6635 -0.4178 -0.8625
  142TMC2    C5 2210   0.164   3.348   9.587 -0.2342  0.1100 -0.7052
  142TMC2    C6 2211   0.046   3.380   9.535 -0.2138  0.4429 -0.0323
  142TMC2     C 2212   0.091   3.000   9.704 -0.6273  0.5878 -0.4613
  142TMC2     O 2213   4.722   2.948   9.747  0.2672 -0.0247  0.3180
  142TMC2     H 2214   4.600   3.092   9.595  0.3032 -1.0471 -0.1397
  142TMC2    H1 2215   0.286   3.196   9.666 -0.6898  0.9705  0.6864
  142TMC2    H2 2216   0.025   3.481   9.500 -0.2605  0.5296  0.2407
  142TMC2    C7 2217   0.256   3.445   9.630  0.2943  0.4623  0.0778
  142TMC2    C8 2218   4.555   3.343   9.495  0.7240 -0.3408  0.3604
  142TMC2    O1 2219   0.329   3.404   9.721  0.0969 -0.0612 -0.0393
  142TMC2    O2 2220   4.552   3.445   9.427 -0.2110 -0.3410 -0.5815
  142TMC2    O5 2221   4.458   3.293   9.578 -0.1949 -0.4300  0.1526
  142TMC2    H5 2222   4.495   3.218   9.630  2.4585  0.4669 -0.4516
  143MPD2     C 2223   0.368   2.717  10.031 -0.9758 -0.5881  0.3904
  143MPD2    C1 2224   0.243   2.691   9.985  0.3594  0.3874  0.2497
  143MPD2    C2 2225   0.191   2.779   9.896  0.3047 -0.2528 -0.8154
  143MPD2    C3 2226   0.271   2.865   9.825 -0.2443  0.0982  1.2560
  143MPD2    C4 2227   0.401   2.874   9.859 -0.3282  0.1366  0.1527
  143MPD2    C5 2228   0.451   2.803   9.968  0.2215  0.0722 -0.3364
  143MPD2     H 2229   0.083   2.786   9.883  0.3598  1.6885 -0.1279
  143MPD2    H1 2230   0.474   2.934   9.805 -1.8516  1.2422 -0.6484
  143MPD2    H2 2231   0.415   2.650  10.102  2.2864  2.1805  0.8604
  143MPD2    H3 2232   0.553   2.818  10.003  0.2758 -0.9446 -0.0462
  143MPD2     N 2233   0.224   2.963   9.729  0.8515 -0.0724 -0.0296
  143MPD2    H5 2234   0.297   3.019   9.687 -0.0973  0.0995 -1.4796
  143MPD2    N1 2235   0.178   2.588  10.046 -0.3401 -0.1673 -0.2321
  143MPD2    H7 2236   0.225   2.541  10.123 -0.4396 -1.7879 -1.1566
  144TMC2    C1 2237   3.345   1.304   0.442 -0.0213 -0.3589 -0.8602
  144TMC2    C2 2238   3.416   1.190   0.407  0.1908 -0.5514 -1.3948
  144TMC2    C3 2239   3.454   1.111   0.510 -0.3241  1.0229  0.3158
  144TMC2    C4 2240   3.330   1.358   0.563  0.0784 -0.0239  1.2190
  144TMC2    C5 2241   3.376   1.278   0.660 -0.1842 -0.3191 -0.2490
  144TMC2    C6 2242   3.436   1.158   0.635 -0.1579 -0.4726  0.6288
  144TMC2     C 2243   3.280   1.366   0.329  0.6664  0.3377 -0.0608
  144TMC2     O 2244   3.272   1.304   0.224  0.3051  0.1952  0.3951
  144TMC2     H 2245   3.415   1.151   0.307 -0.8221 -1.1997 -1.1350
  144TMC2    H1 2246   3.276   1.449   0.588  1.7677  0.8059  1.8300
  144TMC2    H2 2247   3.473   1.108   0.724  3.4275  3.6356  1.4232
  144TMC2    C7 2248   3.354   1.317   0.806 -0.0295  0.3630 -0.3514
  144TMC2    C8 2249   3.499   0.972   0.478  0.0324 -0.7683 -0.8372
  144TMC2    O1 2250   3.342   1.231   0.891  0.4083 -0.4407 -0.0903
  144TMC2    O2 2251   3.515   0.927   0.367  0.0853  0.3757  0.1865
  144TMC2    O5 2252   3.476   0.892   0.581  0.1313 -0.4944  0.2784
  144TMC2    H5 2253   3.433   0.924   0.663 -0.5050 -0.2142 -0.1689
  145MPD2     C 2254   2.964   1.682   0.083 -0.8788  0.4609 -0.1297
  145MPD2    C1 2255   2.978   1.550   0.065 -0.4555  0.9651 -0.3565
  145MPD2    C2 2256   3.064   1.481   0.150 -0.6875  0.1664 -0.0561
  145MPD2    C3 2257   3.131   1.547   0.253  0.3756  0.2506  0.3983
  145MPD2    C4 2258   3.111   1.681   0.263 -0.1934  0.8537  0.2410
  145MPD2    C5 2259   3.039   1.749   0.175  0.3741  0.3742 -0.3252
  145MPD2     H 2260   3.064   1.373   0.138  1.8106  0.0936  0.5820
  145MPD2    H1 2261   3.164   1.740   0.338  1.0646 -0.1522  0.1492
  145MPD2    H2 2262   2.901   1.736   0.013 -0.4611  0.5976 -0.3981
  145MPD2    H3 2263   3.031   1.857   0.187 -2.0916  0.0408  1.1175
  145MPD2     N 2264   3.217   1.484   0.352 -0.0678  0.4282  0.1680
  145MPD2    H5 2265   3.232   1.536   0.438  3.3432 -0.5688  0.1748
  145MPD2    N1 2266   2.907   1.470  17.711 -0.1405  0.4374 -0.6255
  145MPD2    H7 2267   2.934   1.373  17.712 -1.2339  0.1634  1.5338
  146TMC2    C1 2268   4.302   0.921  12.281 -0.3718  0.6969 -0.2521
  146TMC2    C2 2269   4.186   0.973  12.246 -0.3261  0.7816  0.0700
  146TMC2    C3 2270   4.129   0.934  12.132 -0.8847 -0.4717 -0.2735
  146TMC2    C4 2271   4.364   0.834  12.203  0.5170 -0.4501  0.5960
  146TMC2    C5 2272   4.297   0.794  12.094  0.3860  0.1759  0.3113
  146TMC2    C6 2273   4.180   0.843  12.052 -0.2568 -0.1234 -0.2491
  146TMC2     C 2274   4.379   0.991  12.383 -0.6887 -0.4101  0.8576
  146TMC2     O 2275   4.364   1.114  12.391 -0.1756 -0.4905 -0.1497
  146TMC2     H 2276   4.138   1.052  12.303 -0.1924  0.3043  0.8452
  146TMC2    H1 2277   4.472   0.826  12.216  0.4511 -0.7908  0.9317
  146TMC2    H2 2278   4.149   0.831  11.949 -4.2961  1.1444  0.8558
  146TMC2    C7 2279   4.373   0.714  12.001  0.4023 -0.2856  0.2167
  146TMC2    C8 2280   3.998   0.983  12.098  0.8402 -0.1353 -0.7222
  146TMC2    O1 2281   4.343   0.711  11.887 -0.4294 -0.1614  0.0840
  146TMC2    O2 2282   3.956   1.078  12.158  0.0563  0.1089 -0.2264
  146TMC2    O5 2283   3.925   0.875  12.056 -0.5178 -0.5750 -0.2246
  146TMC2    H5 2284   3.980   0.797  12.033  0.0746 -0.6157  1.3499
  147MPD2     C 2285   0.051   0.417  11.908 -0.2112  0.2634 -0.0981
  147MPD2    C1 2286   0.021   0.406  12.042 -0.5146  0.2777  0.3413
  147MPD2    C2 2287   4.659   0.489  12.093  0.7407  0.6009 -0.1920
  147MPD2    C3 2288   4.580   0.566  12.012 -0.2767 -0.0852 -0.2285
  147MPD2    C4 2289   4.609   0.573  11.876  0.0170  0.1013  0.1842
  147MPD2    C5 2290   4.722   0.511  11.828 -0.4050  0.6042  0.3084
  147MPD2     H 2291   4.662   0.509  12.200 -3.3721 -1.2866  0.3037
  147MPD2    H1 2292   4.559   0.645  11.812  0.9991  1.2663  0.7215
  147MPD2    H2 2293   0.134   0.366  11.861 -0.8694 -1.2312  0.3719
  147MPD2    H3 2294   0.005   0.524  11.722 -2.7538 -0.4347 -0.2205
  147MPD2     N 2295   4.476   0.648  12.067 -0.0963  0.0907  0.0375
  147MPD2    H5 2296   4.470   0.647  12.168 -0.1568 -1.3694  0.0160
  147MPD2    N1 2297   0.103   0.321  12.128  0.3408  0.5933  0.0901
  147MPD2    H7 2298   0.189   0.292  12.083  0.3676 -0.8192  1.0513
  148TMC2    C1 2299   0.684   4.337  10.342 -0.3687 -0.0620  0.0258
  148TMC2    C2 2300   0.782   4.359  10.436 -0.8496 -0.3324  0.3370
  148TMC2    C3 2301   0.864   4.247  10.463 -0.2180 -1.3138  0.6199
  148TMC2    C4 2302   0.661   4.215  10.289 -0.1630  0.1000 -0.2857
  148TMC2    C5 2303   0.726   4.105  10.344  0.3735 -0.5309 -0.4881
  148TMC2    C6 2304   0.824   4.117  10.430  0.6189  0.8380  0.2039
  148TMC2     C 2305   0.573   4.423  10.352 -0.1787 -0.4179 -0.3100
  148TMC2     O 2306   0.593   4.542  10.381 -0.2676  0.5210 -0.0699
  148TMC2     H 2307   0.790   4.458  10.481  0.1488 -0.8216  1.2347
  148TMC2    H1 2308   0.585   4.193  10.214 -0.8531  0.0988  0.4132
  148TMC2    H2 2309   0.873   4.030  10.472 -0.4722  0.2160  0.1681
  148TMC2    C7 2310   0.658   3.980  10.332 -0.1489  0.3598 -0.1899
  148TMC2    C8 2311   0.951   4.259  10.580  1.0556  0.2283  0.1618
  148TMC2    O1 2312   0.536   3.991  10.297  0.0788  0.3995 -0.4311
  148TMC2    O2 2313   0.948   4.166  10.660 -0.1784  0.2302  0.8185
  148TMC2    O5 2314   0.977   4.387  10.607 -0.4088  0.4145 -0.5891
  148TMC2    H5 2315   0.998   4.432  10.522  0.1588  1.6939  0.2325
  149MPD2     C 2316   0.303   4.540  10.334 -0.1564  0.1225  0.3269
  149MPD2    C1 2317   0.330   4.403  10.327  0.6891 -0.5549  0.7067
  149MPD2    C2 2318   0.224   4.316  10.316  0.4818 -0.1447 -0.5120
  149MPD2    C3 2319   0.088   4.359  10.327 -0.0686 -0.0885  0.5271
  149MPD2    C4 2320   0.067   4.490  10.332  0.1793  0.0216  0.1139
  149MPD2    C5 2321   0.177   4.579  10.335  0.0798  0.5074 -0.3565
  149MPD2     H 2322   0.247   4.211  10.306  0.8255 -0.0202 -1.0187
  149MPD2    H1 2323   4.701   4.529  10.340  0.1851  0.3169 -1.3920
  149MPD2    H2 2324   0.377   4.619  10.320 -0.7112  0.2642 -1.8334
  149MPD2    H3 2325   0.158   4.685  10.337  1.4351  0.7326  0.2172
  149MPD2     N 2326   4.709   4.272  10.341 -0.7583 -0.5409 -0.0932
  149MPD2    H5 2327   4.617   4.315  10.347 -0.4547 -0.0061  0.7029
  149MPD2    N1 2328   0.458   4.350  10.332 -0.2927 -0.2255 -1.3192
  149MPD2    H7 2329   0.466   4.248  10.330  1.2865 -0.1377  0.9242
  150TMC2    C1 2330   1.959   3.360  12.256 -0.1081 -0.0433  0.3965
  150TMC2    C2 2331   1.917   3.264  12.341  0.4071 -0.0500  0.3386
  150TMC2    C3 2332   2.008   3.192  12.419  0.1421 -0.0828 -0.5914
  150TMC2    C4 2333   2.092   3.400  12.260  0.8836  0.1983 -0.7905
  150TMC2    C5 2334   2.184   3.315  12.319 -0.1489  0.0124 -0.4551
  150TMC2    C6 2335   2.143   3.212  12.402  0.5038 -0.1419  0.3302
  150TMC2     C 2336   1.872   3.468  12.248 -0.1235 -0.7059  0.5630
  150TMC2     O 2337   1.911   3.573  12.296  0.6702 -0.2662 -0.1962
  150TMC2     H 2338   1.811   3.248  12.359  0.6443 -1.5433  0.4554
  150TMC2    H1 2339   2.133   3.481  12.201  2.7375 -0.3565 -0.2620
  150TMC2    H2 2340   2.208   3.135  12.442  1.1668 -0.6941 -1.8566
  150TMC2    C7 2341   2.326   3.338  12.287 -0.5260 -0.7349 -0.0718
  150TMC2    C8 2342   1.971   3.082  12.510  0.6434  0.3185 -0.9051
  150TMC2    O1 2343   2.353   3.430  12.211 -0.0851  0.5841  0.2916
  150TMC2    O2 2344   2.053   2.991  12.524  0.3824  0.3376 -0.4173
  150TMC2    O5 2345   1.840   3.085  12.526 -0.2651 -0.1293  0.1207
  150TMC2    H5 2346   1.794   3.171  12.513  0.1575 -0.3582 -2.9691
  151MPD2     C 2347   1.466   3.683  12.033  0.4642 -0.7088  0.3297
  151MPD2    C1 2348   1.477   3.547  12.005  0.4132 -0.3528 -0.1784
  151MPD2    C2 2349   1.582   3.462  12.045  0.1870  0.1707 -0.0814
  151MPD2    C3 2350   1.673   3.528  12.115 -0.1824  0.1774 -0.1984
  151MPD2    C4 2351   1.674   3.667  12.136  1.5103  0.0227 -0.1564
  151MPD2    C5 2352   1.570   3.741  12.092  0.8492  0.4778 -0.3920
  151MPD2     H 2353   1.591   3.356  12.023  0.4077  0.2873 -0.5646
  151MPD2    H1 2354   1.758   3.720  12.180  0.5212  0.4578  1.1995
  151MPD2    H2 2355   1.395   3.750  11.987 -0.0092 -1.1030  0.4730
  151MPD2    H3 2356   1.574   3.849  12.098  1.4571  0.4637 -0.5216
  151MPD2     N 2357   1.772   3.439  12.167  0.4358  0.4491  0.0400
  151MPD2    H5 2358   1.757   3.341  12.143 -0.6533  0.6499 -0.0812
  151MPD2    N1 2359   1.379   3.504  11.917  0.7695 -0.0912  0.0949
  151MPD2    H7 2360   1.311   3.577  11.900  0.0722 -1.2834 -2.2550
  152TMC2    C1 2361   1.464   3.555  12.431  0.6486 -0.2192  0.2895
  152TMC2    C2 2362   1.472   3.691  12.416 -0.3869 -0.8344  0.7739
  152TMC2    C3 2363   1.590   3.745  12.459 -0.2501  0.8999 -0.7178
  152TMC2    C4 2364   1.559   3.483  12.500  0.2314 -0.4388  0.3498
  152TMC2    C5 2365   1.666   3.550  12.546  0.8562 -0.4539 -0.3302
  152TMC2    C6 2366   1.690   3.680  12.517  0.0956 -0.1727 -0.1793
  152TMC2     C 2367   1.332   3.498  12.425  0.5351 -0.3148 -0.0062
  152TMC2     O 2368   1.240   3.582  12.424 -0.2226 -0.2939 -0.4381
  152TMC2     H 2369   1.405   3.739  12.345  3.8369  2.0928 -1.1788
  152TMC2    H1 2370   1.551   3.376  12.513  2.8116 -0.4153  2.1753
  152TMC2    H2 2371   1.780   3.733  12.547  0.9180 -1.2813 -0.6694
  152TMC2    C7 2372   1.773   3.464  12.596 -0.0949  0.3553 -0.6955
  152TMC2    C8 2373   1.612   3.888  12.430 -0.3065  0.3439  0.0261
  152TMC2    O1 2374   1.749   3.345  12.599  0.5484  0.1345 -0.0831
  152TMC2    O2 2375   1.719   3.929  12.383  0.2621 -0.0755 -0.2952
  152TMC2    O5 2376   1.493   3.947  12.406  0.1650 -0.8529  0.3492
  152TMC2    H5 2377   1.421   3.916  12.465 -1.3445 -0.2977 -1.2070
  153MPD2     C 2378   1.236   3.139  12.403 -0.0741  0.0264 -0.1205
  153MPD2    C1 2379   1.221   3.277  12.434 -0.7068  1.2894  0.3937
  153MPD2    C2 2380   1.101   3.316  12.487  0.0063  0.6056  0.5715
  153MPD2    C3 2381   0.996   3.221  12.492  0.1827 -0.0159  0.0207
  153MPD2    C4 2382   1.010   3.091  12.455  0.3138  0.8654 -0.1499
  153MPD2    C5 2383   1.131   3.052  12.410  0.1399 -0.7607  0.0802
  153MPD2     H 2384   1.091   3.422  12.508  0.2552  0.8058 -0.3562
  153MPD2    H1 2385   0.924   3.027  12.444  1.5772 -0.8276 -0.0610
  153MPD2    H2 2386   1.325   3.098  12.358 -0.1616 -1.5169  1.1220
  153MPD2    H3 2387   1.140   2.949  12.379 -0.0643 -0.8141  0.1979
  153MPD2     N 2388   0.879   3.273  12.552 -0.5101  0.0790  0.3481
  153MPD2    H5 2389   0.881   3.371  12.579 -1.4426  0.4804 -1.0700
  153MPD2    N1 2390   1.332   3.359  12.411 -0.6759  0.5429  0.7010
  153MPD2    H7 2391   1.422   3.314  12.394 -0.9791  0.2029 -0.0315
  154TMC2    C1 2392   3.313   2.918  17.367 -0.0777 -0.0585  0.2427
  154TMC2    C2 2393   3.310   2.790  17.414 -0.3940 -0.0023 -0.1213
  154TMC2    C3 2394   3.346   2.688  17.328  0.2216 -0.0145 -0.2942
  154TMC2    C4 2395   3.343   2.944  17.236  0.5445 -0.2328 -0.6390
  154TMC2    C5 2396   3.365   2.837  17.147  0.1680  0.9025  0.4431
  154TMC2    C6 2397   3.367   2.708  17.191 -0.1443  0.0952 -0.3856
  154TMC2     C 2398   3.288   3.019  17.463 -0.5145  0.2462  0.2636
  154TMC2     O 2399   3.198   2.985  17.541 -0.7380  0.1726 -0.1450
  154TMC2     H 2400   3.284   2.772  17.518  1.9760 -0.4042  0.4232
  154TMC2    H1 2401   3.332   3.046  17.201 -1.3242  0.0738  0.8837
  154TMC2    H2 2402   3.399   2.631  17.122 -0.1505 -0.6075  0.3897
  154TMC2    C7 2403   3.416   2.867  17.017 -0.3327 -0.0281  1.0718
  154TMC2    C8 2404   3.344   2.557  17.384  0.1977  0.1285 -0.0201
  154TMC2    O1 2405   3.404   2.776  16.935  0.1853 -0.4415  0.2125
  154TMC2    O2 2406   3.355   2.550  17.505 -0.5578 -0.1939  0.5313
  154TMC2    O5 2407   3.267   2.475  17.313 -0.0605 -0.1408  0.1762
  154TMC2    H5 2408   3.244   2.492  17.218 -1.1554 -2.6371 -0.0033
  155MPD2     C 2409   3.338   3.387  17.446  1.0041  0.1254 -0.8812
  155MPD2    C1 2410   3.306   3.264  17.501  0.1313 -1.0404 -0.2353
  155MPD2    C2 2411   3.241   3.255  17.626 -1.1863  0.7604 -0.1990
  155MPD2    C3 2412   3.220   3.374  17.704 -0.6279  0.0358 -0.6769
  155MPD2    C4 2413   3.253   3.500  17.642 -0.2943  0.5177  0.0280
  155MPD2    C5 2414   3.306   3.497  17.517 -0.2401  0.0237  0.7340
  155MPD2     H 2415   3.221   3.160  17.674  0.3060  0.2987 -0.5160
  155MPD2    H1 2416   3.247   3.592  17.700 -0.3545  1.1737 -1.0147
  155MPD2    H2 2417   3.384   3.398  17.349  0.3755  1.9264 -0.9707
  155MPD2    H3 2418   3.348   3.592  17.486  1.0898 -0.9126 -0.3207
  155MPD2     N 2419   3.176   3.365   0.096  0.0552 -0.3613  0.1527
  155MPD2    H5 2420   3.171   3.276   0.145 -1.4771  0.9024  2.3491
  155MPD2    N1 2421   3.338   3.147  17.433  0.3585 -0.2232 -0.1335
  155MPD2    H7 2422   3.402   3.159  17.355  0.6946 -2.9791 -0.2960
  156TMC2    C1 2423   1.633   0.852  11.741 -0.4004  0.1539 -0.0253
  156TMC2    C2 2424   1.611   0.740  11.653  0.0785 -0.0112  0.5836
  156TMC2    C3 2425   1.568   0.782  11.530 -0.3245 -0.0920  0.3584
  156TMC2    C4 2426   1.610   0.975  11.711 -0.3975  0.0396  0.0229
  156TMC2    C5 2427   1.567   1.009  11.585  0.1286  0.5902 -0.2511
  156TMC2    C6 2428   1.537   0.913  11.496  0.1565 -0.2774  0.4101
  156TMC2     C 2429   1.633   0.815  11.880  0.0956  0.2482 -0.2406
  156TMC2     O 2430   1.616   0.904  11.964  0.1139 -0.1320  0.1850
  156TMC2     H 2431   1.633   0.635  11.666  0.3990 -0.0338 -0.0975
  156TMC2    H1 2432   1.638   1.049  11.785  0.4789  0.8515 -1.0985
  156TMC2    H2 2433   1.500   0.924  11.394 -0.2093 -1.3574  0.4163
  156TMC2    C7 2434   1.545   1.142  11.547  0.0954 -0.1806 -0.1381
  156TMC2    C8 2435   1.555   0.686  11.425 -0.2587 -0.4612  0.1624
  156TMC2    O1 2436   1.615   1.234  11.597 -0.0846  0.2310 -0.2364
  156TMC2    O2 2437   1.461   0.668  11.356 -0.1952  0.1854  0.0429
  156TMC2    O5 2438   1.659   0.603  11.439 -0.3425  0.0805 -0.0080
  156TMC2    H5 2439   1.732   0.638  11.494 -1.0042  1.1080  0.2230
  157MPD2     C 2440   1.623   0.481  12.054  0.4907 -0.1875  0.2617
  157MPD2    C1 2441   1.649   0.617  12.028 -0.0090 -0.1399 -0.1801
  157MPD2    C2 2442   1.735   0.677  12.122  0.0234  0.3226  0.3564
  157MPD2    C3 2443   1.778   0.619  12.240 -0.2085  0.0419 -0.1523
  157MPD2    C4 2444   1.733   0.491  12.270 -0.3204 -0.4713  0.2021
  157MPD2    C5 2445   1.663   0.424  12.173 -0.4354  0.3049 -0.5135
  157MPD2     H 2446   1.769   0.776  12.093  0.3257 -0.0953 -0.7170
  157MPD2    H1 2447   1.765   0.438  12.359 -0.3393  0.7566  0.9334
  157MPD2    H2 2448   1.581   0.418  11.977  1.4082 -0.4912  0.0124
  157MPD2    H3 2449   1.634   0.324  12.204 -1.0250  0.5967 -0.1290
  157MPD2     N 2450   1.862   0.693  12.323 -0.1453  0.2069 -0.3619
  157MPD2    H5 2451   1.878   0.789  12.293 -1.8446  0.9790  1.2511
  157MPD2    N1 2452   1.625   0.679  11.903 -0.2599  0.7643  0.2994
  157MPD2    H7 2453   1.570   0.626  11.836  1.7692 -1.4130  0.3763
  158TMC2    C1 2454   2.292   4.341  13.430 -0.2541  0.2218 -0.7882
  158TMC2    C2 2455   2.376   4.385  13.331  0.4656  0.3603 -0.1878
  158TMC2    C3 2456   2.316   4.467  13.246  0.1358  0.2472  0.1214
  158TMC2    C4 2457   2.161   4.383  13.450  0.2568  0.2402  0.7652
  158TMC2    C5 2458   2.109   4.449  13.341  0.0789  0.9745 -0.2677
  158TMC2    C6 2459   2.184   4.490  13.240 -0.0541  0.3427 -0.1379
  158TMC2     C 2460   2.365   4.254  13.530  0.1021  0.1611 -0.0428
  158TMC2     O 2461   2.487   4.269  13.530 -0.9210  0.1040  0.3718
  158TMC2     H 2462   2.482   4.368  13.343  0.5317  1.3076  0.5545
  158TMC2    H1 2463   2.114   4.366  13.546  0.1963 -1.2070  0.4744
  158TMC2    H2 2464   2.135   4.545  13.161 -2.4079 -1.7868 -0.1741
  158TMC2    C7 2465   1.965   4.491  13.346 -0.4791 -0.2268 -0.0029
  158TMC2    C8 2466   2.397   4.515  13.127 -0.2940 -0.5657 -0.4756
  158TMC2    O1 2467   1.933   4.581  13.267  0.8947 -0.2338 -0.5338
  158TMC2    O2 2468   2.364   4.614  13.060  0.2292 -0.2044 -0.0283
  158TMC2    O5 2469   2.526   4.464  13.133 -0.2269  0.2549  0.7731
  158TMC2    H5 2470   2.529   4.389  13.196  0.1987 -1.0015 -0.7458
  159MPD2     C 2471   2.404   3.957  13.934 -0.6777  0.6556  0.5175
  159MPD2    C1 2472   2.274   3.963  13.911  0.1821  0.3249  0.4678
  159MPD2    C2 2473   2.230   4.037  13.803 -0.3115  0.0266 -0.0247
  159MPD2    C3 2474   2.322   4.112  13.735 -0.4674 -0.1198  0.3237
  159MPD2    C4 2475   2.451   4.124  13.775  0.1685 -1.1041 -0.3945
  159MPD2    C5 2476   2.497   4.039  13.875  0.3005 -0.3008  0.2143
  159MPD2     H 2477   2.126   4.043  13.770  0.1716  2.0863 -1.1973
  159MPD2    H1 2478   2.532   4.184  13.734  0.4788 -2.1620 -1.3304
  159MPD2    H2 2479   2.440   3.904  14.022  2.3770  1.0512 -0.4974
  159MPD2    H3 2480   2.599   4.041  13.909  1.1636  2.0494 -2.4628
  159MPD2     N 2481   2.280   4.180  13.616 -0.2239  0.5830 -0.3613
  159MPD2    H5 2482   2.181   4.169  13.601  0.0068  0.8573 -2.0111
  159MPD2    N1 2483   2.194   3.876  13.993 -0.7091 -0.0608 -0.1695
  159MPD2    H7 2484   2.245   3.806  14.046  0.3915  1.8080  1.2855
  160TMC2    C1 2485   2.088   2.041   1.229  0.1759  0.3728 -0.1108
  160TMC2    C2 2486   1.999   1.936   1.235 -0.2774 -1.3647 -0.0768
  160TMC2    C3 2487   1.989   1.859   1.126  0.7383 -0.3108 -0.5106
  160TMC2    C4 2488   2.162   2.072   1.118 -0.0472 -0.2777 -0.4046
  160TMC2    C5 2489   2.148   1.989   1.009 -0.1077  0.8062 -0.0001
  160TMC2    C6 2490   2.064   1.878   1.014 -0.4902 -0.6046  0.4042
  160TMC2     C 2491   2.049   2.155   1.306  0.6974 -0.3814 -0.1186
  160TMC2     O 2492   2.002   2.151   1.418  0.5313  0.1204 -0.4826
  160TMC2     H 2493   1.942   1.922   1.326 -0.7983  3.4738  0.3563
  160TMC2    H1 2494   2.233   2.154   1.118  0.2381 -0.5227  0.0703
  160TMC2    H2 2495   2.055   1.813   0.928  0.1343  1.5865 -1.3208
  160TMC2    C7 2496   2.250   1.989   0.908  0.3427 -0.1330  0.0176
  160TMC2    C8 2497   1.914   1.734   1.126 -0.3296 -0.3650  0.3181
  160TMC2    O1 2498   2.279   1.883   0.853  0.3997 -0.2271 -0.2823
  160TMC2    O2 2499   1.944   1.634   1.063 -0.6239 -1.0313  0.3714
  160TMC2    O5 2500   1.799   1.748   1.200 -0.0104 -0.0551  0.2109
  160TMC2    H5 2501   1.778   1.839   1.233 -0.2493 -0.0403  0.0191
  161MPD2     C 2502   2.004   2.449   1.386 -0.0451 -0.3365 -0.2960
  161MPD2    C1 2503   2.003   2.392   1.256 -0.1476  0.1335 -0.2468
  161MPD2    C2 2504   1.963   2.473   1.153 -0.7581 -0.2402  0.2126
  161MPD2    C3 2505   1.941   2.604   1.171  0.5524 -0.5666  0.1518
  161MPD2    C4 2506   1.958   2.664   1.288 -0.1623 -1.2251 -0.3491
  161MPD2    C5 2507   1.986   2.585   1.402  0.0106 -0.5158  0.5843
  161MPD2     H 2508   1.961   2.422   1.057 -0.8138  1.6996 -0.8298
  161MPD2    H1 2509   1.965   2.772   1.299 -0.8385 -1.4122  1.9916
  161MPD2    H2 2510   2.040   2.392   1.471 -2.0458 -0.4383  0.4821
  161MPD2    H3 2511   1.999   2.633   1.499 -1.3235 -0.6588  0.8236
  161MPD2     N 2512   1.906   2.696   1.069  0.9206  0.3675 -0.8119
  161MPD2    H5 2513   1.906   2.791   1.104  4.0326 -0.8608  2.4612
  161MPD2    N1 2514   2.041   2.261   1.223  0.9027  0.0792 -0.3762
  161MPD2    H7 2515   2.088   2.250   1.133  1.2826 -0.0223 -0.1663
  162TMC2    C1 2516   0.240   4.073   1.485  0.1086  0.7329  0.2982
  162TMC2    C2 2517   0.105   4.063   1.526 -0.3844  0.4022  0.7814
  162TMC2    C3 2518   0.077   4.041   1.653 -0.2261  0.3964  0.3701
  162TMC2    C4 2519   0.340   4.053   1.571 -0.5218  0.6471  0.0315
  162TMC2    C5 2520   0.296   4.031   1.704  0.0819 -0.2657 -0.6981
  162TMC2    C6 2521   0.172   4.037   1.743 -0.0636 -1.4969  0.0820
  162TMC2     C 2522   0.273   4.080   1.347  0.0849  0.1158 -0.0617
  162TMC2     O 2523   0.185   4.032   1.276 -0.2487 -0.3206 -0.4692
  162TMC2     H 2524   0.029   4.096   1.457  1.1347 -0.5510 -1.3442
  162TMC2    H1 2525   0.444   4.065   1.543 -0.9564  0.3304 -1.6991
  162TMC2    H2 2526   0.153   4.008   1.846 -2.5511 -0.5360 -0.0964
  162TMC2    C7 2527   0.382   3.971   1.811 -0.0634  0.7781  0.2837
  162TMC2    C8 2528   4.687   4.106   1.694 -0.3168 -0.3104  0.4299
  162TMC2    O1 2529   0.346   3.982   1.928 -0.5505 -0.3142  0.0575
  162TMC2    O2 2530   4.674   4.164   1.800 -0.2042 -0.1899  0.1699
  162TMC2    O5 2531   4.590   4.026   1.646 -0.2453  0.4374 -0.1838
  162TMC2    H5 2532   4.621   3.954   1.586 -1.0468 -0.9582  1.0947
  163MPD2     C 2533   0.549   4.190   0.938  0.1900  0.7359  0.5352
  163MPD2    C1 2534   0.417   4.165   0.961 -0.8835 -0.0411  0.4575
  163MPD2    C2 2535   0.359   4.146   1.083  0.4062  0.4340  0.3280
  163MPD2    C3 2536   0.436   4.161   1.193  0.6401 -0.2704  0.2025
  163MPD2    C4 2537   0.574   4.191   1.178  0.7484  0.8171 -0.1545
  163MPD2    C5 2538   0.628   4.197   1.051 -0.1692 -0.0962 -0.5281
  163MPD2     H 2539   0.252   4.136   1.100  0.5116  0.1698  0.8554
  163MPD2    H1 2540   0.644   4.197   1.261  0.2782 -4.5514  0.6501
  163MPD2    H2 2541   0.596   4.186   0.840 -1.1136  0.3390 -0.0812
  163MPD2    H3 2542   0.733   4.220   1.037 -0.0089 -0.0074  0.7668
  163MPD2     N 2543   0.389   4.146   1.320 -0.3225  0.0565  0.0956
  163MPD2    H5 2544   0.443   4.177   1.400 -0.6617 -2.2381  1.2265
  163MPD2    N1 2545   0.329   4.154   0.844  0.0907 -0.0774  0.5516
  163MPD2    H7 2546   0.376   4.165   0.754 -1.4324  2.0189  0.0282
  164TMC2    C1 2547   0.396   4.645  10.795 -0.0751 -0.5428 -0.5140
  164TMC2    C2 2548   0.462   4.703  10.686  0.6641  0.2426 -1.0499
  164TMC2    C3 2549   0.407   0.091  10.639 -0.3344 -0.4610 -0.6194
  164TMC2    C4 2550   0.312   4.718  10.867 -0.1916  0.4194 -0.6465
  164TMC2    C5 2551   0.253   0.093  10.809  0.1842 -0.8696  0.2058
  164TMC2    C6 2552   0.303   0.155  10.695  0.2752  0.5207 -0.7566
  164TMC2     C 2553   0.360   4.506  10.770 -0.0842  0.5289 -0.3421
  164TMC2     O 2554   0.240   4.483  10.779  0.0789 -0.3305 -0.1093
  164TMC2     H 2555   0.548   4.655  10.641  1.0537 -1.6597  1.7551
  164TMC2    H1 2556   0.252   4.672  10.944 -1.2128 -1.5335 -2.6097
  164TMC2    H2 2557   0.274   0.251  10.653 -2.3170  0.9266  1.9332
  164TMC2    C7 2558   0.146   0.162  10.877  0.1236 -0.7308 -0.7645
  164TMC2    C8 2559   0.434   0.131  10.500  0.4373  0.6900  0.2739
  164TMC2    O1 2560   0.074   0.234  10.809  0.7334  0.4206 -0.5331
  164TMC2    O2 2561   0.356   0.175  10.418  0.1886  0.2779  0.1645
  164TMC2    O5 2562   0.564   0.118  10.478 -0.1072  0.0583 -0.4075
  164TMC2    H5 2563   0.612   0.097  10.562 -0.5031 -1.7784 -0.6427
  165TMC2    C1 2564   1.628   1.030   0.124  0.0811 -0.0458 -0.5948
  165TMC2    C2 2565   1.626   0.892   0.152 -0.6350  0.8469  0.3847
  165TMC2    C3 2566   1.735   0.839   0.215 -0.6676 -0.2596  0.8326
  165TMC2    C4 2567   1.746   1.097   0.121  0.3246 -0.0882  0.2056
  165TMC2    C5 2568   1.857   1.021   0.155  0.1502  0.2405  0.0870
  165TMC2    C6 2569   1.856   0.900   0.209 -0.6680 -0.6967  0.2602
  165TMC2     C 2570   1.506   1.104   0.086 -0.3037  0.3545  0.1284
  165TMC2     O 2571   1.512   1.196   0.006 -0.0867 -0.2574  0.5305
  165TMC2     H 2572   1.539   0.828   0.142 -0.3797  0.5982 -0.2538
  165TMC2    H1 2573   1.759   1.204   0.107 -2.7214  0.2214 -0.1217
  165TMC2    H2 2574   1.942   0.857   0.260  0.3866  1.7915  0.5824
  165TMC2    C7 2575   1.986   1.095   0.164  0.0764 -0.2538 -0.1905
  165TMC2    C8 2576   1.723   0.713   0.299 -0.0787  0.0213 -0.0106
  165TMC2    O1 2577   1.986   1.219   0.176 -0.0777  0.0502  0.0689
  165TMC2    O2 2578   1.662   0.615   0.258 -0.5578  0.0190 -0.0527
  165TMC2    O5 2579   1.701   0.769   0.418  0.1806 -0.2821 -0.3610
  165TMC2    H5 2580   1.761   0.844   0.436 -0.3522 -0.1533  0.9004
  166MPD2     C 2581   1.032   1.231   0.205 -0.3158 -0.7660 -0.3425
  166MPD2    C1 2582   1.062   1.112   0.270  0.2571 -0.5759  0.0636
  166MPD2    C2 2583   1.182   1.058   0.240  0.2068  0.5050 -0.3951
  166MPD2    C3 2584   1.278   1.120   0.165 -0.0740 -0.6079 -0.3065
  166MPD2    C4 2585   1.247   1.239   0.096  0.0983  0.3215 -0.2370
  166MPD2    C5 2586   1.126   1.298   0.126  0.0731 -0.1658 -0.3727
  166MPD2     H 2587   1.215   0.961   0.274  0.8026  0.9936  0.4493
  166MPD2    H1 2588   1.314   1.295   0.032 -0.7788  0.2000 -1.2620
  166MPD2    H2 2589   0.934   1.278   0.212  1.3134  2.4685  0.8205
  166MPD2    H3 2590   1.093   1.392   0.084  0.9011 -0.5354 -1.8596
  166MPD2     N 2591   1.401   1.056   0.161 -0.1928 -0.1287 -0.8597
  166MPD2    H5 2592   1.413   0.970   0.214  3.4084  1.0161  0.1486
  166MPD2    N1 2593   0.963   1.052   0.348 -0.3329  0.0796  0.5495
  166MPD2    H7 2594   0.885   1.112   0.374 -0.9985 -0.4064 -0.3413
  167TMC2    C1 2595   4.096   4.499  12.479 -0.7254  0.1081  0.2550
  167TMC2    C2 2596   4.023   4.567  12.578 -0.0933  0.6486  0.2744
  167TMC2    C3 2597   3.980   4.495  12.685  0.0590 -0.6065  0.4379
  167TMC2    C4 2598   4.117   4.367  12.489  0.5344  0.0699 -0.0175
  167TMC2    C5 2599   4.075   4.299  12.597  0.0446  0.3497 -1.0581
  167TMC2    C6 2600   3.999   4.359  12.691  0.5773  1.2389  0.0062
  167TMC2     C 2601   4.130   4.578  12.362  0.1775 -0.4631  0.3007
  167TMC2     O 2602   4.067   4.682  12.359 -0.4951 -0.1904  0.1125
  167TMC2     H 2603   4.011   4.674  12.575  1.5176  0.8757  2.4749
  167TMC2    H1 2604   4.148   4.313  12.400 -1.9355 -1.7904  0.2458
  167TMC2    H2 2605   3.965   4.302  12.777 -2.4044 -0.4308 -2.2579
  167TMC2    C7 2606   4.113   4.158  12.622  0.4766 -0.1755 -0.0641
  167TMC2    C8 2607   3.943   4.556  12.822 -0.2825 -0.6029  0.7584
  167TMC2    O1 2608   4.038   4.082  12.679 -0.3622 -0.6424  0.6091
  167TMC2    O2 2609   3.893   4.482  12.902 -0.1570 -0.2751  0.0870
  167TMC2    O5 2610   3.903   4.680  12.784  0.0008 -0.6772 -0.5982
  167TMC2    H5 2611   3.970   4.722  12.727  0.9380 -1.0906  0.2086
  168MPD2     C 2612   4.222   4.712  12.105 -0.1032  0.2459  0.3567
  168MPD2    C1 2613   4.270   4.587  12.153 -0.2802  0.1875  0.8377
  168MPD2    C2 2614   4.345   4.506  12.066  0.3160 -0.4923 -0.7959
  168MPD2    C3 2615   4.366   4.542  11.936 -0.2260  0.9578 -0.4267
  168MPD2    C4 2616   4.309   4.658  11.889 -0.2323 -0.0418 -0.0978
  168MPD2    C5 2617   4.239   0.007  11.972 -0.5897 -0.7057 -1.0032
  168MPD2     H 2618   4.379   4.409  12.101  2.9436  1.2924  1.6420
  168MPD2    H1 2619   4.325   4.676  11.783  2.2658  2.4323  0.6818
  168MPD2    H2 2620   4.168   0.045  12.168 -0.2860  1.5557 -1.2155
  168MPD2    H3 2621   4.201   0.098  11.927 -3.1435 -1.7613 -0.9738
  168MPD2     N 2622   4.421   4.456  11.840 -0.9824 -0.4667  0.3110
  168MPD2    H5 2623   4.411   4.480  11.741  0.1618  1.1509  0.5971
  168MPD2    N1 2624   4.234   4.530  12.282 -0.3590  0.1472  0.2413
  168MPD2    H7 2625   4.283   4.449  12.318  0.2862  0.7750  0.7679
  169MPD1     C 2626   1.080   4.227   9.531 -0.1305 -0.2383 -0.1196
  169MPD1    C1 2627   1.121   4.194   9.662 -0.1449 -0.2013 -0.6160
  169MPD1    C2 2628   1.244   4.128   9.678 -1.2353 -0.2380 -0.6428
  169MPD1    C3 2629   1.316   4.082   9.564  0.0243 -0.1642 -0.9025
  169MPD1    C4 2630   1.258   4.103   9.438  0.4235 -0.3138 -0.0613
  169MPD1    C5 2631   1.144   4.177   9.428 -0.6808 -0.9173 -0.2188
  169MPD1     H 2632   1.274   4.091   9.775 -0.3794 -1.6260 -1.4309
  169MPD1    H1 2633   1.309   4.072   9.347  0.3185  0.4650 -0.3794
  169MPD1    H2 2634   0.983   4.274   9.520 -0.8166 -1.2454  1.5505
  169MPD1    H3 2635   1.090   4.192   9.335 -1.5020 -1.8438  0.1137
  169MPD1     N 2636   1.431   4.001   9.582  0.3639  0.0076 -0.0025
  169MPD1    H5 2637   1.458   3.983   9.678  1.3795  0.3509 -0.2222
  169MPD1    N1 2638   1.051   4.247   9.772 -0.3215 -0.5800  0.0958
  169MPD1    H6 2639   0.950   4.242   9.756 -0.2808  3.1991 -1.4670
  169MPD1    H7 2640   1.056   4.192   9.857 -2.1279  0.6090  0.9812
  170MPD1     C 2641   0.673   1.715  12.512 -0.2017 -0.3907  0.5852
  170MPD1    C1 2642   0.646   1.842  12.550  0.1230 -1.0734 -0.0398
  170MPD1    C2 2643   0.586   1.869  12.672  0.0938 -0.0615 -0.5058
  170MPD1    C3 2644   0.547   1.776  12.762 -0.3275 -1.0749 -0.1882
  170MPD1    C4 2645   0.582   1.646  12.730  0.1269 -0.1215 -0.4243
  170MPD1    C5 2646   0.641   1.617  12.609  0.5520 -0.5383 -0.5264
  170MPD1     H 2647   0.566   1.973  12.695  2.6009  0.4799 -0.8403
  170MPD1    H1 2648   0.547   1.562  12.788 -0.5718 -1.1594 -2.3496
  170MPD1    H2 2649   0.708   1.682  12.414 -1.1563  0.4550 -0.0408
  170MPD1    H3 2650   0.662   1.512  12.591  2.0263 -0.7935  2.7436
  170MPD1     N 2651   0.470   1.812  12.876  0.4324  0.1125  0.2734
  170MPD1    H5 2652   0.446   1.910  12.874 -0.4436 -0.1036  0.0824
  170MPD1    N1 2653   0.654   1.946  12.462 -0.3231 -0.6091  0.4910
  170MPD1    H6 2654   0.698   1.916  12.375  1.9831  0.7373  1.1903
  170MPD1    H7 2655   0.700   2.024  12.509  1.1253 -0.6201 -0.9158
  171MPD1     C 2656   4.015   2.829  15.220  0.0989  0.2151  0.3374
  171MPD1    C1 2657   3.892   2.760  15.217 -0.2140  0.3665 -0.3641
  171MPD1    C2 2658   3.897   2.629  15.258  0.0215 -0.3597  0.5405
  171MPD1    C3 2659   3.998   2.586  15.342  0.0330 -0.2798 -0.6036
  171MPD1    C4 2660   4.115   2.662  15.345  0.2577  0.2223  0.2429
  171MPD1    C5 2661   4.119   2.777  15.282 -0.0127  0.3437  0.1106
  171MPD1     H 2662   3.815   2.562  15.238 -0.4543  1.0329 -2.1613
  171MPD1    H1 2663   4.201   2.633  15.404 -2.0774 -2.4658  2.3401
  171MPD1    H2 2664   4.025   2.923  15.167 -1.8822  1.2191  1.7880
  171MPD1    H3 2665   4.211   2.835  15.292  0.8066 -1.2348  1.5876
  171MPD1     N 2666   3.999   2.468  15.410 -0.3610 -0.0553  0.2225
  171MPD1    H5 2667   4.084   2.449  15.461  0.3042 -1.8638 -1.5868
  171MPD1    N1 2668   3.793   2.802  15.127 -0.9046 -0.2332 -0.0142
  171MPD1    H6 2669   3.787   2.903  15.121  2.9148  0.0858  1.3718
  171MPD1    H7 2670   3.701   2.774  15.161 -1.1367 -0.8509 -1.1518
  172MPD1     C 2671   3.186   0.936  17.466  0.1913 -0.3372 -0.3626
  172MPD1    C1 2672   3.173   1.052  17.402 -0.5211 -0.0985 -0.9283
  172MPD1    C2 2673   3.201   1.172  17.463  0.6913  0.2737 -1.2709
  172MPD1    C3 2674   3.234   1.169  17.601 -0.1498 -0.1999  0.1375
  172MPD1    C4 2675   3.238   1.053  17.672 -0.1251  0.1718 -0.1514
  172MPD1    C5 2676   3.214   0.943  17.599  0.2542 -0.6325  0.5822
  172MPD1     H 2677   3.194   1.266  17.409 -0.3787  1.4195  0.8174
  172MPD1    H1 2678   3.273   1.048   0.035 -0.5731 -0.0830 -0.0098
  172MPD1    H2 2679   3.184   0.837  17.422  0.8870 -1.9768  3.2647
  172MPD1    H3 2680   3.244   0.850  17.645  0.5543 -0.0655  1.5361
  172MPD1     N 2681   3.284   1.288  17.668  0.4208 -0.6857  0.2260
  172MPD1    H5 2682   3.313   1.279   0.026  0.8665  0.2525  0.1855
  172MPD1    N1 2683   3.158   1.047  17.260 -0.5608  0.0345  0.0030
  172MPD1    H6 2684   3.129   1.134  17.216 -0.3881 -0.1400 -0.4527
  172MPD1    H7 2685   3.097   0.970  17.235 -1.9284  1.1498 -0.1258
  173MPD1     C 2686   4.669   2.125  13.744 -0.7718 -0.5666  0.0049
  173MPD1    C1 2687   4.724   2.004  13.716  0.2850 -0.2891 -0.2722
  173MPD1    C2 2688   4.666   1.890  13.770  0.2137  0.4860  0.3203
  173MPD1    C3 2689   4.546   1.898  13.835  0.2127  0.0286 -0.1016
  173MPD1    C4 2690   4.496   2.018  13.867  0.0443 -0.2808  0.0862
  173MPD1    C5 2691   4.555   2.136  13.821 -0.6794  0.1612 -0.0614
  173MPD1     H 2692   4.695   1.791  13.739  0.0852  0.6492 -0.3193
  173MPD1    H1 2693   4.413   2.041  13.933  0.8138 -1.4815  1.4632
  173MPD1    H2 2694   4.709   2.219  13.709 -2.5687 -0.6294 -2.2544
  173MPD1    H3 2695   4.524   2.238  13.843 -0.9820  0.2094 -0.7237
  173MPD1     N 2696   4.483   1.778  13.870 -0.6532  0.0504  1.0156
  173MPD1    H5 2697   4.542   1.698  13.848  0.1386  1.2899 -1.4320
  173MPD1    N1 2698   0.102   1.981  13.640 -0.6078  0.4388  0.0662
  173MPD1    H6 2699   0.112   2.061  13.577 -0.6373  0.6069  0.2775
  173MPD1    H7 2700   0.105   1.892  13.590  0.5571  1.3153 -1.4306
  174MPD1     C 2701   0.276   1.393  14.372 -0.5308  0.8888  0.4635
  174MPD1    C1 2702   0.162   1.388  14.445 -0.0273 -0.8397  0.0505
  174MPD1    C2 2703   0.042   1.416  14.388  0.5142 -0.3780  0.0569
  174MPD1    C3 2704   0.027   1.423  14.253 -0.1942  0.0307  0.1082
  174MPD1    C4 2705   0.140   1.419  14.176  0.0836  0.5475  0.1348
  174MPD1    C5 2706   0.264   1.394  14.237  0.1043 -0.3982  0.0572
  174MPD1     H 2707   4.687   1.436  14.446  0.0406  0.6176 -1.0090
  174MPD1    H1 2708   0.140   1.413  14.068 -1.2086  1.6976  0.0761
  174MPD1    H2 2709   0.376   1.382  14.412 -0.1977 -2.1520 -1.1250
  174MPD1    H3 2710   0.355   1.407  14.180 -1.1916 -1.1612 -2.1742
  174MPD1     N 2711   4.640   1.453  14.186 -0.3064  1.1585 -0.0097
  174MPD1    H5 2712   4.644   1.480  14.088 -0.5072 -1.6053 -0.7876
  174MPD1    N1 2713   0.172   1.394  14.587 -0.7522  0.0905 -0.1249
  174MPD1    H6 2714   0.096   1.349  14.637 -0.3708 -1.8364 -1.2934
  174MPD1    H7 2715   0.261   1.362  14.625 -0.5627 -1.5389 -1.9392
  175MPD1     C 2716   2.465   2.703  14.937  0.2089  0.2214  0.6912
  175MPD1    C1 2717   2.406   2.780  15.034 -0.2786 -0.1607 -0.0661
  175MPD1    C2 2718   2.448   2.772  15.166  0.1172 -0.1573  0.8938
  175MPD1    C3 2719   2.534   2.671  15.209 -0.5574  0.4071  0.3595
  175MPD1    C4 2720   2.577   2.584  15.109 -0.3952  0.2361  0.6929
  175MPD1    C5 2721   2.551   2.604  14.977 -0.5309 -0.4198  0.1828
  175MPD1     H 2722   2.401   2.833  15.242 -0.3243 -2.3287  2.3542
  175MPD1    H1 2723   2.647   2.504  15.131  0.4943  1.0444  0.7816
  175MPD1    H2 2724   2.451   2.726  14.832  0.4670  0.1000  0.6270
  175MPD1    H3 2725   2.610   2.542  14.910  1.1069  0.2107  1.0249
  175MPD1     N 2726   2.566   2.658  15.346 -0.3476  0.3985  0.2670
  175MPD1    H5 2727   2.542   2.737  15.405 -0.2423  0.7743 -0.1899
  175MPD1    N1 2728   2.318   2.878  14.995  0.1202  0.1572  0.1132
  175MPD1    H6 2729   2.251   2.893  15.069  0.9815  1.5152  0.6121
  175MPD1    H7 2730   2.268   2.849  14.911  0.3529  0.0568  0.0089
  176MPD1     C 2731   0.278   4.012  17.239  0.6822  0.1522  0.1694
  176MPD1    C1 2732   0.211   4.027  17.359  0.5073  0.6471  0.0555
  176MPD1    C2 2733   0.139   4.146  17.372  0.1606 -1.2076 -0.7700
  176MPD1    C3 2734   0.142   4.246  17.276  0.9844  0.4113 -0.4180
  176MPD1    C4 2735   0.216   4.227  17.165 -0.4580 -0.8662 -0.2741
  176MPD1    C5 2736   0.279   4.105  17.143 -0.2279  0.2274  0.0078
  176MPD1     H 2737   0.084   4.155  17.465 -0.4031 -0.8181 -1.1434
  176MPD1    H1 2738   0.232   4.302  17.088  0.8663 -1.9658 -1.0734
  176MPD1    H2 2739   0.321   3.914  17.220 -0.2729  0.1798 -2.1725
  176MPD1    H3 2740   0.342   4.093  17.056  0.2368  2.0159  0.0863
  176MPD1     N 2741   0.054   4.363  17.285 -0.6772  0.4815  1.0020
  176MPD1    H5 2742   0.000   4.366  17.371  1.3175  0.1538  2.2732
  176MPD1    N1 2743   0.189   3.910  17.446 -0.3917 -0.9048  0.0498
  176MPD1    H6 2744   0.161   3.930  17.542  0.7807 -2.2526  0.6627
  176MPD1    H7 2745   0.263   3.840  17.451  1.8361  1.3019 -1.6835
  177MPD1     C 2746   3.105   0.019  10.264 -0.0533 -0.3280 -0.0225
  177MPD1    C1 2747   3.067   4.662  10.164 -1.0703 -0.0723  0.2142
  177MPD1    C2 2748   3.011   4.714  10.052 -0.0443  0.4399 -0.0795
  177MPD1    C3 2749   2.985   0.111  10.033 -0.1977  0.1054  0.6813
  177MPD1    C4 2750   3.016   0.202  10.132 -0.1631 -0.4815  0.2981
  177MPD1    C5 2751   3.075   0.153  10.248 -0.2769 -0.2620  0.7541
  177MPD1     H 2752   2.974   4.639   9.983 -2.7444  0.9758  0.7918
  177MPD1    H1 2753   2.993   0.307  10.119 -0.7685 -0.6374  0.0914
  177MPD1    H2 2754   3.151   4.717  10.355 -2.3246  1.9482  2.0597
  177MPD1    H3 2755   3.094   0.222  10.330  2.5398 -0.5125  0.3419
  177MPD1     N 2756   2.922   0.151   9.911  0.2036  0.4038 -0.3321
  177MPD1    H5 2757   2.899   0.074   9.849  1.9890 -0.1692 -0.2690
  177MPD1    N1 2758   3.115   4.533  10.161  0.0379 -0.5460 -0.0494
  177MPD1    H6 2759   3.134   4.499  10.255  1.4117 -1.6257 -0.7094
  177MPD1    H7 2760   3.052   4.468  10.115 -0.9654 -0.7167  1.5551
  178MPD1     C 2761   0.465   1.601  17.346 -0.0003  0.0930 -0.5631
  178MPD1    C1 2762   0.397   1.523  17.255  0.4587  1.0428  0.0023
  178MPD1    C2 2763   0.412   1.384  17.262 -0.0329 -0.1764  0.0776
  178MPD1    C3 2764   0.506   1.327  17.341  0.2391 -0.4787  0.1529
  178MPD1    C4 2765   0.589   1.408  17.418  0.5916 -0.0998 -0.0235
  178MPD1    C5 2766   0.572   1.546  17.415 -0.0199 -0.3874 -0.2964
  178MPD1     H 2767   0.331   1.333  17.212 -1.4494 -0.0804  2.3136
  178MPD1    H1 2768   0.670   1.369  17.477 -0.0340 -1.9487 -0.3956
  178MPD1    H2 2769   0.441   1.707  17.341  2.3210  0.7034  1.3245
  178MPD1    H3 2770   0.640   1.608  17.472 -0.6124  0.2958 -0.3376
  178MPD1     N 2771   0.506   1.189  17.383 -0.1365  0.2904 -0.0196
  178MPD1    H5 2772   0.585   1.159  17.439 -0.0532  1.7009  0.6026
  178MPD1    N1 2773   0.276   1.570  17.197  0.2891 -0.3272  0.2199
  178MPD1    H6 2774   0.253   1.524  17.109 -0.2537  2.8606 -1.2995
  178MPD1    H7 2775   0.291   1.664  17.161 -0.2090 -0.0847  0.6550
  179MPD1     C 2776   0.233   4.063  15.733  0.6012  0.0987 -0.2300
  179MPD1    C1 2777   0.321   3.981  15.803 -0.1934 -0.3556  0.5499
  179MPD1    C2 2778   0.304   3.842  15.798  1.0178  0.5320 -0.1288
  179MPD1    C3 2779   0.208   3.786  15.716  0.4185 -0.4940 -0.1539
  179MPD1    C4 2780   0.121   3.870  15.652 -0.3663 -0.1833 -0.7594
  179MPD1    C5 2781   0.133   4.005  15.659 -0.1015 -0.0297  0.0665
  179MPD1     H 2782   0.366   3.773  15.854 -0.1784  0.9298  1.6627
  179MPD1    H1 2783   0.054   3.816  15.586 -0.0114 -1.0698 -0.4046
  179MPD1    H2 2784   0.229   4.167  15.759 -1.5367 -0.1181  0.2564
  179MPD1    H3 2785   0.063   4.074  15.612 -0.2730 -1.0224 -1.1239
  179MPD1     N 2786   0.182   3.649  15.704 -0.5236  0.0270  0.5673
  179MPD1    H5 2787   0.090   3.630  15.667 -0.7068  0.8989  0.5764
  179MPD1    N1 2788   0.404   4.047  15.895  0.6757  0.4481 -0.3928
  179MPD1    H6 2789   0.481   3.992  15.931 -0.4303  0.3561  1.8052
  179MPD1    H7 2790   0.442   4.135  15.860  1.2090  0.0461 -0.8259
  180MPD1     C 2791   0.255   0.020  14.595 -0.1277  0.4936 -0.4221
  180MPD1    C1 2792   0.253   0.054  14.460  0.7303 -0.2324 -0.4111
  180MPD1    C2 2793   0.141   0.120  14.408 -0.2513  0.2960  0.0998
  180MPD1    C3 2794   0.038   0.155  14.492 -0.0525  0.2196 -0.2285
  180MPD1    C4 2795   0.042   0.125  14.626 -0.8155 -0.5236 -0.2440
  180MPD1    C5 2796   0.152   0.058  14.678 -0.5935 -0.1442  0.2660
  180MPD1     H 2797   0.146   0.139  14.302 -1.4194 -0.0900 -0.0238
  180MPD1    H1 2798   4.691   0.149  14.688 -0.4297  0.3098 -0.0256
  180MPD1    H2 2799   0.335   4.691  14.631 -0.8318  0.1693  0.5653
  180MPD1    H3 2800   0.143   0.020  14.779 -0.8344  0.0815  0.3283
  180MPD1     N 2801   4.664   0.225  14.438 -0.3306 -0.1621  0.0725
  180MPD1    H5 2802   4.661   0.239  14.338 -0.2826 -0.9939 -0.0391
  180MPD1    N1 2803   0.366   0.036  14.386  0.7373 -1.0433  0.6125
  180MPD1    H6 2804   0.369   0.088  14.299 -0.1576 -1.9986  0.0120
  180MPD1    H7 2805   0.451   0.056  14.439  1.0850  1.0203 -0.7268
  181MPD1     C 2806   0.621   1.875   9.805  1.1376  0.5595  0.2545
  181MPD1    C1 2807   0.639   1.906   9.940 -0.3731 -0.3030  0.9507
  181MPD1    C2 2808   0.752   1.979   9.978  0.5662  0.0531  0.1535
  181MPD1    C3 2809   0.858   2.003   9.890 -0.7619  0.7827 -0.1466
  181MPD1    C4 2810   0.834   1.978   9.755 -0.7925  0.1123  0.1692
  181MPD1    C5 2811   0.718   1.919   9.716  0.4806  0.2755  0.2712
  181MPD1     H 2812   0.764   2.000  10.084  0.2293  0.6305  0.0779
  181MPD1    H1 2813   0.905   2.007   9.678  0.7005 -0.8192  1.1976
  181MPD1    H2 2814   0.531   1.832   9.764 -0.0999  1.5063  2.0097
  181MPD1    H3 2815   0.715   1.902   9.609  0.8761  2.1824 -0.0603
  181MPD1     N 2816   0.980   2.063   9.926  0.3320 -0.3840  0.0056
  181MPD1    H5 2817   1.048   2.064   9.850  1.1073 -2.3011  0.6679
  181MPD1    N1 2818   0.528   1.882  10.025  0.1716 -0.4262  0.0767
  181MPD1    H6 2819   0.571   1.882  10.118  1.5720  1.1146 -0.5643
  181MPD1    H7 2820   0.489   1.788  10.015 -1.1819  0.1622 -0.1011
  182MPD1     C 2821   2.645   4.398   0.782 -0.3955 -0.1509  0.7302
  182MPD1    C1 2822   2.623   4.498   0.874 -0.1886  0.6590  0.3777
  182MPD1    C2 2823   2.579   4.620   0.827  0.0908 -0.3230 -0.0916
  182MPD1    C3 2824   2.566   4.643   0.692  0.1342 -0.4421 -0.0906
  182MPD1    C4 2825   2.575   4.537   0.605 -0.6319 -0.2305  0.2986
  182MPD1    C5 2826   2.608   4.413   0.652 -0.9762  0.6989 -0.6913
  182MPD1     H 2827   2.561   4.703   0.894 -1.3280  0.5737 -1.5801
  182MPD1    H1 2828   2.584   4.559   0.499  0.7801 -0.8557  0.2961
  182MPD1    H2 2829   2.682   4.306   0.826  1.1746  1.0297  1.9032
  182MPD1    H3 2830   2.645   4.344   0.578  1.1909  0.4164  0.6642
  182MPD1     N 2831   2.547   0.035   0.633  0.3537  0.4092  0.0473
  182MPD1    H5 2832   2.544   0.040   0.532  1.3892  0.6608  0.0254
  182MPD1    N1 2833   2.658   4.485   1.008 -0.4086 -0.4510 -0.1261
  182MPD1    H6 2834   2.613   4.553   1.070 -5.5551 -2.3939 -1.6755
  182MPD1    H7 2835   2.651   4.392   1.049  0.9803 -0.7053 -0.4673
  183MPD1     C 2836   2.737   1.664   8.426 -0.5318 -0.0143  0.2654
  183MPD1    C1 2837   2.641   1.761   8.445 -0.4897  0.3179  0.5633
  183MPD1    C2 2838   2.596   1.768   8.579  0.5393  0.2693  0.9059
  183MPD1    C3 2839   2.630   1.683   8.679  0.5846  0.0078 -0.9319
  183MPD1    C4 2840   2.731   1.589   8.652 -0.2502  0.6383 -0.6380
  183MPD1    C5 2841   2.787   1.580   8.524 -0.3713 -0.4030  0.1339
  183MPD1     H 2842   2.525   1.847   8.602  1.5399  0.0769  4.5465
  183MPD1    H1 2843   2.759   1.510   8.721  0.5222 -0.5846 -2.3635
  183MPD1    H2 2844   2.788   1.659   8.331  1.1705 -0.6062  1.2013
  183MPD1    H3 2845   2.860   1.506   8.493 -1.1850 -0.9827 -0.3923
  183MPD1     N 2846   2.572   1.705   8.808  0.1024 -0.0480  0.1846
  183MPD1    H5 2847   2.502   1.778   8.809 -1.3260 -1.4277  1.4573
  183MPD1    N1 2848   2.608   1.866   8.359 -0.1274  0.4756 -0.3319
  183MPD1    H6 2849   2.519   1.896   8.399 -0.0697  1.2461 -0.7850
  183MPD1    H7 2850   2.606   1.838   8.261 -2.3146  0.2673 -0.2412
  184MPD1     C 2851   2.735   4.090  10.378  0.4045  0.0693 -0.0705
  184MPD1    C1 2852   2.601   4.058  10.363  0.1810 -0.3516 -0.3083
  184MPD1    C2 2853   2.528   4.121  10.263  0.0482  0.7305 -0.4579
  184MPD1    C3 2854   2.586   4.223  10.197  0.1602  0.1995  0.3815
  184MPD1    C4 2855   2.715   4.251  10.207 -0.1829 -0.2442 -0.0611
  184MPD1    C5 2856   2.784   4.177  10.292  0.5031 -0.3116  0.9408
  184MPD1     H 2857   2.423   4.093  10.260  0.1940  0.2433 -1.0348
  184MPD1    H1 2858   2.762   4.328  10.148 -0.0899  0.7586  1.3289
  184MPD1    H2 2859   2.803   4.044  10.448 -0.0960  1.4819  1.3363
  184MPD1    H3 2860   2.887   4.202  10.312  1.1505 -1.3791 -1.0680
  184MPD1     N 2861   2.514   4.300  10.107  0.0333  0.6240 -0.2940
  184MPD1    H5 2862   2.556   4.378  10.057  0.7416 -2.0122 -3.8576
  184MPD1    N1 2863   2.541   3.946  10.432 -0.6177  0.3660 -0.0612
  184MPD1    H6 2864   2.445   3.955  10.465 -0.6655 -0.2305 -0.0315
  184MPD1    H7 2865   2.595   3.907  10.508  0.3502  1.6939 -0.0632
  185MPD1     C 2866   1.912   4.054   9.383  0.2027  0.5949  0.4254
  185MPD1    C1 2867   1.860   4.176   9.407 -0.2320 -0.2965  0.5618
  185MPD1    C2 2868   1.925   4.242   9.507  0.3732  0.3668 -0.3037
  185MPD1    C3 2869   2.027   4.193   9.591 -0.1200 -0.3446 -0.1706
  185MPD1    C4 2870   2.052   4.060   9.582 -0.0590 -0.1106  0.5321
  185MPD1    C5 2871   1.994   3.995   9.472  0.0574 -0.1866  0.0343
  185MPD1     H 2872   1.895   4.346   9.518 -0.2776  0.0684  0.6835
  185MPD1    H1 2873   2.135   4.022   9.641 -1.3128 -2.0600  1.0525
  185MPD1    H2 2874   1.891   3.998   9.293  0.2537  0.9099  0.2154
  185MPD1    H3 2875   2.035   3.897   9.454  0.4025  0.0157 -0.2891
  185MPD1     N 2876   2.086   4.262   9.696  0.6879  0.4277  0.5655
  185MPD1    H5 2877   2.147   4.211   9.758  0.8203  1.1900  1.0713
  185MPD1    N1 2878   1.784   4.238   9.312  0.3108  0.2757  0.2844
  185MPD1    H6 2879   1.708   4.180   9.277 -0.7318  2.0000 -0.2967
  185MPD1    H7 2880   1.753   4.332   9.333 -0.7565  0.3271 -1.5596
  186MPD1     C 2881   0.709   3.302  16.050  0.1728 -0.0602 -0.7379
  186MPD1    C1 2882   0.841   3.337  16.082  0.7347 -0.1149 -0.7951
  186MPD1    C2 2883   0.858   3.454  16.157  0.0537  0.2177 -0.7544
  186MPD1    C3 2884   0.759   3.549  16.181 -0.4853 -0.0682 -0.3145
  186MPD1    C4 2885   0.637   3.521  16.139  0.1746 -0.1732  0.1589
  186MPD1    C5 2886   0.618   3.397  16.080 -0.1018 -0.4571  0.5168
  186MPD1     H 2887   0.958   3.477  16.193 -0.0886 -0.0946 -0.1713
  186MPD1    H1 2888   0.550   3.584  16.152  1.0271  1.2232 -0.9882
  186MPD1    H2 2889   0.685   3.208  16.000  0.0743 -0.4260 -0.0033
  186MPD1    H3 2890   0.520   3.370  16.043  0.4413 -2.1000  0.2942
  186MPD1     N 2891   0.779   3.664  16.249  0.3445  0.4833  0.0955
  186MPD1    H5 2892   0.697   3.713  16.286  0.0870  0.8095 -0.9051
  186MPD1    N1 2893   0.951   3.247  16.078  0.4254  0.5443 -0.2941
  186MPD1    H6 2894   0.945   3.174  16.007  1.3891  3.5634 -3.4666
  186MPD1    H7 2895   1.043   3.290  16.076 -0.2553  2.0093 -1.0471
  187MPD1     C 2896   0.212   1.019   0.036 -0.2364 -0.0686  0.2587
  187MPD1    C1 2897   0.105   0.926   0.050 -0.0790 -0.4565 -0.0970
  187MPD1    C2 2898   0.012   0.920  17.689 -0.1926  0.2571  0.5988
  187MPD1    C3 2899   0.015   1.001  17.579 -0.4089 -0.2221  0.5458
  187MPD1    C4 2900   0.118   1.096  17.574  0.8832  0.5226 -0.0916
  187MPD1    C5 2901   0.214   1.106  17.666  0.3280  0.1082 -0.6258
  187MPD1     H 2902   4.665   0.851  17.704  0.0136  0.5103  2.9164
  187MPD1    H1 2903   0.113   1.170  17.495 -2.5746  1.2549  0.8010
  187MPD1    H2 2904   0.284   1.026   0.116  0.9286 -0.5431 -0.7443
  187MPD1    H3 2905   0.281   1.191  17.668  1.6934 -0.9756  0.6248
  187MPD1     N 2906   4.644   1.005  17.483  0.1464  0.2068  0.3975
  187MPD1    H5 2907   4.662   1.070  17.408 -0.4426 -1.7903 -1.4746
  187MPD1    N1 2908   0.103   0.826   0.142  0.0835 -0.0414  0.2874
  187MPD1    H6 2909   0.155   0.855   0.225 -1.2840  1.3769  0.6456
  187MPD1    H7 2910   0.010   0.796   0.168  0.1389  1.1460  1.8623
  188MPD1     C 2911   3.534   1.115   9.624 -0.0598 -0.2584  0.3120
  188MPD1    C1 2912   3.652   1.110   9.690  0.0617 -0.1094  0.2021
  188MPD1    C2 2913   3.706   0.982   9.714 -0.3401 -1.0902 -0.0726
  188MPD1    C3 2914   3.643   0.867   9.672 -0.9162 -0.0275  0.4262
  188MPD1    C4 2915   3.526   0.882   9.595 -0.2212  0.1454  0.4074
  188MPD1    C5 2916   3.464   1.004   9.589 -0.4941  0.7414  0.7595
  188MPD1     H 2917   3.796   0.972   9.774 -0.9627  0.4551  1.1339
  188MPD1    H1 2918   3.463   0.799   9.564  0.0995  0.1852 -0.3626
  188MPD1    H2 2919   3.481   1.209   9.629 -1.9407 -1.1200 -3.1787
  188MPD1    H3 2920   3.371   1.010   9.533 -0.2072  0.2141  0.2263
  188MPD1     N 2921   3.685   0.738   9.705  0.2192 -0.2644  0.6357
  188MPD1    H5 2922   3.630   0.659   9.672  1.3159 -0.4186 -0.8012
  188MPD1    N1 2923   3.697   1.227   9.751 -0.2382  0.0152  0.1496
  188MPD1    H6 2924   3.799   1.228   9.748 -0.3042  3.5831 -1.3332
  188MPD1    H7 2925   3.662   1.310   9.703  2.6368  0.5934 -0.9670
  189MPD1     C 2926   1.966   1.550   0.192  0.5403  0.3819  0.4019
  189MPD1    C1 2927   1.867   1.528   0.278  1.0791 -0.0102  0.3820
  189MPD1    C2 2928   1.792   1.627   0.320  0.7320  0.1512 -0.2362
  189MPD1    C3 2929   1.799   1.753   0.264  0.0969 -0.8863  0.3135
  189MPD1    C4 2930   1.893   1.769   0.166 -0.0118  0.3895 -0.8311
  189MPD1    C5 2931   1.980   1.675   0.131 -0.2425  0.2717 -1.0867
  189MPD1     H 2932   1.723   1.607   0.401  1.1206 -2.8696 -0.6456
  189MPD1    H1 2933   1.912   1.865   0.120  1.4370  1.6611  2.4106
  189MPD1    H2 2934   2.040   1.477   0.162  0.3531  0.2698  0.2090
  189MPD1    H3 2935   2.051   1.701   0.054 -0.7946  1.5868 -1.1465
  189MPD1     N 2936   1.715   1.854   0.306  0.4298  0.5620 -0.5544
  189MPD1    H5 2937   1.635   1.834   0.365 -0.2566 -2.9223 -2.6596
  189MPD1    N1 2938   1.842   1.399   0.331  0.0358 -0.0367  0.4528
  189MPD1    H6 2939   1.742   1.390   0.351 -0.6442  1.0018 -2.4445
  189MPD1    H7 2940   1.872   1.322   0.272 -0.2567  0.9596 -0.9960
  190MPD1     C 2941   4.614   0.480  15.724  0.2976 -0.2331  0.3470
  190MPD1    C1 2942   4.648   0.403  15.838  0.2902  0.3164  0.7059
  190MPD1    C2 2943   0.042   0.365  15.849 -0.3304 -1.3439  1.2985
  190MPD1    C3 2944   0.139   0.380  15.749 -0.1502 -0.2675 -0.4398
  190MPD1    C4 2945   0.097   0.446  15.631 -0.4373  0.3963  1.0814
  190MPD1    C5 2946   4.710   0.504  15.629 -0.0045  0.1505 -0.3680
  190MPD1     H 2947   0.072   0.329  15.947  2.6085 -2.2301  0.0467
  190MPD1    H1 2948   0.170   0.454  15.551  0.5038  0.4011  1.9510
  190MPD1    H2 2949   4.513   0.517  15.710 -0.0519 -1.2541  0.2188
  190MPD1    H3 2950   4.679   0.568  15.548 -1.6868 -0.7544 -0.4390
  190MPD1     N 2951   0.271   0.334  15.770  0.6248  0.1765 -0.3682
  190MPD1    H5 2952   0.302   0.284  15.853  0.9094  0.1740 -0.4759
  190MPD1    N1 2953   4.563   0.386  15.950  0.8131  0.1950  0.4004
  190MPD1    H6 2954   4.465   0.400  15.927  0.8506  0.4005  0.3685
  190MPD1    H7 2955   4.556   0.290  15.981  1.1508  0.3816  1.0587
  191MPD1     C 2956   4.395   2.217  12.071 -0.2249  0.7329 -0.1409
  191MPD1    C1 2957   4.315   2.215  11.959 -0.3752 -0.0140  0.2111
  191MPD1    C2 2958   4.361   2.294  11.852  0.2729  0.2189  0.4338
  191MPD1    C3 2959   4.473   2.367  11.854  0.2779 -0.7904 -0.7198
  191MPD1    C4 2960   4.539   2.374  11.976  0.1250 -0.5084 -0.2627
  191MPD1    C5 2961   4.502   2.296  12.080 -0.3108 -0.6208 -1.1319
  191MPD1     H 2962   4.294   2.303  11.767  0.5626 -1.2930  0.0390
  191MPD1    H1 2963   4.616   2.444  12.006  0.7560 -0.4394 -2.0474
  191MPD1    H2 2964   4.379   2.152  12.156 -1.9081  0.7759 -0.4103
  191MPD1    H3 2965   4.551   2.320  12.174 -1.1608 -1.8858 -0.3590
  191MPD1     N 2966   4.508   2.446  11.741 -0.1873 -0.7569  0.0798
  191MPD1    H5 2967   4.449   2.427  11.660  0.9181  0.5610 -1.0365
  191MPD1    N1 2968   4.218   2.117  11.944  0.5756  0.1598  0.0299
  191MPD1    H6 2969   4.267   2.036  11.908 -1.6255 -0.4578 -1.5917
  191MPD1    H7 2970   4.180   2.086  12.033 -0.1727  3.4941  0.8802
  192MPD1     C 2971   4.728   2.508  10.751  0.1862  0.1697 -0.8867
  192MPD1    C1 2972   4.643   2.439  10.835  0.1802  0.0767  0.5289
  192MPD1    C2 2973   4.657   2.457  10.969  0.0933 -0.0241 -0.0187
  192MPD1    C3 2974   0.023   2.537  11.018 -0.1180 -0.4093 -0.3168
  192MPD1    C4 2975   0.111   2.591  10.933 -0.6783  1.1910  0.3500
  192MPD1    C5 2976   0.095   2.584  10.797 -0.7156  0.2706  0.0975
  192MPD1     H 2977   4.586   2.414  11.039  1.6522  1.1189  2.2498
  192MPD1    H1 2978   0.199   2.639  10.976  1.2440 -1.6122 -0.5154
  192MPD1    H2 2979   4.702   2.517  10.646 -0.4837 -0.5624 -0.7896
  192MPD1    H3 2980   0.160   2.639  10.731 -1.2864 -1.9890 -2.3613
  192MPD1     N 2981   0.028   2.563  11.159 -0.1194 -0.0695  0.2720
  192MPD1    H5 2982   0.112   2.615  11.183  1.2857 -1.5642 -1.3306
  192MPD1    N1 2983   4.540   2.360  10.785  0.8416  0.0596 -0.4692
  192MPD1    H6 2984   4.507   2.297  10.857  1.1427  0.2001 -0.2135
  192MPD1    H7 2985   4.564   2.314  10.697  0.5052 -1.8931  0.4635
  193MPD1     C 2986   3.802   1.927  15.941 -0.8418 -0.4902 -0.9066
  193MPD1    C1 2987   3.781   2.061  15.959  0.1482 -0.3720 -0.1813
  193MPD1    C2 2988   3.876   2.130  16.029  0.2355 -0.7557 -0.0332
  193MPD1    C3 2989   3.968   2.066  16.116 -0.6455 -0.2633  0.2419
  193MPD1    C4 2990   3.976   1.933  16.103 -0.2991 -0.0257  0.0407
  193MPD1    C5 2991   3.896   1.861  16.018  0.0955  0.5297 -0.1021
  193MPD1     H 2992   3.871   2.238  16.028  0.5579 -0.7397  0.2372
  193MPD1    H1 2993   4.030   1.877  16.178  0.3318  0.7626  0.1747
  193MPD1    H2 2994   3.737   1.867  15.878 -1.3237  0.1512 -1.0279
  193MPD1    H3 2995   3.907   1.754  16.004 -0.7842  0.3591  0.4708
  193MPD1     N 2996   4.060   2.134  16.195  0.3102 -0.3129  0.0696
  193MPD1    H5 2997   4.133   2.083  16.244  1.9705  0.6896 -1.3372
  193MPD1    N1 2998   3.676   2.127  15.882  0.0807  0.6259 -0.0850
  193MPD1    H6 2999   3.592   2.069  15.890 -0.7268  2.1626  2.6848
  193MPD1    H7 3000   3.655   2.218  15.922  1.2207  1.0273 -0.4048
  194MPD1     C 3001   1.793   4.384  17.425 -0.1592 -0.0193  1.1348
  194MPD1    C1 3002   1.788   4.292  17.530  0.1637  0.2113  0.0852
  194MPD1    C2 3003   1.798   4.153  17.503  1.2292  0.0336  0.4653
  194MPD1    C3 3004   1.820   4.111  17.376  0.5799  0.0261  0.5242
  194MPD1    C4 3005   1.828   4.203  17.272  0.1996 -0.2125 -0.1526
  194MPD1    C5 3006   1.799   4.338  17.299  0.2144  0.0133  0.5764
  194MPD1     H 3007   1.794   4.087  17.589 -1.1404  0.1374  0.4539
  194MPD1    H1 3008   1.847   4.156  17.176 -1.1806 -2.2305  0.5699
  194MPD1    H2 3009   1.780   4.490  17.445 -0.9455 -0.0678  0.8440
  194MPD1    H3 3010   1.808   4.402  17.211  0.6080 -0.6544  0.1268
  194MPD1     N 3011   1.822   3.971  17.337  0.8388  0.2319  0.2984
  194MPD1    H5 3012   1.840   3.946  17.241  2.0292  1.4486  0.1993
  194MPD1    N1 3013   1.779   4.349  17.659  0.0230 -0.1075  0.6465
  194MPD1    H6 3014   1.745   4.289  17.734 -0.4934  0.4011  0.8208
  194MPD1    H7 3015   1.728   4.435  17.674 -0.3570 -0.3072  0.4898
  195MPD1     C 3016   4.499   1.422  17.514  0.1792  0.1719 -0.5233
  195MPD1    C1 3017   4.383   1.358  17.470 -0.5460 -0.0131 -0.3437
  195MPD1    C2 3018   4.329   1.253  17.546 -0.1754 -0.3338 -0.3473
  195MPD1    C3 3019   4.394   1.217  17.661 -0.5734  1.3321 -0.2134
  195MPD1    C4 3020   4.513   1.281  17.703  0.7373  0.8202  0.4543
  195MPD1    C5 3021   4.554   1.390  17.633  0.1685 -0.4565 -0.5664
  195MPD1     H 3022   4.245   1.192  17.513  0.1625 -1.6579  1.2472
  195MPD1    H1 3023   4.568   1.251   0.053  0.0667 -1.6491  0.0292
  195MPD1    H2 3024   4.544   1.509  17.468  0.9540 -0.3373 -0.7243
  195MPD1    H3 3025   4.648   1.436  17.660  1.4870 -3.0881 -0.6169
  195MPD1     N 3026   4.357   1.105   0.000 -0.1089 -0.0098 -0.0050
  195MPD1    H5 3027   4.407   1.073   0.082 -0.4575 -0.5707 -0.0084
  195MPD1    N1 3028   4.334   1.379  17.343  0.6743 -0.1716  0.3682
  195MPD1    H6 3029   4.248   1.331  17.316  0.6804  0.3572 -0.5849
  195MPD1    H7 3030   4.336   1.478  17.322  0.3999 -0.2399  0.0128
  196MPD1     C 3031   3.041   4.567   0.235 -0.0303  0.6325 -0.6702
  196MPD1    C1 3032   3.116   4.676   0.199  0.3454 -0.0722  0.6096
  196MPD1    C2 3033   3.174   0.013   0.301 -0.7713 -0.2538  0.0658
  196MPD1    C3 3034   3.137   4.723   0.435 -0.2705 -0.1688 -0.5203
  196MPD1    C4 3035   3.062   4.611   0.470  0.5350  0.2090  0.4067
  196MPD1    C5 3036   3.016   4.532   0.366 -0.5074 -0.2993  0.2784
  196MPD1     H 3037   3.232   0.102   0.279 -2.7145  1.0290  0.1395
  196MPD1    H1 3038   3.039   4.586   0.573  1.1147 -0.3688  0.3933
  196MPD1    H2 3039   2.996   4.510   0.154  0.3674  1.8533 -1.7472
  196MPD1    H3 3040   2.961   4.442   0.392 -0.4529 -0.8624 -1.5807
  196MPD1     N 3041   3.167   0.079   0.540  0.1246  0.0685 -1.1586
  196MPD1    H5 3042   3.142   0.057   0.636 -1.5129  0.6733 -1.4596
  196MPD1    N1 3043   3.155   4.702   0.064  0.4082  0.2139  0.5818
  196MPD1    H6 3044   3.165   0.068   0.052  0.2171  0.4629  2.4729
  196MPD1    H7 3045   3.085   4.667  17.739  2.1416 -0.2932 -1.0341
  197MPD1     C 3046   3.110   1.979  17.222  0.6908  0.2469 -0.0887
  197MPD1    C1 3047   3.193   2.088  17.233 -0.3048  0.3348  0.0309
  197MPD1    C2 3048   3.166   2.200  17.161  0.5964 -0.1080 -0.1615
  197MPD1    C3 3049   3.067   2.204  17.067 -1.1599  0.4359  0.4917
  197MPD1    C4 3050   2.993   2.088  17.047  0.0457  0.0366 -0.5546
  197MPD1    C5 3051   3.012   1.971  17.126  0.3584  0.2010  0.3170
  197MPD1     H 3052   3.238   2.282  17.169 -0.8690  0.9953  1.7163
  197MPD1    H1 3053   2.935   2.077  16.956 -1.8369 -0.4151  0.6879
  197MPD1    H2 3054   3.136   1.885  17.269  1.4836 -0.2836 -1.5853
  197MPD1    H3 3055   2.975   1.872  17.100 -0.9531  1.2397 -1.7366
  197MPD1     N 3056   3.042   2.315  16.976  0.6272 -0.0081 -0.5845
  197MPD1    H5 3057   2.956   2.312  16.922  0.2370  0.8786 -0.0172
  197MPD1    N1 3058   3.293   2.088  17.328  0.2716 -0.3750  0.2985
  197MPD1    H6 3059   3.363   2.160  17.311  0.9310 -1.3085 -0.8960
  197MPD1    H7 3060   3.343   2.001  17.344  0.8270 -0.0733  0.2297
  198MPD1     C 3061   4.111   1.320  15.409  0.1062  0.3327  0.2323
  198MPD1    C1 3062   4.207   1.341  15.314 -0.4754 -0.2728  0.0999
  198MPD1    C2 3063   4.339   1.308  15.340 -0.1866  0.1543 -0.0885
  198MPD1    C3 3064   4.375   1.264  15.469 -0.1659  0.3406 -0.3706
  198MPD1    C4 3065   4.278   1.234  15.565 -0.4216 -0.2187 -0.2412
  198MPD1    C5 3066   4.149   1.278  15.539  0.5259 -0.1104  0.0852
  198MPD1     H 3067   4.415   1.320  15.264 -0.8010 -1.1732 -0.9145
  198MPD1    H1 3068   4.300   1.188  15.660  0.6541 -0.4556 -0.6038
  198MPD1    H2 3069   4.005   1.338  15.394  0.5180  1.8733 -0.8581
  198MPD1    H3 3070   4.074   1.265  15.616  1.7731 -0.3906  1.2527
  198MPD1     N 3071   4.513   1.247  15.500 -0.1779  0.2873  0.4148
  198MPD1    H5 3072   4.571   1.277  15.422 -0.0554 -2.1513 -0.4355
  198MPD1    N1 3073   4.177   1.392  15.184  0.4830 -0.7631 -0.1598
  198MPD1    H6 3074   4.258   1.446  15.155  0.8113 -0.8770  0.5537
  198MPD1    H7 3075   4.108   1.467  15.181  0.1608 -1.0245  0.9476
  199MPD1     C 3076   2.644   2.529  10.224 -0.4350  0.3475 -0.0612
  199MPD1    C1 3077   2.618   2.663  10.257  1.2861  0.4444 -0.1859
  199MPD1    C2 3078   2.485   2.704  10.252 -0.4973  0.2912  0.3970
  199MPD1    C3 3079   2.379   2.623  10.203  0.5413  0.0008  0.0206
  199MPD1    C4 3080   2.414   2.496  10.165 -0.8610 -0.6040  0.6282
  199MPD1    C5 3081   2.541   2.449  10.189 -0.3733  0.4326 -0.8818
  199MPD1     H 3082   2.472   2.806  10.289  0.8327  0.7128 -0.2937
  199MPD1    H1 3083   2.345   2.427  10.120 -0.3230 -0.6887 -0.0556
  199MPD1    H2 3084   2.745   2.489  10.226  0.0890  1.6508 -0.1408
  199MPD1    H3 3085   2.555   2.342  10.176 -0.1850  0.5394 -1.5884
  199MPD1     N 3086   2.247   2.662  10.193 -0.1908  0.2668  0.5374
  199MPD1    H5 3087   2.179   2.591  10.166 -0.3287  0.7057 -0.2730
  199MPD1    N1 3088   2.725   2.747  10.287 -0.1966 -0.2331  0.2900
  199MPD1    H6 3089   2.803   2.704  10.337 -1.9534  0.4399  3.6424
  199MPD1    H7 3090   2.706   2.835  10.335 -0.1308  0.1201 -0.3382
  200MPD1     C 3091   1.355   2.537  14.928 -0.2720 -0.5328 -0.3013
  200MPD1    C1 3092   1.390   2.522  14.799 -0.3718  0.7334  0.6755
  200MPD1    C2 3093   1.399   2.634  14.720 -0.0768 -0.2538  0.1470
  200MPD1    C3 3094   1.392   2.762  14.778 -0.0528  0.2875 -0.0276
  200MPD1    C4 3095   1.378   2.770  14.911  0.5784 -0.7002  0.0881
  200MPD1    C5 3096   1.361   2.660  14.987 -0.1397 -0.2074  1.0779
  200MPD1     H 3097   1.423   2.620  14.615  0.5437 -1.4231  0.4337
  200MPD1    H1 3098   1.384   2.864  14.965 -0.7735  0.4991 -1.8412
  200MPD1    H2 3099   1.335   2.446  14.982 -1.2507 -0.1078  0.0493
  200MPD1    H3 3100   1.363   2.673  15.094  0.7082 -0.1161  1.0501
  200MPD1     N 3101   1.397   2.879  14.695  0.0521  0.6318 -0.2837
  200MPD1    H5 3102   1.414   2.861  14.597  0.2407 -1.4362  0.1372
  200MPD1    N1 3103   1.384   2.392  14.742 -0.1287 -0.2430 -0.8328
  200MPD1    H6 3104   1.427   2.376  14.652  1.8918  1.6546 -0.2141
  200MPD1    H7 3105   1.407   2.313  14.802 -1.1248  1.0005  1.2248
  201MPD1     C 3106   2.651   1.375  13.315 -0.1964 -0.1972 -0.5281
  201MPD1    C1 3107   2.702   1.263  13.254  0.3031  0.0295  0.7637
  201MPD1    C2 3108   2.836   1.244  13.261 -0.0496 -0.5740  0.1828
  201MPD1    C3 3109   2.924   1.341  13.293 -0.1486  0.0941  0.6769
  201MPD1    C4 3110   2.873   1.462  13.342 -0.5154 -0.4264 -0.4244
  201MPD1    C5 3111   2.736   1.472  13.353 -0.5204 -0.9045 -0.1719
  201MPD1     H 3112   2.879   1.152  13.224 -1.3185 -1.5078  1.0067
  201MPD1    H1 3113   2.935   1.547  13.367 -0.8935  0.3130 -1.9870
  201MPD1    H2 3114   2.546   1.388  13.336 -0.0701  0.7671 -0.4902
  201MPD1    H3 3115   2.696   1.566  13.388  1.2516  0.2268 -1.1640
  201MPD1     N 3116   3.066   1.316  13.272 -0.1546  0.1679 -0.0091
  201MPD1    H5 3117   3.096   1.225  13.238 -2.4170 -0.8494  0.7155
  201MPD1    N1 3118   2.619   1.156  13.208  0.7006  0.1532 -0.4498
  201MPD1    H6 3119   2.664   1.076  13.165 -3.0091 -2.5357  0.6703
  201MPD1    H7 3120   2.560   1.202  13.139 -2.1565  0.1792  1.9963
  202MPD1     C 3121   2.881   0.921   8.654 -0.0509 -0.5399  0.3344
  202MPD1    C1 3122   2.878   0.791   8.685 -0.3271  0.0930 -0.9743
  202MPD1    C2 3123   2.894   0.768   8.825  0.3073  0.2743 -0.4949
  202MPD1    C3 3124   2.873   0.871   8.918 -0.5548 -0.4085 -0.4410
  202MPD1    C4 3125   2.860   0.999   8.880  0.1610  1.0805 -0.4647
  202MPD1    C5 3126   2.855   1.023   8.748 -0.0111 -0.0312  0.6470
  202MPD1     H 3127   2.900   0.664   8.857  0.1810  0.5478  0.4035
  202MPD1    H1 3128   2.849   1.079   8.952  1.4232  1.0702 -0.2702
  202MPD1    H2 3129   2.879   0.958   8.552 -0.1857 -1.2327  0.0871
  202MPD1    H3 3130   2.841   1.125   8.713  1.0203  0.7767  2.5802
  202MPD1     N 3131   2.887   0.838   9.058  0.5388  0.3036 -0.3277
  202MPD1    H5 3132   2.873   0.919   9.118  0.5853  0.0460  0.0292
  202MPD1    N1 3133   2.935   0.695   8.601  0.1201  0.4346  0.0382
  202MPD1    H6 3134   2.905   0.712   8.505  1.8855  0.5921 -0.4864
  202MPD1    H7 3135   2.906   0.600   8.625 -0.3762  0.5676 -0.0429
  203MPD1     C 3136   2.346   2.606  12.776  0.1502 -0.2279 -0.8833
  203MPD1    C1 3137   2.247   2.527  12.714 -0.7115  0.0843  0.0830
  203MPD1    C2 3138   2.228   2.401  12.771 -0.1276  0.2086 -0.0699
  203MPD1    C3 3139   2.313   2.348  12.870  0.2636  0.0314 -0.0163
  203MPD1    C4 3140   2.415   2.423  12.927 -0.6229  0.8176  0.2171
  203MPD1    C5 3141   2.423   2.548  12.872 -0.2121 -0.6273  0.6228
  203MPD1     H 3142   2.147   2.341  12.731  0.4491  0.9421 -2.2994
  203MPD1    H1 3143   2.473   2.391  13.012  0.5592  1.5324 -0.3175
  203MPD1    H2 3144   2.358   2.709  12.747  1.8546 -0.4746 -1.0772
  203MPD1    H3 3145   2.505   2.606  12.912 -0.3406  0.5225 -0.7764
  203MPD1     N 3146   2.278   2.222  12.915  0.3271 -0.3648 -0.7236
  203MPD1    H5 3147   2.211   2.177  12.855 -1.1961 -1.8100  2.0431
  203MPD1    N1 3148   2.155   2.584  12.623  0.2013  0.0189 -0.1890
  203MPD1    H6 3149   2.196   2.656  12.564  0.7213 -1.1729 -1.2805
  203MPD1    H7 3150   2.126   2.515  12.554  1.2956  1.5423 -2.1910
  204MPD1     C 3151   1.344   2.984  17.466  0.0466 -0.1044 -0.8475
  204MPD1    C1 3152   1.397   3.017  17.333  0.2117  0.3724 -0.0316
  204MPD1    C2 3153   1.528   2.993  17.311 -0.2393 -0.7492 -0.3477
  204MPD1    C3 3154   1.604   2.916  17.398 -0.6813  0.0370  0.0340
  204MPD1    C4 3155   1.554   2.895  17.526  0.3882 -0.3440 -0.1939
  204MPD1    C5 3156   1.427   2.935  17.560 -0.1291 -0.3712 -0.2219
  204MPD1     H 3157   1.573   3.009  17.214  0.8700  1.8607  0.5810
  204MPD1    H1 3158   1.612   2.846  17.603  0.3903 -0.6216 -0.3742
  204MPD1    H2 3159   1.237   2.994  17.485  0.4283  1.0033  0.6981
  204MPD1    H3 3160   1.385   2.913  17.657  0.0626  1.5667  0.2817
  204MPD1     N 3161   1.723   2.867  17.345 -0.2809  0.0954  0.1090
  204MPD1    H5 3162   1.744   2.884  17.248 -2.7384  0.6150 -0.3381
  204MPD1    N1 3163   1.316   3.055  17.230  0.0515 -0.2358  0.2063
  204MPD1    H6 3164   1.231   3.096  17.269  1.0300  0.1830  1.8967
  204MPD1    H7 3165   1.368   3.126  17.179  0.5280 -0.3980  0.4677
  205MPD1     C 3166   2.523   1.634  16.525  1.1733 -1.1285  0.0289
  205MPD1    C1 3167   2.540   1.562  16.641  0.4850  0.4322 -0.0754
  205MPD1    C2 3168   2.438   1.557  16.738 -0.0805  0.1598 -0.9970
  205MPD1    C3 3169   2.319   1.624  16.716 -0.2269 -0.6332 -0.1926
  205MPD1    C4 3170   2.307   1.699  16.602 -0.2217 -0.0335  0.0596
  205MPD1    C5 3171   2.403   1.699  16.508 -0.3097 -0.3651 -0.4960
  205MPD1     H 3172   2.449   1.502  16.831  0.9315  0.4067 -0.9784
  205MPD1    H1 3173   2.211   1.745  16.579  0.2791  1.0710  0.1777
  205MPD1    H2 3174   2.597   1.629  16.447  2.0469  0.7809  0.7485
  205MPD1    H3 3175   2.393   1.758  16.418  0.0097 -0.2010 -0.4230
  205MPD1     N 3176   2.212   1.613  16.806 -0.0192 -0.6471  0.0925
  205MPD1    H5 3177   2.131   1.672  16.786 -0.1644 -0.6929  0.5509
  205MPD1    N1 3178   2.649   1.473  16.655  0.0921  0.2223 -0.1029
  205MPD1    H6 3179   2.654   1.447  16.753 -2.1470 -2.6131 -0.7533
  205MPD1    H7 3180   2.735   1.513  16.616 -0.1416  2.4252  1.6234
  206MPD1     C 3181   2.174   4.421  16.644 -0.2262  0.5365 -0.1173
  206MPD1    C1 3182   2.265   4.396  16.546 -0.1091  0.4857 -0.3060
  206MPD1    C2 3183   2.219   4.397  16.418 -0.0850  0.7591 -0.2271
  206MPD1    C3 3184   2.084   4.409  16.388 -0.5954 -0.4390 -0.2410
  206MPD1    C4 3185   1.988   4.418  16.487 -0.6638 -0.5084 -0.6443
  206MPD1    C5 3186   2.038   4.431  16.614 -0.0462  0.4591  0.1655
  206MPD1     H 3187   2.291   4.394  16.338 -0.8690  1.5853 -0.9627
  206MPD1    H1 3188   1.884   4.439  16.468 -0.7655  0.7937  1.2958
  206MPD1    H2 3189   2.208   4.454  16.741 -0.7441  1.3312 -0.2123
  206MPD1    H3 3190   1.976   4.472  16.693 -0.7752  0.9031 -0.6283
  206MPD1     N 3191   2.040   4.435  16.257 -0.1226 -0.7923  0.4483
  206MPD1    H5 3192   1.944   4.465  16.245  0.1466 -0.5221 -1.0161
  206MPD1    N1 3193   2.400   4.385  16.584  0.0602 -0.3950  0.0562
  206MPD1    H6 3194   2.452   4.319  16.527 -0.2585 -1.0798  0.5628
  206MPD1    H7 3195   2.403   4.352  16.680  1.3590  2.3288  0.9609
  207MPD1     C 3196   4.145   1.951   9.783  0.1665 -0.1245 -0.1200
  207MPD1    C1 3197   4.226   1.885   9.878 -0.0770  1.2453  0.5622
  207MPD1    C2 3198   4.343   1.952   9.920  0.6293  0.4332 -0.2202
  207MPD1    C3 3199   4.370   2.084   9.888  0.8138 -0.0543 -0.2643
  207MPD1    C4 3200   4.284   2.153   9.817  0.0827 -0.3719 -0.2331
  207MPD1    C5 3201   4.172   2.082   9.763 -0.0088 -0.4013 -1.0790
  207MPD1     H 3202   4.416   1.896   9.978 -0.7684 -0.6269  0.5064
  207MPD1    H1 3203   4.306   2.256   9.790  0.4587 -0.1202  1.0597
  207MPD1    H2 3204   4.060   1.894   9.749 -0.8522  1.0792  0.4350
  207MPD1    H3 3205   4.108   2.142   9.699 -0.6779 -0.0552 -0.0821
  207MPD1     N 3206   4.488   2.150   9.927 -1.1354  0.1124  0.6523
  207MPD1    H5 3207   4.496   2.250   9.910  1.8564 -0.3208 -0.3659
  207MPD1    N1 3208   4.203   1.750   9.899  0.6270  0.3485  0.8593
  207MPD1    H6 3209   4.236   1.712   9.988 -0.0467 -1.7711  0.2192
  207MPD1    H7 3210   4.107   1.718   9.886  1.1054 -0.3793 -0.9390
  208MPD1     C 3211   2.655   0.215  16.781  0.5487 -0.3457 -1.0999
  208MPD1    C1 3212   2.603   0.122  16.866  0.1282 -0.2181 -0.6852
  208MPD1    C2 3213   2.515   0.169  16.960 -0.2260  0.2720 -0.0712
  208MPD1    C3 3214   2.446   0.287  16.942 -0.4574  0.0662  0.1820
  208MPD1    C4 3215   2.477   0.363  16.834 -0.1234  0.3392  0.1453
  208MPD1    C5 3216   2.594   0.338  16.768  0.8324  0.5250  0.2087
  208MPD1     H 3217   2.472   0.111  17.041 -0.7755 -2.2802 -2.1910
  208MPD1    H1 3218   2.446   0.467  16.823 -0.8028  0.0648 -0.5436
  208MPD1    H2 3219   2.746   0.189  16.728 -0.9095 -1.4370 -3.0581
  208MPD1    H3 3220   2.628   0.408  16.692 -1.4611  1.0817 -0.3071
  208MPD1     N 3221   2.350   0.321  17.034  0.0546  0.0760 -0.6600
  208MPD1    H5 3222   2.329   0.247  17.099 -0.2844  0.6598 -0.1008
  208MPD1    N1 3223   2.658   4.730  16.877 -0.3724  0.2954 -0.3623
  208MPD1    H6 3224   2.584   4.672  16.914  0.2528 -0.1451  0.2128
  208MPD1    H7 3225   2.675   4.693  16.784  2.0801  0.3228  0.0689
  209MPD1     C 3226   4.408   1.344  11.152  0.3015  0.1934  0.0002
  209MPD1    C1 3227   4.442   1.393  11.029  0.3174  0.5365 -0.1350
  209MPD1    C2 3228   4.491   1.523  11.017  0.8791  0.2920  0.1055
  209MPD1    C3 3229   4.513   1.603  11.132 -0.5254 -0.8341 -0.5096
  209MPD1    C4 3230   4.481   1.546  11.251 -0.8654  0.1746  0.3899
  209MPD1    C5 3231   4.431   1.417  11.267 -0.5849  0.1607 -0.2033
  209MPD1     H 3232   4.511   1.567  10.920  0.6821  0.4752  0.1486
  209MPD1    H1 3233   4.486   1.599  11.345 -1.8195 -0.9743  1.0922
  209MPD1    H2 3234   4.356   1.250  11.162 -2.0555  1.3102 -2.0113
  209MPD1    H3 3235   4.416   1.375  11.365 -2.4022  1.7798  0.2143
  209MPD1     N 3236   4.574   1.730  11.121 -0.4071 -0.7088 -0.5100
  209MPD1    H5 3237   4.577   1.770  11.028  1.4729 -0.2439 -0.2433
  209MPD1    N1 3238   4.400   1.323  10.922  0.0414  0.0698  0.4637
  209MPD1    H6 3239   4.405   1.223  10.940  1.0485  0.1110  0.3915
  209MPD1    H7 3240   4.466   1.344  10.848 -0.3954 -1.7794 -0.4732
  210MPD1     C 3241   0.353   2.495  11.694 -0.5102 -0.7734 -0.4887
  210MPD1    C1 3242   0.233   2.452  11.721  0.6738  0.0307  0.4137
  210MPD1    C2 3243   0.168   2.388  11.617 -0.3347  0.3185  0.2526
  210MPD1    C3 3244   0.211   2.364  11.488  0.0436 -0.0380 -0.3216
  210MPD1    C4 3245   0.334   2.423  11.459  0.0730 -0.6231  1.2811
  210MPD1    C5 3246   0.402   2.485  11.563  0.2518  0.0228  0.1657
  210MPD1     H 3247   0.070   2.351  11.642  0.0693 -1.3746 -0.6459
  210MPD1    H1 3248   0.388   2.414  11.366  0.2675  0.0480  1.3283
  210MPD1    H2 3249   0.424   2.540  11.763 -3.1060  2.1943  0.2742
  210MPD1    H3 3250   0.505   2.512  11.540  0.0806 -0.1355 -0.7677
  210MPD1     N 3251   0.146   2.293  11.383  0.1788  0.3107 -0.3245
  210MPD1    H5 3252   0.202   2.284  11.299 -0.3128  0.6504 -0.6865
  210MPD1    N1 3253   0.187   2.432  11.852  0.1132  0.3066 -0.1971
  210MPD1    H6 3254   0.086   2.438  11.849  0.0695 -0.0153  0.4308
  210MPD1    H7 3255   0.205   2.515  11.908  0.1594  1.1789 -1.5285
  211MPD1     C 3256   1.879   1.395  16.523 -0.1931 -0.4505  0.0770
  211MPD1    C1 3257   1.824   1.357  16.403 -0.5165 -0.1377 -0.4867
  211MPD1    C2 3258   1.816   1.448  16.301 -0.1868 -0.2355 -0.1600
  211MPD1    C3 3259   1.865   1.573  16.323 -0.4755 -0.3092 -0.3476
  211MPD1    C4 3260   1.928   1.610  16.446 -0.0488  0.3851 -0.2399
  211MPD1    C5 3261   1.934   1.517  16.543 -0.5191 -0.4120  0.1502
  211MPD1     H 3262   1.775   1.416  16.206 -2.6301 -1.1159  1.1726
  211MPD1    H1 3263   1.975   1.704  16.470  0.3307 -0.0106  0.5431
  211MPD1    H2 3264   1.879   1.323  16.604  0.1433  1.6164  1.9046
  211MPD1    H3 3265   1.973   1.540  16.642 -0.2724  0.2041 -0.0918
  211MPD1     N 3266   1.861   1.657  16.215 -0.4146 -0.2496 -0.7018
  211MPD1    H5 3267   1.803   1.626  16.138  1.4313 -1.1071 -1.7278
  211MPD1    N1 3268   1.792   1.225  16.376  0.0660  0.2105 -0.2494
  211MPD1    H6 3269   1.770   1.184  16.467  2.9015 -0.1078  0.2937
  211MPD1    H7 3270   1.706   1.224  16.321 -0.7748 -1.1463  1.0844
  212MPD1     C 3271   1.563   0.346  16.593 -0.0684  0.3079  0.1335
  212MPD1    C1 3272   1.666   0.261  16.636 -0.6519  0.3568  0.0836
  212MPD1    C2 3273   1.636   0.146  16.705 -0.9721 -0.3224 -0.0789
  212MPD1    C3 3274   1.500   0.113  16.717 -0.1439  0.1721  0.1345
  212MPD1    C4 3275   1.403   0.203  16.687 -0.3948  0.2610  0.2538
  212MPD1    C5 3276   1.434   0.318  16.623 -0.7284 -0.7059  0.2699
  212MPD1     H 3277   1.715   0.082  16.742  0.0433  0.1714 -1.3906
  212MPD1    H1 3278   1.302   0.187  16.722 -0.0920 -1.3612  0.3475
  212MPD1    H2 3279   1.589   0.442  16.550 -1.1798  0.8252  0.6032
  212MPD1    H3 3280   1.354   0.388  16.603  1.2439  1.3490 -0.4069
  212MPD1     N 3281   1.454   4.733  16.781 -0.0459  0.5246  0.5800
  212MPD1    H5 3282   1.356   4.733  16.806 -0.3027 -0.0131 -0.4590
  212MPD1    N1 3283   1.801   0.285  16.603 -0.4623 -0.1596  0.0922
  212MPD1    H6 3284   1.831   0.372  16.561 -2.3462  1.8784  2.9566
  212MPD1    H7 3285   1.874   0.238  16.655  2.5132  1.9335 -2.1885
  213MPD1     C 3286   4.577   0.479  15.257  0.3518  1.0179 -0.9004
  213MPD1    C1 3287   4.540   0.599  15.209 -0.6593  0.8892 -0.5076
  213MPD1    C2 3288   4.403   0.607  15.164  1.2586 -0.2708 -0.2178
  213MPD1    C3 3289   4.316   0.502  15.196  0.5426  0.9058  0.5351
  213MPD1    C4 3290   4.367   0.398  15.274 -0.2183 -0.0038 -0.8987
  213MPD1    C5 3291   4.493   0.391  15.310  0.0545 -0.1575 -0.3903
  213MPD1     H 3292   4.366   0.688  15.102 -0.2396  0.5976  1.8025
  213MPD1    H1 3293   4.307   0.310  15.293 -0.3506 -0.1010 -1.7626
  213MPD1    H2 3294   4.678   0.460  15.292  0.5410  1.4226 -1.2255
  213MPD1    H3 3295   4.535   0.319  15.379 -0.8861 -0.9001 -0.5944
  213MPD1     N 3296   4.192   0.496  15.131  0.8381 -0.3154  0.2228
  213MPD1    H5 3297   4.162   0.579  15.080  2.3896 -0.7802 -1.4128
  213MPD1    N1 3298   4.645   0.675  15.154  0.9495  0.3061 -0.1764
  213MPD1    H6 3299   4.617   0.770  15.131  0.5648  0.0304 -0.8373
  213MPD1    H7 3300   4.726   0.660  15.213  0.6713  0.4201  0.2378
  214MPD1     C 3301   3.822   4.397  14.734 -0.5491  0.2025 -0.5252
  214MPD1    C1 3302   3.706   4.473  14.758 -0.1884  0.2293 -0.0069
  214MPD1    C2 3303   3.726   4.609  14.781 -0.3155  0.6852  0.4341
  214MPD1    C3 3304   3.853   4.653  14.828  0.4330  0.0717 -0.1317
  214MPD1    C4 3305   3.964   4.568  14.820 -0.6609  0.1193  0.0790
  214MPD1    C5 3306   3.949   4.449  14.761  0.8195 -0.6058 -0.0745
  214MPD1     H 3307   3.638   4.673  14.779  0.3386  1.4491 -2.7829
  214MPD1    H1 3308   4.062   4.585  14.863 -0.9006  1.4372  0.0998
  214MPD1    H2 3309   3.817   4.292  14.708 -0.4901  0.4504 -1.5366
  214MPD1    H3 3310   4.037   4.386  14.774  0.6895 -0.5672  1.0645
  214MPD1     N 3311   3.883   0.051  14.872 -0.0508 -0.4291 -0.1374
  214MPD1    H5 3312   3.979   0.074  14.895 -0.0441 -0.0326 -0.5539
  214MPD1    N1 3313   3.584   4.427  14.711  0.3654 -0.2375 -0.0686
  214MPD1    H6 3314   3.509   4.493  14.729 -1.0254 -1.6522 -0.6501
  214MPD1    H7 3315   3.564   4.334  14.748 -0.6089 -0.5822 -1.4853
  215MPD1     C 3316   3.989   1.093  10.613 -0.0068  0.1830 -0.0240
  215MPD1    C1 3317   4.120   1.104  10.636 -0.2002 -0.7758 -0.5111
  215MPD1    C2 3318   4.158   1.209  10.714 -0.4227  0.5734 -0.7467
  215MPD1    C3 3319   4.069   1.275  10.796  0.1279 -0.7505 -0.0125
  215MPD1    C4 3320   3.936   1.243  10.793 -0.1288  0.0329  0.2618
  215MPD1    C5 3321   3.898   1.153  10.703 -0.4256 -0.5918 -0.1356
  215MPD1     H 3322   4.263   1.236  10.708 -0.2854  0.2121  0.0823
  215MPD1    H1 3323   3.857   1.282  10.856  1.1483  3.4000 -0.2038
  215MPD1    H2 3324   3.955   1.014  10.547  1.8575 -0.2914 -0.4108
  215MPD1    H3 3325   3.792   1.135  10.692 -0.3258 -0.6681 -0.9503
  215MPD1     N 3326   4.122   1.385  10.872 -0.2876 -0.1115  0.0849
  215MPD1    H5 3327   4.223   1.393  10.859  0.1177 -1.3273  2.5875
  215MPD1    N1 3328   4.221   1.036  10.567  0.3250  0.2650  0.2818
  215MPD1    H6 3329   4.298   1.024  10.633 -0.3640  1.0408  1.2340
  215MPD1    H7 3330   4.186   0.947  10.533 -1.9680  0.5164  2.0381
  216MPD1     C 3331   1.289   0.329   0.684  0.6308  0.6042  0.2978
  216MPD1    C1 3332   1.356   0.312   0.569  0.1602 -0.4093  0.1566
  216MPD1    C2 3333   1.409   0.188   0.539  0.4843 -0.9613 -0.4611
  216MPD1    C3 3334   1.390   0.075   0.612  0.1742 -0.3271 -0.2889
  216MPD1    C4 3335   1.315   0.092   0.728 -0.3354  0.5207  0.2166
  216MPD1    C5 3336   1.267   0.217   0.754  0.3003  0.3359  0.5841
  216MPD1     H 3337   1.465   0.177   0.447 -0.0957 -1.1757 -0.7883
  216MPD1    H1 3338   1.292   0.016   0.801 -0.9378  1.8513  1.4152
  216MPD1    H2 3339   1.247   0.425   0.710  2.5284  1.6876 -0.6880
  216MPD1    H3 3340   1.219   0.229   0.851 -0.0830  0.1921  0.4092
  216MPD1     N 3341   1.452   4.689   0.583  0.0780 -0.1071  0.3473
  216MPD1    H5 3342   1.511   4.691   0.500  1.4820  0.5782  1.3512
  216MPD1    N1 3343   1.390   0.428   0.495  0.5560 -0.4283  0.0367
  216MPD1    H6 3344   1.424   0.391   0.406 -0.2463 -1.6723  0.2545
  216MPD1    H7 3345   1.308   0.487   0.478 -0.0578 -0.6789  2.2272
  217MPD1     C 3346   1.990   2.859   8.262 -0.2782  0.0979  0.5828
  217MPD1    C1 3347   1.893   2.817   8.349 -0.4216  0.8672 -0.1483
  217MPD1    C2 3348   1.852   2.686   8.360  0.0247 -0.3875 -0.2289
  217MPD1    C3 3349   1.924   2.585   8.293  0.1264  0.4585 -0.0081
  217MPD1    C4 3350   2.024   2.619   8.208 -0.2786  0.2856  0.0916
  217MPD1    C5 3351   2.051   2.755   8.193 -0.4580  0.3303 -0.2083
  217MPD1     H 3352   1.771   2.659   8.426  1.8002  0.5062  2.3093
  217MPD1    H1 3353   2.086   2.548   8.155  0.3167  1.3610 -0.6425
  217MPD1    H2 3354   2.028   2.960   8.257  1.2338 -0.5742 -1.4835
  217MPD1    H3 3355   2.131   2.778   8.123  1.7185  0.6175  2.3803
  217MPD1     N 3356   1.894   2.443   8.300  0.5293  0.2532  0.2293
  217MPD1    H5 3357   1.940   2.378   8.236  1.9800  1.3750  0.1232
  217MPD1    N1 3358   1.823   2.915   8.425 -0.4166 -0.1631  0.1754
  217MPD1    H6 3359   1.776   2.878   8.507 -0.2626  1.3242  0.9376
  217MPD1    H7 3360   1.886   2.986   8.462  0.6842 -0.6026 -0.8514
  218MPD1     C 3361   4.612   2.582  12.349 -0.5014  0.4235 -0.0105
  218MPD1    C1 3362   4.495   2.592  12.281  0.2045  0.2443  0.2049
  218MPD1    C2 3363   4.394   2.504  12.320  0.0124 -0.0196  0.2174
  218MPD1    C3 3364   4.412   2.407  12.410  0.2897  0.0325  0.1463
  218MPD1    C4 3365   4.528   2.398  12.487 -0.0579  0.3174  0.2275
  218MPD1    C5 3366   4.621   2.493  12.459 -0.6699  0.4780 -0.5912
  218MPD1     H 3367   4.298   2.526  12.275 -0.6867 -3.7361 -0.0763
  218MPD1    H1 3368   4.542   2.320  12.561 -0.5589  1.2611  1.3131
  218MPD1    H2 3369   4.692   2.653  12.335  0.2004 -0.7941 -2.1294
  218MPD1    H3 3370   4.709   2.484  12.521 -0.9665  0.4792 -0.1653
  218MPD1     N 3371   4.301   2.319  12.427 -0.1102  0.4353 -0.4120
  218MPD1    H5 3372   4.230   2.308  12.355 -0.1666 -1.6249 -0.0310
  218MPD1    N1 3373   4.471   2.699  12.192 -0.4711  0.4584 -0.3205
  218MPD1    H6 3374   4.419   2.665  12.111 -0.1809 -1.5017  0.3321
  218MPD1    H7 3375   4.565   2.719  12.159 -0.7102  1.1219 -0.6090
  219MPD1     C 3376   3.774   1.661  11.947 -0.0812 -0.2306  0.3367
  219MPD1    C1 3377   3.873   1.751  11.928  0.1999 -0.5246 -0.2054
  219MPD1    C2 3378   3.947   1.803  12.036 -0.2812 -0.4184  0.3570
  219MPD1    C3 3379   3.905   1.780  12.159  0.1451  0.4517 -0.7393
  219MPD1    C4 3380   3.797   1.696  12.179 -0.0944 -0.0015 -0.8435
  219MPD1    C5 3381   3.733   1.637  12.078  0.7870 -0.2026  0.6170
  219MPD1     H 3382   4.038   1.856  12.011 -1.2482  1.4761  0.8391
  219MPD1    H1 3383   3.766   1.680  12.281 -2.2400  0.3428 -1.4176
  219MPD1    H2 3384   3.718   1.623  11.863 -1.2134 -1.1951  1.5409
  219MPD1    H3 3385   3.650   1.570  12.096 -0.5730  0.9806 -1.3333
  219MPD1     N 3386   3.966   1.838  12.273 -0.2218 -0.1836  0.2015
  219MPD1    H5 3387   3.935   1.812  12.366 -1.2598 -2.4873 -0.7802
  219MPD1    N1 3388   3.915   1.786  11.794 -0.2312  0.0639 -0.4521
  219MPD1    H6 3389   3.836   1.799  11.731  0.3439  1.3909 -0.8915
  219MPD1    H7 3390   3.976   1.868  11.791  2.1961 -1.6467  2.4552
  220MPD1     C 3391   3.647   2.742   9.776  0.0323  0.1091 -0.3424
  220MPD1    C1 3392   3.769   2.749   9.836 -0.0550  0.7989 -0.3876
  220MPD1    C2 3393   3.826   2.630   9.887 -0.6388 -0.3434  0.4155
  220MPD1    C3 3394   3.754   2.510   9.889 -0.1364  0.4597  0.0006
  220MPD1    C4 3395   3.628   2.507   9.833 -0.0265 -0.4406  0.6061
  220MPD1    C5 3396   3.586   2.621   9.768 -0.2916  0.4305 -0.4857
  220MPD1     H 3397   3.923   2.637   9.935 -1.9963  1.6356  2.8864
  220MPD1    H1 3398   3.566   2.418   9.838  0.5072 -0.7743  1.2314
  220MPD1    H2 3399   3.597   2.827   9.730 -1.0850 -0.1363  0.4206
  220MPD1    H3 3400   3.492   2.615   9.714 -0.0440  0.5781 -0.9377
  220MPD1     N 3401   3.827   2.396   9.935  0.8319  0.2122  0.2118
  220MPD1    H5 3402   3.924   2.415   9.956  1.2466 -1.5213 -0.1272
  220MPD1    N1 3403   3.844   2.870   9.834 -0.1960  0.4169  0.7294
  220MPD1    H6 3404   3.802   2.961   9.851 -1.8921  0.0133 -1.2505
  220MPD1    H7 3405   3.900   2.866   9.919  0.1191  1.6233  0.5796
  221MPD1     C 3406   1.171   1.310  16.664 -0.4532 -0.1244 -0.9400
  221MPD1    C1 3407   1.294   1.356  16.701 -0.6353 -0.0614 -0.3680
  221MPD1    C2 3408   1.395   1.271  16.658 -0.2842  0.0698  0.0132
  221MPD1    C3 3409   1.376   1.139  16.624 -0.5193 -0.2286 -0.0280
  221MPD1    C4 3410   1.247   1.093  16.621  0.1401 -0.7402  0.7706
  221MPD1    C5 3411   1.145   1.177  16.656 -0.2693  0.0763 -0.0300
  221MPD1     H 3412   1.498   1.302  16.645 -1.1140  3.2185  0.8295
  221MPD1    H1 3413   1.231   0.989  16.593  1.1873 -0.6302 -0.2498
  221MPD1    H2 3414   1.087   1.374  16.689  0.0378  0.3901 -0.6131
  221MPD1    H3 3415   1.044   1.136  16.650 -0.2463  0.2010 -1.3297
  221MPD1     N 3416   1.472   1.041  16.600 -0.4190 -0.5507 -0.5841
  221MPD1    H5 3417   1.440   0.945  16.589 -1.4963 -0.3270  0.6092
  221MPD1    N1 3418   1.318   1.495  16.708  0.1266 -0.3021  0.0744
  221MPD1    H6 3419   1.258   1.541  16.776 -1.3804 -0.3745 -1.2107
  221MPD1    H7 3420   1.413   1.512  16.739  0.3476 -0.3078 -0.6054
  222MPD1     C 3421   0.636   0.777   0.617 -0.1602  0.3920  0.1295
  222MPD1    C1 3422   0.692   0.700   0.719 -0.4129 -0.2782  0.5854
  222MPD1    C2 3423   0.761   0.580   0.693  0.0860 -0.2251  0.5487
  222MPD1    C3 3424   0.768   0.544   0.558 -0.5082 -0.6142  0.4874
  222MPD1    C4 3425   0.716   0.625   0.457  0.3012 -0.2416  0.1216
  222MPD1    C5 3426   0.658   0.743   0.485 -0.5167  0.0410 -0.5979
  222MPD1     H 3427   0.811   0.523   0.770  0.0931 -0.9191  0.0258
  222MPD1    H1 3428   0.718   0.597   0.352 -1.0405 -1.8668  0.5286
  222MPD1    H2 3429   0.577   0.865   0.642  1.1069  0.7793  1.7533
  222MPD1    H3 3430   0.613   0.808   0.411 -0.7848  0.7764  0.2046
  222MPD1     N 3431   0.843   0.434   0.517  0.0074 -0.0803  0.0416
  222MPD1    H5 3432   0.842   0.424   0.416  0.7050  0.0421  0.0248
  222MPD1    N1 3433   0.657   0.733   0.853  0.5730  0.1078 -0.6391
  222MPD1    H6 3434   0.641   0.834   0.861  1.2062  0.1792 -0.2489
  222MPD1    H7 3435   0.713   0.694   0.928  1.0678  2.1838  0.0815
  223MPD1     C 3436   1.201   4.150   0.571 -0.3737  0.5567  0.1379
  223MPD1    C1 3437   1.206   4.180   0.435  0.0876 -0.5746 -0.7459
  223MPD1    C2 3438   1.182   4.309   0.400 -0.4041 -0.1050 -0.2571
  223MPD1    C3 3439   1.156   4.406   0.497 -0.0743 -0.0703 -0.5000
  223MPD1    C4 3440   1.156   4.373   0.631  0.6811  0.2825 -0.1379
  223MPD1    C5 3441   1.184   4.242   0.670 -0.9251 -0.3556  0.5111
  223MPD1     H 3442   1.170   4.335   0.296 -0.0488 -0.5239 -0.4019
  223MPD1    H1 3443   1.130   4.451   0.702  1.4161 -1.2135  1.7704
  223MPD1    H2 3444   1.198   4.047   0.603 -2.2319  0.5945  0.0906
  223MPD1    H3 3445   1.173   4.220   0.775 -0.1969 -2.2717  0.1934
  223MPD1     N 3446   1.124   4.538   0.461 -0.0648  0.2523  0.3971
  223MPD1    H5 3447   1.148   4.564   0.366 -0.0791 -1.2169 -0.0064
  223MPD1    N1 3448   1.224   4.080   0.337  0.0776 -0.8022  0.3263
  223MPD1    H6 3449   1.296   4.108   0.271 -1.6099  2.5263 -0.0833
  223MPD1    H7 3450   1.270   4.001   0.383 -2.1336 -2.8729 -0.9963
  224MPD1     C 3451   1.423   2.517   8.845 -0.0212 -0.6938  0.4983
  224MPD1    C1 3452   1.524   2.454   8.769  0.0315  0.5675 -0.2352
  224MPD1    C2 3453   1.563   2.328   8.809  0.7028  0.2218 -0.0774
  224MPD1    C3 3454   1.518   2.280   8.936 -0.1382 -0.4360  0.0156
  224MPD1    C4 3455   1.420   2.345   9.005  0.2900 -0.7483 -0.3805
  224MPD1    C5 3456   1.376   2.463   8.961 -0.1904  0.4411 -0.0639
  224MPD1     H 3457   1.643   2.280   8.755  0.1962  0.1216 -0.7369
  224MPD1    H1 3458   1.371   2.305   9.093  0.9625  0.5608  0.5948
  224MPD1    H2 3459   1.371   2.602   8.802  0.6303 -0.9854 -0.8819
  224MPD1    H3 3460   1.295   2.513   9.013 -0.5967  0.2035 -0.4653
  224MPD1     N 3461   1.567   2.161   8.993  0.0233  0.0014  0.0665
  224MPD1    H5 3462   1.509   2.127   9.070 -0.5322  0.3198 -0.2130
  224MPD1    N1 3463   1.542   2.504   8.640  0.3397 -0.3407  0.4436
  224MPD1    H6 3464   1.622   2.479   8.583 -0.4173  1.5106 -1.4252
  224MPD1    H7 3465   1.525   2.604   8.648 -1.9397 -0.6154 -0.8672
  225MPD1     C 3466   4.232   3.132  11.896 -0.3019 -0.0727 -0.6793
  225MPD1    C1 3467   4.151   3.031  11.843 -0.7466 -0.0702 -0.0975
  225MPD1    C2 3468   4.107   2.929  11.920 -0.2793  0.6259 -0.6101
  225MPD1    C3 3469   4.155   2.917  12.051 -0.2686  0.6521  0.0229
  225MPD1    C4 3470   4.235   3.017  12.102 -0.2195  0.3298 -0.1019
  225MPD1    C5 3471   4.272   3.121  12.029  0.1953 -0.9485 -0.2819
  225MPD1     H 3472   4.038   2.854  11.885  0.0986 -1.2303  2.6132
  225MPD1    H1 3473   4.275   3.015  12.203 -0.1110  1.6805 -0.1089
  225MPD1    H2 3474   4.270   3.214  11.836  0.9872 -0.9591 -1.0781
  225MPD1    H3 3475   4.342   3.180  12.087 -0.4431 -0.7989  0.3392
  225MPD1     N 3476   4.105   2.826  12.151 -0.6778 -0.0283  0.0905
  225MPD1    H5 3477   4.133   2.847  12.246 -1.1675  1.8674 -0.2002
  225MPD1    N1 3478   4.105   3.051  11.716  0.2201  0.0354  0.1106
  225MPD1    H6 3479   4.086   2.959  11.675  1.6748 -0.0878 -0.3041
  225MPD1    H7 3480   4.164   3.100  11.648 -0.7502 -0.4188 -1.0602
  226MPD1     C 3481   1.313   3.080   8.905  0.3036 -0.4641  0.4918
  226MPD1    C1 3482   1.294   2.959   8.976  0.0622 -0.5098 -0.2912
  226MPD1    C2 3483   1.402   2.868   8.971  0.0035 -0.2657  0.4381
  226MPD1    C3 3484   1.498   2.869   8.869  0.6432 -0.1507  0.3814
  226MPD1    C4 3485   1.498   2.982   8.782  0.5806  0.6776  0.1405
  226MPD1    C5 3486   1.406   3.090   8.808 -0.4090  0.8867  0.3615
  226MPD1     H 3487   1.401   2.794   9.050  1.4099 -0.4828  0.2588
  226MPD1    H1 3488   1.557   2.983   8.692 -0.5863 -1.6504 -0.6417
  226MPD1    H2 3489   1.250   3.163   8.934  1.0126 -0.3534  1.7223
  226MPD1    H3 3490   1.410   3.180   8.747  0.5237  0.5368 -0.0920
  226MPD1     N 3491   1.595   2.772   8.869  0.1232 -0.3909 -0.0847
  226MPD1    H5 3492   1.597   2.695   8.936 -0.4731  0.5982  1.0855
  226MPD1    N1 3493   1.202   2.971   9.087  0.2351  0.0408 -0.1135
  226MPD1    H6 3494   1.118   3.024   9.066  0.3101 -0.6151 -2.1167
  226MPD1    H7 3495   1.239   3.020   9.168 -2.3300  0.2793  0.8934
  227MPD1     C 3496   2.338   2.176   8.337  0.4986 -0.1282  0.4573
  227MPD1    C1 3497   2.270   2.105   8.434  1.3649  0.0953 -0.4238
  227MPD1    C2 3498   2.193   2.170   8.530 -0.3753 -0.4639 -0.0009
  227MPD1    C3 3499   2.183   2.309   8.540 -0.3982  0.7048 -0.3787
  227MPD1    C4 3500   2.256   2.378   8.447 -0.1955 -0.2877 -0.5847
  227MPD1    C5 3501   2.327   2.313   8.350 -0.6566 -0.0186 -0.4171
  227MPD1     H 3502   2.140   2.119   8.609 -0.1721  0.4634  0.7349
  227MPD1    H1 3503   2.256   2.486   8.436 -1.2396 -0.2176  0.2365
  227MPD1    H2 3504   2.406   2.125   8.269  1.8639 -0.6702  2.2238
  227MPD1    H3 3505   2.388   2.377   8.287 -2.8033  2.3827 -0.0852
  227MPD1     N 3506   2.095   2.368   8.627  0.1015 -0.6081  0.4342
  227MPD1    H5 3507   2.037   2.302   8.680 -3.6674  1.4192 -1.1748
  227MPD1    N1 3508   2.280   1.964   8.445  0.0397  0.6427  0.5486
  227MPD1    H6 3509   2.194   1.921   8.478  1.1809 -2.8865 -1.0524
  227MPD1    H7 3510   2.310   1.913   8.362 -0.2415 -1.4128  1.6914
  228MPD1     C 3511   0.898   0.470  12.307  0.1160 -0.5020 -0.7473
  228MPD1    C1 3512   0.781   0.535  12.269  0.2716 -0.0940 -0.3497
  228MPD1    C2 3513   0.669   0.458  12.271  0.0700 -0.3280  0.1166
  228MPD1    C3 3514   0.669   0.325  12.304  0.0077 -0.6383 -0.5544
  228MPD1    C4 3515   0.790   0.258  12.328 -0.6588  0.2508  0.4134
  228MPD1    C5 3516   0.903   0.334  12.324  0.3178 -0.2312 -0.3865
  228MPD1     H 3517   0.579   0.510  12.239 -1.9089 -3.3548  0.7570
  228MPD1    H1 3518   0.795   0.151  12.342  0.6736  0.6383  2.8631
  228MPD1    H2 3519   0.991   0.525  12.318 -0.1893 -0.6784  2.6810
  228MPD1    H3 3520   0.995   0.278  12.334 -0.6801 -1.9067 -0.6737
  228MPD1     N 3521   0.541   0.259  12.313  0.3348 -0.5926 -0.0801
  228MPD1    H5 3522   0.457   0.313  12.293  2.3020  1.0178 -4.0143
  228MPD1    N1 3523   0.783   0.670  12.256 -0.3586 -0.3364 -0.3576
  228MPD1    H6 3524   0.870   0.700  12.212  0.1199 -0.2664  0.6140
  228MPD1    H7 3525   0.709   0.715  12.202 -0.6922  0.0008  0.3794
  229MPD1     C 3526   0.132   4.441  14.752 -0.2222 -0.8290  0.3786
  229MPD1    C1 3527   0.030   4.341  14.782  0.3478 -0.5986  0.4270
  229MPD1    C2 3528   0.065   4.242  14.875 -0.2853  0.0006  0.3641
  229MPD1    C3 3529   0.184   4.255  14.947  0.8856 -0.0444 -0.0518
  229MPD1    C4 3530   0.283   4.352  14.915 -1.0701  0.0150  0.1952
  229MPD1    C5 3531   0.251   4.445  14.822  0.2708  0.0863  0.4907
  229MPD1     H 3532   0.005   4.154  14.890 -0.8047  0.7813  2.9741
  229MPD1    H1 3533   0.375   4.361  14.972 -0.8056  1.6074 -0.4819
  229MPD1    H2 3534   0.117   4.510  14.671 -1.7494 -0.7542  0.7235
  229MPD1    H3 3535   0.317   4.530  14.809 -1.1089  0.9678 -0.7084
  229MPD1     N 3536   0.229   4.163  15.041 -0.0637 -1.0463  0.5817
  229MPD1    H5 3537   0.329   4.170  15.055 -0.0440  0.7351 -0.4374
  229MPD1    N1 3538   4.662   4.334  14.695  0.0153 -0.1989  0.8861
  229MPD1    H6 3539   4.588   4.275  14.733 -1.4767  0.1579 -1.4876
  229MPD1    H7 3540   4.623   4.423  14.666  0.4511  0.3981  2.1135
  230MPD1     C 3541   0.894   4.093  15.774  0.0775 -0.1393 -0.2970
  230MPD1    C1 3542   0.837   3.967  15.788 -0.5426  0.2561  1.1443
  230MPD1    C2 3543   0.730   3.942  15.708  0.1029  0.0491 -0.3821
  230MPD1    C3 3544   0.676   4.034  15.615  0.6724  0.3516  0.2446
  230MPD1    C4 3545   0.728   4.157  15.613  0.5650 -0.4581 -0.7547
  230MPD1    C5 3546   0.834   4.189  15.694  0.6700 -0.2977  0.4068
  230MPD1     H 3547   0.686   3.843  15.706 -1.9212  0.9421 -0.3798
  230MPD1    H1 3548   0.686   4.237  15.553  1.6473  1.0411  0.4612
  230MPD1    H2 3549   0.974   4.131  15.837 -0.8539 -0.2054  0.9305
  230MPD1    H3 3550   0.872   4.288  15.674 -2.1858  0.6385 -0.4415
  230MPD1     N 3551   0.565   3.996  15.541 -0.4150 -0.0716 -0.2411
  230MPD1    H5 3552   0.550   3.896  15.550 -1.7784  0.1751  0.1878
  230MPD1    N1 3553   0.870   3.890  15.896  0.0673  0.4909 -0.3157
  230MPD1    H6 3554   0.860   3.791  15.876 -1.4825 -0.1653  3.5745
  230MPD1    H7 3555   0.965   3.903  15.930  0.5050 -0.5920 -1.1391
  231MPD1     C 3556   3.661   0.448  15.333 -0.1307  0.4447  0.6752
  231MPD1    C1 3557   3.564   0.426  15.232 -0.3774  0.3932  0.7155
  231MPD1    C2 3558   3.545   0.524  15.134 -0.0728  0.3785  0.0445
  231MPD1    C3 3559   3.612   0.639  15.136  0.1086 -0.1587 -0.7568
  231MPD1    C4 3560   3.704   0.656  15.234 -0.7438  0.3220 -0.0262
  231MPD1    C5 3561   3.720   0.572  15.342  1.1348 -0.4206 -0.1628
  231MPD1     H 3562   3.468   0.506  15.060 -0.0129  0.8726 -0.1387
  231MPD1    H1 3563   3.779   0.734  15.235 -0.3545 -0.0666  0.8256
  231MPD1    H2 3564   3.674   0.382  15.417 -1.1378  0.2069  0.6456
  231MPD1    H3 3565   3.805   0.595  15.406  1.3052 -1.1771 -0.1104
  231MPD1     N 3566   3.586   0.731  15.032  0.4526  0.1968  0.1207
  231MPD1    H5 3567   3.523   0.697  14.960 -0.7500 -0.6987  1.5873
  231MPD1    N1 3568   3.474   0.317  15.239  0.2560  0.0032 -0.2654
  231MPD1    H6 3569   3.518   0.231  15.270  1.6811  1.1655  0.9595
  231MPD1    H7 3570   3.413   0.296  15.161 -0.0983  1.4894 -0.3966
  232MPD1     C 3571   0.795   3.525   0.321  0.1303  0.3953  0.0986
  232MPD1    C1 3572   0.672   3.580   0.320  0.0767  0.9700 -0.2503
  232MPD1    C2 3573   0.571   3.502   0.260 -0.7326 -0.6880 -0.0883
  232MPD1    C3 3574   0.591   3.381   0.191  0.0881 -0.0083 -0.0184
  232MPD1    C4 3575   0.715   3.336   0.185  0.1527 -0.0186 -0.1393
  232MPD1    C5 3576   0.816   3.406   0.253 -0.0644  0.0760  0.2133
  232MPD1     H 3577   0.466   3.527   0.257 -1.0096 -1.5233  2.5519
  232MPD1    H1 3578   0.748   3.242   0.143  0.1347 -0.8110  1.6348
  232MPD1    H2 3579   0.878   3.566   0.377 -1.0963 -0.9863  2.9641
  232MPD1    H3 3580   0.911   3.354   0.259 -0.8303 -1.1836  1.5028
  232MPD1     N 3581   0.475   3.324   0.122 -0.1749  0.4973 -0.0488
  232MPD1    H5 3582   0.386   3.373   0.128 -0.2618  0.2098  0.9530
  232MPD1    N1 3583   0.645   3.696   0.394 -0.5466  0.0361 -0.2623
  232MPD1    H6 3584   0.555   3.741   0.379 -0.3235  0.4973 -0.2201
  232MPD1    H7 3585   0.712   3.771   0.378 -1.1905  0.4902 -0.7819
  233MPD1     C 3586   2.314   1.780   1.294  0.5560  0.2511 -0.2503
  233MPD1    C1 3587   2.289   1.691   1.400 -0.1577  0.7582  0.6617
  233MPD1    C2 3588   2.264   1.560   1.374  0.3332 -0.6004 -0.0904
  233MPD1    C3 3589   2.271   1.517   1.238  0.4166  0.6756 -0.0652
  233MPD1    C4 3590   2.296   1.612   1.140  0.5438 -0.1389  0.8677
  233MPD1    C5 3591   2.327   1.737   1.170  0.3702 -0.8242  0.0520
  233MPD1     H 3592   2.245   1.489   1.454 -0.4789  0.1391  0.3680
  233MPD1    H1 3593   2.301   1.586   1.035 -0.2385  1.1179  0.5059
  233MPD1    H2 3594   2.329   1.887   1.307  0.8748 -0.0666  2.0031
  233MPD1    H3 3595   2.342   1.814   1.095 -0.9777 -1.2083 -0.6137
  233MPD1     N 3596   2.236   1.387   1.194  0.3156  0.1832 -0.3030
  233MPD1    H5 3597   2.228   1.365   1.096 -1.4175  1.0164 -0.3552
  233MPD1    N1 3598   2.250   1.741   1.525 -0.4279  0.6708  0.4210
  233MPD1    H6 3599   2.247   1.674   1.601 -3.4445  0.0321 -0.2353
  233MPD1    H7 3600   2.307   1.821   1.552 -1.6252  1.5346  0.4203
  234MPD1     C 3601   2.952   1.102   7.958  0.1954 -0.2116 -0.7451
  234MPD1    C1 3602   2.875   1.202   7.920 -0.0113  0.2033  0.2107
  234MPD1    C2 3603   2.790   1.273   8.005  0.1414 -0.1677 -0.5227
  234MPD1    C3 3604   2.791   1.226   8.138 -0.4097 -0.2133  0.4980
  234MPD1    C4 3605   2.866   1.121   8.179 -0.0141 -0.1664  0.0644
  234MPD1    C5 3606   2.945   1.060   8.088  0.1017  0.1897 -0.4924
  234MPD1     H 3607   2.725   1.353   7.972  2.1994  0.6656 -2.4848
  234MPD1    H1 3608   2.873   1.081   8.280  0.6877 -0.9545 -0.3050
  234MPD1    H2 3609   3.024   1.055   7.893 -0.1829 -1.7192 -0.0711
  234MPD1    H3 3610   3.016   0.982   8.113  0.4797  0.4483 -0.7621
  234MPD1     N 3611   2.712   1.296   8.227 -0.1098  0.5330  0.3158
  234MPD1    H5 3612   2.661   1.375   8.189 -0.0609  0.9883  1.1838
  234MPD1    N1 3613   2.876   1.252   7.782  0.0297 -0.4524  0.1846
  234MPD1    H6 3614   2.785   1.272   7.741  0.1449 -0.1209  0.0931
  234MPD1    H7 3615   2.925   1.184   7.724  0.1631  0.0981 -0.3410
  235MPD1     C 3616   4.435   2.504  10.364 -0.0071  0.9445  0.3334
  235MPD1    C1 3617   4.430   2.530  10.231 -0.0818 -0.0794  0.5844
  235MPD1    C2 3618   4.513   2.629  10.182  0.3763 -0.3265 -0.2605
  235MPD1    C3 3619   4.599   2.702  10.267 -0.1396  1.0737  0.7605
  235MPD1    C4 3620   4.599   2.676  10.399  0.0686 -0.2467 -0.3615
  235MPD1    C5 3621   4.523   2.574  10.442  0.4882 -0.0052 -0.5206
  235MPD1     H 3622   4.512   2.654  10.077  2.1974 -2.2578 -0.7334
  235MPD1    H1 3623   4.654   2.737  10.470  0.5001 -1.6349  0.5089
  235MPD1    H2 3624   4.365   2.431  10.405  3.0206 -1.6083  0.9401
  235MPD1    H3 3625   4.506   2.562  10.548  1.8066  2.2138 -0.0521
  235MPD1     N 3626   4.662   2.816  10.215 -0.0757  0.2321  0.2917
  235MPD1    H5 3627   4.642   2.853  10.123 -1.0092 -0.6034  0.1533
  235MPD1    N1 3628   4.332   2.472  10.149  0.2548  0.1784 -0.2080
  235MPD1    H6 3629   4.318   2.374  10.171  0.7969  0.4198  1.2001
  235MPD1    H7 3630   4.361   2.482  10.052  3.0567  1.3242  0.7349
  236MPD1     C 3631   3.892   4.511  10.291  0.0693 -0.2292  0.1969
  236MPD1    C1 3632   3.876   4.374  10.270 -0.0464  0.4394 -0.2003
  236MPD1    C2 3633   3.982   4.297  10.306 -0.2443  0.2456  0.0389
  236MPD1    C3 3634   4.113   4.342  10.332 -0.1627 -0.2123 -0.0659
  236MPD1    C4 3635   4.127   4.477  10.325 -0.5761  0.1733  0.1363
  236MPD1    C5 3636   4.018   4.563  10.311 -0.7386 -0.8375 -0.2270
  236MPD1     H 3637   3.970   4.190  10.307 -0.2716  0.2512  1.6646
  236MPD1    H1 3638   4.225   4.522  10.328 -0.5845  0.2042 -0.0164
  236MPD1    H2 3639   3.808   4.575  10.270 -0.5758 -0.4703  2.0539
  236MPD1    H3 3640   4.026   4.671  10.311  1.6464 -1.0020 -3.2642
  236MPD1     N 3641   4.225   4.258  10.347  0.0152 -0.6028 -0.0427
  236MPD1    H5 3642   4.315   4.305  10.343 -0.6595  0.6379 -0.7491
  236MPD1    N1 3643   3.743   4.323  10.268 -0.0208  0.0661  0.3301
  236MPD1    H6 3644   3.738   4.222  10.261 -1.9218  0.1365  0.5687
  236MPD1    H7 3645   3.681   4.379  10.208  1.1075 -0.0457 -0.9402
  237MPD1     C 3646   4.180   2.318  14.857 -0.1776 -0.8274  0.0653
  237MPD1    C1 3647   4.084   2.315  14.955  1.0752  0.0838  0.1829
  237MPD1    C2 3648   3.979   2.225  14.955 -0.2248 -0.1566 -0.0956
  237MPD1    C3 3649   3.986   2.119  14.867 -0.3177  0.0292 -0.4549
  237MPD1    C4 3650   4.080   2.116  14.768  0.9453  0.1717  0.4898
  237MPD1    C5 3651   4.178   2.215  14.765  0.4499 -0.3428 -0.2097
  237MPD1     H 3652   3.894   2.235  15.022  0.4695 -0.3162  0.8078
  237MPD1    H1 3653   4.075   2.034  14.697  2.0267  1.2126 -0.8077
  237MPD1    H2 3654   4.258   2.393  14.853 -1.2283  0.2943  0.5549
  237MPD1    H3 3655   4.255   2.204  14.690  0.4414 -1.1717 -0.1041
  237MPD1     N 3656   3.896   2.010  14.874  0.3462  0.7843  0.4341
  237MPD1    H5 3657   3.900   1.946  14.795 -1.1320  0.0512  0.9542
  237MPD1    N1 3658   4.078   2.427  15.043  0.2001 -0.4263  0.4965
  237MPD1    H6 3659   4.016   2.405  15.120  0.9345 -0.8194  0.9833
  237MPD1    H7 3660   4.029   2.508  15.005  0.2736  0.2738  1.8923
  238MPD1     C 3661   0.684   1.298  14.461  0.2584 -0.3367  0.0766
  238MPD1    C1 3662   0.728   1.201  14.543  1.0185 -0.3318 -0.2982
  238MPD1    C2 3663   0.653   1.080  14.532 -0.2461  0.4065  0.0024
  238MPD1    C3 3664   0.569   1.056  14.424  0.0770 -0.2149  0.1946
  238MPD1    C4 3665   0.550   1.155  14.335  0.1080  0.5629 -0.7545
  238MPD1    C5 3666   0.609   1.277  14.357  0.4930 -0.0923  0.0763
  238MPD1     H 3667   0.680   0.996  14.595  0.5152 -0.4104 -1.4146
  238MPD1    H1 3668   0.498   1.132  14.243  0.4664  2.1104 -1.3454
  238MPD1    H2 3669   0.721   1.400  14.464  0.4246 -0.3432 -1.5234
  238MPD1    H3 3670   0.591   1.360  14.289  0.6125 -0.6402 -0.6161
  238MPD1     N 3671   0.501   0.935  14.408  0.1106  0.7406  0.6711
  238MPD1    H5 3672   0.427   0.932  14.339 -0.8386  0.5360  1.6807
  238MPD1    N1 3673   0.801   1.244  14.657 -0.3653  0.2892 -0.2852
  238MPD1    H6 3674   0.859   1.172  14.700 -0.7516 -0.6185 -1.2674
  238MPD1    H7 3675   0.865   1.318  14.629 -1.4698  1.5320  0.5575
  239MPD1     C 3676   0.463   1.529  14.938  0.7531  0.2170  0.3420
  239MPD1    C1 3677   0.542   1.472  14.840 -0.6824 -0.5519 -0.1186
  239MPD1    C2 3678   0.537   1.522  14.713  0.3840 -0.1117  0.4368
  239MPD1    C3 3679   0.456   1.629  14.676  0.5845 -0.6838 -0.3783
  239MPD1    C4 3680   0.365   1.675  14.775  0.2427  0.3056  0.2146
  239MPD1    C5 3681   0.372   1.626  14.905  0.1859 -0.4522  1.0542
  239MPD1     H 3682   0.609   1.472  14.650 -0.6321 -0.8152 -0.1564
  239MPD1    H1 3683   0.283   1.744  14.756 -0.2215 -0.5055 -0.7430
  239MPD1    H2 3684   0.465   1.500  15.042  1.3949 -0.4605  0.1415
  239MPD1    H3 3685   0.306   1.649  14.988  0.1476  1.1898  0.5672
  239MPD1     N 3686   0.434   1.682  14.548  0.2408 -0.4573  0.6848
  239MPD1    H5 3687   0.356   1.746  14.539 -0.1636 -0.9675  0.5618
  239MPD1    N1 3688   0.639   1.375  14.872 -0.2287 -0.4483  0.5028
  239MPD1    H6 3689   0.672   1.320  14.793  1.8691 -0.3219  1.2921
  239MPD1    H7 3690   0.604   1.314  14.945 -1.2765 -1.2755 -0.6891
  240MPD1     C 3691   0.396   1.291  13.521 -0.3047 -0.6355 -0.5707
  240MPD1    C1 3692   0.437   1.171  13.583 -0.2818  0.2053 -0.9056
  240MPD1    C2 3693   0.363   1.123  13.686  0.3751  0.2138  0.2346
  240MPD1    C3 3694   0.246   1.195  13.724  0.3888 -0.5295  0.2658
  240MPD1    C4 3695   0.203   1.305  13.658  0.1338  0.0837  0.0107
  240MPD1    C5 3696   0.278   1.350  13.556  0.5473  0.3078  0.0402
  240MPD1     H 3697   0.397   1.036  13.741  0.5745 -0.6483 -1.2392
  240MPD1    H1 3698   0.115   1.361  13.687  1.6369  1.4071  2.0292
  240MPD1    H2 3699   0.449   1.339  13.439  0.1138 -0.3059 -0.1070
  240MPD1    H3 3700   0.249   1.440  13.503 -0.8263  0.6087  1.2906
  240MPD1     N 3701   0.167   1.152  13.838 -0.3327  0.2053  0.1171
  240MPD1    H5 3702   0.209   1.078  13.893 -0.1363 -0.1684 -0.5411
  240MPD1    N1 3703   0.571   1.116  13.556  0.0166 -0.4082  0.0473
  240MPD1    H6 3704   0.583   1.126  13.455  1.9791 -3.2686 -0.0037
  240MPD1    H7 3705   0.584   1.019  13.584  1.9782 -0.6156 -1.5489
  241MPD1     C 3706   0.246   0.939  14.801  0.1518 -0.1893 -0.4336
  241MPD1    C1 3707   0.298   1.014  14.697  0.2851 -0.4400 -0.1263
  241MPD1    C2 3708   0.239   1.020  14.573  0.2939  0.3404 -0.1010
  241MPD1    C3 3709   0.126   0.948  14.552 -0.6005 -0.5122 -0.1303
  241MPD1    C4 3710   0.071   0.877  14.651 -0.4962  0.8487 -0.0762
  241MPD1    C5 3711   0.132   0.869  14.774 -0.1057 -0.2697  0.6038
  241MPD1     H 3712   0.276   1.089  14.498  3.5001  0.7180  1.8473
  241MPD1    H1 3713   4.706   0.837  14.644  0.5350 -1.7126 -0.1934
  241MPD1    H2 3714   0.276   0.947  14.905  2.3372 -1.1688 -0.9776
  241MPD1    H3 3715   0.085   0.814  14.855  1.2104  0.2588  1.7236
  241MPD1     N 3716   0.060   0.954  14.429  0.1595 -0.0198 -0.3588
  241MPD1    H5 3717   4.698   0.925  14.428  0.1158  0.0972  0.4626
  241MPD1    N1 3718   0.394   1.113  14.725  0.2887 -0.3047  0.1423
  241MPD1    H6 3719   0.454   1.143  14.648  1.3069 -1.2150  0.5799
  241MPD1    H7 3720   0.453   1.091  14.806 -0.2993 -0.6056  0.4897
  242MPD1     C 3721   4.261   3.871  15.448 -0.2338 -0.3263 -0.2197
  242MPD1    C1 3722   4.332   3.952  15.541  0.3533 -0.5991 -0.3261
  242MPD1    C2 3723   4.368   4.075  15.501 -0.6817  0.6687 -0.0818
  242MPD1    C3 3724   4.367   4.104  15.362 -0.9848 -0.1081  0.1268
  242MPD1    C4 3725   4.302   4.019  15.275  0.3233  0.3569  0.7932
  242MPD1    C5 3726   4.246   3.902  15.320 -0.4881  0.1460 -0.3113
  242MPD1     H 3727   4.412   4.142  15.574  0.4828  0.0650 -0.2299
  242MPD1    H1 3728   4.305   4.040  15.168 -2.0441  1.4815  0.9460
  242MPD1    H2 3729   4.228   3.775  15.489  0.0965 -0.0716  0.6498
  242MPD1    H3 3730   4.203   3.829  15.252 -1.4815  0.1952  0.2521
  242MPD1     N 3731   4.438   4.215  15.307  0.4398 -0.4520 -0.5382
  242MPD1    H5 3732   4.418   4.233  15.209  0.4655 -2.7436 -0.9638
  242MPD1    N1 3733   4.386   3.898  15.660 -0.5448 -0.4666  0.2400
  242MPD1    H6 3734   4.331   3.815  15.685 -0.1844 -1.5214 -2.5773
  242MPD1    H7 3735   4.359   3.968  15.730 -0.9396 -0.3758 -0.0050
  243MPD1     C 3736   0.861   2.983  17.645  0.4865 -0.1669  0.0274
  243MPD1    C1 3737   0.893   2.962  17.515 -0.1401 -0.5078  0.3163
  243MPD1    C2 3738   0.987   2.874  17.479  0.3201 -0.9324 -0.3463
  243MPD1    C3 3739   1.071   2.818  17.575 -0.0195 -0.0556 -0.5346
  243MPD1    C4 3740   1.039   2.844  17.710  0.3392  0.8787 -0.5396
  243MPD1    C5 3741   0.941   2.928   0.007  0.2299  0.2317 -0.1260
  243MPD1     H 3742   1.017   2.853  17.377 -1.0943  0.1988 -0.9936
  243MPD1    H1 3743   1.094   2.798   0.052 -3.5778 -0.5355  1.2928
  243MPD1    H2 3744   0.779   3.049  17.670  1.9281  1.3778  0.7064
  243MPD1    H3 3745   0.926   2.947   0.113 -1.0578  2.1484 -0.6485
  243MPD1     N 3746   1.165   2.723  17.538 -0.2310 -0.4527 -0.1486
  243MPD1    H5 3747   1.201   2.730  17.444  2.5901 -1.0358  0.8750
  243MPD1    N1 3748   0.800   3.008  17.425  0.9164 -0.8812  0.8949
  243MPD1    H6 3749   0.824   3.023  17.327  0.4737  0.7842  1.0297
  243MPD1    H7 3750   0.752   3.092  17.459 -0.8031 -1.3205 -0.4395
  244MPD1     C 3751   1.425   1.786   0.041  0.3548 -0.1766 -0.4072
  244MPD1    C1 3752   1.315   1.858   0.083  0.1506  0.2559  0.3689
  244MPD1    C2 3753   1.318   1.991   0.046 -0.1539  0.2545 -0.2739
  244MPD1    C3 3754   1.423   2.046  17.713 -0.4528  0.1267 -0.3953
  244MPD1    C4 3755   1.534   1.966  17.686 -0.4868  0.0975 -0.4779
  244MPD1    C5 3756   1.534   1.836  17.720  0.6137  0.5761  0.2311
  244MPD1     H 3757   1.232   2.056   0.051 -0.2628  0.2045 -1.5052
  244MPD1    H1 3758   1.625   2.001  17.639 -0.3121  1.6188  0.9696
  244MPD1    H2 3759   1.418   1.677   0.044  1.9272 -0.2590  0.5760
  244MPD1    H3 3760   1.622   1.775  17.708  1.7251  2.2503 -0.0490
  244MPD1     N 3761   1.419   2.185  17.686 -0.0067 -0.0460  0.1216
  244MPD1    H5 3762   1.347   2.248  17.720  0.2447 -0.8533  2.1750
  244MPD1    N1 3763   1.192   1.798   0.109  0.1709 -0.6122 -0.1546
  244MPD1    H6 3764   1.202   1.705   0.151  1.3587  0.0510  1.0255
  244MPD1    H7 3765   1.127   1.858   0.159  0.0321  1.5995 -3.0318
  245MPD1     C 3766   4.023   3.668  13.106 -0.1784  0.5337 -0.2043
  245MPD1    C1 3767   3.902   3.724  13.099  1.0198  0.0785  0.6444
  245MPD1    C2 3768   3.837   3.762  13.217 -0.0484  0.9409  0.6474
  245MPD1    C3 3769   3.900   3.766  13.338  0.0545  0.2665 -0.6426
  245MPD1    C4 3770   4.035   3.737  13.333 -0.2073 -0.0828  0.1599
  245MPD1    C5 3771   4.092   3.689  13.218 -0.4652 -0.0305 -0.4516
  245MPD1     H 3772   3.731   3.775  13.199 -0.5730 -0.6282  2.6000
  245MPD1    H1 3773   4.102   3.742  13.418 -0.9599 -0.3177  0.7774
  245MPD1    H2 3774   4.067   3.610  13.026  0.0104  0.2490  0.1055
  245MPD1    H3 3775   4.197   3.663  13.220 -0.7086 -1.0285 -0.5107
  245MPD1     N 3776   3.822   3.818  13.442  0.0674 -0.1538  0.0836
  245MPD1    H5 3777   3.729   3.847  13.415  0.1503  2.0807  2.2097
  245MPD1    N1 3778   3.819   3.702  12.982 -0.0750  0.1918  0.0042
  245MPD1    H6 3779   3.744   3.770  12.979 -1.5444 -1.3897  0.4262
  245MPD1    H7 3780   3.877   3.708  12.899  1.4069  1.1132  1.1248
  246MPD1     C 3781   4.061   0.717   9.453 -0.8808  0.7254 -0.3358
  246MPD1    C1 3782   3.940   0.774   9.408 -0.0193 -0.3785  0.5412
  246MPD1    C2 3783   3.844   0.678   9.368 -0.0297  0.3882  0.9019
  246MPD1    C3 3784   3.864   0.539   9.379 -0.0155 -0.4986  0.0383
  246MPD1    C4 3785   3.979   0.496   9.431 -0.0751  0.1711  0.4781
  246MPD1    C5 3786   4.074   0.581   9.471  0.3314 -0.2623  0.3853
  246MPD1     H 3787   3.744   0.706   9.336 -0.4252 -1.9907  0.0777
  246MPD1    H1 3788   4.005   0.391   9.434  2.3970  0.8055  0.4485
  246MPD1    H2 3789   4.146   0.782   9.472  0.5204 -1.1080 -0.3757
  246MPD1    H3 3790   4.166   0.539   9.510  0.1528  2.2672  3.5336
  246MPD1     N 3791   3.761   0.456   9.334 -0.2875  0.4311  0.2533
  246MPD1    H5 3792   3.672   0.495   9.308 -0.5539 -1.0156 -0.9974
  246MPD1    N1 3793   3.933   0.918   9.376  0.3730 -0.4738 -0.2530
  246MPD1    H6 3794   3.840   0.960   9.382  0.1107 -0.6913 -2.7091
  246MPD1    H7 3795   4.009   0.976   9.410  0.5000 -0.3226 -0.8001
  247MPD1     C 3796   2.957   2.588  15.319  0.5496 -0.4252  0.4210
  247MPD1    C1 3797   3.024   2.549  15.429 -0.2302  0.1948 -0.3860
  247MPD1    C2 3798   3.012   2.632  15.547  0.0009 -0.1131  0.1208
  247MPD1    C3 3799   2.935   2.746  15.541 -0.0043 -0.8593 -0.2536
  247MPD1    C4 3800   2.876   2.786  15.423 -0.0441  0.7669 -0.0560
  247MPD1    C5 3801   2.883   2.704  15.315 -0.1543 -0.1370  0.7730
  247MPD1     H 3802   3.070   2.600  15.633  0.4801  0.9560  0.1948
  247MPD1    H1 3803   2.809   2.871  15.415  0.4249  1.2998  1.8400
  247MPD1    H2 3804   2.951   2.534  15.226 -0.2682  0.5048 -0.0651
  247MPD1    H3 3805   2.827   2.729  15.225  0.0982  0.0175  0.6576
  247MPD1     N 3806   2.913   2.834  15.639  0.1696 -0.6999  0.0491
  247MPD1    H5 3807   2.880   2.925  15.610  3.3862  0.7681  1.0225
  247MPD1    N1 3808   3.125   2.452  15.420 -0.5043 -0.2916 -0.0060
  247MPD1    H6 3809   3.108   2.400  15.334 -2.8017  0.2431  0.1198
  247MPD1    H7 3810   3.131   2.390  15.500 -1.6188  0.3903  0.6024
  248MPD1     C 3811   3.727   3.076  16.672 -0.1176 -0.5482  0.1243
  248MPD1    C1 3812   3.738   3.153  16.789  0.3605 -0.3896  0.1824
  248MPD1    C2 3813   3.658   3.112  16.899  0.6362  0.1455  0.0352
  248MPD1    C3 3814   3.582   2.997  16.896  0.6014 -0.0288 -0.8216
  248MPD1    C4 3815   3.588   2.918  16.779  0.0814  0.2104  0.4951
  248MPD1    C5 3816   3.654   2.962  16.668  0.0667  0.6082 -0.1198
  248MPD1     H 3817   3.648   3.174  16.987 -1.7343  2.0592 -1.5521
  248MPD1    H1 3818   3.521   2.833  16.766  0.2838  0.3638 -1.4561
  248MPD1    H2 3819   3.782   3.102  16.582 -1.8497  1.7165 -0.2805
  248MPD1    H3 3820   3.643   2.909  16.574  0.4264  0.9788 -0.3713
  248MPD1     N 3821   3.507   2.971  17.015  0.2316  0.2311 -0.2420
  248MPD1    H5 3822   3.507   3.033  17.096  0.9997 -0.1168  0.0319
  248MPD1    N1 3823   3.807   3.277  16.781  0.2180  0.0020  0.1626
  248MPD1    H6 3824   3.888   3.252  16.725  0.0193  2.1055 -1.0943
  248MPD1    H7 3825   3.837   3.299  16.876 -2.0995  0.9187  0.6845
  249MPD1     C 3826   1.195   2.970  10.542 -0.1110  0.1901  0.3611
  249MPD1    C1 3827   1.171   2.836  10.573 -0.3179 -0.3034  0.8612
  249MPD1    C2 3828   1.276   2.766  10.636 -0.0049 -0.2193 -0.0074
  249MPD1    C3 3829   1.394   2.833  10.675  0.4454  0.7299 -0.0308
  249MPD1    C4 3830   1.406   2.969  10.651  0.5448 -0.2718  0.9005
  249MPD1    C5 3831   1.301   3.036  10.593  0.5809 -0.1124  0.3358
  249MPD1     H 3832   1.277   2.660  10.660  1.2116 -0.5718 -1.5950
  249MPD1    H1 3833   1.498   3.020  10.677  0.6346 -0.8304  1.6738
  249MPD1    H2 3834   1.118   3.030  10.494  1.3857 -0.9411 -3.4569
  249MPD1    H3 3835   1.321   3.138  10.563 -0.5634  0.0552  0.1328
  249MPD1     N 3836   1.492   2.748  10.729  0.0085 -0.3937 -0.2346
  249MPD1    H5 3837   1.469   2.649  10.734  0.7483 -0.6396 -1.4773
  249MPD1    N1 3838   1.052   2.777  10.525  0.0846  0.0883  0.2534
  249MPD1    H6 3839   0.972   2.838  10.539 -0.1304  0.0056 -0.6039
  249MPD1    H7 3840   1.037   2.693  10.581 -0.6234  0.8565  1.1974
  250MPD2     C 3841   1.719   1.753  13.050  0.1070  0.0983 -0.5754
  250MPD2    C1 3842   1.635   1.839  12.985  0.2156  0.1832 -0.1447
  250MPD2    C2 3843   1.558   1.786  12.878  0.4200 -0.1158 -0.0782
  250MPD2    C3 3844   1.574   1.644  12.857  0.7572 -0.0183 -0.3543
  250MPD2    C4 3845   1.662   1.562  12.917 -0.4587 -0.2903 -1.2799
  250MPD2    C5 3846   1.739   1.622  13.014  0.5381  0.1698 -0.1300
  250MPD2     H 3847   1.502   1.847  12.808  0.7416  1.6042  1.1521
  250MPD2    H1 3848   1.683   1.458  12.893  1.2783  0.0662 -1.2458
  250MPD2    H2 3849   1.778   1.792  13.132  0.8465  0.4801 -1.2790
  250MPD2    H3 3850   1.823   1.573  13.061  0.0451  0.2242  0.7988
  250MPD2     N 3851   1.494   1.590  12.762  0.1000 -0.0469  0.1832
  250MPD2    H5 3852   1.522   1.495  12.740 -0.1074 -0.0410 -0.1002
  250MPD2    N1 3853   1.661   1.976  13.009 -0.2059  0.3802 -0.1382
  250MPD2    H7 3854   1.740   1.995  13.070 -1.3985 -0.8101  1.7655
  251TMC3    C1 3855   1.626   2.210  13.009 -0.1229 -0.1227  0.3520
  251TMC3    C2 3856   1.540   2.309  12.991 -0.0972  1.1468 -0.7560
  251TMC3    C3 3857   1.592   2.432  13.014  0.4997  0.4972 -0.0983
  251TMC3    C4 3858   1.767   2.225  13.023  0.0812  0.0763  0.0323
  251TMC3    C5 3859   1.810   2.353  13.044  0.0656 -0.4683  0.7555
  251TMC3    C6 3860   1.727   2.459  13.035  0.1397  0.7221 -0.3992
  251TMC3     C 3861   1.576   2.079  12.971  0.6029  0.3702 -0.0453
  251TMC3     O 3862   1.481   2.069  12.893  0.2584 -0.0151 -0.8521
  251TMC3     H 3863   1.435   2.283  12.981 -0.0038  0.2216  0.7464
  251TMC3    H1 3864   1.840   2.146  13.032  0.3055  0.6450  3.1837
  251TMC3    H2 3865   1.760   2.560  13.059 -0.2523  0.5524  0.8268
  251TMC3    C7 3866   1.930   2.373  13.133  0.2307 -0.6086  0.1826
  251TMC3    C8 3867   1.486   2.529  13.001 -0.1119 -0.0314  0.2482
  251TMC3    O1 3868   1.939   2.297  13.230  0.1558 -0.6656  0.2283
  251TMC3    O2 3869   1.392   2.485  12.937 -0.3500 -0.6973  0.3929
  252TMC3    C1 3870   1.587   3.829   9.562 -0.3993 -0.4506  0.1123
  252TMC3    C2 3871   1.690   3.774   9.489  0.2380 -0.1530 -0.0050
  252TMC3    C3 3872   1.771   3.686   9.550  0.3414 -0.3709 -0.2181
  252TMC3    C4 3873   1.555   3.781   9.685  0.3434 -0.4246  0.4517
  252TMC3    C5 3874   1.632   3.684   9.741 -0.3187  0.0408  0.3218
  252TMC3    C6 3875   1.743   3.644   9.670  0.1635 -0.0623  0.1247
  252TMC3     C 3876   1.490   3.914   9.496 -0.2454 -0.7665  0.1066
  252TMC3     O 3877   1.494   3.920   9.372 -0.0359 -0.3899  0.0818
  252TMC3     H 3878   1.726   3.817   9.396 -0.2909 -2.5803 -1.3085
  252TMC3    H1 3879   1.480   3.822   9.752  1.3252 -1.9246  2.4702
  252TMC3    H2 3880   1.812   3.578   9.721 -0.9960  0.3511  2.2294
  252TMC3    C7 3881   1.619   3.661   9.886 -0.5564 -0.3674 -0.5193
  252TMC3    C8 3882   1.906   3.674   9.491 -0.3222  0.1177  1.0648
  252TMC3    O1 3883   1.552   3.742   9.952  0.3177 -0.9006 -0.4903
  252TMC3    O2 3884   1.911   3.687   9.372 -0.0415 -0.6130  0.3156
  253MPD2     C 3885   3.020   1.911  14.835 -0.4392  0.4739 -0.2835
  253MPD2    C1 3886   2.890   1.885  14.851 -0.0738  0.3899 -0.3609
  253MPD2    C2 3887   2.845   1.872  14.982  0.3121 -0.3101  0.9023
  253MPD2    C3 3888   2.928   1.896  15.092 -0.3867  0.5263 -0.2357
  253MPD2    C4 3889   3.056   1.943  15.066 -0.2641  0.0546 -0.7114
  253MPD2    C5 3890   3.104   1.945  14.938 -0.0331 -0.4362 -0.5287
  253MPD2     H 3891   2.744   1.837  14.999  0.3191 -0.3169  0.9307
  253MPD2    H1 3892   3.114   1.966  15.155  1.0410  2.5994 -2.2453
  253MPD2    H2 3893   3.060   1.941  14.738  3.0407 -1.2955  0.6110
  253MPD2    H3 3894   3.197   1.997  14.918 -1.5748  2.4967 -0.0162
  253MPD2     N 3895   2.881   1.899  15.228  0.3032  0.2181  0.2069
  253MPD2    H5 3896   2.948   1.924  15.300  0.4478 -0.9164  0.4594
  253MPD2    N1 3897   2.796   1.892  14.744  0.3910  0.2910 -0.3980
  253MPD2    H7 3898   2.702   1.866  14.771  1.2261 -2.4558 -0.1586
  254TMC3    C1 3899   2.744   1.926  15.416 -0.9192  0.9520 -0.7205
  254TMC3    C2 3900   2.626   1.985  15.465 -0.0546  0.5708  0.6252
  254TMC3    C3 3901   2.608   1.981  15.603 -0.3685  0.0716 -0.0638
  254TMC3    C4 3902   2.842   1.876  15.502 -0.9036 -0.7489 -0.3782
  254TMC3    C5 3903   2.819   1.870  15.631 -0.1554 -0.1732 -0.0578
  254TMC3    C6 3904   2.699   1.921  15.689  0.2101 -0.3636 -0.3284
  254TMC3     C 3905   2.753   1.883  15.275 -0.5905 -0.8755 -0.5781
  254TMC3     O 3906   2.652   1.889  15.208 -0.1627  0.2390 -0.5824
  254TMC3     H 3907   2.556   2.008  15.386  3.3822  1.9186 -2.0149
  254TMC3    H1 3908   2.929   1.822  15.466  0.1410  0.5490  0.2284
  254TMC3    H2 3909   2.679   1.915  15.795  0.5102  1.2335 -0.1777
  254TMC3    C7 3910   2.922   1.838  15.728 -0.1361 -0.0908 -0.3507
  254TMC3    C8 3911   2.510   2.065  15.673  0.6334  0.0429  0.6402
  254TMC3    O1 3912   2.883   1.815  15.844 -0.0716 -0.3267  0.1830
  254TMC3    O2 3913   2.503   2.046  15.791 -0.1091 -0.1400  0.4265
  255MPD2     C 3914   2.187   0.356   9.635  0.2267  0.0530 -0.2291
  255MPD2    C1 3915   2.100   0.459   9.613 -0.2655  0.2095  0.9116
  255MPD2    C2 3916   2.113   0.523   9.492  0.2775 -0.6999  0.5059
  255MPD2    C3 3917   2.198   0.476   9.391 -0.4081  0.7496 -0.2217
  255MPD2    C4 3918   2.285   0.373   9.426 -0.5455  0.1600 -0.1459
  255MPD2    C5 3919   2.280   0.306   9.545 -0.4407  0.0850  0.2383
  255MPD2     H 3920   2.042   0.604   9.479 -0.4549 -1.3760  0.3367
  255MPD2    H1 3921   2.367   0.347   9.359 -1.6222  1.2908 -1.9129
  255MPD2    H2 3922   2.180   0.295   9.724  0.6239  1.0967  0.5176
  255MPD2    H3 3923   2.338   0.220   9.576 -2.0862 -0.4086  1.8994
  255MPD2     N 3924   2.212   0.561   9.277 -1.2576  0.1014  1.1021
  255MPD2    H5 3925   2.148   0.639   9.279 -0.3694  0.8272  1.1795
  255MPD2    N1 3926   2.001   0.486   9.705  0.3164  0.2238 -0.1936
  255MPD2    H7 3927   2.008   0.429   9.789 -2.6301  0.0140 -0.0864
  256TMC3    C1 3928   1.827   0.608   9.823 -0.5225  0.2020  0.1422
  256TMC3    C2 3929   1.764   0.724   9.854  0.5498 -0.8898 -0.7261
  256TMC3    C3 3930   1.640   0.717   9.908 -0.2666 -0.0992  0.0551
  256TMC3    C4 3931   1.777   0.485   9.858  0.1438 -0.7719 -0.0264
  256TMC3    C5 3932   1.658   0.485   9.922  0.2151 -0.1403  0.0791
  256TMC3    C6 3933   1.583   0.604   9.949  0.5702 -0.5328 -0.4359
  256TMC3     C 3934   1.929   0.610   9.720 -0.8452 -0.2671 -0.2454
  256TMC3     O 3935   1.948   0.716   9.660 -0.4174 -0.0620  0.2959
  256TMC3     H 3936   1.805   0.819   9.822 -3.0004  0.5085 -1.1783
  256TMC3    H1 3937   1.819   0.388   9.837  1.3281 -0.3757  0.5088
  256TMC3    H2 3938   1.483   0.596   9.989  0.5409  1.3329 -0.1317
  256TMC3    C7 3939   1.595   0.355   9.941 -0.0463  0.3034 -0.1738
  256TMC3    C8 3940   1.573   0.840   9.927  0.4167 -0.0729  0.1891
  256TMC3    O1 3941   1.643   0.258   9.877 -0.1161  0.4264  0.6266
  256TMC3    O2 3942   1.511   0.849  10.032 -0.2363 -0.3886 -0.0798
  257MPD2     C 3943   0.015   2.508  12.809 -0.2450  0.8256 -0.5718
  257MPD2    C1 3944   0.143   2.466  12.783 -0.3902  1.3033 -0.6404
  257MPD2    C2 3945   0.191   2.348  12.836 -0.1953  0.0558 -0.5811
  257MPD2    C3 3946   0.115   2.282  12.930 -0.0699 -0.6984 -0.7985
  257MPD2    C4 3947   4.722   2.328  12.958  0.0884 -0.2791  0.0575
  257MPD2    C5 3948   4.676   2.443  12.897 -0.0494  0.0728  0.1266
  257MPD2     H 3949   0.289   2.309  12.813 -0.9882 -2.8371  0.9263
  257MPD2    H1 3950   4.648   2.275  13.017 -0.6778 -1.1814 -1.7140
  257MPD2    H2 3951   4.706   2.595  12.762 -0.4397  1.2519  0.3854
  257MPD2    H3 3952   4.575   2.480  12.909 -0.6341 -1.6487  0.4781
  257MPD2     N 3953   0.167   2.167  12.994 -0.5173 -0.0445 -0.1655
  257MPD2    H5 3954   0.263   2.150  12.966 -0.7832 -0.8574 -0.5813
  257MPD2    N1 3955   0.230   2.540  12.704 -0.5278  0.7119 -0.1545
  257MPD2    H7 3956   0.328   2.514  12.714 -0.7227  0.5712  1.3431
  258TMC3    C1 3957   0.186   1.966  13.122 -0.0254 -1.0476 -0.6309
  258TMC3    C2 3958   0.267   1.904  13.034 -1.1167  0.1734  0.3491
  258TMC3    C3 3959   0.339   1.796  13.073  0.6346 -0.1985  0.1159
  258TMC3    C4 3960   0.180   1.916  13.250 -0.2097 -0.0651  0.4828
  258TMC3    C5 3961   0.230   1.796  13.281 -0.4005  0.2510 -0.0892
  258TMC3    C6 3962   0.321   1.734  13.195  0.2351 -0.2703  0.8850
  258TMC3     C 3963   0.112   2.090  13.097 -0.1487 -0.5348  0.1788
  258TMC3     O 3964   0.012   2.110  13.166 -0.1791  0.0289 -0.1429
  258TMC3     H 3965   0.261   1.935  12.931 -0.4396 -2.8252 -0.5911
  258TMC3    H1 3966   0.113   1.962  13.322  0.0745 -0.0036  0.7044
  258TMC3    H2 3967   0.373   1.645  13.229  2.0466  0.2232 -0.5747
  258TMC3    C7 3968   0.193   1.745  13.412 -0.0525  0.3638 -0.9484
  258TMC3    C8 3969   0.429   1.728  12.979  0.2068  0.2323 -0.4983
  258TMC3    O1 3970   0.079   1.753  13.450 -0.5883  0.2118 -0.0012
  258TMC3    O2 3971   0.466   1.615  13.003 -0.0517 -0.4989  0.2982
  259MPD2     C 3972   4.208   3.731   1.064 -0.5073 -0.1519  0.1914
  259MPD2    C1 3973   4.292   3.628   1.019  0.4911 -0.5656  0.0836
  259MPD2    C2 3974   4.307   3.616   0.881 -0.0961 -0.1283 -0.5358
  259MPD2    C3 3975   4.246   3.706   0.798  0.3067 -0.0239  0.7479
  259MPD2    C4 3976   4.158   3.799   0.848 -0.2248  0.1255  0.0765
  259MPD2    C5 3977   4.135   3.815   0.980 -1.2662 -0.4002 -0.3025
  259MPD2     H 3978   4.354   3.529   0.836 -0.4474 -0.8596  0.5110
  259MPD2    H1 3979   4.088   3.855   0.786 -1.0701 -1.2771 -0.2309
  259MPD2    H2 3980   4.194   3.753   1.169 -0.1583  1.8341 -0.1798
  259MPD2    H3 3981   4.062   3.888   1.015  0.9207  1.2973  0.6768
  259MPD2     N 3982   4.253   3.675   0.659 -0.4833 -0.3393  0.4492
  259MPD2    H5 3983   4.321   3.602   0.642  0.9887  1.1002  0.0900
  259MPD2    N1 3984   4.342   3.542   1.122  0.6746 -0.1464  0.1992
  259MPD2    H7 3985   4.318   3.555   1.220 -0.4429  0.5317 -0.1759
  260TMC3    C1 3986   4.226   3.662   0.436 -0.4526 -0.5023 -0.2661
  260TMC3    C2 3987   4.241   3.731   0.317  0.5817  0.2276  0.0187
  260TMC3    C3 3988   4.237   3.657   0.203  0.3176  0.3811  0.1061
  260TMC3    C4 3989   4.215   3.527   0.444  0.0458 -0.3058 -0.0195
  260TMC3    C5 3990   4.207   3.458   0.318 -0.7920 -0.7525 -0.1498
  260TMC3    C6 3991   4.221   3.521   0.195 -0.0234 -0.3575 -0.0163
  260TMC3     C 3992   4.216   3.744   0.554  0.4230  0.5589 -0.3269
  260TMC3     O 3993   4.174   3.860   0.536 -0.1014  0.0363 -0.7416
  260TMC3     H 3994   4.257   3.839   0.316  0.9563  0.1655 -0.8404
  260TMC3    H1 3995   4.207   3.470   0.536  0.0503  0.8603  0.6997
  260TMC3    H2 3996   4.212   3.472   0.099 -1.2173 -0.5875  0.2105
  260TMC3    C7 3997   4.221   3.316   0.310  0.7504  0.9583 -0.4720
  260TMC3    C8 3998   4.311   3.721   0.099 -0.2706 -0.5562 -0.7562
  260TMC3    O1 3999   4.287   3.272   0.217  0.6781 -0.0981  0.1421
  260TMC3    O2 4000   4.317   3.844   0.093 -0.6465 -0.5292 -0.7258
  261MPD2     C 4001   0.850   1.782  12.224 -0.2613 -0.0816  0.1233
  261MPD2    C1 4002   0.944   1.819  12.316  0.7170  1.1129  0.5946
  261MPD2    C2 4003   0.961   1.947  12.340  0.4236  1.1207 -0.1400
  261MPD2    C3 4004   0.896   2.044  12.269  0.1128  0.0301 -0.2494
  261MPD2    C4 4005   0.803   2.017  12.170 -0.1253 -0.2090 -0.3922
  261MPD2    C5 4006   0.782   1.882  12.153  0.0374  0.6968 -0.0111
  261MPD2     H 4007   1.040   1.975  12.410 -0.4051  1.6270  0.5926
  261MPD2    H1 4008   0.749   2.091  12.111  2.0773 -1.4818 -3.9995
  261MPD2    H2 4009   0.842   1.679  12.191  0.3622  0.2301 -0.9759
  261MPD2    H3 4010   0.728   1.845  12.066  1.7828 -0.0735 -0.7777
  261MPD2     N 4011   0.940   2.176  12.299 -0.3455  0.2396 -0.4447
  261MPD2    H5 4012   1.004   2.182  12.377 -1.5805 -3.5341  0.8419
  261MPD2    N1 4013   1.031   1.731  12.382  0.4121  0.1160  0.2850
  261MPD2    H7 4014   1.093   1.776  12.449 -0.9896 -2.0632  3.0574
  262TMC3    C1 4015   0.985   2.398  12.281 -0.5499 -0.3290 -0.1030
  262TMC3    C2 4016   0.949   2.526  12.241  0.9244 -0.4356 -0.6017
  262TMC3    C3 4017   1.042   2.622  12.228  0.9585 -0.4657  0.2051
  262TMC3    C4 4018   1.118   2.366  12.292 -0.1002  0.0918 -0.7925
  262TMC3    C5 4019   1.211   2.460  12.265  0.0730  0.3688 -0.1541
  262TMC3    C6 4020   1.177   2.585  12.237 -0.8689  0.6341  0.2107
  262TMC3     C 4021   0.902   2.294  12.234  0.0327 -0.2478 -0.6504
  262TMC3     O 4022   0.808   2.324  12.158  0.5194  0.3590  0.3297
  262TMC3     H 4023   0.849   2.552  12.209  1.0320 -0.7913 -1.2238
  262TMC3    H1 4024   1.152   2.266  12.318 -2.7665 -0.8335 -0.8486
  262TMC3    H2 4025   1.244   2.671  12.241  2.0281 -1.5687 -0.7374
  262TMC3    C7 4026   1.350   2.417  12.270  0.5572 -0.3871  0.6442
  262TMC3    C8 4027   1.010   2.746  12.163  0.3326 -0.0205  0.2246
  262TMC3    O1 4028   1.385   2.333  12.356  0.4268  0.6787  0.4896
  262TMC3    O2 4029   1.094   2.790  12.087 -0.6218 -0.0740 -0.3548
  263MPD2     C 4030   1.904   1.611  11.419 -0.1382  0.0391 -0.3168
  263MPD2    C1 4031   1.997   1.677  11.496 -0.2057  0.1072 -0.3173
  263MPD2    C2 4032   2.098   1.756  11.435  0.9985  0.1599  0.2295
  263MPD2    C3 4033   2.098   1.765  11.300  0.6822  0.3269  0.7301
  263MPD2    C4 4034   1.995   1.714  11.223  0.4385 -0.3125  0.3201
  263MPD2    C5 4035   1.899   1.640  11.282 -0.0671  0.1912 -0.8180
  263MPD2     H 4036   2.182   1.792  11.493 -0.4307  1.6014  1.4135
  263MPD2    H1 4037   1.988   1.738  11.118 -1.1874 -3.9622 -0.3930
  263MPD2    H2 4038   1.824   1.551  11.460  0.2302  0.7898  1.4917
  263MPD2    H3 4039   1.814   1.597  11.229 -0.9249  2.1682 -1.0391
  263MPD2     N 4040   2.211   1.831  11.244  0.6746  0.0299  0.3441
  263MPD2    H5 4041   2.269   1.884  11.309  0.8435 -0.6989  0.7817
  263MPD2    N1 4042   2.009   1.643  11.632 -0.6864  0.3413  0.2076
  263MPD2    H7 4043   1.940   1.577  11.666  2.1628 -2.6117  0.2387
  264TMC3    C1 4044   2.370   1.876  11.062 -0.0455  0.9131 -0.4549
  264TMC3    C2 4045   2.436   1.970  11.150  0.2565  0.1467 -0.3326
  264TMC3    C3 4046   2.552   2.025  11.092  0.1377  0.7797 -0.4131
  264TMC3    C4 4047   2.413   1.848  10.935  0.6789 -0.5450  0.0184
  264TMC3    C5 4048   2.512   1.932  10.885 -1.4209  0.1948  0.1577
  264TMC3    C6 4049   2.581   2.018  10.960 -0.2182 -0.1859  0.5490
  264TMC3     C 4050   2.255   1.805  11.111 -0.8476 -0.4852  0.8864
  264TMC3     O 4051   2.198   1.731  11.026  0.2862 -0.2165 -0.6805
  264TMC3     H 4052   2.401   1.995  11.249  3.7204  1.2862  0.6038
  264TMC3    H1 4053   2.384   1.769  10.866 -2.3817  1.4661 -1.0165
  264TMC3    H2 4054   2.665   2.078  10.927 -0.0837 -0.3591  0.5742
  264TMC3    C7 4055   2.564   1.902  10.748 -0.4866 -0.1792 -0.2933
  264TMC3    C8 4056   2.631   2.134  11.165 -0.7318 -0.1219  0.4567
  264TMC3    O1 4057   2.522   1.794  10.703  0.2063  0.2312 -0.3277
  264TMC3    O2 4058   2.749   2.156  11.130 -0.8264 -0.5894  0.3754
  265MPD2     C 4059   3.824   1.631  15.334 -0.2558  0.0139 -0.0556
  265MPD2    C1 4060   3.901   1.728  15.268 -0.3515 -0.2318  0.6956
  265MPD2    C2 4061   3.951   1.716  15.138  0.3616 -0.0125  0.8573
  265MPD2    C3 4062   3.919   1.598  15.074  0.4517  0.3450  0.8112
  265MPD2    C4 4063   3.862   1.496  15.144  0.3312  0.5528 -0.5034
  265MPD2    C5 4064   3.812   1.515  15.275 -0.3382  0.2432 -0.4180
  265MPD2     H 4065   4.011   1.794  15.092 -1.4220  0.1074 -1.2667
  265MPD2    H1 4066   3.847   1.398  15.100 -1.3609  1.1740 -1.3134
  265MPD2    H2 4067   3.774   1.656  15.427  0.7574 -0.1808  0.5416
  265MPD2    H3 4068   3.767   1.426  15.319  1.0967 -0.2842  0.0070
  265MPD2     N 4069   3.959   1.561  14.943  0.5696  0.0620 -0.3824
  265MPD2    H5 4070   3.957   1.462  14.919  1.3048 -0.4640  1.6804
  265MPD2    N1 4071   3.927   1.855  15.327  0.2298 -0.0137  0.7773
  265MPD2    H7 4072   3.970   1.923  15.265  0.1986 -1.1535 -0.4738
  266TMC3    C1 4073   3.961   2.013  15.504  0.5431  0.3434  0.6177
  266TMC3    C2 4074   3.997   2.027  15.634  0.3074 -0.3998  0.7682
  266TMC3    C3 4075   4.008   2.152  15.679  0.4981 -0.1283  0.0078
  266TMC3    C4 4076   3.938   2.126  15.416  0.5998  0.8881 -0.0412
  266TMC3    C5 4077   3.959   2.246  15.473  0.5296 -0.7825 -0.2354
  266TMC3    C6 4078   3.993   2.266  15.603 -0.0009  0.4860  0.4732
  266TMC3     C 4079   3.931   1.878  15.461 -0.9408  0.7658  0.5208
  266TMC3     O 4080   3.923   1.797  15.552 -0.0606 -0.4915 -0.3132
  266TMC3     H 4081   3.998   1.941  15.701  1.9147 -1.4101 -0.5540
  266TMC3    H1 4082   3.910   2.116  15.312 -0.0905 -1.3132  0.3364
  266TMC3    H2 4083   4.003   2.368  15.640  0.9500  1.4422 -2.3973
  266TMC3    C7 4084   3.917   2.359  15.391 -0.5178 -0.3270 -0.0984
  266TMC3    C8 4085   4.102   2.158  15.791 -0.0368  0.8841  0.3509
  266TMC3    O1 4086   3.838   2.324  15.301  0.2385 -0.1310 -0.2294
  266TMC3    O2 4087   4.153   2.054  15.827 -0.5602 -0.0657 -0.2633
  267MPD2     C 4088   1.374   3.740   0.892 -0.0837  0.0632  0.3308
  267MPD2    C1 4089   1.497   3.747   0.830  0.0359 -0.7399  0.0066
  267MPD2    C2 4090   1.542   3.869   0.783 -0.0892 -0.2072  0.4305
  267MPD2    C3 4091   1.461   3.977   0.797  0.4192  0.0694 -0.7595
  267MPD2    C4 4092   1.332   3.966   0.855 -0.1226 -0.5532  0.0348
  267MPD2    C5 4093   1.291   3.848   0.908 -0.8477  0.0191 -0.1213
  267MPD2     H 4094   1.644   3.877   0.748  0.0874 -1.4506  0.6458
  267MPD2    H1 4095   1.257   4.044   0.856  1.9540  1.4644 -0.9823
  267MPD2    H2 4096   1.339   3.641   0.921  0.5749  0.3933  2.2692
  267MPD2    H3 4097   1.191   3.831   0.946 -0.0521 -2.0968  1.0283
  267MPD2     N 4098   1.495   4.106   0.748  0.2668 -0.3211 -0.1743
  267MPD2    H5 4099   1.431   4.182   0.767  0.6737 -0.0287  0.0458
  267MPD2    N1 4100   1.570   3.628   0.815 -0.0057  0.2613 -0.0227
  267MPD2    H7 4101   1.517   3.542   0.828  0.0590  0.3788  1.0776
  268TMC3    C1 4102   1.734   3.486   0.725  0.0312 -0.6340  0.6963
  268TMC3    C2 4103   1.636   3.421   0.649 -0.3777 -0.4698 -0.8929
  268TMC3    C3 4104   1.675   3.347   0.546 -0.7517 -0.5221  0.1768
  268TMC3    C4 4105   1.867   3.471   0.704  0.1617 -0.0251 -0.1923
  268TMC3    C5 4106   1.898   3.407   0.585 -0.4129  0.0769 -1.0156
  268TMC3    C6 4107   1.808   3.337   0.506 -0.3308 -0.2789  0.4942
  268TMC3     C 4108   1.703   3.615   0.773  0.4793  0.2293 -0.3409
  268TMC3     O 4109   1.784   3.701   0.745  0.0592 -0.0860  0.2679
  268TMC3     H 4110   1.532   3.445   0.663 -0.0133  1.1341 -0.8864
  268TMC3    H1 4111   1.941   3.527   0.761 -1.3415  0.4348  1.2945
  268TMC3    H2 4112   1.839   3.276   0.422 -2.0259  0.0884 -0.3765
  268TMC3    C7 4113   2.036   3.369   0.568  0.1936 -0.6577 -1.2756
  268TMC3    C8 4114   1.574   3.331   0.440 -0.0051  0.3074  0.9402
  268TMC3    O1 4115   2.106   3.336   0.664 -0.9440  0.7151  0.0215
  268TMC3    O2 4116   1.465   3.285   0.471 -0.0557  1.1331 -0.0601
  269MPD2     C 4117   2.095   2.375  15.263  0.1072 -1.1603 -0.2614
  269MPD2    C1 4118   2.025   2.407  15.373  0.0887 -0.6293 -0.2862
  269MPD2    C2 4119   1.981   2.538  15.398  0.1558 -0.1319  0.8341
  269MPD2    C3 4120   2.015   2.636  15.311 -0.3164 -0.5635  0.1211
  269MPD2    C4 4121   2.097   2.606  15.204  0.8834 -0.1825  0.9236
  269MPD2    C5 4122   2.129   2.475  15.177 -0.4625 -0.3894  0.9888
  269MPD2     H 4123   1.922   2.568  15.484 -0.5854  3.4793 -0.9706
  269MPD2    H1 4124   2.147   2.677  15.139  0.5327  1.6984  2.6899
  269MPD2    H2 4125   2.134   2.276  15.243  0.8734 -0.7517 -0.7680
  269MPD2    H3 4126   2.199   2.451  15.098  0.1635 -0.2537  1.4970
  269MPD2     N 4127   1.972   2.769  15.341  0.5539  0.3638  0.4847
  269MPD2    H5 4128   1.909   2.787  15.418 -0.6927 -1.6217 -0.0788
  269MPD2    N1 4129   1.993   2.300  15.456 -0.9345 -0.2193 -0.4596
  269MPD2    H7 4130   2.027   2.208  15.428  0.5007 -0.2107  1.2500
  270TMC3    C1 4131   1.887   2.168  15.599 -0.1036  0.1260 -1.0046
  270TMC3    C2 4132   1.752   2.119  15.584 -0.5412 -0.1490  0.7165
  270TMC3    C3 4133   1.733   1.982  15.606 -0.2960 -0.0270 -0.0684
  270TMC3    C4 4134   1.998   2.087  15.610  0.2483  0.2172 -0.4679
  270TMC3    C5 4135   1.967   1.952  15.620  0.1417 -0.2935 -1.0970
  270TMC3    C6 4136   1.843   1.904  15.621  0.1389  0.0166  0.5646
  270TMC3     C 4137   1.910   2.304  15.564  0.8687  0.2300 -0.5464
  270TMC3     O 4138   1.843   2.399  15.606 -0.3299 -0.2548 -0.3858
  270TMC3     H 4139   1.674   2.191  15.563  0.8859  1.4183  0.6952
  270TMC3    H1 4140   2.102   2.118  15.601  0.4907 -0.8414 -1.2624
  270TMC3    H2 4141   1.833   1.798  15.640 -0.1536 -0.0325  0.1439
  270TMC3    C7 4142   2.050   1.869  15.541  0.2603 -0.2206  0.0154
  270TMC3    C8 4143   1.650   1.907  15.520 -0.7561 -0.2865 -0.1502
  270TMC3    O1 4144   2.172   1.878  15.560 -0.2829 -0.4576  0.1694
  270TMC3    O2 4145   1.700   1.807  15.465 -0.7574  0.2790  0.4023
  271MPD2     C 4146   0.970   2.107  13.748 -0.2075  0.3236  0.8568
  271MPD2    C1 4147   0.917   2.155  13.863 -0.5800  0.0395 -0.3172
  271MPD2    C2 4148   0.808   2.239  13.852  0.2721 -0.2636 -0.6911
  271MPD2    C3 4149   0.768   2.287  13.729 -0.1231  0.0890  0.6802
  271MPD2    C4 4150   0.819   2.232  13.616  0.5493 -0.1236 -0.3047
  271MPD2    C5 4151   0.923   2.146  13.628  0.1720  0.4077 -1.0459
  271MPD2     H 4152   0.757   2.275  13.941 -0.6175 -0.2443 -1.2129
  271MPD2    H1 4153   0.777   2.255  13.519  1.5379  0.5461 -0.5712
  271MPD2    H2 4154   1.033   2.019  13.750 -0.4478  0.1261 -0.2830
  271MPD2    H3 4155   0.951   2.098  13.535  2.5277 -0.5389  0.1490
  271MPD2     N 4156   0.668   2.387  13.705  0.2891  0.4646  0.3626
  271MPD2    H5 4157   0.658   2.410  13.607  1.5888  2.2033  0.6350
  271MPD2    N1 4158   0.962   2.106  13.987 -0.3495  0.2372 -0.4226
  271MPD2    H7 4159   0.912   2.132  14.072  0.2452 -0.5828  0.1772
  272TMC3    C1 4160   1.113   1.970  14.124  0.4280  0.6299  0.2216
  272TMC3    C2 4161   1.229   1.896  14.121 -0.7842  0.5174 -0.8504
  272TMC3    C3 4162   1.280   1.849  14.234 -0.2660 -0.9116 -0.0836
  272TMC3    C4 4163   1.047   1.986  14.243 -0.1099 -0.1596  0.4924
  272TMC3    C5 4164   1.106   1.940  14.357  0.6006 -0.4553  0.0626
  272TMC3    C6 4165   1.224   1.869  14.352 -0.1233 -0.3764  0.0071
  272TMC3     C 4166   1.085   2.038  13.999 -0.2394  0.0400  0.7745
  272TMC3     O 4167   1.175   2.026  13.917  0.1172  0.3997  0.1843
  272TMC3     H 4168   1.268   1.862  14.026  0.5056 -1.8546  0.5185
  272TMC3    H1 4169   0.948   2.028  14.230  0.5416  1.5037  1.0266
  272TMC3    H2 4170   1.268   1.836  14.445 -2.0165 -0.8693  0.7306
  272TMC3    C7 4171   1.042   1.967  14.482 -0.9084  0.2094 -0.1113
  272TMC3    C8 4172   1.424   1.807  14.242 -0.0371  0.1611  0.1028
  272TMC3    O1 4173   0.926   2.010  14.487  0.1133  0.0782 -0.6094
  272TMC3    O2 4174   1.480   1.830  14.131  0.1197 -0.8116 -0.4586
  273MPD2     C 4175   2.796   0.121  11.898  0.3492 -0.2314 -0.6887
  273MPD2    C1 4176   2.809   0.258  11.886 -0.0338 -0.8860 -0.9141
  273MPD2    C2 4177   2.760   0.327  11.779 -0.5581 -0.3086 -0.8019
  273MPD2    C3 4178   2.690   0.257  11.686 -0.3190 -0.7249  0.0523
  273MPD2    C4 4179   2.675   0.125  11.701 -0.8003  0.3440 -0.3118
  273MPD2    C5 4180   2.719   0.050  11.809  0.3187 -0.6484  0.1933
  273MPD2     H 4181   2.762   0.436  11.780 -2.0556 -0.2913  0.3257
  273MPD2    H1 4182   2.605   0.071  11.639 -1.5963 -0.0306  0.9255
  273MPD2    H2 4183   2.842   0.064  11.978  1.0943  0.9295 -0.3001
  273MPD2    H3 4184   2.708   4.678  11.807 -2.4257 -0.3661  0.8396
  273MPD2     N 4185   2.624   0.320  11.585 -0.0468 -0.3907  0.2149
  273MPD2    H5 4186   2.548   0.276  11.534 -0.3837 -0.4259  0.7432
  273MPD2    N1 4187   2.863   0.326  12.004  0.3884 -0.0635 -0.3222
  273MPD2    H7 4188   2.903   0.258  12.067 -1.5931 -0.3828  0.6099
  274TMC3    C1 4189   2.522   0.511  11.490 -0.4724 -0.3015  0.4274
  274TMC3    C2 4190   2.428   0.423  11.441 -0.0185 -0.0785 -0.4207
  274TMC3    C3 4191   2.303   0.478  11.432  0.2695 -0.0764 -0.2000
  274TMC3    C4 4192   2.502   0.638  11.536 -0.4994 -0.2130 -0.3027
  274TMC3    C5 4193   2.373   0.687  11.522 -0.0248  0.4699 -0.0647
  274TMC3    C6 4194   2.276   0.610  11.465 -0.0452  0.3890  0.6664
  274TMC3     C 4195   2.635   0.455  11.554  0.1623 -0.0613  0.0780
  274TMC3     O 4196   2.731   0.526  11.572 -0.3980 -0.1006 -0.3597
  274TMC3     H 4197   2.455   0.324  11.408  1.1732  0.5696 -1.3881
  274TMC3    H1 4198   2.573   0.698  11.593 -0.3987  1.6620 -2.3854
  274TMC3    H2 4199   2.171   0.631  11.485 -0.4086 -1.0596  0.2889
  274TMC3    C7 4200   2.336   0.788  11.620  0.4159  0.2682 -0.0210
  274TMC3    C8 4201   2.227   0.427  11.321 -0.0844 -0.6308  0.3917
  274TMC3    O1 4202   2.284   0.886  11.570 -0.0910  0.4697 -0.2207
  274TMC3    O2 4203   2.283   0.342  11.249  0.2255 -0.3449  0.1267
  275MPD2     C 4204   2.476   3.285  14.734 -0.7513 -0.0077  0.2318
  275MPD2    C1 4205   2.489   3.153  14.757 -0.5542 -0.2402  0.4904
  275MPD2    C2 4206   2.384   3.066  14.745  0.0562  0.3882 -0.2554
  275MPD2    C3 4207   2.261   3.117  14.702  0.2555 -0.1608 -1.2137
  275MPD2    C4 4208   2.249   3.254  14.671 -0.5241 -0.1264  0.1348
  275MPD2    C5 4209   2.360   3.329  14.691  0.0001  0.5762 -0.1373
  275MPD2     H 4210   2.394   2.965  14.783  0.2155  0.2731 -0.6092
  275MPD2    H1 4211   2.155   3.300  14.641 -2.2787 -3.3370  0.7033
  275MPD2    H2 4212   2.545   3.368  14.747  1.9072 -1.6370 -3.3153
  275MPD2    H3 4213   2.355   3.436  14.677  2.7623  0.5219 -1.4520
  275MPD2     N 4214   2.148   3.042  14.677 -0.1501 -0.6567  0.3607
  275MPD2    H5 4215   2.065   3.091  14.643 -0.7896 -0.9110  1.5275
  275MPD2    N1 4216   2.618   3.098  14.787  0.8743 -0.4586  0.1045
  275MPD2    H7 4217   2.628   2.999  14.808 -1.1730 -0.2649  2.0538
  276TMC3    C1 4218   2.843   3.080  14.858 -0.0384  0.4579  0.1443
  276TMC3    C2 4219   2.827   2.956  14.904 -0.0570  0.4084  0.0591
  276TMC3    C3 4220   2.940   2.895  14.958  0.1273 -0.1708 -0.0099
  276TMC3    C4 4221   2.964   3.148  14.869 -0.1284  1.1880 -0.5679
  276TMC3    C5 4222   3.068   3.091  14.937 -0.3089 -0.5063  0.6258
  276TMC3    C6 4223   3.058   2.964  14.983  0.5999  0.4155  0.2303
  276TMC3     C 4224   2.739   3.164  14.801  0.3048  0.1114 -0.1593
  276TMC3     O 4225   2.761   3.280  14.771 -0.8171 -0.6124 -0.0905
  276TMC3     H 4226   2.735   2.902  14.888 -0.2672  0.2679  1.6818
  276TMC3    H1 4227   2.971   3.240  14.812 -0.5935  0.5086 -1.7145
  276TMC3    H2 4228   3.145   2.910  15.019  0.7429  0.2771 -0.3283
  276TMC3    C7 4229   3.181   3.173  14.982  0.1133 -0.3758  0.1089
  276TMC3    C8 4230   2.947   2.749  14.986 -0.0314 -0.1695  0.9409
  276TMC3    O1 4231   3.226   3.151  15.094 -0.4864  0.5142  0.9561
  276TMC3    O2 4232   3.041   2.706  15.051 -0.4189 -0.6534 -0.4830
  277MPD2     C 4233   4.352   2.410  13.210 -0.0606 -0.4694  0.1230
  277MPD2    C1 4234   4.228   2.471  13.201 -0.8414  0.5678 -0.3189
  277MPD2    C2 4235   4.143   2.463  13.306 -0.2356 -0.3849 -0.5363
  277MPD2    C3 4236   4.179   2.392  13.420  0.4949 -0.3283  0.4996
  277MPD2    C4 4237   4.308   2.345  13.436 -0.1753 -0.1029  0.4173
  277MPD2    C5 4238   4.391   2.357  13.331 -0.0460 -0.4316  0.2332
  277MPD2     H 4239   4.042   2.501  13.303 -0.0864  0.0861  0.3043
  277MPD2    H1 4240   4.334   2.290  13.526 -2.7363  1.1130  1.8817
  277MPD2    H2 4241   4.425   2.416  13.131  0.0801 -0.3263  0.2641
  277MPD2    H3 4242   4.494   2.328  13.353  0.1676  0.4625  0.3913
  277MPD2     N 4243   4.072   2.349  13.502  0.0455  0.0893  0.3621
  277MPD2    H5 4244   3.987   2.401  13.484  0.7557  1.3407  0.6102
  277MPD2    N1 4245   4.199   2.540  13.073  0.0217 -0.0423  0.2237
  277MPD2    H7 4246   4.273   2.542  13.004 -0.2218 -3.3910 -0.1671
  278TMC3    C1 4247   3.940   2.197  13.614 -0.7382 -0.6660 -0.0975
  278TMC3    C2 4248   3.925   2.116  13.718 -0.0822  0.0349 -0.7549
  278TMC3    C3 4249   3.802   2.074  13.762 -0.3288 -0.2906 -0.9331
  278TMC3    C4 4250   3.830   2.229  13.532  0.0001  0.7389  0.4206
  278TMC3    C5 4251   3.707   2.186  13.579 -0.5735 -0.8548 -0.2931
  278TMC3    C6 4252   3.688   2.115  13.695 -0.4171  0.6421  0.0891
  278TMC3     C 4253   4.070   2.238  13.580  0.5065 -0.0556  0.3494
  278TMC3     O 4254   4.163   2.173  13.623  0.1061  0.0770 -0.6218
  278TMC3     H 4255   4.013   2.085  13.774 -0.5828  1.3766  0.7742
  278TMC3    H1 4256   3.850   2.271  13.434 -0.1926  1.0184  0.4999
  278TMC3    H2 4257   3.592   2.082  13.733 -0.2212  1.3381  1.1660
  278TMC3    C7 4258   3.596   2.211  13.491  0.1891 -0.3638  0.1631
  278TMC3    C8 4259   3.796   1.938  13.806  0.3850 -0.2810  0.9128
  278TMC3    O1 4260   3.622   2.238  13.375  0.0577 -0.0288  0.3728
  278TMC3    O2 4261   3.887   1.912  13.884  0.0255  0.3473 -0.0691
  279MPD2     C 4262   3.987   1.501   0.009  0.1238 -0.4478  0.5776
  279MPD2    C1 4263   3.878   1.530  17.670 -0.1716 -0.0893  0.7854
  279MPD2    C2 4264   3.898   1.565  17.542  0.1813  0.3731  0.3005
  279MPD2    C3 4265   4.028   1.600  17.491 -0.3927  0.2182  0.4639
  279MPD2    C4 4266   4.140   1.576  17.576 -0.2971  0.3679 -0.1743
  279MPD2    C5 4267   4.110   1.523  17.701 -0.7373 -0.5625 -0.0624
  279MPD2     H 4268   3.808   1.572  17.482 -0.7808 -2.2780  1.4202
  279MPD2    H1 4269   4.241   1.608  17.552  0.9394 -1.8904  2.0259
  279MPD2    H2 4270   3.976   1.476   0.114  2.1384 -1.6074  0.5113
  279MPD2    H3 4271   4.199   1.517   0.023 -1.5263  0.4240  1.1895
  279MPD2     N 4272   4.048   1.665  17.364  0.6310  0.8837 -0.8395
  279MPD2    H5 4273   4.146   1.677  17.341  0.6719  1.8183 -0.1687
  279MPD2    N1 4274   3.747   1.507  17.716 -0.2206 -0.5938  0.1967
  279MPD2    H7 4275   3.669   1.515  17.652 -0.1140 -0.0121  0.1382
  280TMC3    C1 4276   3.565   1.502   0.116  0.6837  0.1035 -0.9539
  280TMC3    C2 4277   3.494   1.433   0.017  0.7184 -0.6021  0.3447
  280TMC3    C3 4278   3.396   1.493  17.685  0.1704 -0.1161 -0.3569
  280TMC3    C4 4279   3.526   1.636   0.139 -0.4863  0.0474  0.3751
  280TMC3    C5 4280   3.427   1.688   0.062 -1.0227 -0.5204  0.6389
  280TMC3    C6 4281   3.354   1.621  17.709  0.8463  0.8445  0.0689
  280TMC3     C 4282   3.710   1.502   0.113  0.6183  0.7296 -0.5684
  280TMC3     O 4283   3.766   1.539   0.212  0.8451  0.0040  0.0430
  280TMC3     H 4284   3.538   1.340  17.721 -0.6263 -1.5565  1.1933
  280TMC3    H1 4285   3.581   1.700   0.207 -0.8163 -0.2048  0.8776
  280TMC3    H2 4286   3.295   1.664  17.629 -0.5066  0.2738  0.7578
  280TMC3    C7 4287   3.381   1.815   0.107 -0.7731 -0.0503  0.0788
  280TMC3    C8 4288   3.306   1.414  17.608  0.1858 -0.2051 -0.0716
  280TMC3    O1 4289   3.419   1.842   0.221 -0.4264 -0.1341 -0.0087
  280TMC3    O2 4290   3.255   1.460  17.510  0.1848  0.4534  0.0917
  281TMC3    C1 4291   2.254   2.758  13.884 -0.0630  0.0243  0.5862
  281TMC3    C2 4292   2.219   2.721  13.754  0.0960 -0.2513  1.0499
  281TMC3    C3 4293   2.215   2.585  13.733  0.6160  0.1694  0.5465
  281TMC3    C4 4294   2.262   2.666  13.990 -0.0510 -0.0901  0.0884
  281TMC3    C5 4295   2.247   2.536  13.954 -0.1598 -0.0769  0.2336
  281TMC3    C6 4296   2.234   2.485  13.827  0.0698 -0.3775  0.6326
  281TMC3     C 4297   2.242   2.895  13.924  0.4899 -0.0748 -0.4977
  281TMC3     O 4298   2.191   2.916  14.033 -0.0343  0.2787  0.2048
  281TMC3     H 4299   2.205   2.800  13.681  0.3442 -1.6296 -0.4872
  281TMC3    H1 4300   2.274   2.699  14.092 -0.1873 -0.1561  0.1258
  281TMC3    H2 4301   2.221   2.381  13.801 -1.4660 -0.1819  0.6328
  281TMC3    C7 4302   2.245   2.441  14.066  0.1164  0.2272 -0.4302
  281TMC3    C8 4303   2.180   2.541  13.602 -0.1903  0.4169 -0.3249
  281TMC3    O1 4304   2.335   2.456  14.144 -0.1849 -0.0775 -0.1423
  281TMC3    O2 4305   2.116   2.436  13.597 -0.1036  0.7098 -0.0550
  282MPD2     C 4306   3.929   3.876  14.800 -0.9361 -0.2166  0.1373
  282MPD2    C1 4307   3.851   3.791  14.876 -0.1109  0.1627 -0.8465
  282MPD2    C2 4308   3.791   3.682  14.812 -0.3595  0.0059  0.4832
  282MPD2    C3 4309   3.801   3.665  14.675 -0.4826  0.2280  0.1368
  282MPD2    C4 4310   3.889   3.747  14.601 -0.3800  0.4953 -0.2298
  282MPD2    C5 4311   3.948   3.850  14.664 -0.9829  0.4465  1.0560
  282MPD2     H 4312   3.733   3.611  14.870  1.8249 -0.7235  1.7731
  282MPD2    H1 4313   3.904   3.734  14.495 -0.8267 -1.9352  0.0171
  282MPD2    H2 4314   3.978   3.956  14.854 -0.3024 -0.8171  0.4670
  282MPD2    H3 4315   4.001   3.923  14.603  1.0209 -0.8020  1.2855
  282MPD2     N 4316   3.724   3.559  14.614  0.1009 -0.5594 -0.3342
  282MPD2    H5 4317   3.672   3.490  14.669 -2.7578  1.1795 -0.8776
  282MPD2    N1 4318   3.831   3.813  15.016  0.3786  0.6372  0.4460
  282MPD2    H7 4319   3.750   3.765  15.054  0.5958  0.6222  0.8895
  283TMC3    C1 4320   3.877   3.876  15.229 -0.1309  0.1470  0.4706
  283TMC3    C2 4321   3.890   3.986  15.309 -0.6397  0.0903  0.2769
  283TMC3    C3 4322   3.901   3.972  15.447  0.5899 -0.2216  0.3848
  283TMC3    C4 4323   3.861   3.751  15.282  0.0966 -0.0059  0.4731
  283TMC3    C5 4324   3.858   3.749  15.424 -0.4994 -0.6529  0.3852
  283TMC3    C6 4325   3.872   3.857  15.507  0.0122 -0.1142 -0.2450
  283TMC3     C 4326   3.904   3.898  15.093 -0.0132 -0.1267  0.0922
  283TMC3     O 4327   3.997   3.973  15.075 -0.2388 -0.1663  0.6092
  283TMC3     H 4328   3.900   4.082  15.259 -0.5217  0.7948  1.6617
  283TMC3    H1 4329   3.852   3.658  15.226  0.0861  0.3731 -0.1511
  283TMC3    H2 4330   3.861   3.853  15.614  0.1511 -1.5297 -0.2894
  283TMC3    C7 4331   3.809   3.626  15.489  0.0757 -0.1490 -0.6693
  283TMC3    C8 4332   3.954   4.079  15.530 -0.3011 -1.0536 -0.4173
  283TMC3    O1 4333   3.821   3.624  15.612 -0.2916  0.1269  0.2818
  283TMC3    O2 4334   3.975   4.050  15.647  0.6234 -0.2916  0.2277
  284MPD2     C 4335   2.342   3.240  11.862  0.1730 -0.6649 -0.1300
  284MPD2    C1 4336   2.475   3.221  11.847  0.3076 -0.6906  0.6168
  284MPD2    C2 4337   2.536   3.143  11.941 -0.1737  0.0419  0.3823
  284MPD2    C3 4338   2.466   3.062  12.034  0.3046  0.0829 -0.1320
  284MPD2    C4 4339   2.330   3.077  12.054 -0.1701 -0.1112  0.1778
  284MPD2    C5 4340   2.282   3.175  11.960 -0.0640  0.2775 -0.0471
  284MPD2     H 4341   2.643   3.128  11.940  0.1372  2.2668 -0.6114
  284MPD2    H1 4342   2.262   3.029  12.124  1.3056 -0.1671  1.5857
  284MPD2    H2 4343   2.291   3.313  11.799  0.6416  1.5457  2.0710
  284MPD2    H3 4344   2.174   3.189  11.961 -0.4992 -3.1028 -0.6575
  284MPD2     N 4345   2.545   2.965  12.104  0.5015 -0.1780  0.3977
  284MPD2    H5 4346   2.645   2.957  12.087  0.2513  0.7286 -1.5678
  284MPD2    N1 4347   2.548   3.295  11.753  0.1356  0.1134  0.0656
  284MPD2    H7 4348   2.647   3.274  11.752 -0.3236 -1.9909  0.5377
  285TMC3    C1 4349   2.607   3.442  11.578  0.2728  0.7054 -0.8695
  285TMC3    C2 4350   2.695   3.355  11.518 -0.1926  0.0061  0.0616
  285TMC3    C3 4351   2.773   3.394  11.416 -0.0848  0.1780  0.0394
  285TMC3    C4 4352   2.594   3.575  11.540  0.0353  0.9095 -0.2777
  285TMC3    C5 4353   2.685   3.611  11.446  0.1024 -0.3962  0.4961
  285TMC3    C6 4354   2.777   3.529  11.379  0.1640  0.2196 -0.0141
  285TMC3     C 4355   2.499   3.393  11.662 -0.1505  1.1260 -0.2415
  285TMC3     O 4356   2.396   3.461  11.667 -0.2728  0.5133  0.2840
  285TMC3     H 4357   2.699   3.251  11.549 -0.6900  0.0989  0.4471
  285TMC3    H1 4358   2.530   3.646  11.590  0.5646 -0.8745  2.9552
  285TMC3    H2 4359   2.841   3.563  11.299  0.6879  0.2021  0.3964
  285TMC3    C7 4360   2.715   3.748  11.442 -0.3302 -0.3150 -1.2078
  285TMC3    C8 4361   2.876   3.299  11.371  0.3477  0.4263 -0.6109
  285TMC3    O1 4362   2.626   3.826  11.409  0.2006  0.1343 -0.2385
  285TMC3    O2 4363   2.839   3.184  11.394  0.2503  0.3431  0.0311
  286MPD2     C 4364   2.592   1.474   0.970 -0.6289  0.5189  0.1636
  286MPD2    C1 4365   2.613   1.390   0.865 -0.1359  0.2373 -0.4860
  286MPD2    C2 4366   2.645   1.260   0.883  0.9856  0.7662 -0.2950
  286MPD2    C3 4367   2.643   1.214   1.010 -0.4244  0.0001 -0.0341
  286MPD2    C4 4368   2.623   1.297   1.119 -0.7276  0.4642  0.0581
  286MPD2    C5 4369   2.592   1.429   1.099 -0.0779 -0.7080  0.1269
  286MPD2     H 4370   2.645   1.207   0.789 -3.0768  0.7345 -0.2927
  286MPD2    H1 4371   2.627   1.271   1.224  1.5691  1.0481  0.1083
  286MPD2    H2 4372   2.563   1.577   0.953 -0.5532  0.9220  2.4336
  286MPD2    H3 4373   2.569   1.493   1.184 -1.4177 -0.9187 -0.0737
  286MPD2     N 4374   2.663   1.082   1.049 -0.3223 -0.6010 -0.1324
  286MPD2    H5 4375   2.659   1.066   1.149 -0.7713 -2.3112 -0.4219
  286MPD2    N1 4376   2.611   1.429   0.727  0.3286 -0.1261  0.2310
  286MPD2    H7 4377   2.658   1.369   0.660 -0.4041  0.3882 -0.7332
  287TMC3    C1 4378   2.722   0.858   1.028  0.0477 -0.5849 -0.3553
  287TMC3    C2 4379   2.715   0.756   0.944 -0.5695 -0.0828 -0.4945
  287TMC3    C3 4380   2.818   0.667   0.941 -0.4078 -0.4892  0.8443
  287TMC3    C4 4381   2.814   0.865   1.127  0.8079 -0.0237 -0.1613
  287TMC3    C5 4382   2.916   0.777   1.119  0.2952  0.6144  0.5204
  287TMC3    C6 4383   2.921   0.679   1.028 -0.0752 -0.0356 -0.0254
  287TMC3     C 4384   2.691   0.975   0.966  0.0915  0.9414  0.0000
  287TMC3     O 4385   2.710   0.971   0.845 -0.7000 -0.1811  0.5061
  287TMC3     H 4386   2.628   0.755   0.880  0.9519  2.1390 -2.6046
  287TMC3    H1 4387   2.828   0.956   1.184  0.2704  0.2696 -0.5005
  287TMC3    H2 4388   3.014   0.626   1.011 -0.5524 -0.9351  0.1786
  287TMC3    C7 4389   3.031   0.810   1.200 -0.4106  0.1515  0.6125
  287TMC3    C8 4390   2.848   0.618   0.809 -0.4022 -0.2465 -0.1167
  287TMC3    O1 4391   3.006   0.873   1.301  0.0910  0.4808 -0.5195
  287TMC3    O2 4392   2.896   0.505   0.798  0.1513 -0.1647 -0.1055
  288TMC3    C1 4393   4.411   1.484  14.156  0.0750 -0.0935 -0.5477
  288TMC3    C2 4394   4.281   1.469  14.202  0.0957 -0.2653 -0.1132
  288TMC3    C3 4395   4.181   1.546  14.151  0.1315 -0.5923 -0.1117
  288TMC3    C4 4396   4.437   1.573  14.059 -0.1855  0.3486  0.1095
  288TMC3    C5 4397   4.338   1.654  14.006 -0.1666 -0.5638 -0.2390
  288TMC3    C6 4398   4.212   1.648  14.056  0.1423  0.2537  0.3150
  288TMC3     C 4399   4.515   1.427  14.236  0.9356 -0.4836 -0.6457
  288TMC3     O 4400   4.477   1.389  14.347  0.2241  0.1026 -0.5910
  288TMC3     H 4401   4.253   1.399  14.279 -0.7661  1.7437  1.3943
  288TMC3    H1 4402   4.537   1.593  14.021  0.3111  1.1469  1.8168
  288TMC3    H2 4403   4.127   1.708  14.025  1.1965 -0.1541 -3.2941
  288TMC3    C7 4404   4.353   1.765  13.916 -0.1528 -0.8806 -0.3188
  288TMC3    C8 4405   4.083   1.586  14.245  0.1284  0.6055  0.3870
  288TMC3    O1 4406   4.259   1.840  13.896  0.2350  0.1678 -0.3224
  288TMC3    O2 4407   4.071   1.706  14.258  0.4292  0.1909 -0.0933
  289MPD2     C 4408   4.228   0.781  14.287  1.2697  0.0629  1.1432
  289MPD2    C1 4409   4.245   0.895  14.211  0.1629  0.6651  0.3073
  289MPD2    C2 4410   4.136   0.932  14.134  0.2338  0.3966 -0.2996
  289MPD2    C3 4411   4.035   0.842  14.110  0.6094  0.3156 -1.3005
  289MPD2    C4 4412   4.041   0.714  14.163 -0.0518  0.1954  0.1213
  289MPD2    C5 4413   4.142   0.687  14.248 -0.5303  0.1898 -0.2068
  289MPD2     H 4414   4.140   1.023  14.076  3.0571 -0.4699 -1.4538
  289MPD2    H1 4415   3.977   0.633  14.129 -1.6100  1.5149 -0.0740
  289MPD2    H2 4416   4.306   0.748  14.355  0.8610 -0.8996  1.1464
  289MPD2    H3 4417   4.144   0.588  14.291 -0.0151  0.0526 -0.5338
  289MPD2     N 4418   3.924   0.862  14.021  0.2101  0.0421  0.4658
  289MPD2    H5 4419   3.857   0.787  14.007  1.5806 -1.2588  0.7906
  289MPD2    N1 4420   4.367   0.971  14.222  0.4126 -0.5854  0.6278
  289MPD2    H7 4421   4.443   0.934  14.278 -0.4321 -1.4307  1.2174
  290TMC3    C1 4422   3.762   0.989  13.900  0.4267  0.3888 -0.4316
  290TMC3    C2 4423   3.701   1.111  13.870  0.1468  0.0523 -0.6885
  290TMC3    C3 4424   3.577   1.109  13.816  0.0021  0.7586  0.3661
  290TMC3    C4 4425   3.685   0.881  13.891  0.0439  0.2115  0.1209
  290TMC3    C5 4426   3.555   0.880  13.838 -0.1172 -0.7750  0.4074
  290TMC3    C6 4427   3.505   1.000  13.786  0.2643  0.0872  0.4467
  290TMC3     C 4428   3.884   0.986  13.977  0.5167 -0.3700 -0.1908
  290TMC3     O 4429   3.924   1.101  13.984 -0.1886  0.2365 -0.1721
  290TMC3     H 4430   3.746   1.207  13.894 -2.8901  2.1748 -3.4349
  290TMC3    H1 4431   3.712   0.788  13.939  0.4998 -0.7436 -2.0054
  290TMC3    H2 4432   3.414   0.995  13.727  0.1380  1.2678  0.5464
  290TMC3    C7 4433   3.459   0.768  13.852  1.2287  0.3974  0.2148
  290TMC3    C8 4434   3.504   1.229  13.796 -0.3526 -0.4518 -0.3171
  290TMC3    O1 4435   3.343   0.802  13.850 -0.4066 -0.3102 -0.0197
  290TMC3    O2 4436   3.412   1.225  13.709 -0.3420 -0.3756 -0.0940
  291MPD2     C 4437   3.543   0.511  17.659  0.3636 -0.5312  0.4131
  291MPD2    C1 4438   3.620   0.466   0.025 -0.4502 -1.2218  0.9113
  291MPD2    C2 4439   3.734   0.527   0.064 -0.4607  0.7483 -0.0829
  291MPD2    C3 4440   3.776   0.633  17.736 -0.1804 -0.0701 -0.5349
  291MPD2    C4 4441   3.699   0.693  17.636 -0.0209  0.1492 -0.4456
  291MPD2    C5 4442   3.583   0.628  17.602  0.7779  0.0076 -0.0287
  291MPD2     H 4443   3.802   0.482   0.136 -1.3411  0.3009  0.4659
  291MPD2    H1 4444   3.735   0.783  17.586  0.9662 -0.6336 -1.1489
  291MPD2    H2 4445   3.458   0.457  17.619  0.0540  0.0889  0.2401
  291MPD2    H3 4446   3.525   0.674  17.522 -1.3342  0.6856  1.8935
  291MPD2     N 4447   3.907   0.690   0.018  0.1358 -0.5516  0.0263
  291MPD2    H5 4448   3.928   0.767  17.694  3.2596 -0.5048  1.1528
  291MPD2    N1 4449   3.589   0.344   0.093 -0.2531 -0.5024  0.1348
  291MPD2    H7 4450   3.645   0.324   0.176 -0.3742 -1.2935  0.0280
  292TMC3    C1 4451   3.492   0.134   0.159  0.2978 -0.2433 -0.2433
  292TMC3    C2 4452   3.557   0.166   0.277  0.9508 -0.0232 -0.6238
  292TMC3    C3 4453   3.585   0.054   0.353  1.0908  0.1461  0.6893
  292TMC3    C4 4454   3.472   0.007   0.116  0.4640 -0.3536 -0.3544
  292TMC3    C5 4455   3.517   4.638   0.187  0.3591 -0.0851  0.0862
  292TMC3    C6 4456   3.579   4.661   0.305  0.3532  0.3438 -0.2302
  292TMC3     C 4457   3.498   0.239   0.056  0.6436 -0.6445 -0.0928
  292TMC3     O 4458   3.421   0.221  17.704  0.2196  0.0264 -0.1970
  292TMC3     H 4459   3.572   0.266   0.316 -1.9741  0.4462 -0.7013
  292TMC3    H1 4460   3.418   4.724   0.024 -1.2524 -1.2244  0.8221
  292TMC3    H2 4461   3.621   4.575   0.357 -0.5012 -1.2108 -2.0833
  292TMC3    C7 4462   3.495   4.496   0.154  0.6464 -1.2835 -0.3452
  292TMC3    C8 4463   3.600   0.076   0.496  0.0469  0.4697 -0.3394
  292TMC3    O1 4464   3.584   4.424   0.188 -0.0587 -0.3088  0.0575
  292TMC3    O2 4465   3.644   0.183   0.534  0.2691 -0.0097 -0.6660
  293MPD2     C 4466   0.525   2.334  12.413 -0.2408 -0.2806  0.7509
  293MPD2    C1 4467   0.425   2.261  12.488 -1.1858  0.1000  0.0667
  293MPD2    C2 4468   0.439   2.234  12.627 -0.3461  0.5444 -0.3200
  293MPD2    C3 4469   0.549   2.294  12.683 -0.5911 -0.4699  1.1593
  293MPD2    C4 4470   0.647   2.353  12.607 -0.4031  0.7552 -0.3040
  293MPD2    C5 4471   0.635   2.383  12.477 -0.4269  0.1637  0.1840
  293MPD2     H 4472   0.375   2.173  12.689  1.1761 -0.7831 -0.0626
  293MPD2    H1 4473   0.743   2.382  12.647 -0.6228  0.5493  0.3784
  293MPD2    H2 4474   0.518   2.350  12.306 -0.8901  1.2536  1.0218
  293MPD2    H3 4475   0.714   2.436  12.424 -0.6892  1.4263  1.0630
  293MPD2     N 4476   0.577   2.269  12.820  0.3112  0.8322 -0.9326
  293MPD2    H5 4477   0.667   2.307  12.850  1.2078 -1.7369 -0.4014
  293MPD2    N1 4478   0.309   2.219  12.416 -0.1405 -0.3268  0.4831
  293MPD2    H7 4479   0.302   2.245  12.318 -0.2510 -3.1596 -0.2550
  294TMC3    C1 4480   0.102   2.121  12.365 -0.7717  0.5753 -0.6523
  294TMC3    C2 4481   4.714   2.087  12.410 -0.5058  0.1725 -0.2923
  294TMC3    C3 4482   4.625   2.031  12.324  0.0218  0.0712  0.8555
  294TMC3    C4 4483   0.145   2.105  12.236 -0.4549 -0.4662 -0.1731
  294TMC3    C5 4484   0.052   2.036  12.157 -0.3398  0.3826 -0.4547
  294TMC3    C6 4485   4.660   2.004  12.196  0.0462 -0.0126 -0.0465
  294TMC3     C 4486   0.195   2.166  12.463  0.5717  0.1648 -0.3706
  294TMC3     O 4487   0.164   2.156  12.582  0.3990 -0.1890  0.3940
  294TMC3     H 4488   4.693   2.097  12.516  3.0318  0.7929  0.3392
  294TMC3    H1 4489   0.242   2.126  12.193  0.0646 -0.5815  0.9217
  294TMC3    H2 4490   4.594   1.968  12.117 -0.1027 -0.4777  0.2895
  294TMC3    C7 4491   0.106   1.907  12.102 -0.0535 -0.2798 -0.0064
  294TMC3    C8 4492   4.540   1.937  12.392  0.2786 -0.6481  0.4233
  294TMC3    O1 4493   0.031   1.814  12.128  0.4651 -0.2259 -1.0092
  294TMC3    O2 4494   4.487   1.967  12.496  0.2735  0.3258  0.1812
  295MPD2     C 4495   2.124   0.650   0.368 -0.0769  0.1764  0.5729
  295MPD2    C1 4496   2.026   0.554   0.327 -0.7482 -0.3739 -0.1103
  295MPD2    C2 4497   1.960   0.482   0.415 -0.0771 -0.1958  0.1513
  295MPD2    C3 4498   1.987   0.492   0.555 -0.4002  0.9816 -0.2578
  295MPD2    C4 4499   2.075   0.592   0.592  0.1609 -0.4356  0.7488
  295MPD2    C5 4500   2.143   0.670   0.505  0.4463  0.3805 -0.3704
  295MPD2     H 4501   1.885   0.417   0.372  0.2983 -1.1717  0.9508
  295MPD2    H1 4502   2.109   0.612   0.693  2.6395 -1.0769  0.0605
  295MPD2    H2 4503   2.187   0.713   0.307  1.2393  0.5493  2.3054
  295MPD2    H3 4504   2.209   0.745   0.547  0.3337  0.7892 -0.9271
  295MPD2     N 4505   1.911   0.426   0.656 -0.5288  0.0768  1.0741
  295MPD2    H5 4506   1.947   0.429   0.751  0.6573  0.7481  0.6051
  295MPD2    N1 4507   2.000   0.524   0.192 -0.2572  0.0452 -0.3414
  295MPD2    H7 4508   1.956   0.437   0.163  2.3339 -1.5749  0.5974
  296TMC3    C1 4509   1.784   0.256   0.740 -0.1428  0.6826  0.0092
  296TMC3    C2 4510   1.734   0.341   0.834 -0.5260 -0.0189 -0.4554
  296TMC3    C3 4511   1.658   0.280   0.933 -0.1326 -0.4785 -0.4246
  296TMC3    C4 4512   1.756   0.121   0.740 -0.1617  0.6628 -0.0320
  296TMC3    C5 4513   1.689   0.055   0.841  0.2053 -0.0385 -0.2964
  296TMC3    C6 4514   1.643   0.138   0.942 -0.3298 -0.3705  0.6687
  296TMC3     C 4515   1.840   0.311   0.622 -0.5147 -0.5678 -0.0146
  296TMC3     O 4516   1.819   0.251   0.517  0.1344  0.5035  0.2814
  296TMC3     H 4517   1.752   0.447   0.840 -1.5222  0.2085 -1.3940
  296TMC3    H1 4518   1.793   0.063   0.656 -1.9134  0.6746 -0.7996
  296TMC3    H2 4519   1.589   0.095   1.025  0.3658  0.0008  1.3031
  296TMC3    C7 4520   1.732   4.656   0.860 -0.2766 -0.2652  0.6255
  296TMC3    C8 4521   1.587   0.356   1.035  0.2478 -0.7502 -0.3068
  296TMC3    O1 4522   1.789   4.606   0.768  0.1056  0.6884  0.2705
  296TMC3    O2 4523   1.577   0.309   1.146 -0.3355  0.3016 -0.0521
  297MPD2     C 4524   3.106   2.237  15.869  0.2046  0.7063  0.0116
  297MPD2    C1 4525   3.088   2.375  15.854  0.3296 -0.1032 -0.4581
  297MPD2    C2 4526   3.183   2.461  15.897  0.4146 -0.0154  0.3876
  297MPD2    C3 4527   3.296   2.410  15.944 -0.2551  0.6765  0.4121
  297MPD2    C4 4528   3.316   2.273  15.960  0.4498  0.5012  0.2333
  297MPD2    C5 4529   3.222   2.187  15.921 -0.2692  0.4254 -0.0207
  297MPD2     H 4530   3.183   2.568  15.884  0.4622 -0.2908 -1.9671
  297MPD2    H1 4531   3.405   2.228  16.004 -0.2550 -1.3127 -0.1691
  297MPD2    H2 4532   3.048   2.157  15.823 -1.6429  1.4338  1.0977
  297MPD2    H3 4533   3.237   2.080  15.926  1.3972  0.7780  2.8594
  297MPD2     N 4534   3.398   2.507  15.964  0.1554  0.0436 -0.2201
  297MPD2    H5 4535   3.375   2.605  15.951  1.5464  0.1553 -1.7659
  297MPD2    N1 4536   2.967   2.431  15.805 -0.1732  0.0232  0.4836
  297MPD2    H7 4537   2.951   2.531  15.796  0.8977  0.1178 -0.3472
  298TMC3    C1 4538   2.757   2.437  15.705 -0.5126  0.6971  0.4379
  298TMC3    C2 4539   2.705   2.430  15.582  0.5272 -0.3033 -0.1739
  298TMC3    C3 4540   2.630   2.537  15.544 -0.3579  0.8144 -0.3427
  298TMC3    C4 4541   2.725   2.534  15.793  0.4189 -0.5292 -0.3329
  298TMC3    C5 4542   2.641   2.634  15.758 -0.0703 -0.3448  0.2436
  298TMC3    C6 4543   2.595   2.644  15.628  0.2058  0.0597  0.2803
  298TMC3     C 4544   2.872   2.360  15.737  0.1380  0.5283 -0.0917
  298TMC3     O 4545   2.876   2.253  15.686 -0.2807 -0.9574 -0.2869
  298TMC3     H 4546   2.739   2.343  15.526  1.4487  0.5349 -0.9287
  298TMC3    H1 4547   2.761   2.534  15.895 -0.3704 -0.2087 -0.0597
  298TMC3    H2 4548   2.528   2.725  15.601  0.1266 -0.2049 -0.3315
  298TMC3    C7 4549   2.611   2.739  15.854  0.6863 -0.0340  0.3536
  298TMC3    C8 4550   2.591   2.534  15.405  0.0997  0.6875  0.4008
  298TMC3    O1 4551   2.634   2.711  15.973 -0.1202 -0.8372  0.2040
  298TMC3    O2 4552   2.595   2.420  15.367  0.3158 -0.1320  0.7067
  299MPD2     C 4553   4.078   2.141  10.849  0.5805 -0.2304  0.0564
  299MPD2    C1 4554   4.101   2.246  10.763 -0.1150 -0.6614 -0.3339
  299MPD2    C2 4555   4.028   2.274  10.647  0.5831  0.6540  0.8608
  299MPD2    C3 4556   3.927   2.183  10.615 -0.1007  0.0627  0.5779
  299MPD2    C4 4557   3.914   2.069  10.696  0.8612  0.5427  0.1380
  299MPD2    C5 4558   3.987   2.050  10.812  0.1402  0.0519 -0.5049
  299MPD2     H 4559   4.050   2.355  10.579 -0.8674 -0.0958 -0.4961
  299MPD2    H1 4560   3.844   1.991  10.669  0.8727  0.9907 -1.2040
  299MPD2    H2 4561   4.135   2.116  10.938  0.1178 -0.8614  0.1773
  299MPD2    H3 4562   3.968   1.970  10.884  0.2302  0.3198 -0.1820
  299MPD2     N 4563   3.849   2.190  10.497  0.4432  0.7363 -0.0845
  299MPD2    H5 4564   3.774   2.123  10.492  0.3372  1.0620 -2.9095
  299MPD2    N1 4565   4.187   2.343  10.823  0.3411  0.6223 -0.2722
  299MPD2    H7 4566   4.241   2.313  10.904 -0.8981  1.4176  0.8390
  300TMC3    C1 4567   3.744   2.305  10.308  0.2407 -1.2669 -0.2371
  300TMC3    C2 4568   3.741   2.411  10.218 -0.2493 -0.7597 -0.2204
  300TMC3    C3 4569   3.627   2.478  10.182  0.8250  0.3562 -0.1964
  300TMC3    C4 4570   3.623   2.258  10.346  0.1168 -0.2272  0.9864
  300TMC3    C5 4571   3.512   2.318  10.297 -0.3392 -0.1028 -0.4542
  300TMC3    C6 4572   3.504   2.424  10.216  0.0298 -0.7297 -0.9327
  300TMC3     C 4573   3.863   2.281  10.394  0.3824  0.4912 -0.6039
  300TMC3     O 4574   3.963   2.348  10.364 -0.3434 -0.1237  0.8633
  300TMC3     H 4575   3.831   2.470  10.207 -0.8346  0.2304  0.1955
  300TMC3    H1 4576   3.607   2.173  10.411 -1.0517 -0.8114 -0.0625
  300TMC3    H2 4577   3.407   2.472  10.208 -0.1321 -0.6892  1.2769
  300TMC3    C7 4578   3.384   2.295  10.360 -0.8180 -0.3705 -0.2430
  300TMC3    C8 4579   3.635   2.623  10.183 -0.2573  0.2127  0.0827
  300TMC3    O1 4580   3.283   2.267  10.292 -0.0971 -0.1466 -0.0491
  300TMC3    O2 4581   3.743   2.665  10.222  0.3244  0.1153 -0.1009
  301MPD2     C 4582   1.849   3.534   1.138 -0.3585  0.3647 -0.2574
  301MPD2    C1 4583   1.723   3.474   1.111 -0.1401 -0.6031 -0.2836
  301MPD2    C2 4584   1.723   3.348   1.050 -0.1943 -0.1883 -0.1986
  301MPD2    C3 4585   1.834   3.294   1.000  0.5287  0.0723 -0.5872
  301MPD2    C4 4586   1.960   3.350   1.029  0.2983  0.3738 -0.1820
  301MPD2    C5 4587   1.963   3.475   1.096  0.9449 -0.2545 -0.2211
  301MPD2     H 4588   1.627   3.302   1.031  0.4131 -1.7802  0.6033
  301MPD2    H1 4589   2.053   3.301   1.004  0.5166  0.9690 -0.5451
  301MPD2    H2 4590   1.856   3.629   1.191 -0.0408  0.3723 -0.3125
  301MPD2    H3 4591   2.054   3.530   1.115  0.1088  0.4597  1.6899
  301MPD2     N 4592   1.836   3.173   0.921 -0.7323 -0.7067  0.4334
  301MPD2    H5 4593   1.924   3.130   0.895 -0.9793 -0.9914  0.0643
  301MPD2    N1 4594   1.599   3.530   1.150 -0.2079 -0.9173 -0.4622
  301MPD2    H7 4595   1.519   3.471   1.129 -0.0073 -0.7310 -1.7420
  302TMC3    C1 4596   1.740   2.989   0.810 -0.3061  0.6041 -0.0293
  302TMC3    C2 4597   1.818   2.895   0.882  0.6610  0.1023 -0.7437
  302TMC3    C3 4598   1.764   2.768   0.892 -0.4444  0.2693  0.4648
  302TMC3    C4 4599   1.632   2.953   0.740  0.4470  0.3152  0.0565
  302TMC3    C5 4600   1.583   2.829   0.756  0.1932 -0.7074  0.0338
  302TMC3    C6 4601   1.642   2.733   0.834  0.8499 -0.5204  0.0093
  302TMC3     C 4602   1.726   3.121   0.860 -0.2851  0.1012  0.3308
  302TMC3     O 4603   1.615   3.165   0.846  0.5257  0.3647 -0.6562
  302TMC3     H 4604   1.908   2.931   0.930  1.0604  0.1738 -1.5535
  302TMC3    H1 4605   1.588   3.015   0.662 -1.0281  0.4530  1.0066
  302TMC3    H2 4606   1.598   2.634   0.848 -0.3217 -0.2354 -1.6293
  302TMC3    C7 4607   1.473   2.787   0.674  0.1235 -0.1946  0.0531
  302TMC3    C8 4608   1.843   2.665   0.952 -0.4793  0.6433 -0.5481
  302TMC3    O1 4609   1.498   2.679   0.618  0.0962 -0.2352 -0.0027
  302TMC3    O2 4610   1.820   2.555   0.904  0.1257  0.8642  1.1165
  303MPD2     C 4611   1.334   2.274  10.885 -0.1219  0.1703 -0.2704
  303MPD2    C1 4612   1.194   2.274  10.894  0.4191 -0.0150 -0.2344
  303MPD2    C2 4613   1.118   2.309  10.782 -0.5381  0.3115  0.2655
  303MPD2    C3 4614   1.187   2.349  10.673  0.6703 -0.0063 -0.3349
  303MPD2    C4 4615   1.323   2.354  10.665  0.0723 -0.3496 -0.3325
  303MPD2    C5 4616   1.395   2.319  10.769  0.1834 -1.0827  0.5332
  303MPD2     H 4617   1.011   2.297  10.779 -0.5237  0.6349 -1.3636
  303MPD2    H1 4618   1.371   2.375  10.570 -1.2447  3.2933 -0.1577
  303MPD2    H2 4619   1.399   2.243  10.967  0.6879 -1.4505 -1.5285
  303MPD2    H3 4620   1.502   2.313  10.753 -0.0640  0.7295 -1.8307
  303MPD2     N 4621   1.124   2.383  10.549 -0.3973  0.4798  0.4489
  303MPD2    H5 4622   1.178   2.393  10.464 -1.4557  1.3384 -0.1260
  303MPD2    N1 4623   1.148   2.230  11.019  0.6041 -0.0342 -0.2634
  303MPD2    H7 4624   1.216   2.203  11.089  0.7422  2.2449  0.4722
  304TMC3    C1 4625   1.001   2.182  11.196  0.1123 -0.3474  0.1548
  304TMC3    C2 4626   0.873   2.206  11.239  0.7398  0.1569  0.3446
  304TMC3    C3 4627   0.808   2.121  11.323  0.7626  0.5945  0.3637
  304TMC3    C4 4628   1.062   2.069  11.233  0.2671  0.5254 -0.0640
  304TMC3    C5 4629   0.998   1.982  11.313  0.3563  0.1908  0.5772
  304TMC3    C6 4630   0.872   2.003  11.367  0.4354 -0.7730 -0.2991
  304TMC3     C 4631   1.018   2.201  11.055  0.0022  0.2593 -0.4758
  304TMC3     O 4632   0.913   2.230  10.995  0.1588  0.2047  0.8985
  304TMC3     H 4633   0.812   2.280  11.187  1.3815 -0.6066 -1.5183
  304TMC3    H1 4634   1.152   2.034  11.183  0.0661  0.0431 -0.0880
  304TMC3    H2 4635   0.822   1.924  11.422 -0.8983 -1.4869 -2.5214
  304TMC3    C7 4636   0.999   1.851  11.242 -0.7686 -0.0481 -1.1260
  304TMC3    C8 4637   0.671   2.091  11.293 -0.1693 -0.3069  0.5424
  304TMC3    O1 4638   1.101   1.807  11.190 -0.6070  0.4279 -0.0273
  304TMC3    O2 4639   0.642   2.088  11.177  0.3753  0.6239 -0.3702
  305MPD2     C 4640   3.778   4.387  13.817  0.7386  0.6007  0.1700
  305MPD2    C1 4641   3.879   4.296  13.830 -0.9938 -0.2763  0.4890
  305MPD2    C2 4642   3.928   4.238  13.711 -0.0469 -0.1917  0.5674
  305MPD2    C3 4643   3.871   4.271  13.587  0.3336 -0.2091  0.4651
  305MPD2    C4 4644   3.771   4.365  13.587 -0.2807 -0.3501 -0.5271
  305MPD2    C5 4645   3.721   4.418  13.697  0.1246  0.2725  0.3183
  305MPD2     H 4646   4.002   4.160  13.724  0.4948  0.0574 -1.1242
  305MPD2    H1 4647   3.727   4.401  13.495  2.5119 -2.7054 -2.7614
  305MPD2    H2 4648   3.739   4.443  13.901  0.0356 -1.8534  1.4680
  305MPD2    H3 4649   3.637   4.486  13.687 -0.2089  0.0450  1.5218
  305MPD2     N 4650   3.917   4.228  13.456  0.8226 -0.1851 -0.0837
  305MPD2    H5 4651   3.870   4.267  13.374 -1.0246 -0.4285  0.8548
  305MPD2    N1 4652   3.924   4.261  13.959  0.3847  0.0433  0.0246
  305MPD2    H7 4653   3.878   4.310  14.035 -0.2965  1.8664 -1.5455
  306TMC3    C1 4654   4.067   4.177  14.133 -0.0634 -0.3364  0.1499
  306TMC3    C2 4655   4.110   4.051  14.171 -0.3554  0.0024 -0.4634
  306TMC3    C3 4656   4.132   4.035  14.304 -0.0367  0.1302  0.3004
  306TMC3    C4 4657   4.027   4.278  14.226  0.0263 -0.3016 -0.4610
  306TMC3    C5 4658   4.062   4.253  14.352 -0.2379 -0.6091  0.1432
  306TMC3    C6 4659   4.124   4.137  14.391 -0.3164  0.2170  0.2454
  306TMC3     C 4660   4.030   4.181  13.991  0.1709 -0.3905  0.7223
  306TMC3     O 4661   4.088   4.093  13.918  0.1129  0.6322  0.3137
  306TMC3     H 4662   4.123   3.971  14.100  1.4277 -0.1465  0.0216
  306TMC3    H1 4663   3.994   4.373  14.187 -0.4951 -0.0997  0.4845
  306TMC3    H2 4664   4.165   4.132  14.491 -0.0313  1.8107  0.2141
  306TMC3    C7 4665   4.094   4.372  14.424 -0.6523  0.4896 -0.1892
  306TMC3    C8 4666   4.236   3.938  14.335 -0.9542  0.4677  0.1000
  306TMC3    O1 4667   4.072   4.479  14.371 -0.6059 -0.3796  0.2328
  306TMC3    O2 4668   4.286   3.882  14.234 -0.0682 -0.1919  0.2301
  307MPD2     C 4669   2.334   1.714  17.636 -0.7631 -0.5552 -0.3725
  307MPD2    C1 4670   2.270   1.834  17.645  0.3533  0.0880 -0.3002
  307MPD2    C2 4671   2.264   1.883   0.027  0.4360 -0.0737  0.3910
  307MPD2    C3 4672   2.302   1.817   0.144  0.0830 -0.2828 -0.5017
  307MPD2    C4 4673   2.356   1.695   0.136 -0.7148 -0.1449 -0.1095
  307MPD2    C5 4674   2.365   1.641   0.012  0.0384  0.2551  0.1796
  307MPD2     H 4675   2.212   1.976   0.046  1.3023  0.6237 -0.6643
  307MPD2    H1 4676   2.392   1.642   0.223  2.3026 -1.9928 -2.4872
  307MPD2    H2 4677   2.349   1.664  17.541  0.5867 -1.3061  0.2430
  307MPD2    H3 4678   2.409   1.543  17.736 -3.1293 -1.1241 -0.1841
  307MPD2     N 4679   2.280   1.876   0.268 -0.8184 -0.1497 -0.2471
  307MPD2    H5 4680   2.237   1.967   0.254  0.7700  0.2560 -2.4994
  307MPD2    N1 4681   2.232   1.911  17.530  0.2386  0.4193 -0.0551
  307MPD2    H7 4682   2.207   2.008  17.545  1.4270  0.7782 -0.3594
  308TMC3    C1 4683   2.028   1.956   0.615  0.1513  0.2599  0.0804
  308TMC3    C2 4684   2.046   2.089   0.611 -0.6632 -0.0556  0.1722
  308TMC3    C3 4685   2.143   2.134   0.530 -0.2139  0.4326  0.1117
  308TMC3    C4 4686   2.104   1.864   0.551 -0.4147 -0.9139 -0.0466
  308TMC3    C5 4687   2.208   1.913   0.482  0.0792 -0.3856 -0.6656
  308TMC3    C6 4688   2.231   2.050   0.465 -0.4729  0.5792  0.1360
  308TMC3     C 4689   1.905   1.893   0.678  0.6647  0.1359  0.2599
  308TMC3     O 4690   1.925   1.776   0.705  0.5850  0.7427  0.2724
  308TMC3     H 4691   1.967   2.154   0.647 -0.4910  1.4791 -2.2663
  308TMC3    H1 4692   2.093   1.756   0.551 -1.2302 -0.8267  0.4531
  308TMC3    H2 4693   2.308   2.091   0.400 -0.4976  0.3605 -0.0310
  308TMC3    C7 4694   2.262   1.817   0.394  0.1837 -0.1436 -0.2431
  308TMC3    C8 4695   2.169   2.275   0.512  0.2113 -0.0836  0.1958
  308TMC3    O1 4696   2.273   1.704   0.440  0.2243 -0.3307 -0.4095
  308TMC3    O2 4697   2.219   2.311   0.405 -0.5786 -0.0346 -0.2225
  309MPD2     C 4698   1.323   2.298  17.157  0.2410 -0.1907 -0.1475
  309MPD2    C1 4699   1.248   2.404  17.113 -0.0589  0.2099  0.2763
  309MPD2    C2 4700   1.151   2.462  17.192  0.3805 -0.4038 -0.0936
  309MPD2    C3 4701   1.124   2.411  17.318 -0.1147 -0.5494  0.3118
  309MPD2    C4 4702   1.199   2.304  17.361  0.1376 -0.1563  0.4346
  309MPD2    C5 4703   1.308   2.257  17.288  0.5250 -0.0028 -0.0411
  309MPD2     H 4704   1.103   2.554  17.162 -0.5644 -0.7393  0.3819
  309MPD2    H1 4705   1.178   2.257  17.456 -0.1920  2.0007  1.4257
  309MPD2    H2 4706   1.407   2.256  17.102  1.5575 -1.5940  2.8862
  309MPD2    H3 4707   1.372   2.175  17.319  1.1851  0.7882  0.6850
  309MPD2     N 4708   1.023   2.457  17.409 -0.2218 -0.6151 -0.1111
  309MPD2    H5 4709   1.022   2.416  17.502 -0.6556 -0.6271 -0.1234
  309MPD2    N1 4710   1.277   2.451  16.987  0.2703  0.1858 -0.0295
  309MPD2    H7 4711   1.223   2.532  16.958 -0.9473  0.5633  3.2404
  310TMC3    C1 4712   1.397   2.502  16.788  0.0707  0.1787  0.4177
  310TMC3    C2 4713   1.297   2.568  16.725  0.0210  0.1295  0.0763
  310TMC3    C3 4714   1.334   2.631  16.606  0.7524  0.2210 -0.6693
  310TMC3    C4 4715   1.529   2.490  16.737  0.3004  1.0074  0.5307
  310TMC3    C5 4716   1.559   2.559  16.619  0.6964  0.1924  0.2076
  310TMC3    C6 4717   1.459   2.628  16.551 -0.2238  0.5257 -0.6878
  310TMC3     C 4718   1.372   2.408  16.901  0.1548 -0.1655  0.1156
  310TMC3     O 4719   1.444   2.311  16.907  0.4134 -0.1998  0.5834
  310TMC3     H 4720   1.199   2.574  16.770 -0.1380 -0.4870 -0.1923
  310TMC3    H1 4721   1.608   2.446  16.796  1.5066  0.5236 -1.4409
  310TMC3    H2 4722   1.472   2.655  16.447 -2.0853 -0.7066 -1.2503
  310TMC3    C7 4723   1.665   2.502  16.548  0.0430 -0.5520 -0.7975
  310TMC3    C8 4724   1.227   2.683  16.530 -0.4453 -0.6069 -0.5467
  310TMC3    O1 4725   1.699   2.392  16.585 -0.1796 -0.8487 -0.4444
  310TMC3    O2 4726   1.120   2.627  16.536  0.2212 -0.2030 -0.5862
  311MPD2     C 4727   3.036   4.205  12.193 -0.1873  0.7527 -0.5215
  311MPD2    C1 4728   3.113   4.096  12.229  0.3025 -0.0585 -0.1387
  311MPD2    C2 4729   3.066   3.972  12.239 -0.2662  0.0987 -0.3165
  311MPD2    C3 4730   2.928   3.952  12.243  0.1974 -0.4623 -0.0586
  311MPD2    C4 4731   2.850   4.057  12.203  0.0385  0.7006  0.3502
  311MPD2    C5 4732   2.904   4.175  12.168  0.0752 -0.2399 -0.6639
  311MPD2     H 4733   3.129   3.887  12.263  0.6274  0.5738 -0.9721
  311MPD2    H1 4734   2.742   4.051  12.206  0.1013 -1.0294 -0.9161
  311MPD2    H2 4735   3.082   4.299  12.165 -0.2188  1.5354  2.0265
  311MPD2    H3 4736   2.842   4.262  12.149  3.5050  2.5323  0.8859
  311MPD2     N 4737   2.881   3.824  12.285  0.0470 -0.0029  0.2536
  311MPD2    H5 4738   2.949   3.749  12.295  0.6189  0.0852 -3.1092
  311MPD2    N1 4739   3.254   4.127  12.239  1.0617 -0.1932 -0.0420
  311MPD2    H7 4740   3.279   4.225  12.240  3.1619 -0.6847 -4.4860
  312TMC3    C1 4741   2.730   3.685  12.403 -0.6480 -0.1110  0.0687
  312TMC3    C2 4742   2.602   3.642  12.409 -0.1876 -0.0010  0.1794
  312TMC3    C3 4743   2.562   3.568  12.526  0.8144 -0.0391 -0.6480
  312TMC3    C4 4744   2.820   3.661  12.497 -0.5675  0.6948 -1.2076
  312TMC3    C5 4745   2.778   3.594  12.613 -0.2847  0.5163 -0.4483
  312TMC3    C6 4746   2.652   3.544  12.623 -0.8121  0.3296 -0.0518
  312TMC3     C 4747   2.747   3.801  12.309 -0.2417 -0.0478  0.8356
  312TMC3     O 4748   2.655   3.873  12.286 -0.0794  0.0545  0.2114
  312TMC3     H 4749   2.528   3.685  12.342 -0.1702 -0.1984  0.0338
  312TMC3    H1 4750   2.919   3.705  12.492 -0.6442  0.9506 -0.4231
  312TMC3    H2 4751   2.620   3.498  12.716  1.9570  2.6727  2.0935
  312TMC3    C7 4752   2.886   3.543  12.693  0.5028 -0.4957 -0.0128
  312TMC3    C8 4753   2.420   3.569  12.547 -0.1394  0.0999 -0.3598
  312TMC3    O1 4754   2.996   3.529  12.640 -0.2098 -0.1196 -0.1856
  312TMC3    O2 4755   2.348   3.634  12.478 -0.1728 -0.1440  0.8303
  313MPD2     C 4756   3.010   2.665  10.762  0.4932 -0.6590  0.3836
  313MPD2    C1 4757   2.903   2.747  10.777  0.4257 -0.2970  0.1414
  313MPD2    C2 4758   2.782   2.711  10.718  0.7401  0.0802  0.1657
  313MPD2    C3 4759   2.763   2.588  10.660 -0.2002 -0.4534  1.1215
  313MPD2    C4 4760   2.872   2.505  10.637  0.5640 -0.1058 -0.9457
  313MPD2    C5 4761   2.997   2.547  10.689 -0.0293 -0.1529  1.1307
  313MPD2     H 4762   2.696   2.764  10.756 -1.4184 -1.2023 -2.9782
  313MPD2    H1 4763   2.866   2.416  10.575 -1.4113 -1.4434  1.1440
  313MPD2    H2 4764   3.101   2.670  10.821  1.0171 -0.3943 -0.4609
  313MPD2    H3 4765   3.083   2.487  10.661  0.2973  1.5975 -1.6811
  313MPD2     N 4766   2.643   2.543  10.603  0.6051  0.2890  0.2638
  313MPD2    H5 4767   2.647   2.459  10.546 -1.5696  1.8127 -2.1875
  313MPD2    N1 4768   2.906   2.867  10.849  0.2148 -0.0266  0.5155
  313MPD2    H7 4769   2.817   2.914  10.839  0.7821  1.0687  0.6173
  314TMC3    C1 4770   2.961   3.071  10.929 -1.0450 -0.0464  0.3317
  314TMC3    C2 4771   3.043   3.173  10.911  0.0558 -0.2891  0.0291
  314TMC3    C3 4772   2.990   3.299  10.886  0.1390  0.2181 -0.1003
  314TMC3    C4 4773   2.821   3.087  10.944 -0.6132 -0.4345 -0.2450
  314TMC3    C5 4774   2.769   3.205  10.898  0.1075  0.5994  0.0833
  314TMC3    C6 4775   2.853   3.311  10.863 -0.2165 -0.5741 -0.6168
  314TMC3     C 4776   3.009   2.939  10.897  0.2465 -0.0020 -0.7122
  314TMC3     O 4777   3.130   2.920  10.899  0.0386  0.3654  0.0823
  314TMC3     H 4778   3.149   3.152  10.924  0.4612  0.8659 -1.3407
  314TMC3    H1 4779   2.764   3.006  10.987  0.4938 -0.2013  1.6787
  314TMC3    H2 4780   2.817   3.405  10.824  2.5390 -0.5424 -3.0813
  314TMC3    C7 4781   2.665   3.170  10.802  0.8722  0.2506 -0.6621
  314TMC3    C8 4782   3.076   3.413  10.887 -0.5430  0.3156 -1.4274
  314TMC3    O1 4783   2.668   3.054  10.773 -0.2519  0.1096 -0.0189
  314TMC3    O2 4784   3.023   3.516  10.866  0.0273 -0.1427  0.5524
  315MPD2     C 4785   2.490   1.742  17.124 -0.4420  0.8741  0.0547
  315MPD2    C1 4786   2.570   1.742  17.235 -0.6603  0.4512 -0.2400
  315MPD2    C2 4787   2.635   1.858  17.269  0.0664  0.4142 -0.1239
  315MPD2    C3 4788   2.626   1.975  17.197 -0.3801  0.3887 -0.3311
  315MPD2    C4 4789   2.545   1.971  17.084  0.4426  0.5103 -0.5152
  315MPD2    C5 4790   2.486   1.855  17.046  0.2209 -0.3098 -0.1691
  315MPD2     H 4791   2.700   1.862  17.355 -1.2781  0.7851  0.8732
  315MPD2    H1 4792   2.527   2.055  17.019  1.0191  1.0870  0.0709
  315MPD2    H2 4793   2.436   1.653  17.093 -1.1150  1.0747  0.6466
  315MPD2    H3 4794   2.425   1.854  16.956  0.8568 -0.8703 -0.5842
  315MPD2     N 4795   2.701   2.082  17.253 -0.3311  0.2286  0.4797
  315MPD2    H5 4796   2.754   2.059  17.337  1.0307  2.8704  0.3363
  315MPD2    N1 4797   2.599   1.626  17.307  0.1641 -1.1966  0.2352
  315MPD2    H7 4798   2.652   1.638  17.392  0.4123  1.6332 -0.3154
  316TMC3    C1 4799   2.789   2.308  17.250  0.8417  0.4479  0.0418
  316TMC3    C2 4800   2.880   2.279  17.348  0.3711 -0.1172 -0.6201
  316TMC3    C3 4801   2.970   2.378  17.379  0.0514  0.2227  0.2036
  316TMC3    C4 4802   2.766   2.431  17.197  0.1766  0.2191 -0.6300
  316TMC3    C5 4803   2.850   2.528  17.244 -0.0344  0.1759  0.1349
  316TMC3    C6 4804   2.950   2.508  17.341  0.1278 -0.0548  0.5609
  316TMC3     C 4805   2.688   2.208  17.207 -0.2747  0.2319  0.1676
  316TMC3     O 4806   2.613   2.251  17.118  0.1265  0.6644 -0.0024
  316TMC3     H 4807   2.882   2.178  17.387 -1.1783  0.5624  1.2563
  316TMC3    H1 4808   2.691   2.453  17.122 -0.6965  1.4206  0.5899
  316TMC3    H2 4809   3.014   2.585  17.381 -2.4855  1.7700  1.1811
  316TMC3    C7 4810   2.829   2.668  17.206 -0.5721  0.1703 -0.1543
  316TMC3    C8 4811   3.026   2.364  17.507  0.0998 -0.0759  0.1429
  316TMC3    O1 4812   2.898   2.750  17.269 -0.8202  0.2708  0.1263
  316TMC3    O2 4813   3.024   2.460  17.582 -0.5830 -0.0408  0.6232
  317MPD2     C 4814   4.478   1.053  12.658  0.1461  0.0319  0.5170
  317MPD2    C1 4815   4.508   0.937  12.593  0.7128  0.0761 -0.0526
  317MPD2    C2 4816   4.579   0.845  12.665  0.3106  0.2573 -0.0097
  317MPD2    C3 4817   4.630   0.865  12.791  0.1016 -0.9769  0.2448
  317MPD2    C4 4818   4.599   0.978  12.861 -0.8736 -0.2806 -0.7076
  317MPD2    C5 4819   4.526   1.074  12.788 -0.1668  0.0770  0.6376
  317MPD2     H 4820   4.598   0.755  12.609  1.8090  1.6517 -1.7539
  317MPD2    H1 4821   4.624   1.011  12.961 -2.1885  1.1299 -0.8359
  317MPD2    H2 4822   4.416   1.127  12.608  2.0463  0.3762 -1.3231
  317MPD2    H3 4823   4.497   1.167  12.835  2.0428 -0.3055  2.7907
  317MPD2     N 4824   4.717   0.767  12.852  0.6975  0.4445  0.2009
  317MPD2    H5 4825   0.005   0.688  12.792 -1.6034  0.2160 -0.3660
  317MPD2    N1 4826   4.457   0.912  12.463  0.4390 -0.2466 -0.1100
  317MPD2    H7 4827   4.455   0.814  12.436  0.3181 -0.0830 -0.6980
  318TMC3    C1 4828   0.095   0.648  13.027 -0.0871  0.4922  0.5214
  318TMC3    C2 4829   0.058   0.526  12.976  0.0542  0.6247  0.0873
  318TMC3    C3 4830   0.094   0.414  13.041  0.5279 -0.3180 -0.3828
  318TMC3    C4 4831   0.162   0.655  13.144 -0.3458  0.4133  0.0061
  318TMC3    C5 4832   0.198   0.541  13.206  0.0064 -0.3077 -0.2205
  318TMC3    C6 4833   0.157   0.415  13.161 -0.1443  0.2449  0.3657
  318TMC3     C 4834   0.036   0.775  12.977  0.4049  0.1278 -0.1362
  318TMC3     O 4835   0.004   0.843  13.070 -0.7469 -0.4642  0.3577
  318TMC3     H 4836   0.000   0.520  12.885 -1.3675  0.2290  1.0190
  318TMC3    H1 4837   0.186   0.743  13.204  1.5607 -0.8493  1.0878
  318TMC3    H2 4838   0.177   0.322  13.214 -0.2062 -0.0029 -0.0475
  318TMC3    C7 4839   0.243   0.560  13.350  0.3132 -0.0552 -0.2133
  318TMC3    C8 4840   0.029   0.293  13.007  0.5764 -0.3448 -0.7833
  318TMC3    O1 4841   0.241   0.671  13.401  0.2399  0.3650 -0.2846
  318TMC3    O2 4842   0.098   0.191  13.008 -0.5174 -0.1599  0.7685
  319MPD2     C 4843   0.527   1.882  16.396 -0.3244  0.6113  0.2588
  319MPD2    C1 4844   0.490   1.784  16.480 -0.3337  0.7064 -0.4427
  319MPD2    C2 4845   0.402   1.687  16.438 -0.2790  0.1401  0.2104
  319MPD2    C3 4846   0.368   1.682  16.305 -0.1712 -0.4352 -0.3890
  319MPD2    C4 4847   0.415   1.779  16.216 -0.9378 -0.7669 -0.3573
  319MPD2    C5 4848   0.480   1.888  16.266 -0.2856  0.2144  0.4706
  319MPD2     H 4849   0.358   1.612  16.503 -0.0318 -0.3503 -0.1953
  319MPD2    H1 4850   0.393   1.778  16.110  0.7725  0.3232 -0.7227
  319MPD2    H2 4851   0.593   1.964  16.420 -1.0733  1.1056  0.6306
  319MPD2    H3 4852   0.517   1.968  16.202  1.9955 -0.5577  0.8359
  319MPD2     N 4853   0.287   1.583  16.244 -0.5149  0.5702 -0.1598
  319MPD2    H5 4854   0.290   1.574  16.143  1.4237 -0.0239 -0.0528
  319MPD2    N1 4855   0.530   1.785  16.620  0.3268 -0.5031  0.2875
  319MPD2    H7 4856   0.478   1.717  16.674 -1.5569  1.5705  1.0834
  320TMC3    C1 4857   0.127   1.420  16.212 -0.0750 -0.4306  0.0682
  320TMC3    C2 4858   0.083   1.489  16.107  0.5476  0.2007 -0.3309
  320TMC3    C3 4859   4.727   1.434  16.024 -0.6049 -0.6841 -0.0187
  320TMC3    C4 4860   0.070   1.297  16.259  0.3080 -1.0631 -0.1354
  320TMC3    C5 4861   4.710   1.249  16.172 -0.6002 -0.3180 -0.0141
  320TMC3    C6 4862   4.672   1.307  16.053  0.0973 -0.3564 -0.1772
  320TMC3     C 4863   0.217   1.487  16.308 -0.0336 -0.5091 -0.4491
  320TMC3     O 4864   0.194   1.472  16.429 -0.1311  0.3973 -0.1990
  320TMC3     H 4865   0.123   1.587  16.085  2.1706 -0.3451  0.1709
  320TMC3    H1 4866   0.109   1.262  16.354 -0.3963  0.0091  0.5486
  320TMC3    H2 4867   4.599   1.273  15.980 -1.6915  0.3654  1.2991
  320TMC3    C7 4868   4.706   1.103  16.173  0.3396 -0.1266  0.6479
  320TMC3    C8 4869   4.653   1.528  15.942 -0.3853 -0.5304  0.1540
  320TMC3    O1 4870   4.663   1.044  16.073  0.3525 -0.5453 -0.6651
  320TMC3    O2 4871   4.714   1.632  15.936 -0.0960 -1.1328  0.1637
  321TMC3    C1 4872   0.643   1.825  16.823 -0.2293  0.2847  0.1416
  321TMC3    C2 4873   0.594   1.703  16.867  0.1902 -0.6781  0.3683
  321TMC3    C3 4874   0.601   1.684  17.002  0.8378 -0.1141  0.7427
  321TMC3    C4 4875   0.701   1.915  16.908 -0.1533 -0.0358  0.5700
  321TMC3    C5 4876   0.708   1.890  17.046  0.7155  0.0011  0.7392
  321TMC3    C6 4877   0.646   1.775  17.086 -0.0777 -0.7382  0.8157
  321TMC3     C 4878   0.607   1.875  16.688  0.7645 -0.2614 -0.9936
  321TMC3     O 4879   0.650   1.983  16.655 -0.3471  0.1321  0.3647
  321TMC3     H 4880   0.565   1.625  16.799 -0.4916  0.1039 -0.2416
  321TMC3    H1 4881   0.721   2.019  16.885 -0.9064 -0.3050 -1.3065
  321TMC3    H2 4882   0.637   1.762  17.193 -0.9047 -2.4895  0.5182
  321TMC3    C7 4883   0.841   1.910  17.104 -0.3110 -0.0653  0.2677
  321TMC3    C8 4884   0.661   1.553  17.030 -0.0830 -0.4670 -0.1152
  321TMC3    O1 4885   0.850   1.857  17.215 -0.1548 -0.7049  0.4123
  321TMC3    O2 4886   0.612   1.446  16.982 -0.2055  0.4982 -0.2162
  322MPD2     C 4887   3.747   3.444  13.421 -0.3719  0.4987 -0.8080
  322MPD2    C1 4888   3.791   3.367  13.521  0.4838 -0.0980 -0.4735
  322MPD2    C2 4889   3.820   3.237  13.494  0.0765 -0.7570  0.3363
  322MPD2    C3 4890   3.837   3.197  13.362  0.6718  0.4402  0.3200
  322MPD2    C4 4891   3.797   3.278  13.256  0.7739 -0.9612 -0.1778
  322MPD2    C5 4892   3.741   3.395  13.291 -0.3572 -0.9340  0.0029
  322MPD2     H 4893   3.851   3.167  13.570 -0.5491 -0.5790  0.7475
  322MPD2    H1 4894   3.796   3.245  13.153 -1.0280  1.5669 -0.9759
  322MPD2    H2 4895   3.724   3.545  13.450 -1.1578  0.1391 -0.1819
  322MPD2    H3 4896   3.709   3.459  13.210  1.4800 -1.7130 -1.3360
  322MPD2     N 4897   3.915   3.091  13.339  0.1050  0.0661 -0.1597
  322MPD2    H5 4898   3.943   3.036  13.420 -0.6691  2.5481  1.8147
  322MPD2    N1 4899   3.802   3.431  13.645 -0.4672  0.1664 -0.0795
  322MPD2    H7 4900   3.772   3.528  13.648 -0.4785  0.1206  1.7614
  323TMC3    C1 4901   3.870   3.469  13.872 -0.3559 -0.3143 -0.6770
  323TMC3    C2 4902   3.957   3.575  13.850 -0.4430 -0.1582  0.1220
  323TMC3    C3 4903   4.020   3.629  13.959 -0.0771 -0.3669  0.1029
  323TMC3    C4 4904   3.870   3.406  13.990 -0.2261 -0.5409 -0.7118
  323TMC3    C5 4905   3.938   3.460  14.101 -0.0642 -0.0446  0.2876
  323TMC3    C6 4906   4.011   3.577  14.087 -0.2865 -0.8156 -0.4957
  323TMC3     C 4907   3.847   3.378  13.761 -0.1660  0.6638 -0.0973
  323TMC3     O 4908   3.868   3.260  13.783 -0.6429  1.1036 -0.0789
  323TMC3     H 4909   3.990   3.609  13.753 -1.4626 -2.6395 -1.1026
  323TMC3    H1 4910   3.814   3.314  14.002 -0.2256 -0.3832  0.4769
  323TMC3    H2 4911   4.070   3.619  14.167  0.5051 -2.2602 -0.3223
  323TMC3    C7 4912   3.995   3.359  14.195 -0.2586  0.8186  0.0181
  323TMC3    C8 4913   4.158   3.669  13.932 -0.4452 -0.8661  0.2934
  323TMC3    O1 4914   3.949   3.245  14.198 -0.3345 -0.1852  0.1629
  323TMC3    O2 4915   4.246   3.643  14.013 -0.5428 -0.1385  0.3944
  324MPD2     C 4916   0.450   4.165  14.519  0.2824 -0.2673 -0.2122
  324MPD2    C1 4917   0.509   4.110  14.405  0.3008 -0.4755  0.4339
  324MPD2    C2 4918   0.464   4.161  14.284 -0.2219  0.4326  0.3587
  324MPD2    C3 4919   0.380   4.273  14.287  0.0708  0.1075 -0.8301
  324MPD2    C4 4920   0.331   4.330  14.401  0.1980 -0.0208  0.0802
  324MPD2    C5 4921   0.380   4.282  14.520 -0.3078 -0.5451  0.2186
  324MPD2     H 4922   0.489   4.123  14.186  0.5530 -2.0525  1.5336
  324MPD2    H1 4923   0.263   4.414  14.396 -0.6879 -0.6748  0.9920
  324MPD2    H2 4924   0.478   4.123  14.615 -1.2058  0.0291  0.3591
  324MPD2    H3 4925   0.341   4.325  14.612  0.1935  0.9605 -0.2764
  324MPD2     N 4926   0.325   4.311  14.164  0.1950 -0.0492 -0.2815
  324MPD2    H5 4927   0.329   4.247  14.086 -0.6094 -0.3662 -0.0595
  324MPD2    N1 4928   0.599   4.001  14.401  0.0425  0.0428 -0.1656
  324MPD2    H7 4929   0.623   3.958  14.312  2.6899 -0.0433  0.5849
  325TMC3    C1 4930   0.215   4.442  13.998  0.6455  0.3170  0.1210
  325TMC3    C2 4931   0.168   4.331  13.934 -0.3415  0.6264  0.0284
  325TMC3    C3 4932   0.150   4.340  13.800  0.3864  0.5265 -0.9285
  325TMC3    C4 4933   0.225   4.566  13.942  0.6240  0.2524  0.2369
  325TMC3    C5 4934   0.200   4.567  13.805  0.1806  0.7514  0.5426
  325TMC3    C6 4935   0.180   4.451  13.732 -0.5154  0.3415  0.1993
  325TMC3     C 4936   0.253   4.432  14.134  0.2015 -0.7362 -1.1857
  325TMC3     O 4937   0.229   4.532  14.202 -0.4349  0.0656  0.3490
  325TMC3     H 4938   0.145   4.244  13.995 -1.0172 -1.1098 -2.7091
  325TMC3    H1 4939   0.252   4.651  14.003 -1.6882  0.9792  0.2565
  325TMC3    H2 4940   0.151   4.455  13.628 -2.0088  0.7924  0.6346
  325TMC3    C7 4941   0.174   4.691  13.738 -0.4218 -0.3037  0.1167
  325TMC3    C8 4942   0.124   4.218  13.724 -0.5608  0.1308  0.5352
  325TMC3    O1 4943   0.211   4.698  13.619 -0.2923 -0.3096 -0.1886
  325TMC3    O2 4944   0.203   4.125  13.745  0.0461  0.3073  0.2362
  326MPD2     C 4945   2.055   1.300  11.347  0.2595 -0.6159  0.6429
  326MPD2    C1 4946   2.053   1.170  11.295  0.4389  0.3413 -0.5177
  326MPD2    C2 4947   2.172   1.100  11.280 -0.0500  0.1139  0.1961
  326MPD2    C3 4948   2.294   1.160  11.302  0.2103 -0.0649 -0.5444
  326MPD2    C4 4949   2.287   1.285  11.360  0.3045 -1.2112 -0.3507
  326MPD2    C5 4950   2.174   1.356  11.388 -0.2200 -0.2177 -0.3282
  326MPD2     H 4951   2.161   1.006  11.227  0.9402 -0.5290  1.1479
  326MPD2    H1 4952   2.383   1.327  11.388 -0.5091  0.7269 -0.4328
  326MPD2    H2 4953   1.958   1.341  11.375 -1.1477 -2.0494 -2.1384
  326MPD2    H3 4954   2.175   1.447  11.446  1.1322 -1.9881  2.4019
  326MPD2     N 4955   2.419   1.095  11.279 -0.0259 -0.3745  0.2887
  326MPD2    H5 4956   2.503   1.144  11.306  0.4730 -2.1524  1.9248
  326MPD2    N1 4957   1.932   1.122  11.243 -0.2948 -0.2140  0.4821
  326MPD2    H7 4958   1.939   1.025  11.213 -1.2735  0.4818 -1.9840
  327TMC3    C1 4959   1.703   1.109  11.171 -0.2709  0.3622 -0.2168
  327TMC3    C2 4960   1.605   1.173  11.106 -0.0577 -0.2581  0.4164
  327TMC3    C3 4961   1.503   1.102  11.030  0.2777 -0.4726  0.3716
  327TMC3    C4 4962   1.719   0.973  11.151  0.0996  0.1021  0.6287
  327TMC3    C5 4963   1.628   0.904  11.069 -0.1599  0.0343 -0.2051
  327TMC3    C6 4964   1.524   0.966  11.014  0.5287 -0.1292 -0.6634
  327TMC3     C 4965   1.810   1.188  11.227 -0.2209 -0.4982  0.0863
  327TMC3     O 4966   1.780   1.310  11.235  0.3792 -0.1706  0.2931
  327TMC3     H 4967   1.590   1.279  11.124 -0.8777 -0.0815 -1.2945
  327TMC3    H1 4968   1.815   0.929  11.179  0.7695  0.6751 -0.7905
  327TMC3    H2 4969   1.469   0.908  10.940  0.1526 -1.4335  0.6486
  327TMC3    C7 4970   1.673   0.780  11.025  1.4902 -0.1440 -0.0648
  327TMC3    C8 4971   1.411   1.177  10.947  0.0096 -0.0413  0.2446
  327TMC3    O1 4972   1.664   0.761  10.904 -0.2700  0.1769  0.3446
  327TMC3    O2 4973   1.441   1.290  10.917  0.0015  0.4086 -0.7900
  328MPD2     C 4974   4.585   0.490  17.046 -0.3698  0.2440  0.4838
  328MPD2    C1 4975   4.552   0.361  17.015 -0.2773 -0.8399 -0.4324
  328MPD2    C2 4976   4.467   0.345  16.904  0.1858  0.6904 -0.4284
  328MPD2    C3 4977   4.436   0.453  16.825 -0.5374  0.2813 -0.8454
  328MPD2    C4 4978   4.481   0.579  16.854 -0.8256  0.2823 -0.4216
  328MPD2    C5 4979   4.545   0.598  16.974  0.6427 -0.6040  0.0591
  328MPD2     H 4980   4.409   0.253  16.894  2.6963 -1.0776  1.1371
  328MPD2    H1 4981   4.459   0.667  16.795  1.9681  0.3269 -1.3957
  328MPD2    H2 4982   4.636   0.510  17.140 -0.6696 -0.9313  0.8978
  328MPD2    H3 4983   4.580   0.699  16.994 -0.2311 -0.5177  1.1085
  328MPD2     N 4984   4.340   0.448  16.722  0.0575 -0.2340  0.0700
  328MPD2    H5 4985   4.302   0.538  16.696 -0.4317 -0.8156 -1.2023
  328MPD2    N1 4986   4.593   0.258  17.094 -0.0107  0.1087 -0.4326
  328MPD2    H7 4987   4.657   0.280  17.169  0.3063 -3.3481  0.2984
  329TMC3    C1 4988   4.600   0.039  17.187  0.1369  1.0966  0.2895
  329TMC3    C2 4989   4.620   0.092  17.311 -0.2595 -0.5035 -0.0948
  329TMC3    C3 4990   4.689   0.001  17.392 -0.5415  0.0431 -0.7663
  329TMC3    C4 4991   4.633   4.651  17.139  0.0187  0.0417 -0.8583
  329TMC3    C5 4992   4.707   4.575  17.227 -0.3448 -0.0125 -1.1018
  329TMC3    C6 4993   4.728   4.611  17.359  0.4943  0.1161 -0.4549
  329TMC3     C 4994   4.542   0.128  17.086 -1.2202  0.7726 -0.4587
  329TMC3     O 4995   4.471   0.072  17.005 -0.5536  0.1042  0.0871
  329TMC3     H 4996   4.573   0.188  17.332  3.0037  1.2445 -0.6796
  329TMC3    H1 4997   4.621   4.627  17.034 -1.0302 -2.7499 -0.0962
  329TMC3    H2 4998   0.056   4.561  17.432 -2.3773 -2.0641  0.5255
  329TMC3    C7 4999   0.046   4.460  17.186 -0.2842  0.3833  0.2112
  329TMC3    C8 5000   4.723   0.044  17.521 -0.4490  1.1816 -0.1923
  329TMC3    O1 5001   0.073   4.457  17.068 -0.5300  0.0520 -0.1343
  329TMC3    O2 5002   0.098   0.012  17.568 -0.2557  0.6966 -0.1205
  330TMC3    C1 5003   2.690   0.391   9.594  0.0966 -0.0134  0.1241
  330TMC3    C2 5004   2.626   0.272   9.554 -0.0438  0.0394  0.1445
  330TMC3    C3 5005   2.655   0.152   9.620  0.5015 -1.0259  0.2841
  330TMC3    C4 5006   2.775   0.386   9.699  0.4046  0.1515  0.6167
  330TMC3    C5 5007   2.801   0.265   9.757 -0.4438 -0.2852  0.4791
  330TMC3    C6 5008   2.743   0.145   9.721 -0.0990 -0.2961 -0.2044
  330TMC3     C 5009   2.626   0.521   9.565 -0.2162  0.1421 -0.1976
  330TMC3     O 5010   2.598   0.594   9.657 -0.7448  0.0413 -0.2888
  330TMC3     H 5011   2.555   0.276   9.472 -2.4096  2.0685  2.3115
  330TMC3    H1 5012   2.816   0.481   9.732 -0.1117  0.4182  0.4996
  330TMC3    H2 5013   2.748   0.057   9.784  1.6798  0.4121  0.6240
  330TMC3    C7 5014   2.897   0.274   9.861 -0.5502  0.0416 -0.3211
  330TMC3    C8 5015   2.563   0.039   9.595 -0.0789  0.8796 -0.4389
  330TMC3    O1 5016   2.928   0.383   9.900 -0.2393  0.3906 -0.1024
  330TMC3    O2 5017   2.487   0.055   9.503  0.2010  0.7935  0.1176
  331MPD2     C 5018   0.916   4.133  12.776 -0.0374 -0.8210 -0.0146
  331MPD2    C1 5019   0.875   4.124  12.646 -0.8437  0.6592  0.1803
  331MPD2    C2 5020   0.801   4.011  12.607 -0.0416 -0.3318  0.3450
  331MPD2    C3 5021   0.768   3.906  12.696  0.4345 -0.8336  0.8747
  331MPD2    C4 5022   0.809   3.926  12.827  0.0562  0.2964 -0.6095
  331MPD2    C5 5023   0.878   4.036  12.867 -0.2634 -0.2114 -0.7961
  331MPD2     H 5024   0.777   4.004  12.501  3.1033  0.1062 -0.4224
  331MPD2    H1 5025   0.803   3.849  12.903  3.4515  1.0782  0.4426
  331MPD2    H2 5026   0.975   4.217  12.810  0.1370 -1.7473  1.9467
  331MPD2    H3 5027   0.925   4.054  12.963  0.3081  1.1665 -1.3249
  331MPD2     N 5028   0.713   3.789  12.647  0.4780 -0.7323 -0.0373
  331MPD2    H5 5029   0.701   3.776  12.547 -0.0511  0.2407 -0.0962
  331MPD2    N1 5030   0.922   4.228  12.557 -0.6954  0.4663 -0.4824
  331MPD2    H7 5031   0.987   4.294  12.599  1.5636 -1.2247 -1.3276
  332TMC3    C1 5032   0.666   3.555  12.618 -0.2561  0.3117 -0.6834
  332TMC3    C2 5033   0.565   3.567  12.532 -0.7256  0.2632  0.7408
  332TMC3    C3 5034   0.515   3.457  12.472 -0.3502  0.8131 -0.0727
  332TMC3    C4 5035   0.712   3.430  12.657 -0.5446  0.3885  0.2255
  332TMC3    C5 5036   0.664   3.321  12.592  0.5065 -0.1111 -0.1947
  332TMC3    C6 5037   0.562   3.331  12.502 -0.6475  0.9417 -0.0169
  332TMC3     C 5038   0.690   3.666  12.711  0.6211  0.2428 -0.6686
  332TMC3     O 5039   0.721   3.642  12.828 -0.0960 -0.4601  0.2913
  332TMC3     H 5040   0.517   3.660  12.505 -1.8241 -0.5905 -0.2559
  332TMC3    H1 5041   0.786   3.419  12.736 -1.7962 -2.6229  0.9708
  332TMC3    H2 5042   0.515   3.248  12.450  0.8046 -0.4784  0.9199
  332TMC3    C7 5043   0.756   3.211  12.568 -0.4303  0.4599  0.8735
  332TMC3    C8 5044   0.522   3.474  12.322  0.6168 -0.1066 -0.3753
  332TMC3    O1 5045   0.711   3.100  12.534  0.2914 -0.0975  0.5625
  332TMC3    O2 5046   0.583   3.395  12.253 -0.5934 -0.2955 -0.1963
  333MPD2     C 5047   0.808   4.064  10.968  1.0092 -0.2735 -0.3586
  333MPD2    C1 5048   0.915   3.976  10.981  0.0328  0.5463  0.0507
  333MPD2    C2 5049   0.892   3.848  11.025  0.0309 -0.7667  0.4944
  333MPD2    C3 5050   0.773   3.807  11.070 -0.2105  0.5009 -0.2426
  333MPD2    C4 5051   0.664   3.896  11.063 -0.3669 -0.4907 -0.2415
  333MPD2    C5 5052   0.686   4.020  11.009  0.8038  1.0600  0.8503
  333MPD2     H 5053   0.974   3.780  11.046  0.1076 -1.4336 -2.0216
  333MPD2    H1 5054   0.562   3.859  11.068 -1.0363  1.6600  1.7916
  333MPD2    H2 5055   0.813   4.166  10.931 -0.4427  0.4711  1.4990
  333MPD2    H3 5056   0.599   4.079  10.982 -0.3411  0.2957  2.9349
  333MPD2     N 5057   0.774   3.670  11.116 -0.0837 -0.1954  0.0153
  333MPD2    H5 5058   0.857   3.612  11.105 -0.0074  0.1496 -1.1915
  333MPD2    N1 5059   1.037   4.019  10.926  0.0331 -0.6471  0.6476
  333MPD2    H7 5060   1.042   4.101  10.867 -0.1503 -0.5647  0.7456
  334TMC3    C1 5061   1.260   4.020  10.870 -0.1520 -0.7982 -0.3390
  334TMC3    C2 5062   1.362   3.939  10.834  0.5849 -0.4480  0.2509
  334TMC3    C3 5063   1.442   3.966  10.733 -0.0551  0.0665 -0.5856
  334TMC3    C4 5064   1.233   4.128  10.796  0.3752 -0.0437 -0.3743
  334TMC3    C5 5065   1.317   4.154  10.686 -0.5785  0.8030 -0.0247
  334TMC3    C6 5066   1.424   4.080  10.662 -0.2409  1.0926 -0.4250
  334TMC3     C 5067   1.156   3.959  10.949 -0.5054 -0.7430 -0.7959
  334TMC3     O 5068   1.177   3.857  11.015 -0.9603 -0.1223  0.1135
  334TMC3     H 5069   1.367   3.846  10.890  2.1337 -0.3185  0.3147
  334TMC3    H1 5070   1.157   4.199  10.827  1.1650  0.5962  0.1010
  334TMC3    H2 5071   1.474   4.108  10.571 -1.6494  0.9291 -1.2490
  334TMC3    C7 5072   1.306   4.286  10.618  0.0301 -0.4972 -0.0411
  334TMC3    C8 5073   1.544   3.874  10.693  0.1900 -0.2287  0.2033
  334TMC3    O1 5074   1.290   4.385  10.684 -0.3585 -0.7911  0.0335
  334TMC3    O2 5075   1.539   3.762  10.743  0.2544  0.8215  0.1275
  335TMC3    C1 5076   0.448   0.964  17.379 -0.5627  0.7644  0.2988
  335TMC3    C2 5077   0.346   0.869  17.396 -1.0988  0.0173  0.7930
  335TMC3    C3 5078   0.375   0.735  17.417 -0.1444 -0.6150  0.0708
  335TMC3    C4 5079   0.580   0.934  17.400  0.4886  0.5836 -0.4633
  335TMC3    C5 5080   0.600   0.800  17.414  1.0972  0.5060 -0.0092
  335TMC3    C6 5081   0.506   0.698  17.418  0.7233 -0.7931  0.2851
  335TMC3     C 5082   0.410   1.099  17.352 -0.2639  0.2115  0.6081
  335TMC3     O 5083   0.310   1.115  17.280  0.0002  0.1045 -0.2421
  335TMC3     H 5084   0.244   0.900  17.380  0.1862  3.3343 -1.0760
  335TMC3    H1 5085   0.655   1.003  17.364 -0.4408  0.9096 -1.7815
  335TMC3    H2 5086   0.550   0.602  17.443  1.2317 -0.6054  0.1013
  335TMC3    C7 5087   0.737   0.757  17.423  0.0543  0.1951  0.4607
  335TMC3    C8 5088   0.279   0.653  17.352  0.3252  0.5176 -0.8155
  335TMC3    O1 5089   0.758   0.634  17.420 -0.0144 -0.0987 -1.1250
  335TMC3    O2 5090   0.201   0.710  17.277 -0.1375 -0.1291 -0.3029
  336MPD2     C 5091   0.418   2.891  16.073  0.5896 -0.2902  0.3357
  336MPD2    C1 5092   0.337   2.872  15.963  0.0378 -0.5457 -0.2602
  336MPD2    C2 5093   0.329   2.735  15.920 -0.1363  0.1108  0.4833
  336MPD2    C3 5094   0.380   2.630  15.990  0.6015  1.6434 -0.1469
  336MPD2    C4 5095   0.450   2.656  16.100  0.3894  0.1347 -0.5648
  336MPD2    C5 5096   0.462   2.784  16.139  0.2617 -0.0302  0.0927
  336MPD2     H 5097   0.277   2.723  15.826  0.8491 -1.7448  0.1703
  336MPD2    H1 5098   0.497   2.577  16.157 -0.5485 -0.1872 -0.2378
  336MPD2    H2 5099   0.459   2.984  16.112  0.5059 -0.1777  0.1540
  336MPD2    H3 5100   0.517   2.805  16.230 -1.4990  2.0437  0.6987
  336MPD2     N 5101   0.374   2.493  15.956 -0.1610 -0.5315 -0.1260
  336MPD2    H5 5102   0.401   2.421  16.022  0.6151 -1.5254 -1.5395
  336MPD2    N1 5103   0.275   2.975  15.887 -0.2792  0.1194 -0.4836
  336MPD2    H7 5104   0.212   2.946  15.813 -0.3418  0.9579 -0.7652
  337TMC3    C1 5105   0.234   3.189  15.805  0.2965 -0.6084 -0.4027
  337TMC3    C2 5106   0.094   3.170  15.794  0.3609 -0.3044 -0.0203
  337TMC3    C3 5107   0.012   3.277  15.775  0.0550  0.3474  0.6935
  337TMC3    C4 5108   0.283   3.317  15.802  0.0283  0.3072  0.2557
  337TMC3    C5 5109   0.199   3.419  15.773 -0.5264 -0.0841  0.1086
  337TMC3    C6 5110   0.062   3.405  15.766  0.0038 -0.1115 -0.6342
  337TMC3     C 5111   0.310   3.108  15.898 -0.2339  0.8717 -0.6200
  337TMC3     O 5112   0.401   3.160  15.961  0.5037  0.1171  0.3918
  337TMC3     H 5113   0.047   3.073  15.805  1.3282 -0.7541  0.2091
  337TMC3    H1 5114   0.389   3.335  15.797  0.4449 -1.9816  0.7579
  337TMC3    H2 5115   4.732   3.492  15.768  2.1467  1.4582  0.4171
  337TMC3    C7 5116   0.262   3.546  15.763 -0.1134 -0.6511  0.1494
  337TMC3    C8 5117   4.603   3.259  15.757  0.1163  0.2320 -0.3174
  337TMC3    O1 5118   0.375   3.562  15.801  0.3858  0.3641 -0.0285
  337TMC3    O2 5119   4.556   3.184  15.840 -0.2292  0.4256 -0.0579
  338MPD2     C 5120   0.467   2.021   1.098 -0.6838  1.1730 -0.2637
  338MPD2    C1 5121   0.496   2.106   0.992  0.0863  0.2483  0.1594
  338MPD2    C2 5122   0.399   2.190   0.940  0.2836 -0.2578  0.6874
  338MPD2    C3 5123   0.268   2.192   0.976  0.0312 -0.0413 -0.5716
  338MPD2    C4 5124   0.239   2.108   1.089 -0.2773 -0.3690  0.4738
  338MPD2    C5 5125   0.339   2.025   1.146  0.3463  0.5668  0.0617
  338MPD2     H 5126   0.426   2.253   0.855 -1.1869 -3.9186 -2.5027
  338MPD2    H1 5127   0.140   2.099   1.132  0.4437  2.0524  2.6637
  338MPD2    H2 5128   0.544   1.954   1.135  1.3446  2.2874 -2.4324
  338MPD2    H3 5129   0.323   1.966   1.235  0.8157  0.2825 -0.0431
  338MPD2     N 5130   0.171   2.276   0.919  0.0194 -0.0796  0.5644
  338MPD2    H5 5131   0.207   2.319   0.834 -0.1044  1.1375  1.1172
  338MPD2    N1 5132   0.622   2.113   0.929  0.1330  0.5669  0.0094
  338MPD2    H7 5133   0.639   2.188   0.862 -0.3846 -0.2946 -1.0900
  339TMC3    C1 5134   4.699   2.361   0.849 -0.1771 -0.5056 -0.1281
  339TMC3    C2 5135   4.559   2.346   0.857 -0.5674  0.1837 -0.1015
  339TMC3    C3 5136   4.482   2.417   0.774 -0.3786 -0.8650 -0.2343
  339TMC3    C4 5137   0.018   2.436   0.750 -0.3801  0.3609 -0.8331
  339TMC3    C5 5138   4.671   2.487   0.652  1.0740  0.5659 -0.4762
  339TMC3    C6 5139   4.535   2.483   0.663 -0.1983  0.1499  0.4426
  339TMC3     C 5140   0.038   2.292   0.950  0.0782  0.2672 -0.0599
  339TMC3     O 5141   4.712   2.242   1.041 -0.3382  0.3818  0.0669
  339TMC3     H 5142   4.519   2.288   0.939  0.1919  0.7363  0.6716
  339TMC3    H1 5143   0.125   2.450   0.741 -0.2726  0.1192  0.0320
  339TMC3    H2 5144   4.473   2.533   0.589 -1.6276  0.1397  1.6382
  339TMC3    C7 5145   4.729   2.540   0.528 -0.4762 -0.8101  0.3546
  339TMC3    C8 5146   4.340   2.419   0.793 -0.2777 -0.2810 -0.0960
  339TMC3    O1 5147   4.657   2.619   0.462  0.5513  0.5557  0.2052
  339TMC3    O2 5148   4.283   2.512   0.742 -0.4098 -0.3311 -0.1035
  340MPD2     C 5149   1.211   0.057  10.013  0.3466 -0.4740 -0.5178
  340MPD2    C1 5150   1.275   0.090   9.899  0.1551  0.3346  0.2206
  340MPD2    C2 5151   1.363   0.195   9.905 -0.6523  0.2356 -0.0170
  340MPD2    C3 5152   1.395   0.255  10.024  1.0259  0.0639 -0.9207
  340MPD2    C4 5153   1.325   0.222  10.133  0.1237  0.2615  0.0891
  340MPD2    C5 5154   1.226   0.135  10.125  0.4576  0.0657 -0.4948
  340MPD2     H 5155   1.407   0.231   9.813 -0.9908 -1.1998 -0.7387
  340MPD2    H1 5156   1.348   0.267  10.229  0.5283 -2.5676  1.3123
  340MPD2    H2 5157   1.140   4.710  10.023 -0.6900  0.6492  1.3957
  340MPD2    H3 5158   1.164   0.110  10.210  0.3416  1.5981 -0.1284
  340MPD2     N 5159   1.505   0.340  10.041 -0.3034 -0.4936 -0.2053
  340MPD2    H5 5160   1.492   0.416  10.106 -2.1957 -1.4668  0.5572
  340MPD2    N1 5161   1.249   0.017   9.780 -0.0256  0.5212  0.4182
  340MPD2    H7 5162   1.185   4.674   9.791  0.8176 -0.2488 -0.1289
  341TMC3    C1 5163   1.284   4.644   9.575 -0.0486 -0.2035  0.3961
  341TMC3    C2 5164   1.150   4.628   9.563 -0.1664  0.8379  0.0861
  341TMC3    C3 5165   1.100   4.563   9.453  0.3519 -0.1686  0.4517
  341TMC3    C4 5166   1.374   4.610   9.478  0.1947  0.5871  0.4169
  341TMC3    C5 5167   1.317   4.539   9.368 -0.6964  0.0534  0.0789
  341TMC3    C6 5168   1.184   4.500   9.363 -0.6225  0.9574 -0.5223
  341TMC3     C 5169   1.335   0.006   9.669 -0.2590 -0.2903 -0.7278
  341TMC3     O 5170   1.439   0.066   9.655  0.4693  0.1084 -0.2964
  341TMC3     H 5171   1.076   4.674   9.628  1.4247  0.2636  2.3088
  341TMC3    H1 5172   1.481   4.624   9.481  0.3544 -0.7448  0.8769
  341TMC3    H2 5173   1.148   4.430   9.288 -2.3650  1.8303 -0.4843
  341TMC3    C7 5174   1.407   4.506   9.256 -0.5828  0.3360 -0.6710
  341TMC3    C8 5175   0.959   4.521   9.467 -0.7619  0.3909 -0.2535
  341TMC3    O1 5176   1.520   4.544   9.271  0.3927 -0.3332 -0.1783
  341TMC3    O2 5177   0.887   4.560   9.558 -0.2343 -0.6411 -0.0245
  342MPD2     C 5178   3.525   2.996  17.692  0.4453  0.0798  0.3315
  342MPD2    C1 5179   3.606   3.048  17.588  0.4402  0.1540 -0.1149
  342MPD2    C2 5180   3.637   3.183  17.590 -0.8760 -0.4020 -0.3192
  342MPD2    C3 5181   3.586   3.264  17.690 -0.3660 -0.0088 -0.4152
  342MPD2    C4 5182   3.509   3.214   0.057  0.3351 -0.0897 -0.4292
  342MPD2    C5 5183   3.485   3.078   0.057 -0.2689  0.1162 -0.0630
  342MPD2     H 5184   3.699   3.226  17.512 -3.4387  0.0390 -2.1057
  342MPD2    H1 5185   3.454   3.279   0.125 -0.0634 -0.0171 -0.8189
  342MPD2    H2 5186   3.508   2.891  17.712 -1.8840  0.4900  0.5473
  342MPD2    H3 5187   3.413   3.035   0.127 -0.8173 -1.8459 -1.8228
  342MPD2     N 5188   3.606   3.404  17.688 -0.4044 -0.1749  0.4665
  342MPD2    H5 5189   3.557   3.448   0.026 -0.9061  3.1379 -1.7118
  342MPD2    N1 5190   3.658   2.966  17.484  0.1753 -0.2231  0.5361
  342MPD2    H7 5191   3.712   3.016  17.415  0.0095 -1.5816 -0.5758
  343TMC3    C1 5192   3.728   2.779  17.360 -0.2784  0.1915 -0.2239
  343TMC3    C2 5193   3.780   2.868  17.268  0.0074  0.3009 -1.0101
  343TMC3    C3 5194   3.803   2.827  17.136  0.1633  0.2879 -0.4706
  343TMC3    C4 5195   3.671   2.664  17.323  0.3727 -0.3696  0.3874
  343TMC3    C5 5196   3.688   2.624  17.194  0.9664  0.2956 -0.1922
  343TMC3    C6 5197   3.750   2.709  17.099  0.0539  0.5182  0.3517
  343TMC3     C 5198   3.658   2.833  17.475 -0.4221 -0.2702 -0.3734
  343TMC3     O 5199   3.589   2.756  17.541 -0.1870  0.1263  0.1190
  343TMC3     H 5200   3.833   2.954  17.307 -1.6928  0.8948 -0.0347
  343TMC3    H1 5201   3.620   2.595  17.390 -0.0009 -0.8471 -0.3956
  343TMC3    H2 5202   3.761   2.661  17.003 -1.7986 -0.0689  0.4193
  343TMC3    C7 5203   3.665   2.488  17.154 -0.6086 -0.3495  0.1659
  343TMC3    C8 5204   3.905   2.886  17.049 -0.3977  0.9249  0.0579
  343TMC3    O1 5205   3.619   2.477  17.040  0.3690 -0.2352 -0.0420
  343TMC3    O2 5206   3.973   2.975  17.101  0.1656 -0.3115 -0.1726
  344MPD2     C 5207   0.034   2.972  10.895  0.1913 -0.6999 -0.3976
  344MPD2    C1 5208   4.667   2.954  10.802 -0.1095  0.5227  0.3993
  344MPD2    C2 5209   4.685   3.022  10.684 -0.4892 -0.2717  0.3783
  344MPD2    C3 5210   0.046   3.116  10.660  0.2690  0.0479  0.5956
  344MPD2    C4 5211   0.146   3.128  10.751  0.7046  0.2252  0.5835
  344MPD2    C5 5212   0.140   3.055  10.861 -0.0417 -0.1235  0.3214
  344MPD2     H 5213   4.613   3.013  10.604  1.5898 -3.2569 -1.1476
  344MPD2    H1 5214   0.227   3.197  10.729  2.0004 -1.6156 -0.3687
  344MPD2    H2 5215   0.042   2.923  10.992 -0.2129  2.5711  1.3228
  344MPD2    H3 5216   0.217   3.066  10.936  0.4444 -0.5803 -0.1131
  344MPD2     N 5217   0.058   3.198  10.547 -0.1700 -0.0023 -0.1843
  344MPD2    H5 5218   0.133   3.266  10.549 -0.1787 -0.0301  1.7601
  344MPD2    N1 5219   4.557   2.869  10.820 -0.2797  0.1448  0.5761
  344MPD2    H7 5220   4.496   2.859  10.739 -0.5687 -1.2465  0.9714
  345TMC3    C1 5221   4.735   3.327  10.354  0.5455  0.6125 -0.6756
  345TMC3    C2 5222   0.124   3.391  10.359  0.2561 -0.0554  0.6784
  345TMC3    C3 5223   0.145   3.499  10.287  0.4405 -0.5931  0.1787
  345TMC3    C4 5224   4.634   3.380  10.283  0.5595  0.0905  0.0603
  345TMC3    C5 5225   4.662   3.500  10.211  0.3270 -0.1880 -0.5194
  345TMC3    C6 5226   0.049   3.560  10.210 -0.5557  0.1892 -0.3839
  345TMC3     C 5227   4.708   3.205  10.437  0.0547 -0.3576 -0.2251
  345TMC3     O 5228   4.606   3.142  10.411  0.4029 -0.2616  0.4597
  345TMC3     H 5229   0.198   3.347  10.425 -2.1422  2.9580  5.3565
  345TMC3    H1 5230   4.535   3.338  10.293  0.9855 -0.6736  1.1232
  345TMC3    H2 5231   0.065   3.664  10.184 -1.3987  0.2626 -0.6123
  345TMC3    C7 5232   4.546   3.582  10.177 -0.0891 -0.3960  0.2365
  345TMC3    C8 5233   0.262   3.585  10.319 -0.1048 -0.0498 -0.3606
  345TMC3    O1 5234   4.570   3.695  10.148  0.6429  0.0368 -0.0797
  345TMC3    O2 5235   0.248   3.707  10.308  0.7279  0.6881 -0.3202
  346MPD2     C 5236   4.479   4.520  13.934  1.4056  0.5059  1.4896
  346MPD2    C1 5237   4.458   4.639  13.862 -0.2863  0.1873  0.6318
  346MPD2    C2 5238   4.404   0.014  13.922 -0.2187 -0.1687  0.6366
  346MPD2    C3 5239   4.366   0.007  14.053  0.7158 -0.1466  0.1853
  346MPD2    C4 5240   4.376   4.624  14.133  0.3813  0.4375  0.5828
  346MPD2    C5 5241   4.432   4.521  14.067 -0.4970  0.4515  0.0363
  346MPD2     H 5242   4.389   0.104  13.863 -2.5341 -0.3034  1.0227
  346MPD2    H1 5243   4.337   4.617  14.234 -1.9131  0.7553 -0.2867
  346MPD2    H2 5244   4.525   4.432  13.892 -0.8413 -0.4232  0.9848
  346MPD2    H3 5245   4.443   4.430  14.124 -0.6978 -0.7935 -1.9275
  346MPD2     N 5246   4.327   0.131  14.108  0.5803 -0.6498  0.3092
  346MPD2    H5 5247   4.337   0.211  14.047 -2.6207 -1.6096 -1.4782
  346MPD2    N1 5248   4.488   4.658  13.727 -0.2368  0.3472  0.1594
  346MPD2    H7 5249   4.461   0.013  13.690  0.0695  0.2029 -0.4123
  347TMC3    C1 5250   4.298   0.297  14.278 -0.1259 -0.8195 -0.1678
  347TMC3    C2 5251   4.353   0.374  14.181  0.4757  0.2739 -0.2700
  347TMC3    C3 5252   4.483   0.421  14.195  0.7951 -0.2275  0.0276
  347TMC3    C4 5253   4.352   0.295  14.406  0.6509 -0.6035 -0.3106
  347TMC3    C5 5254   4.470   0.361  14.424  0.3071  0.3776 -1.0154
  347TMC3    C6 5255   4.540   0.414  14.316  0.2290 -0.3958 -0.2972
  347TMC3     C 5256   4.275   0.159  14.235 -0.6513  0.2990 -0.9232
  347TMC3     O 5257   4.239   0.078  14.318 -0.3378  0.1424  0.5661
  347TMC3     H 5258   4.305   0.388  14.085  0.6718  1.5316 -0.1865
  347TMC3    H1 5259   4.319   0.221  14.478  2.4729 -1.8882 -0.8007
  347TMC3    H2 5260   4.637   0.459  14.334  0.0262  0.8524 -2.2853
  347TMC3    C7 5261   4.559   0.283  14.512  0.3272  0.8248  0.2239
  347TMC3    C8 5262   4.579   0.361  14.106 -0.1513 -0.4597 -0.0057
  347TMC3    O1 5263   4.522   0.278  14.626  0.4196  0.2906 -0.0671
  347TMC3    O2 5264   4.663   0.289  14.159  0.2971 -0.1126  0.3224
  348MPD2     C 5265   3.692   0.072  11.945  0.3104  0.0703  0.3998
  348MPD2    C1 5266   3.645   0.055  11.814 -0.4823  0.2395 -0.0110
  348MPD2    C2 5267   3.549   0.138  11.764 -0.3819  0.5446 -0.2239
  348MPD2    C3 5268   3.485   0.231  11.845 -0.0143  0.6018  0.3510
  348MPD2    C4 5269   3.519   0.249  11.980  0.7717  0.7945 -0.3527
  348MPD2    C5 5270   3.628   0.170  12.020 -0.6169 -0.5225 -0.2365
  348MPD2     H 5271   3.503   0.128  11.666  3.7480 -1.2552 -1.9714
  348MPD2    H1 5272   3.477   0.329  12.041  0.6313  1.2675 -1.0653
  348MPD2    H2 5273   3.770   0.012  11.990 -0.0314 -0.4687  0.2805
  348MPD2    H3 5274   3.680   0.195  12.113 -1.6259  1.2686 -0.1512
  348MPD2     N 5275   3.370   0.290  11.784  0.1015  0.7413 -0.1063
  348MPD2    H5 5276   3.342   0.254  11.694 -2.2305 -1.3398  1.4439
  348MPD2    N1 5277   3.688   4.692  11.726  0.0112 -0.6343 -0.0562
  348MPD2    H7 5278   3.640   4.696  11.637  1.4757 -0.1006 -0.8351
  349TMC3    C1 5279   3.766   4.493  11.643 -0.4341 -0.2102 -0.0688
  349TMC3    C2 5280   3.834   4.378  11.663  0.2684 -0.8681 -0.1847
  349TMC3    C3 5281   3.797   4.269  11.594 -0.9511  0.0481  0.1371
  349TMC3    C4 5282   3.669   4.502  11.547  0.6072  0.1158 -0.4658
  349TMC3    C5 5283   3.648   4.395  11.468  0.6546 -0.1610  0.1251
  349TMC3    C6 5284   3.706   4.272  11.492 -0.5725 -0.3041  0.1741
  349TMC3     C 5285   3.771   4.587  11.754  0.5138  0.0493 -0.2595
  349TMC3     O 5286   3.843   4.566  11.849 -0.3469 -0.2819  0.3633
  349TMC3     H 5287   3.908   4.372  11.742  3.5442  0.8582 -3.1048
  349TMC3    H1 5288   3.596   4.583  11.539 -0.2175 -0.5642  0.1587
  349TMC3    H2 5289   3.668   4.181  11.448  0.6454  0.6115 -2.7272
  349TMC3    C7 5290   3.548   4.413  11.366 -0.0028  0.1636  0.3541
  349TMC3    C8 5291   3.814   4.151  11.678  0.3811  0.2189  0.5143
  349TMC3    O1 5292   3.473   4.324  11.346 -0.0686  0.2620  0.1590
  349TMC3    O2 5293   3.822   4.172  11.798 -0.2240  0.0514 -0.4596
  350MPD2     C 5294   1.551   2.489  10.411 -0.5375  0.0952  0.7540
  350MPD2    C1 5295   1.603   2.369  10.374 -0.7980  0.0106 -0.2459
  350MPD2    C2 5296   1.743   2.343  10.384 -0.2220  0.2750 -0.6047
  350MPD2    C3 5297   1.820   2.450  10.428 -0.0680 -0.9072 -0.2233
  350MPD2    C4 5298   1.765   2.576  10.458 -0.2593  0.3595 -0.3101
  350MPD2    C5 5299   1.629   2.593  10.454 -0.0290 -0.2034 -0.0631
  350MPD2     H 5300   1.783   2.244  10.366  1.7883  0.6446  1.9076
  350MPD2    H1 5301   1.826   2.663  10.479  2.8218 -1.9108  0.1205
  350MPD2    H2 5302   1.447   2.513  10.393 -0.9583 -2.5534 -0.4353
  350MPD2    H3 5303   1.586   2.688  10.484  2.2237  0.7770  0.0744
  350MPD2     N 5304   1.964   2.427  10.448  0.7140 -0.2006  0.3392
  350MPD2    H5 5305   1.999   2.336  10.418 -3.1032 -1.7377  0.6281
  350MPD2    N1 5306   1.532   2.267  10.311  0.1431  0.3716 -0.2191
  350MPD2    H7 5307   1.579   2.182  10.283 -0.7154 -0.5240  1.0578
  351TMC3    C1 5308   1.355   2.174  10.186  0.2175  0.2797 -0.0641
  351TMC3    C2 5309   1.444   2.137  10.087  0.0476  0.7121  0.4567
  351TMC3    C3 5310   1.394   2.072   9.980 -0.0152 -0.2403 -0.1254
  351TMC3    C4 5311   1.218   2.158  10.175 -0.2880 -0.4387 -0.7850
  351TMC3    C5 5312   1.173   2.102  10.057  0.4494  0.2313  0.7579
  351TMC3    C6 5313   1.260   2.062   9.959 -0.1202  0.4532 -0.6280
  351TMC3     C 5314   1.397   2.272  10.283 -0.7889  0.0976 -0.4018
  351TMC3     O 5315   1.313   2.349  10.330  0.1427 -0.4241  0.6273
  351TMC3     H 5316   1.543   2.180  10.089  0.5940 -0.4670 -2.1047
  351TMC3    H1 5317   1.156   2.193  10.256 -1.8011 -0.6564 -1.8558
  351TMC3    H2 5318   1.233   2.022   9.862  0.1397 -0.8255 -0.1662
  351TMC3    C7 5319   1.030   2.082  10.052  0.2909 -0.2622 -0.0898
  351TMC3    C8 5320   1.483   2.037   9.873  0.8687  1.1039 -0.2293
  351TMC3    O1 5321   0.966   2.075  10.158  0.0219 -0.7602  0.3304
  351TMC3    O2 5322   1.441   2.027   9.756 -0.0945  0.2011 -0.1483
  352MPD2     C 5323   1.252   4.420   0.997  0.9588 -1.1396  0.5003
  352MPD2    C1 5324   1.156   4.367   1.078 -0.1114  0.0079 -0.1193
  352MPD2    C2 5325   1.181   4.249   1.146  0.5555  0.7318 -0.1353
  352MPD2    C3 5326   1.303   4.177   1.146  0.5733  0.1651 -0.5312
  352MPD2    C4 5327   1.400   4.241   1.071 -0.0490  0.2518  0.1029
  352MPD2    C5 5328   1.377   4.357   0.999  0.1417  0.3732 -0.1873
  352MPD2     H 5329   1.101   4.211   1.208 -1.0545  0.2940 -2.4967
  352MPD2    H1 5330   1.501   4.201   1.064  0.4348  1.2686  1.2560
  352MPD2    H2 5331   1.228   4.509   0.940  2.0489 -0.1823  1.5327
  352MPD2    H3 5332   1.454   4.413   0.946  2.1793 -0.3148  2.0657
  352MPD2     N 5333   1.328   4.054   1.213 -0.0584 -0.6422  0.3063
  352MPD2    H5 5334   1.418   4.016   1.186 -1.2651 -2.2487 -1.4629
  352MPD2    N1 5335   1.025   4.426   1.071  0.5658  0.4872  0.1289
  352MPD2    H7 5336   1.009   4.506   1.010  1.2291  1.4496  1.2168
  353TMC3    C1 5337   1.268   3.842   1.271 -0.8659  0.1419 -0.2911
  353TMC3    C2 5338   1.399   3.810   1.267  0.1136  0.5308 -0.3241
  353TMC3    C3 5339   1.435   3.686   1.237  0.4286  0.0444  0.0672
  353TMC3    C4 5340   1.170   3.756   1.240  0.7120 -0.6633 -0.4878
  353TMC3    C5 5341   1.212   3.628   1.219  0.5834  0.4755 -0.5677
  353TMC3    C6 5342   1.342   3.589   1.206  0.0262 -0.0654  0.1480
  353TMC3     C 5343   1.229   3.975   1.274  1.2014  0.3627 -0.2861
  353TMC3     O 5344   1.113   4.010   1.297 -0.1834  0.7341  0.5404
  353TMC3     H 5345   1.479   3.876   1.298 -0.3206  0.6865  0.4498
  353TMC3    H1 5346   1.067   3.789   1.235  0.9634 -0.0042 -1.3203
  353TMC3    H2 5347   1.366   3.483   1.202  0.8213  0.1259 -0.1474
  353TMC3    C7 5348   1.119   3.530   1.163 -0.1425 -0.8438  0.1529
  353TMC3    C8 5349   1.575   3.654   1.217  0.0505  0.1261  0.6050
  353TMC3    O1 5350   1.154   3.460   1.069 -0.6381  0.0237  0.0343
  353TMC3    O2 5351   1.654   3.747   1.242 -0.3205  0.1642 -0.4206
  354TMC3    C1 5352   2.072   1.022  13.681 -0.6140 -0.2403  0.4953
  354TMC3    C2 5353   2.134   1.146  13.673 -0.2941  0.1077  0.4141
  354TMC3    C3 5354   2.143   1.192  13.543  0.4863  0.5634  0.3203
  354TMC3    C4 5355   2.027   0.941  13.577  0.9847 -0.1055  0.2001
  354TMC3    C5 5356   2.060   0.991  13.455 -0.6414 -0.3715  0.5915
  354TMC3    C6 5357   2.107   1.121  13.432 -0.3379  0.0046 -1.1541
  354TMC3     C 5358   2.035   0.969  13.809 -0.1118  0.0420 -0.0356
  354TMC3     O 5359   2.114   0.956  13.905  0.2230 -0.8879 -0.3316
  354TMC3     H 5360   2.157   1.202  13.764 -2.0200  2.1072 -0.3892
  354TMC3    H1 5361   2.010   0.835  13.593  2.9922 -0.4071  0.2667
  354TMC3    H2 5362   2.097   1.161  13.332  0.9577  0.9524 -0.8996
  354TMC3    C7 5363   2.062   0.903  13.344 -0.0548  0.6951 -0.1669
  354TMC3    C8 5364   2.171   1.330  13.513 -0.6961 -0.2911  0.1889
  354TMC3    O1 5365   1.967   0.831  13.331 -0.3842  0.9848  0.3114
  354TMC3    O2 5366   2.105   1.377  13.423 -0.0424 -0.2072  0.1234
  355MPD2     C 5367   2.386   1.923  11.934 -0.0123 -0.5008  0.3555
  355MPD2    C1 5368   2.472   1.902  11.829 -0.6759  0.9805  0.3655
  355MPD2    C2 5369   2.607   1.882  11.853 -0.6739 -0.2823  0.3118
  355MPD2    C3 5370   2.655   1.877  11.984  0.1103  0.8173  1.1168
  355MPD2    C4 5371   2.569   1.918  12.086 -0.5990 -1.0291  0.5195
  355MPD2    C5 5372   2.437   1.936  12.058  0.0051 -0.1594 -0.4981
  355MPD2     H 5373   2.665   1.852  11.767 -0.3957  1.0160  0.0460
  355MPD2    H1 5374   2.603   1.928  12.188 -0.9886  1.6343  0.3945
  355MPD2    H2 5375   2.281   1.930  11.906 -0.1235  0.3117  0.9508
  355MPD2    H3 5376   2.369   1.975  12.133 -0.3056  1.5531 -1.6635
  355MPD2     N 5377   2.796   1.854  12.010 -0.3153  0.4706  0.1403
  355MPD2    H5 5378   2.834   1.882  12.100  1.6530 -1.1602 -0.1829
  355MPD2    N1 5379   2.408   1.888  11.705  0.2906  0.3270 -0.2113
  355MPD2    H7 5380   2.309   1.866  11.711  0.6242 -1.0637  0.0164
  356TMC3    C1 5381   3.021   1.811  11.958  0.0157 -0.3988  0.6825
  356TMC3    C2 5382   3.103   1.825  11.851  0.4907 -0.2037 -0.0989
  356TMC3    C3 5383   3.193   1.930  11.852  0.3821  0.6702  0.0917
  356TMC3    C4 5384   3.035   1.889  12.069 -0.4012 -0.3573 -0.2883
  356TMC3    C5 5385   3.124   1.991  12.060 -1.0253  0.4352  0.7721
  356TMC3    C6 5386   3.206   2.018  11.960  0.2262  1.2677 -0.6685
  356TMC3     C 5387   2.885   1.807  11.913 -0.0119  0.0264 -0.5738
  356TMC3     O 5388   2.861   1.763  11.800  0.0983  0.1218  0.1346
  356TMC3     H 5389   3.089   1.755  11.769  2.7482  2.6086 -2.8808
  356TMC3    H1 5390   2.980   1.858  12.157  1.3050  1.3319  1.3637
  356TMC3    H2 5391   3.269   2.106  11.965  0.9798  0.7692 -1.3956
  356TMC3    C7 5392   3.155   2.044  12.194 -0.1911  0.3398 -0.3686
  356TMC3    C8 5393   3.244   1.961  11.720 -0.0232  0.5092  0.2574
  356TMC3    O1 5394   3.087   1.999  12.288  0.2765 -0.2049  0.2195
  356TMC3    O2 5395   3.197   1.902  11.622 -0.5907  0.5334  0.1180
  357MPD2     C 5396   2.483   0.955   0.481 -0.2529 -0.3158  0.2197
  357MPD2    C1 5397   2.471   0.854   0.569 -0.1371  0.5031 -0.4251
  357MPD2    C2 5398   2.437   0.884   0.703 -0.9064  0.1866  0.1646
  357MPD2    C3 5399   2.406   1.010   0.740 -0.2202  0.3175  0.2944
  357MPD2    C4 5400   2.412   1.110   0.643  0.6190 -0.0090  0.1730
  357MPD2    C5 5401   2.457   1.085   0.517 -0.0593  0.1435  0.3687
  357MPD2     H 5402   2.456   0.806   0.776  0.6937 -0.7868 -1.3054
  357MPD2    H1 5403   2.381   1.210   0.670  1.1637 -0.2036  1.5404
  357MPD2    H2 5404   2.525   0.931   0.384  1.5453 -0.2113  0.9594
  357MPD2    H3 5405   2.470   1.166   0.446 -0.4890  0.1213  0.2683
  357MPD2     N 5406   2.360   1.034   0.871  0.1564  0.0312  0.0145
  357MPD2    H5 5407   2.321   1.127   0.882 -5.6534 -2.4241  0.0251
  357MPD2    N1 5408   2.495   0.720   0.522 -0.0469  0.8525 -1.2377
  357MPD2    H7 5409   2.511   0.708   0.422  3.8706 -1.0137 -0.3901
  358TMC3    C1 5410   2.529   0.492   0.545 -0.2785  0.6682 -0.0578
  358TMC3    C2 5411   2.472   0.475   0.419 -0.4739  0.0319  0.1953
  358TMC3    C3 5412   2.430   0.350   0.397 -0.2884 -0.2974  0.2569
  358TMC3    C4 5413   2.550   0.392   0.640 -0.6481 -0.5012 -0.3093
  358TMC3    C5 5414   2.512   0.267   0.601 -0.2123  0.5873  0.3145
  358TMC3    C6 5415   2.447   0.245   0.486 -0.4424 -0.1646  0.4203
  358TMC3     C 5416   2.485   0.614   0.605  0.6039 -0.0259  0.1256
  358TMC3     O 5417   2.461   0.607   0.725  0.1399  0.5310  0.0350
  358TMC3     H 5418   2.448   0.559   0.354 -0.4854 -0.8718 -0.9802
  358TMC3    H1 5419   2.599   0.414   0.734  2.6385 -1.2369 -1.8749
  358TMC3    H2 5420   2.425   0.144   0.455  0.5735 -0.0001 -0.8221
  358TMC3    C7 5421   2.538   0.158   0.692 -0.1400 -0.5444 -0.3998
  358TMC3    C8 5422   2.360   0.325   0.277  0.4626 -0.0167  0.0624
  358TMC3    O1 5423   2.557   0.177   0.808  0.4447  0.0694 -0.2928
  358TMC3    O2 5424   2.400   0.382   0.178 -0.2510 -0.1398 -0.5985
  359MPD2     C 5425   3.114   0.102  12.584  0.8493  1.0796 -0.1689
  359MPD2    C1 5426   2.992   0.170  12.566  0.4659  0.2507  0.5065
  359MPD2    C2 5427   2.878   0.113  12.623 -0.3791 -0.3443  0.3523
  359MPD2    C3 5428   2.886   4.724  12.694  0.9306 -0.2179  0.4400
  359MPD2    C4 5429   3.006   4.663  12.712  0.0244 -0.3643 -0.6826
  359MPD2    C5 5430   3.118   4.722  12.652 -0.0797  0.1930  1.0949
  359MPD2     H 5431   2.776   0.147  12.603 -0.1508  1.0457  1.5704
  359MPD2    H1 5432   3.017   4.576  12.775  1.5336  1.1241  1.0781
  359MPD2    H2 5433   3.207   0.130  12.536  0.4768  0.4700 -1.2615
  359MPD2    H3 5434   3.217   4.685  12.678  0.2432  0.1185 -0.2324
  359MPD2     N 5435   2.775   4.659  12.752  0.2468 -0.3490  0.0024
  359MPD2    H5 5436   2.788   4.560  12.771  0.9540 -0.3867 -0.6896
  359MPD2    N1 5437   2.991   0.290  12.491 -0.0662 -0.1037 -0.5321
  359MPD2    H7 5438   2.897   0.323  12.472  0.5508  1.3995 -0.9276
  360TMC3    C1 5439   3.054   0.465  12.351 -0.5360  0.1194  0.4710
  360TMC3    C2 5440   3.123   0.583  12.345 -0.0582 -0.7821 -0.7118
  360TMC3    C3 5441   3.142   0.637  12.219 -0.3516 -0.9806 -0.5928
  360TMC3    C4 5442   2.984   0.419  12.244  0.3039  0.1791 -0.5870
  360TMC3    C5 5443   2.988   0.485  12.126  0.3465 -0.3748 -0.2857
  360TMC3    C6 5444   3.077   0.586  12.109 -0.2718 -0.6122 -0.0238
  360TMC3     C 5445   3.095   0.368  12.450 -0.1687 -0.2962  0.1831
  360TMC3     O 5446   3.206   0.372  12.503  0.1476 -0.2197 -0.6247
  360TMC3     H 5447   3.183   0.624  12.426  0.0094 -0.9970 -0.6528
  360TMC3    H1 5448   2.925   0.328  12.244 -0.5035  0.7134 -3.7657
  360TMC3    H2 5449   3.100   0.622  12.009 -1.2767  0.5097  0.1540
  360TMC3    C7 5450   2.897   0.456  12.016  0.8093 -0.4626 -0.6562
  360TMC3    C8 5451   3.236   0.748  12.196 -0.0867 -0.6839 -0.0131
  360TMC3    O1 5452   2.866   0.552  11.947 -0.0658  0.1355  0.4069
  360TMC3    O2 5453   3.242   0.840  12.280  0.3417 -0.2849 -0.2278
  361MPD2     C 5454   4.404   3.673  16.704  0.2425  0.0378  0.0152
  361MPD2    C1 5455   4.456   3.742  16.806  0.5238  0.0171  0.3818
  361MPD2    C2 5456   4.592   3.736  16.842  0.1174 -0.3224  0.3899
  361MPD2    C3 5457   4.674   3.638  16.789  0.4018 -0.4256 -0.2048
  361MPD2    C4 5458   4.620   3.573  16.682 -1.0160  0.0012  0.0535
  361MPD2    C5 5459   4.492   3.590  16.641 -0.2963  0.6151  0.5805
  361MPD2     H 5460   4.621   3.790  16.931  0.2152  2.9503 -1.6374
  361MPD2    H1 5461   4.683   3.500  16.632 -0.1476  0.8939 -0.1413
  361MPD2    H2 5462   4.299   3.680  16.677 -0.2023  0.8829  1.9756
  361MPD2    H3 5463   4.456   3.528  16.560 -0.0192 -0.9522  1.6762
  361MPD2     N 5464   0.063   3.599  16.833  0.3062  0.8865 -0.4059
  361MPD2    H5 5465   0.098   3.513  16.793 -2.0771  0.6169 -1.8986
  361MPD2    N1 5466   4.378   3.827  16.884 -0.4914  0.6360  0.4498
  361MPD2    H7 5467   4.428   3.877  16.957  0.1530  1.6468 -0.6942
  362TMC3    C1 5468   4.191   3.914  16.998  0.3214  0.2272  0.2835
  362TMC3    C2 5469   4.069   3.888  17.051  0.8924  0.3744 -0.2356
  362TMC3    C3 5470   3.998   3.985  17.113 -0.8434  0.1430  0.8304
  362TMC3    C4 5471   4.247   4.039  17.012  0.7229 -0.9666 -0.2359
  362TMC3    C5 5472   4.174   4.141  17.059  0.0884  0.4657  0.5239
  362TMC3    C6 5473   4.043   4.119  17.111 -0.3219 -0.0512  0.0102
  362TMC3     C 5474   4.242   3.824  16.898  0.3077  0.1599 -0.1325
  362TMC3     O 5475   4.162   3.744  16.845  0.2401 -0.7279 -0.0942
  362TMC3     H 5476   4.031   3.787  17.039  0.6990  0.3551  0.5498
  362TMC3    H1 5477   4.348   4.055  16.977  0.3143  2.5057  0.0754
  362TMC3    H2 5478   3.979   4.206  17.120  0.6582  0.6791 -0.0252
  362TMC3    C7 5479   4.201   4.272  16.990  0.0733  0.4659 -0.2338
  362TMC3    C8 5480   3.869   3.940  17.167  0.5224 -0.9830 -1.2170
  362TMC3    O1 5481   4.095   4.324  16.954 -0.1092  0.6759  0.5324
  362TMC3    O2 5482   3.837   3.824  17.161 -0.3213 -0.2201  0.2469
  363TMC3    C1 5483   2.534   1.678   9.035 -1.1333 -0.0523  0.0713
  363TMC3    C2 5484   2.541   1.590   9.142 -0.5184 -0.3127 -0.8397
  363TMC3    C3 5485   2.449   1.611   9.241  1.3946 -0.2388  0.7958
  363TMC3    C4 5486   2.455   1.786   9.036 -0.8994 -0.3039 -0.0820
  363TMC3    C5 5487   2.376   1.804   9.144 -0.0140  0.9395 -0.0607
  363TMC3    C6 5488   2.368   1.719   9.253 -0.5874 -0.1217  0.5270
  363TMC3     C 5489   2.609   1.639   8.925 -0.4757 -0.0351  0.6362
  363TMC3     O 5490   2.694   1.549   8.939 -0.8005 -0.1956  0.0206
  363TMC3     H 5491   2.611   1.508   9.140 -0.0101  0.0850  0.8822
  363TMC3    H1 5492   2.476   1.862   8.962  1.3627  0.6267  1.4915
  363TMC3    H2 5493   2.286   1.720   9.324 -0.2570 -0.6548  0.9189
  363TMC3    C7 5494   2.267   1.901   9.127  0.0676 -0.0854  0.4636
  363TMC3    C8 5495   2.457   1.525   9.358 -0.3804 -0.3786 -0.2561
  363TMC3    O1 5496   2.236   1.927   9.014  0.3370  0.1410  0.0659
  363TMC3    O2 5497   2.415   1.579   9.458  0.1175 -0.1407 -0.4168
  364MPD2     C 5498   0.950   1.279  10.741 -0.0497 -0.2203 -0.2567
  364MPD2    C1 5499   1.070   1.337  10.721  0.3264  0.3363  0.7861
  364MPD2    C2 5500   1.178   1.279  10.775  0.0343  0.2566 -0.0951
  364MPD2    C3 5501   1.174   1.167  10.861  0.8951  0.0692  0.5921
  364MPD2    C4 5502   1.047   1.107  10.882  0.1244 -0.1428 -0.9321
  364MPD2    C5 5503   0.938   1.163  10.822 -0.2483  0.2851  0.4228
  364MPD2     H 5504   1.277   1.316  10.751 -0.6883  0.6855 -2.3396
  364MPD2    H1 5505   1.033   1.033  10.959 -2.1725  0.0701 -1.1468
  364MPD2    H2 5506   0.852   1.314  10.709 -0.7902 -3.9129 -1.9659
  364MPD2    H3 5507   0.842   1.116  10.838  0.1666 -0.7358 -0.0725
  364MPD2     N 5508   1.287   1.113  10.931 -0.3435 -0.4506 -0.5547
  364MPD2    H5 5509   1.270   1.025  10.979  2.0993 -1.2762 -1.1968
  364MPD2    N1 5510   1.089   1.439  10.625 -0.3881 -0.3092  0.6309
  364MPD2    H7 5511   1.179   1.486  10.626  0.2528 -1.5184 -0.5031
  365TMC3    C1 5512   1.041   1.622  10.486  0.2817  0.8389  1.1774
  365TMC3    C2 5513   0.981   1.660  10.368  0.2329  0.2136  0.4343
  365TMC3    C3 5514   1.031   1.760  10.287 -0.7898 -0.6229  0.3067
  365TMC3    C4 5515   1.141   1.700  10.538 -0.3336 -0.9782 -0.6540
  365TMC3    C5 5516   1.183   1.800  10.460 -0.4135 -0.1664  0.3016
  365TMC3    C6 5517   1.139   1.832  10.333 -0.2296 -0.1714 -0.1231
  365TMC3     C 5518   0.988   1.506  10.557  0.4445  0.5181 -0.2395
  365TMC3     O 5519   0.870   1.480  10.541  0.1096  0.4836 -0.1284
  365TMC3     H 5520   0.921   1.589  10.311  2.0957  0.6744 -2.1316
  365TMC3    H1 5521   1.191   1.678  10.632 -1.7185  0.4720  0.4345
  365TMC3    H2 5522   1.166   1.923  10.283 -1.4198 -0.4095 -1.2057
  365TMC3    C7 5523   1.309   1.872  10.479  0.2586 -0.0173 -0.3373
  365TMC3    C8 5524   1.021   1.744  10.144  0.0322 -0.0716  0.7926
  365TMC3    O1 5525   1.357   1.936  10.390  0.2916  1.1998  0.0915
  365TMC3    O2 5526   0.923   1.697  10.095 -0.3509  0.2956 -0.1227
  366MPD2     C 5527   4.522   2.055  14.845  0.0104  0.2585 -0.6285
  366MPD2    C1 5528   4.619   2.113  14.923 -0.4833 -0.4335  0.4610
  366MPD2    C2 5529   0.017   2.091  14.897  0.0666 -0.8470  0.4229
  366MPD2    C3 5530   0.058   2.016  14.785  0.2692  0.3319 -0.0685
  366MPD2    C4 5531   4.692   1.965  14.702 -0.4449 -0.2238  0.1887
  366MPD2    C5 5532   4.564   1.983  14.736  0.4663  0.5916  0.0067
  366MPD2     H 5533   0.088   2.150  14.953  0.5781 -2.0188  1.0064
  366MPD2    H1 5534   4.721   1.900  14.620 -1.9857 -0.5596 -0.0971
  366MPD2    H2 5535   4.417   2.068  14.865  0.0763 -1.3659  0.7651
  366MPD2    H3 5536   4.491   1.933  14.674  1.9153 -0.1147 -1.1120
  366MPD2     N 5537   0.199   2.007  14.754  0.0833  0.0497  0.2773
  366MPD2    H5 5538   0.255   2.056  14.823  1.9396 -1.4432 -0.1377
  366MPD2    N1 5539   4.596   2.183  15.036 -0.4355  0.2635 -0.4299
  366MPD2    H7 5540   4.670   2.239  15.078  0.4832 -1.5668  0.4099
  367TMC3    C1 5541   4.489   2.331  15.176 -0.0539 -1.2495 -0.2124
  367TMC3    C2 5542   4.603   2.343  15.252 -0.8437  0.4674  1.2056
  367TMC3    C3 5543   4.632   2.466  15.309  0.1526  0.6927  0.6189
  367TMC3    C4 5544   4.397   2.431  15.159 -0.6456  0.2867 -0.3722
  367TMC3    C5 5545   4.434   2.551  15.206 -0.0162  0.6309 -0.0711
  367TMC3    C6 5546   4.547   2.571  15.277 -0.2053  0.0134  0.3306
  367TMC3     C 5547   4.474   2.213  15.087  0.3077  0.5482  0.1433
  367TMC3     O 5548   4.361   2.166  15.079 -0.3162 -0.3826  0.1922
  367TMC3     H 5549   4.655   2.250  15.271 -1.5226  0.0888  1.1860
  367TMC3    H1 5550   4.306   2.414  15.103 -1.0638  1.2692  0.0191
  367TMC3    H2 5551   4.558   2.669  15.323  0.5371  0.8306 -1.5802
  367TMC3    C7 5552   4.392   2.673  15.136 -0.4080 -0.8487  0.1621
  367TMC3    C8 5553   0.031   2.490  15.362 -0.4035 -0.9137  0.1060
  367TMC3    O1 5554   4.444   2.775  15.172 -0.4260  0.1455  0.1274
  367TMC3    O2 5555   0.085   2.421  15.448  0.8287  0.3340 -0.3109
  368MPD2     C 5556   0.840   4.378  13.067  0.6763 -0.7826 -0.1659
  368MPD2    C1 5557   0.922   4.471  13.012 -0.2630 -0.4303 -0.3164
  368MPD2    C2 5558   1.055   4.451  13.027 -0.8011  0.5742 -0.1920
  368MPD2    C3 5559   1.109   4.350  13.093  0.3956 -0.1002 -0.2036
  368MPD2    C4 5560   1.033   4.258  13.153 -0.2747  0.3433  0.4345
  368MPD2    C5 5561   0.896   4.276  13.144  0.1623  0.5222 -0.3588
  368MPD2     H 5562   1.115   4.529  12.982 -0.8167  0.6767 -0.0357
  368MPD2    H1 5563   1.082   4.179  13.209  0.7751  0.5222 -0.2446
  368MPD2    H2 5564   0.733   4.389  13.057  1.0074  1.5462 -1.0604
  368MPD2    H3 5565   0.831   4.195  13.174  0.6394  0.5568  0.7868
  368MPD2     N 5566   1.253   4.337  13.088  1.3269 -0.5485 -0.6396
  368MPD2    H5 5567   1.304   4.420  13.061 -0.3984  0.3793 -1.0167
  368MPD2    N1 5568   0.868   4.567  12.927 -0.0245  0.3360 -0.2099
  368MPD2    H7 5569   0.772   4.555  12.898  0.1790 -1.0840 -0.3198
  369TMC3    C1 5570   0.871   0.007  12.768  0.6693 -0.0427 -0.3831
  369TMC3    C2 5571   0.968   0.005  12.668 -0.7737  0.7482  0.3854
  369TMC3    C3 5572   0.937   4.678  12.554  0.3392  0.2272 -0.3734
  369TMC3    C4 5573   0.740   4.710  12.743  0.2238 -0.4492  0.1850
  369TMC3    C5 5574   0.717   4.644  12.627  0.4035  0.7137 -0.4299
  369TMC3    C6 5575   0.809   4.638  12.525 -0.0527  0.2140 -0.0271
  369TMC3     C 5576   0.933   4.678  12.879 -0.2834  0.1750 -0.2229
  369TMC3     O 5577   1.034   0.002  12.916  0.9689  0.3144  0.5024
  369TMC3     H 5578   1.059   0.063  12.682 -0.5014  1.0377 -2.5089
  369TMC3    H1 5579   0.660   4.713  12.816 -2.3181 -0.0777 -2.6618
  369TMC3    H2 5580   0.775   4.584  12.437 -0.2352 -0.3099  0.3610
  369TMC3    C7 5581   0.657   4.518  12.655 -0.4045  0.0197 -0.4291
  369TMC3    C8 5582   1.022   4.703  12.439  0.5236 -0.4644  0.1837
  369TMC3    O1 5583   0.660   4.477  12.769 -0.0638 -0.9597 -0.1670
  369TMC3    O2 5584   0.968   4.710  12.326  0.1511 -0.5680  0.3029
  370TMC3    C1 5585   0.845   0.182  16.284 -0.1568  0.5651  0.0733
  370TMC3    C2 5586   0.796   0.109  16.392 -0.1271  0.9540  0.3572
  370TMC3    C3 5587   0.795   4.706  16.385  0.0377 -0.5966 -0.1439
  370TMC3    C4 5588   0.874   0.105  16.174  0.1116  0.6733 -0.2833
  370TMC3    C5 5589   0.861   4.699  16.175 -0.1969 -0.4666  0.0762
  370TMC3    C6 5590   0.833   4.626  16.285  0.3376  0.2603 -0.2702
  370TMC3     C 5591   0.963   0.250  16.331 -0.6201 -0.7672  0.4148
  370TMC3     O 5592   1.036   0.204  16.413 -0.3201  0.3195  0.1987
  370TMC3     H 5593   0.780   0.157  16.488 -1.1248  0.2560  0.5290
  370TMC3    H1 5594   0.897   0.153  16.079 -1.1849 -1.5705 -1.7273
  370TMC3    H2 5595   0.835   4.518  16.289 -1.0145  0.3129  1.7868
  370TMC3    C7 5596   0.914   4.634  16.058 -0.1835  0.1891  0.0502
  370TMC3    C8 5597   0.769   4.631  16.512 -0.5059 -0.2337 -0.0568
  370TMC3    O1 5598   0.917   4.706  15.958  0.4964 -0.1871 -0.3585
  370TMC3    O2 5599   0.824   4.527  16.524  0.2800  0.2092  0.3143
  371TMC3    C1 5600   1.985   3.005  15.325  0.3370 -0.0504  0.3963
  371TMC3    C2 5601   1.860   3.027  15.380  0.0401  0.4836  0.5872
  371TMC3    C3 5602   1.834   3.156  15.426  0.1583  1.1752  0.3682
  371TMC3    C4 5603   2.070   3.110  15.301  0.3144  0.6880  0.2824
  371TMC3    C5 5604   2.026   3.234  15.336  0.8343 -0.6382  0.2530
  371TMC3    C6 5605   1.913   3.263  15.408  0.0319  0.3607 -0.0290
  371TMC3     C 5606   2.027   2.875  15.277 -0.0519  0.2787 -0.6474
  371TMC3     O 5607   2.113   2.890  15.194 -0.6072  0.3155  0.3462
  371TMC3     H 5608   1.779   2.955  15.385  0.6267 -0.2571 -0.5194
  371TMC3    H1 5609   2.163   3.102  15.246 -0.4001 -1.3669 -0.6575
  371TMC3    H2 5610   1.900   3.356  15.463 -0.7593  0.3157 -0.1331
  371TMC3    C7 5611   2.128   3.332  15.354  0.0765  0.3631 -0.3563
  371TMC3    C8 5612   1.734   3.156  15.541 -0.4469  0.2363  0.4663
  371TMC3    O1 5613   2.240   3.295  15.379 -0.1386  0.2680  0.0122
  371TMC3    O2 5614   1.689   3.051  15.585  0.3341 -0.3168  0.0074
  372MPD2     C 5615   1.681   4.490  13.399 -0.2392  0.3396  0.3466
  372MPD2    C1 5616   1.760   4.375  13.405  0.4828  0.3286  0.3309
  372MPD2    C2 5617   1.710   4.251  13.431 -0.5092  0.0866 -0.5457
  372MPD2    C3 5618   1.571   4.239  13.449 -0.1218  0.9623 -0.4950
  372MPD2    C4 5619   1.486   4.350  13.437  0.6248  0.7654 -0.1560
  372MPD2    C5 5620   1.547   4.477  13.410  0.6160  0.2674 -0.2731
  372MPD2     H 5621   1.773   4.163  13.433 -0.8165 -0.1252 -0.0015
  372MPD2    H1 5622   1.378   4.348  13.436  0.6770 -1.8515  0.8029
  372MPD2    H2 5623   1.732   4.585  13.385  0.8338 -0.2225  0.4459
  372MPD2    H3 5624   1.487   4.566  13.395  1.8732  1.1430 -0.0569
  372MPD2     N 5625   1.528   4.105  13.459  0.2849 -0.0449  0.2476
  372MPD2    H5 5626   1.594   4.035  13.428 -1.3263 -0.6635 -1.7763
  372MPD2    N1 5627   1.898   4.385  13.403  0.3021  0.0920 -0.4601
  372MPD2    H7 5628   1.951   4.306  13.438 -0.7676 -0.9896 -1.2483
  373TMC3    C1 5629   1.376   3.932  13.464  0.0546 -0.4106 -0.3153
  373TMC3    C2 5630   1.314   3.865  13.562 -0.2518 -0.1536  0.0315
  373TMC3    C3 5631   1.320   3.735  13.562  0.2200 -0.0091 -0.0130
  373TMC3    C4 5632   1.448   3.870  13.360 -0.3703 -0.4808 -0.6964
  373TMC3    C5 5633   1.455   3.736  13.363 -0.0222 -0.7961 -0.0476
  373TMC3    C6 5634   1.399   3.668  13.467 -0.0581 -0.3961 -0.3429
  373TMC3     C 5635   1.400   4.070  13.493 -0.1326  0.4279 -0.7257
  373TMC3     O 5636   1.322   4.138  13.556  0.5793  0.2731 -0.3444
  373TMC3     H 5637   1.274   3.919  13.647 -1.4052  0.0421 -0.6366
  373TMC3    H1 5638   1.487   3.922  13.274 -1.2862 -0.6235 -1.2035
  373TMC3    H2 5639   1.412   3.561  13.477  0.0832 -0.4302 -0.8731
  373TMC3    C7 5640   1.573   3.676  13.301  0.5198 -0.2085  0.0095
  373TMC3    C8 5641   1.351   3.690  13.694 -0.4740 -0.4750  0.4027
  373TMC3    O1 5642   1.648   3.758  13.243  0.3385  0.0911 -0.1526
  373TMC3    O2 5643   1.403   3.769  13.770  0.1391  0.5569  0.1268
  374TMC3    C1 5644   2.338   4.379   9.974  0.4615  0.3764  0.0795
  374TMC3    C2 5645   2.390   4.511   9.981  0.6845 -0.1869 -1.0793
  374TMC3    C3 5646   2.319   4.603   9.892  0.8754  0.1773 -0.5130
  374TMC3    C4 5647   2.238   4.337   9.891  0.2792  0.2500 -0.0421
  374TMC3    C5 5648   2.185   4.427   9.804 -0.6471 -0.0289  0.3871
  374TMC3    C6 5649   2.224   4.558   9.804 -0.1343 -0.2108 -0.0080
  374TMC3     C 5650   2.383   4.278  10.073  0.2121  0.4438 -0.4282
  374TMC3     O 5651   2.297   4.194  10.109  0.0618  0.2895  0.2020
  374TMC3     H 5652   2.477   4.536  10.040 -1.0782 -1.2800  2.0243
  374TMC3    H1 5653   2.206   4.234   9.898 -1.3120  0.7375 -0.0974
  374TMC3    H2 5654   2.185   4.629   9.732  2.6706  1.4978  0.1568
  374TMC3    C7 5655   2.083   4.395   9.708 -0.1666 -0.4470  0.2891
  374TMC3    C8 5656   2.353   0.009   9.880 -0.9067 -0.5860 -0.0878
  374TMC3    O1 5657   2.035   4.479   9.635  0.1652 -0.0468 -0.5612
  374TMC3    O2 5658   2.296   0.076   9.793 -0.8578 -1.0871  0.5726
  375MPD2     C 5659   1.920   0.030  17.272 -0.0435  0.1370  0.1093
  375MPD2    C1 5660   1.884   0.115  17.170 -0.6945  0.6508  0.6312
  375MPD2    C2 5661   1.950   0.106  17.048 -0.0052 -0.3328 -0.9146
  375MPD2    C3 5662   2.061   0.020  17.023 -0.0366  0.3237 -0.1142
  375MPD2    C4 5663   2.102   4.678  17.135 -0.0730 -0.2500  0.4050
  375MPD2    C5 5664   2.028   4.684  17.252  0.1087 -0.4021  0.1944
  375MPD2     H 5665   1.925   0.178  16.971  1.5322  0.6406 -0.5001
  375MPD2    H1 5666   2.182   4.605  17.131 -0.1968 -0.4962  2.5562
  375MPD2    H2 5667   1.885   0.043  17.374  3.8301  1.4907  1.2468
  375MPD2    H3 5668   2.059   4.621  17.335 -0.2717 -1.3477 -0.3788
  375MPD2     N 5669   2.131   0.007  16.899 -0.0436  0.1550 -0.0627
  375MPD2    H5 5670   2.201   4.668  16.895 -0.6123 -0.2984 -1.4068
  375MPD2    N1 5671   1.764   0.200  17.177  0.4145  0.0333 -0.0242
  375MPD2    H7 5672   1.733   0.243  17.091 -2.1235 -2.3204 -0.2551
  376TMC3    C1 5673   2.180   0.047  16.664 -0.4540 -0.2869 -0.0938
  376TMC3    C2 5674   2.310   0.012  16.664  0.2367  0.3603  0.1507
  376TMC3    C3 5675   2.379   4.728  16.547  0.3424 -0.5547  0.9949
  376TMC3    C4 5676   2.123   0.067  16.543 -0.4339  0.2853 -0.5078
  376TMC3    C5 5677   2.191   0.042  16.430  0.1403 -0.2388  0.0170
  376TMC3    C6 5678   2.323   0.012  16.426 -0.1503  0.2347  0.1151
  376TMC3     C 5679   2.106   0.084  16.785  0.1638  0.7830 -0.0279
  376TMC3     O 5680   2.018   0.165  16.753  0.7458 -0.1044 -0.0740
  376TMC3     H 5681   2.358   0.034  16.759  0.5425 -2.0333  0.5454
  376TMC3    H1 5682   2.026   0.115  16.536 -2.3979 -3.5039  0.7000
  376TMC3    H2 5683   2.386   0.014  16.338  0.0573 -0.3045  0.2493
  376TMC3    C7 5684   2.131   0.080  16.299 -0.3784 -0.0767  0.2922
  376TMC3    C8 5685   2.523   0.021  16.550 -0.1523  0.0336 -1.3660
  376TMC3    O1 5686   2.027   0.141  16.316  0.1098 -0.6487  0.2170
  376TMC3    O2 5687   2.555   0.133  16.518  0.1255  0.4272 -0.2253
  377MPD2     C 5688   0.149   0.057  11.743  0.1439 -0.3547  0.3942
  377MPD2    C1 5689   0.218   0.009  11.855 -0.5250 -0.2993 -0.0001
  377MPD2    C2 5690   0.150   4.723  11.972  0.5803 -0.0839 -0.0452
  377MPD2    C3 5691   0.014   0.021  11.980  0.1510 -0.4412  0.6212
  377MPD2    C4 5692   4.686   0.073  11.873  0.4869  0.6533 -0.0238
  377MPD2    C5 5693   0.018   0.086  11.756 -0.0803 -0.0245 -0.8448
  377MPD2     H 5694   0.204   4.677  12.054  0.0985  0.7135  0.7318
  377MPD2    H1 5695   4.585   0.109  11.888 -0.5855 -1.4498 -2.1072
  377MPD2    H2 5696   0.202   0.090  11.654  0.2117  0.3649  0.7042
  377MPD2    H3 5697   4.700   0.134  11.675 -2.1529 -1.5987 -0.4212
  377MPD2     N 5698   4.665   0.002  12.090 -0.1853 -0.1236 -0.0168
  377MPD2    H5 5699   4.572   0.043  12.083 -1.0477 -2.1693 -0.6051
  377MPD2    N1 5700   0.356   4.710  11.859 -0.3764 -0.3506  0.3711
  377MPD2    H7 5701   0.393   4.691  11.952 -0.7078  0.1748  0.6174
  378TMC3    C1 5702   0.748   0.110  11.875 -0.4505 -0.6388  0.0024
  378TMC3    C2 5703   0.617   0.067  11.874 -0.8005 -0.0282 -0.6881
  378TMC3    C3 5704   0.576   4.703  11.793  0.2800  0.0831 -0.2350
  378TMC3    C4 5705   0.842   0.049  11.798  0.5723 -0.3123  0.0733
  378TMC3    C5 5706   0.803   4.689  11.710  1.1181 -0.9456 -0.0366
  378TMC3    C6 5707   0.670   4.650  11.708 -0.2293  0.3992  1.2537
  378TMC3     C 5708   0.777   0.240  11.928 -0.2294 -0.5950  0.5138
  378TMC3     O 5709   0.687   0.320  11.941 -0.8171  0.9477 -0.2149
  378TMC3     H 5710   0.547   0.132  11.926  1.2744 -0.2881  2.3497
  378TMC3    H1 5711   0.949   0.061  11.801  0.6213 -1.0064  0.9940
  378TMC3    H2 5712   0.643   4.570  11.640 -0.6279  0.2728  1.5606
  378TMC3    C7 5713   0.898   4.616  11.637  0.1348 -1.1575  0.5837
  378TMC3    C8 5714   0.438   4.693  11.749  0.7253  0.1171 -0.2388
  378TMC3    O1 5715   0.886   4.496  11.651  0.0706 -0.2503 -0.2901
  378TMC3    O2 5716   0.403   4.682  11.633  0.4093  0.5130  0.5791
  379MPD2     C 5717   1.112   2.976  16.108 -0.3882 -0.2890 -0.3510
  379MPD2    C1 5718   1.038   2.882  16.173 -0.5814 -0.0400  0.1573
  379MPD2    C2 5719   1.092   2.820  16.283  0.4873 -0.0868 -0.4606
  379MPD2    C3 5720   1.211   2.858  16.336  0.4048 -0.4027  0.3935
  379MPD2    C4 5721   1.283   2.956  16.277 -0.2879  0.2023  0.0204
  379MPD2    C5 5722   1.230   3.015  16.163  0.0963 -0.3827  0.0271
  379MPD2     H 5723   1.040   2.736  16.327  1.2550 -0.2721  0.1010
  379MPD2    H1 5724   1.376   2.982  16.326  0.6541 -1.7709 -0.7392
  379MPD2    H2 5725   1.079   3.021  16.014  0.5154 -2.1196 -1.5478
  379MPD2    H3 5726   1.294   3.091  16.119 -0.9146  0.2896 -0.2757
  379MPD2     N 5727   1.272   2.789  16.449 -0.2960 -0.0992  0.5032
  379MPD2    H5 5728   1.368   2.817  16.468  0.4571 -1.1102 -1.8919
  379MPD2    N1 5729   0.921   2.819  16.119  0.2565  0.1220 -0.2064
  379MPD2    H7 5730   0.887   2.732  16.157 -0.1427  0.5452  0.4056
  380TMC3    C1 5731   0.747   2.772  15.959  0.1116  0.3549  0.1998
  380TMC3    C2 5732   0.764   2.635  15.964  1.3245  0.5677  0.1136
  380TMC3    C3 5733   0.734   2.565  15.852 -0.8915 -0.5411  0.1891
  380TMC3    C4 5734   0.677   2.830  15.851  0.6951 -0.5981 -0.5340
  380TMC3    C5 5735   0.627   2.748  15.753  0.5175  0.4326  0.0289
  380TMC3    C6 5736   0.661   2.615  15.751 -0.5250 -0.0435 -0.4243
  380TMC3     C 5737   0.841   2.865  16.017  0.2436 -0.1259 -0.2817
  380TMC3     O 5738   0.842   2.979  15.978  0.1754  0.5527 -0.4200
  380TMC3     H 5739   0.830   2.583  16.032  0.2957  0.2408  0.8677
  380TMC3    H1 5740   0.652   2.936  15.855  1.7098 -0.4054  0.6526
  380TMC3    H2 5741   0.627   2.555  15.668  1.4971 -0.2570 -1.0855
  380TMC3    C7 5742   0.546   2.804  15.647 -0.3378 -0.4820  0.0184
  380TMC3    C8 5743   0.800   2.431  15.825  0.6743  0.1997 -1.2008
  380TMC3    O1 5744   0.542   2.924  15.628  0.1175  0.4602 -0.3798
  380TMC3    O2 5745   0.721   2.338  15.812 -0.0126  0.6965  0.5711
  381TMC3    C1 5746   0.892   3.850  16.336  0.2909 -0.6847 -0.6486
  381TMC3    C2 5747   0.986   3.946  16.300  0.6042  0.1299 -0.6310
  381TMC3    C3 5748   1.021   4.047  16.392  1.0898  0.0157 -0.7422
  381TMC3    C4 5749   0.827   3.846  16.457  0.0120 -0.1935 -0.0390
  381TMC3    C5 5750   0.864   3.947  16.539  0.7374  0.3713  0.7864
  381TMC3    C6 5751   0.960   4.046  16.511 -0.0216  0.2316  0.1899
  381TMC3     C 5752   0.898   3.729  16.265  0.0421  0.7655  0.4275
  381TMC3     O 5753   1.008   3.701  16.215 -0.4263 -0.1539 -0.4599
  381TMC3     H 5754   1.021   3.963  16.199 -1.8806 -0.9029 -1.6561
  381TMC3    H1 5755   0.742   3.784  16.482  0.2956 -0.6765 -0.2659
  381TMC3    H2 5756   1.006   4.109  16.586  1.7165 -1.2529  0.3852
  381TMC3    C7 5757   0.831   3.922  16.676 -0.5626 -0.6467  0.0568
  381TMC3    C8 5758   1.104   4.153  16.350 -0.1772  0.3302  0.5465
  381TMC3    O1 5759   0.816   3.805  16.714 -0.2826 -0.5589 -0.5856
  381TMC3    O2 5760   1.179   4.119  16.258 -0.2196  0.1801  0.4074
  382MPD2     C 5761   4.696   1.580  16.928 -0.0125  0.1855  0.1202
  382MPD2    C1 5762   4.660   1.570  17.061  0.2762 -0.7613  1.0289
  382MPD2    C2 5763   4.588   1.469  17.108 -1.0170  0.4237  1.0136
  382MPD2    C3 5764   4.571   1.362  17.031  0.2092  0.2189  0.3517
  382MPD2    C4 5765   4.617   1.359  16.901  0.3906  0.3388 -0.0650
  382MPD2    C5 5766   4.677   1.471  16.848 -0.0817  0.3636  0.7473
  382MPD2     H 5767   4.548   1.482  17.208 -0.7470 -0.2523  1.2091
  382MPD2    H1 5768   4.610   1.273  16.835  3.1323  1.3748 -1.7308
  382MPD2    H2 5769   0.026   1.659  16.892 -0.6360  1.3693  1.5700
  382MPD2    H3 5770   4.718   1.479  16.748  0.5668 -1.0975  0.8830
  382MPD2     N 5771   4.515   1.256  17.095 -0.0158  0.1070 -0.2017
  382MPD2    H5 5772   4.479   1.283  17.185  4.0295 -0.6772  1.6480
  382MPD2    N1 5773   4.691   1.671  17.150 -0.3014  0.1334  0.5125
  382MPD2    H7 5774   4.667   1.649  17.246 -2.3505 -1.9496 -0.5070
  383TMC3    C1 5775   4.423   1.055  17.157  0.0279 -0.8988  0.3183
  383TMC3    C2 5776   4.362   0.946  17.101 -0.7056 -0.0974  0.7655
  383TMC3    C3 5777   4.333   0.839  17.181  0.6450  0.0546 -0.6103
  383TMC3    C4 5778   4.457   1.063  17.289  0.9018 -0.1065 -0.1781
  383TMC3    C5 5779   4.440   0.956  17.368  0.1599  0.3573 -0.5154
  383TMC3    C6 5780   4.372   0.843  17.317 -0.7115  0.5771  0.4738
  383TMC3     C 5781   4.494   1.128  17.051 -0.8051 -1.0130 -0.1590
  383TMC3     O 5782   4.525   1.069  16.951 -0.2697  0.4084 -0.4910
  383TMC3     H 5783   4.352   0.949  16.993 -0.3810  1.6385  0.7754
  383TMC3    H1 5784   4.524   1.142  17.321  0.1387  0.4358  0.0651
  383TMC3    H2 5785   4.347   0.755  17.376 -0.8482  0.9684  1.0033
  383TMC3    C7 5786   4.527   0.928  17.482 -0.2340 -0.3474 -0.0762
  383TMC3    C8 5787   4.242   0.744  17.127 -0.1519 -0.5998 -0.8111
  383TMC3    O1 5788   4.502   0.828  17.541  0.2104 -0.0375 -0.4566
  383TMC3    O2 5789   4.171   0.789  17.035  0.4718 -0.2576 -0.5379
  384MPD2     C 5790   1.802   2.877  12.258 -0.5415 -0.0301  0.2179
  384MPD2    C1 5791   1.813   2.783  12.358 -0.1860  0.1320  0.4672
  384MPD2    C2 5792   1.918   2.691  12.367 -0.1139 -0.2214  0.1168
  384MPD2    C3 5793   2.007   2.700  12.265  0.0544  0.2274  0.3326
  384MPD2    C4 5794   2.003   2.801  12.171 -0.7688  0.0457 -0.7040
  384MPD2    C5 5795   1.890   2.879  12.164  0.3236  0.2119  0.3703
  384MPD2     H 5796   1.926   2.619  12.447 -2.1682  0.0616  0.5841
  384MPD2    H1 5797   2.079   2.807  12.094  1.3980 -1.2184  1.3380
  384MPD2    H2 5798   1.722   2.950  12.253 -0.0620  0.7044  3.3934
  384MPD2    H3 5799   1.893   2.952  12.084 -0.5465  0.0626  0.2012
  384MPD2     N 5800   2.105   2.600  12.262  0.9460  0.6311  0.0030
  384MPD2    H5 5801   2.116   2.534  12.338  0.1599  1.7232  1.0668
  384MPD2    N1 5802   1.714   2.774  12.460 -0.0300  0.1071 -0.1289
  384MPD2    H7 5803   1.729   2.696  12.523 -0.3222 -0.5421 -0.8538
  385TMC3    C1 5804   2.238   2.438  12.166 -1.2388  0.0302  0.1943
  385TMC3    C2 5805   2.201   2.372  12.055 -0.4836 -0.5277 -0.1370
  385TMC3    C3 5806   2.159   2.241  12.071 -0.0002  0.2502 -0.6437
  385TMC3    C4 5807   2.235   2.384  12.288 -0.7968 -0.4816 -0.0036
  385TMC3    C5 5808   2.163   2.270  12.305 -0.8522 -1.1802  0.1346
  385TMC3    C6 5809   2.132   2.186  12.195 -0.7244  0.5391  0.0813
  385TMC3     C 5810   2.185   2.572  12.152 -0.7269 -0.2789  0.0054
  385TMC3     O 5811   2.192   2.626  12.044 -0.1971  0.0224 -0.4363
  385TMC3     H 5812   2.227   2.413  11.958  4.1403 -3.2666 -0.0807
  385TMC3    H1 5813   2.267   2.442  12.374 -1.8867  0.9855 -0.5932
  385TMC3    H2 5814   2.079   2.092  12.202 -0.3273  0.2414 -0.9672
  385TMC3    C7 5815   2.077   2.280  12.413 -0.6814  0.1332 -1.3816
  385TMC3    C8 5816   2.088   2.179  11.957  0.1556 -0.1554 -0.0201
  385TMC3    O1 5817   2.056   2.396  12.451 -0.0236  0.1500  0.8171
  385TMC3    O2 5818   1.990   2.109  11.978 -0.2547 -0.1399 -0.0350
  386TMC3    C1 5819   2.243   4.461  11.196 -0.2930 -0.1667  1.0415
  386TMC3    C2 5820   2.228   4.524  11.076  0.1036 -0.0847  0.4263
  386TMC3    C3 5821   2.112   4.500  11.011 -0.7069 -0.4631  0.1140
  386TMC3    C4 5822   2.137   4.391  11.254 -0.2146  0.4463 -0.3473
  386TMC3    C5 5823   2.020   4.390  11.183 -0.3495  0.7894 -0.4679
  386TMC3    C6 5824   2.003   4.443  11.061 -0.3575 -0.4142  0.3342
  386TMC3     C 5825   2.364   4.494  11.272 -0.1398  0.1307 -0.3794
  386TMC3     O 5826   2.427   4.591  11.228 -0.1066 -0.0323 -0.2037
  386TMC3     H 5827   2.313   4.574  11.031 -1.3127  2.5203  0.6653
  386TMC3    H1 5828   2.135   4.384  11.362 -0.9974  1.6136 -0.2880
  386TMC3    H2 5829   1.912   4.436  11.001  1.0947 -0.1824 -1.9178
  386TMC3    C7 5830   1.900   4.397  11.268  0.0676 -0.4513 -0.1702
  386TMC3    C8 5831   2.091   4.572  10.886 -0.3915 -0.1377  0.4948
  386TMC3    O1 5832   1.808   4.467  11.229 -0.2184 -0.3039  0.4450
  386TMC3    O2 5833   1.983   4.567  10.833  0.1694  0.1091 -0.0893
  387MPD2     C 5834   3.556   4.718   9.649  0.1279  0.1475  0.2236
  387MPD2    C1 5835   3.633   0.012   9.759  0.5948 -0.5245  0.6293
  387MPD2    C2 5836   3.687   4.648   9.837 -0.4363 -0.6391  0.3986
  387MPD2    C3 5837   3.675   4.521   9.795  0.6300 -0.4226 -0.6123
  387MPD2    C4 5838   3.589   4.483   9.687  0.4497  0.1995  0.6251
  387MPD2    C5 5839   3.531   4.587   9.617 -0.4009 -0.6359  0.7394
  387MPD2     H 5840   3.742   4.679   9.925 -2.1223  0.1914  1.1601
  387MPD2    H1 5841   3.586   4.381   9.650 -0.7049  0.1099  0.9859
  387MPD2    H2 5842   3.501   0.062   9.599 -0.5967  0.0482  0.8697
  387MPD2    H3 5843   3.462   4.566   9.536  0.7651  1.0413 -0.6900
  387MPD2     N 5844   3.760   4.426   9.855  0.1039  0.4199 -0.8300
  387MPD2    H5 5845   3.817   4.459   9.932 -3.2248 -0.5023  2.0427
  387MPD2    N1 5846   3.677   0.143   9.782 -0.0652 -0.4896 -0.4351
  387MPD2    H7 5847   3.728   0.163   9.867 -1.2410  2.0653 -0.3374
  388TMC3    C1 5848   3.761   0.355   9.733  0.6252 -0.6729 -0.7178
  388TMC3    C2 5849   3.723   0.481   9.748 -0.2355 -0.6064  0.0834
  388TMC3    C3 5850   3.825   0.568   9.779 -0.4473 -0.1487 -0.0101
  388TMC3    C4 5851   3.888   0.301   9.751  0.8179  0.0254 -0.0464
  388TMC3    C5 5852   3.982   0.399   9.786 -0.6378  0.7467 -0.2663
  388TMC3    C6 5853   3.950   0.532   9.814  0.4685  0.1561  0.1090
  388TMC3     C 5854   3.656   0.255   9.704  0.8888 -0.6060  0.0241
  388TMC3     O 5855   3.562   0.283   9.628  0.3721 -0.0789  0.6969
  388TMC3     H 5856   3.626   0.512   9.712 -0.0178  1.1610  0.9768
  388TMC3    H1 5857   3.903   0.195   9.736  0.7571 -0.0455  0.3875
  388TMC3    H2 5858   4.031   0.595   9.849 -0.7822  0.4563  2.4584
  388TMC3    C7 5859   4.099   0.348   9.850 -0.8867  0.4400  0.1960
  388TMC3    C8 5860   3.802   0.708   9.770 -0.2778 -0.8561 -0.1666
  388TMC3    O1 5861   4.153   0.421   9.936  0.0908  0.1548  0.5657
  388TMC3    O2 5862   3.888   0.777   9.825  0.2305 -0.6518 -0.1760
  389MPD2     C 5863   3.921   3.278  11.239  0.0528  0.7914 -0.0147
  389MPD2    C1 5864   3.834   3.191  11.173  0.1667 -0.8423 -0.1656
  389MPD2    C2 5865   3.754   3.110  11.256  0.2053  0.0765  0.3577
  389MPD2    C3 5866   3.757   3.131  11.396  0.0019 -0.0064 -0.4047
  389MPD2    C4 5867   3.837   3.232  11.454  0.0693  0.6504 -0.2978
  389MPD2    C5 5868   3.917   3.299  11.374  0.0345 -0.6796 -0.0836
  389MPD2     H 5869   3.695   3.034  11.206 -1.7616  1.2127  0.9523
  389MPD2    H1 5870   3.836   3.242  11.562 -0.8305 -2.8185  0.0327
  389MPD2    H2 5871   3.993   3.341  11.188 -0.3238 -0.0882 -1.6121
  389MPD2    H3 5872   3.988   3.372  11.410  0.9047 -1.4375 -0.2642
  389MPD2     N 5873   3.663   3.070  11.477  1.2073 -0.4037  0.1979
  389MPD2    H5 5874   3.652   3.112  11.569 -0.3019  4.0432 -2.0259
  389MPD2    N1 5875   3.850   3.190  11.035 -0.4579 -0.4303 -0.9085
  389MPD2    H7 5876   3.912   3.261  10.997 -0.3470 -0.2218 -0.3405
  390TMC3    C1 5877   3.492   2.924  11.557 -0.3641 -0.1578  0.7302
  390TMC3    C2 5878   3.447   2.794  11.563  0.3195 -0.2553 -0.5646
  390TMC3    C3 5879   3.391   2.750  11.683 -0.4094  0.5031  0.1131
  390TMC3    C4 5880   3.471   3.010  11.659 -0.0788  1.0573 -0.3343
  390TMC3    C5 5881   3.391   2.966  11.768  0.0574  0.6884 -0.2307
  390TMC3    C6 5882   3.380   2.836  11.790  0.8499  0.3480  0.7731
  390TMC3     C 5883   3.586   2.960  11.454  0.7238 -0.4293  0.6672
  390TMC3     O 5884   3.588   2.886  11.355 -0.2630  0.3902  0.2691
  390TMC3     H 5885   3.449   2.720  11.483 -0.6694 -0.2566 -0.5860
  390TMC3    H1 5886   3.490   3.115  11.640 -0.2592  1.3341  0.9973
  390TMC3    H2 5887   3.328   2.805  11.879  0.5051 -0.7024  0.2006
  390TMC3    C7 5888   3.375   3.051  11.880  0.1868  0.2216 -0.1382
  390TMC3    C8 5889   3.324   2.621  11.687 -0.0255 -0.1116 -0.1265
  390TMC3    O1 5890   3.451   3.143  11.898  0.2477 -0.6242  0.4030
  390TMC3    O2 5891   3.300   2.566  11.580  0.3852 -0.2863  0.2837
  391MPD2     C 5892   2.789   0.136  11.320 -0.3345  0.9177  1.1308
  391MPD2    C1 5893   2.890   0.221  11.275  0.3890 -1.1584  0.2785
  391MPD2    C2 5894   2.904   0.259  11.144 -0.0543  0.5428  0.1468
  391MPD2    C3 5895   2.821   0.196  11.045  0.4014 -0.2892 -0.1325
  391MPD2    C4 5896   2.722   0.115  11.088  0.1535 -0.5529 -0.2162
  391MPD2    C5 5897   2.704   0.094  11.222  0.3791 -0.2239  0.4713
  391MPD2     H 5898   2.982   0.322  11.103 -0.2030 -0.3379 -1.4822
  391MPD2    H1 5899   2.657   0.061  11.020  1.0775  0.2634 -1.7279
  391MPD2    H2 5900   2.765   0.118  11.424  0.1051  0.4965  1.1598
  391MPD2    H3 5901   2.617   0.038  11.255  1.0432 -0.5668  1.6294
  391MPD2     N 5902   2.849   0.238  10.918 -0.2756  0.1501 -0.2591
  391MPD2    H5 5903   2.933   0.291  10.896 -0.6170  0.1125 -1.6637
  391MPD2    N1 5904   2.972   0.290  11.363 -0.0050 -0.4244 -0.2719
  391MPD2    H7 5905   3.031   0.366  11.332  0.4229  0.1144  1.8863
  392TMC3    C1 5906   2.796   0.299  10.691 -0.2536 -0.0549  0.1118
  392TMC3    C2 5907   2.753   0.238  10.577  0.0158 -0.4624  0.2890
  392TMC3    C3 5908   2.794   0.286  10.457 -0.7535 -0.3951 -0.3899
  392TMC3    C4 5909   2.885   0.398  10.692  0.3182 -0.6349  0.1374
  392TMC3    C5 5910   2.931   0.440  10.570 -0.1359  0.6503  0.0652
  392TMC3    C6 5911   2.889   0.387  10.448 -0.2370  0.4768 -0.1016
  392TMC3     C 5912   2.761   0.225  10.809 -0.3077 -0.2898  0.6370
  392TMC3     O 5913   2.662   0.155  10.805  0.4708 -0.1339 -0.5086
  392TMC3     H 5914   2.675   0.164  10.580  0.0944 -0.5845 -0.7050
  392TMC3    H1 5915   2.916   0.442  10.787  0.0489 -1.0877  0.4383
  392TMC3    H2 5916   2.947   0.413  10.361  0.2817 -1.8196 -0.4317
  392TMC3    C7 5917   3.040   0.532  10.575  0.4991 -0.5501  0.6897
  392TMC3    C8 5918   2.716   0.243  10.342  1.2843 -0.1611  0.3425
  392TMC3    O1 5919   3.093   0.537  10.685 -0.8610  0.0697  0.4480
  392TMC3    O2 5920   2.671   0.125  10.348 -0.9851  0.0845 -0.1589
  393TMC3    C1 5921   2.128   2.602  11.220  0.7700 -0.1386 -0.3493
  393TMC3    C2 5922   1.995   2.607  11.246 -0.3661  0.1473  0.2421
  393TMC3    C3 5923   1.935   2.498  11.300  0.3896  0.1624 -0.1632
  393TMC3    C4 5924   2.194   2.487  11.230 -0.1318 -0.0398  0.5429
  393TMC3    C5 5925   2.131   2.371  11.252 -1.1151 -0.3249 -0.2635
  393TMC3    C6 5926   2.001   2.372  11.296 -0.1338 -1.3239 -0.3459
  393TMC3     C 5927   2.191   2.731  11.205 -0.3572 -0.4688 -0.5737
  393TMC3     O 5928   2.115   2.827  11.192 -0.0134 -0.5980  0.0039
  393TMC3     H 5929   1.937   2.697  11.232 -0.6126 -0.0896 -0.2457
  393TMC3    H1 5930   2.298   2.484  11.201 -0.6251  1.8451 -1.4003
  393TMC3    H2 5931   1.946   2.279  11.303 -0.3583 -1.1232  0.4576
  393TMC3    C7 5932   2.181   2.257  11.187  0.5226 -0.7285 -0.3837
  393TMC3    C8 5933   1.822   2.516  11.376  0.5290 -0.3391 -0.2930
  393TMC3    O1 5934   2.299   2.252  11.163 -0.5880  0.9501  0.1205
  393TMC3    O2 5935   1.749   2.612  11.348  0.3727 -0.4211 -0.1252
  394TMC3    C1 5936   3.787   3.157  10.812  0.3096 -0.5625  0.1738
  394TMC3    C2 5937   3.690   3.102  10.722  0.2200 -0.2791 -0.7877
  394TMC3    C3 5938   3.705   3.133  10.588 -0.0117 -0.0468 -0.2710
  394TMC3    C4 5939   3.903   3.220  10.774 -0.1564 -0.0043  0.0331
  394TMC3    C5 5940   3.901   3.250  10.636 -0.0845 -0.3202 -0.6875
  394TMC3    C6 5941   3.810   3.208  10.542  0.0574 -0.2784 -0.8365
  394TMC3     C 5942   3.777   3.107  10.950 -0.2510  0.9534 -0.7054
  394TMC3     O 5943   3.675   3.043  10.977 -0.2037  0.2295 -0.1671
  394TMC3     H 5944   3.601   3.053  10.762  1.1485 -0.2839  1.2870
  394TMC3    H1 5945   3.980   3.262  10.837  0.9300 -1.1161 -0.5410
  394TMC3    H2 5946   3.818   3.236  10.438  1.0594  1.2674 -0.3415
  394TMC3    C7 5947   4.002   3.337  10.589 -0.8014 -0.3515 -0.6234
  394TMC3    C8 5948   3.631   3.051  10.489  0.1490  0.2148  0.3990
  394TMC3    O1 5949   3.971   3.392  10.482  0.0351 -0.7224  0.7223
  394TMC3    O2 5950   3.581   2.948  10.527 -0.0524 -0.3130  0.4831
  395TMC3    C1 5951   2.968   0.110  14.928 -0.2395  0.1877  0.3911
  395TMC3    C2 5952   2.926   0.009  14.847 -0.7588  0.5207 -0.1004
  395TMC3    C3 5953   2.934   0.028  14.711 -0.3301 -0.1607  0.5038
  395TMC3    C4 5954   3.015   0.222  14.879  0.0970  0.8916  0.1955
  395TMC3    C5 5955   3.026   0.235  14.745  0.5431 -0.0252 -0.2856
  395TMC3    C6 5956   2.980   0.140  14.653 -1.0094  0.1104 -0.2137
  395TMC3     C 5957   2.919   0.105  15.060  0.6858 -0.0516 -0.0147
  395TMC3     O 5958   2.903   0.218  15.113  0.2660 -0.2136  0.2284
  395TMC3     H 5959   2.868   4.663  14.891  0.3066  0.6902  1.6166
  395TMC3    H1 5960   3.042   0.304  14.944 -3.4391  1.0293  1.4928
  395TMC3    H2 5961   3.001   0.136  14.547 -1.5408  0.5450 -0.3361
  395TMC3    C7 5962   3.108   0.347  14.703 -0.1199 -0.0148  0.4150
  395TMC3    C8 5963   2.934   4.644  14.631 -0.1921  0.1721 -0.0343
  395TMC3    O1 5964   3.125   0.427  14.791  0.6156 -0.6203  0.7325
  395TMC3    O2 5965   3.002   4.550  14.674 -0.1594 -0.9173  0.0372
  396MPD2     C 5966   2.960   0.940  16.668 -0.0765  0.4760 -0.0552
  396MPD2    C1 5967   3.076   0.974  16.733  0.8471  0.5618 -0.4020
  396MPD2    C2 5968   3.160   1.067  16.674  0.9258 -0.0677  0.5096
  396MPD2    C3 5969   3.124   1.121  16.555 -0.2564  0.1283  0.3258
  396MPD2    C4 5970   3.009   1.084  16.493  0.9403  0.6916  0.3141
  396MPD2    C5 5971   2.930   0.987  16.543  0.7610  0.6370  0.0213
  396MPD2     H 5972   3.255   1.094  16.718  0.6936 -1.4062  1.8031
  396MPD2    H1 5973   2.975   1.132  16.402 -0.9916 -0.3752  0.4734
  396MPD2    H2 5974   2.883   0.884  16.720 -0.8751  1.5247 -0.1065
  396MPD2    H3 5975   2.835   0.967  16.493  0.3195 -3.2420  2.5128
  396MPD2     N 5976   3.210   1.224  16.499  0.0006 -0.3594  0.1450
  396MPD2    H5 5977   3.294   1.240  16.553  0.4043 -2.1439  0.0603
  396MPD2    N1 5978   3.107   0.912  16.852  0.3029  0.5568 -0.4564
  396MPD2    H7 5979   3.050   0.836  16.887  0.1751  1.3183  0.9874
  397TMC3    C1 5980   3.225   0.821  17.018 -0.2809  0.5121  0.2509
  397TMC3    C2 5981   3.327   0.750  16.974 -1.0163  0.3159 -1.1737
  397TMC3    C3 5982   3.320   0.621  16.923 -0.2527  0.5401 -0.2227
  397TMC3    C4 5983   3.112   0.744  17.033  1.2153  0.7865  0.3762
  397TMC3    C5 5984   3.111   0.613  17.014 -0.2069 -0.4398 -0.1340
  397TMC3    C6 5985   3.212   0.548  16.960  0.1643  0.3675 -0.1768
  397TMC3     C 5986   3.214   0.934  16.931  0.4799  0.0431  0.0820
  397TMC3     O 5987   3.306   1.015  16.927 -0.4225  0.5587 -0.3323
  397TMC3     H 5988   3.419   0.805  16.961  0.9636 -3.1025 -1.5707
  397TMC3    H1 5989   3.019   0.789  17.064  0.8113  2.4130 -3.2120
  397TMC3    H2 5990   3.214   0.442  16.938 -3.1213  0.5552 -1.3808
  397TMC3    C7 5991   3.029   0.528  17.106 -0.1789 -0.7272 -1.0336
  397TMC3    C8 5992   3.323   0.616  16.770 -0.5439  0.2937 -0.7540
  397TMC3    O1 5993   2.970   0.591  17.195 -0.2153 -0.4141  0.4982
  397TMC3    O2 5994   3.274   0.528  16.709 -0.0138  0.2478 -0.1965
  398MPD2     C 5995   1.439   2.679   0.192 -0.3714  0.7558 -1.0038
  398MPD2    C1 5996   1.552   2.602   0.207 -0.3777 -0.6863  0.5021
  398MPD2    C2 5997   1.676   2.660   0.183 -0.1329 -0.9936 -0.1896
  398MPD2    C3 5998   1.688   2.795   0.157  0.3007  0.5544 -0.2719
  398MPD2    C4 5999   1.575   2.871   0.143 -0.0148  0.2616 -0.3849
  398MPD2    C5 6000   1.451   2.811   0.152  1.0602  0.6121 -0.7392
  398MPD2     H 6001   1.767   2.601   0.177  1.3345  1.3114 -0.7133
  398MPD2    H1 6002   1.579   2.977   0.123 -1.9441  0.6754  1.5736
  398MPD2    H2 6003   1.342   2.634   0.210 -0.6375  1.6749 -0.1438
  398MPD2    H3 6004   1.359   2.866   0.135 -0.4903 -1.5905  0.6025
  398MPD2     N 6005   1.817   2.850   0.145  0.0662  1.0376 -0.0819
  398MPD2    H5 6006   1.891   2.781   0.151 -1.3707 -0.4873  0.2688
  398MPD2    N1 6007   1.552   2.468   0.254 -0.3327  0.0604 -0.4030
  398MPD2    H7 6008   1.638   2.414   0.260  1.1086  2.2396 -1.3135
  399TMC3    C1 6009   1.466   2.252   0.314 -0.4745 -0.3950 -0.8746
  399TMC3    C2 6010   1.579   2.190   0.272 -0.5164  0.2854 -0.2869
  399TMC3    C3 6011   1.588   2.051   0.289 -0.0693 -0.0807  0.2813
  399TMC3    C4 6012   1.357   2.179   0.365 -0.2489  0.3004  0.5270
  399TMC3    C5 6013   1.380   2.054   0.396  1.1934  0.7465 -0.1517
  399TMC3    C6 6014   1.491   1.984   0.362  0.2587  0.8734  0.2134
  399TMC3     C 6015   1.441   2.386   0.283 -0.1098  0.0291 -1.0537
  399TMC3     O 6016   1.324   2.405   0.249  0.3077  0.1125 -0.4676
  399TMC3     H 6017   1.652   2.248   0.216  1.3427  0.3000  2.1787
  399TMC3    H1 6018   1.271   2.225   0.413 -0.2019 -0.0848  0.9803
  399TMC3    H2 6019   1.497   1.880   0.393  0.7162  1.1651  1.1094
  399TMC3    C7 6020   1.258   1.978   0.426 -0.4289  0.7922 -0.9787
  399TMC3    C8 6021   1.713   1.986   0.249  0.5707  0.3164  0.2221
  399TMC3    O1 6022   1.269   1.885   0.505  0.0967 -0.1327 -0.1667
  399TMC3    O2 6023   1.800   2.056   0.194 -0.2032  0.4039  0.6168
  400TMC3    C1 6024   4.165   0.348  16.603 -0.5861  0.2127  0.0244
  400TMC3    C2 6025   4.080   0.239  16.592 -0.5830  0.3457 -0.6060
  400TMC3    C3 6026   3.972   0.251  16.510  0.4147 -0.1861  0.7385
  400TMC3    C4 6027   4.132   0.463  16.538 -0.2103  0.5452 -0.9175
  400TMC3    C5 6028   4.018   0.471  16.465 -0.0060  0.2533 -0.4885
  400TMC3    C6 6029   3.936   0.368  16.451 -0.1226  0.3629 -0.0377
  400TMC3     C 6030   4.280   0.330  16.681 -0.1926 -0.1201  0.7266
  400TMC3     O 6031   4.322   0.216  16.687 -0.6194 -0.6275  0.6565
  400TMC3     H 6032   4.101   0.146  16.644 -0.0093  0.1129 -1.2617
  400TMC3    H1 6033   4.205   0.543  16.531  1.8107 -1.2403 -0.4629
  400TMC3    H2 6034   3.839   0.386  16.406 -0.4697 -3.1959 -0.6679
  400TMC3    C7 6035   4.002   0.597  16.402  0.0753 -0.7550 -0.5156
  400TMC3    C8 6036   3.896   0.129  16.483  0.1871  0.4964 -0.6046
  400TMC3    O1 6037   3.931   0.600  16.296 -0.1121 -0.0284  0.0833
  400TMC3    O2 6038   3.939   0.030  16.546  0.7043  0.0987 -0.4875
  401MPD2     C 6039   2.741   3.999   0.855  0.0637 -0.3397  0.3565
  401MPD2    C1 6040   2.870   3.948   0.888  0.1422 -0.4019 -0.1217
  401MPD2    C2 6041   2.913   3.840   0.813  0.1152  0.4975  0.6280
  401MPD2    C3 6042   2.835   3.790   0.707 -0.8178  0.0988  0.4435
  401MPD2    C4 6043   2.716   3.845   0.676  0.4294  0.5396  0.5773
  401MPD2    C5 6044   2.665   3.947   0.756 -0.1507 -0.1371 -0.6903
  401MPD2     H 6045   3.012   3.797   0.818 -0.6154 -1.2894 -0.5509
  401MPD2    H1 6046   2.655   3.802   0.598 -3.2699  2.5715  2.3158
  401MPD2    H2 6047   2.687   4.069   0.917  1.0180  1.4938 -0.9120
  401MPD2    H3 6048   2.569   3.995   0.742  0.2034  0.3526 -1.3770
  401MPD2     N 6049   2.890   3.675   0.638  0.4000 -0.1134  0.1403
  401MPD2    H5 6050   2.989   3.662   0.654  0.5192 -0.6619 -1.0344
  401MPD2    N1 6051   2.956   4.009   0.978 -0.7604 -0.3538 -0.0741
  401MPD2    H7 6052   3.037   3.953   1.002 -1.5144 -1.4387 -0.0643
  402TMC3    C1 6053   2.935   3.510   0.484 -0.6160  0.6458  0.2388
  402TMC3    C2 6054   3.023   3.456   0.574  0.1638 -0.0490  0.3369
  402TMC3    C3 6055   3.118   3.376   0.516 -0.2011 -0.0584 -0.2126
  402TMC3    C4 6056   2.946   3.501   0.345  0.2071  0.5484  0.8338
  402TMC3    C5 6057   3.046   3.419   0.291  0.2538 -0.3339  0.0499
  402TMC3    C6 6058   3.125   3.350   0.379  0.3555  0.0487 -0.5761
  402TMC3     C 6059   2.835   3.605   0.529 -0.3581  0.2869 -0.5906
  402TMC3     O 6060   2.733   3.630   0.466  0.1220  0.1387 -0.3358
  402TMC3     H 6061   3.009   3.464   0.681 -0.3746 -2.1752  0.4204
  402TMC3    H1 6062   2.881   3.553   0.275 -0.9737 -1.7636  0.2141
  402TMC3    H2 6063   3.204   3.287   0.339 -2.4013 -3.3016 -0.6645
  402TMC3    C7 6064   3.101   3.461   0.160  0.8644 -0.6766 -0.3297
  402TMC3    C8 6065   3.213   3.305   0.599  0.7008  0.0550  0.5390
  402TMC3    O1 6066   3.083   3.578   0.123 -0.0541  0.2400 -0.3265
  402TMC3    O2 6067   3.265   3.207   0.548  0.5289  0.0003  0.6183
  403MPD2     C 6068   1.053   2.385  13.181  0.4114 -0.3947 -0.3659
  403MPD2    C1 6069   0.949   2.425  13.256 -0.3961 -0.0747 -0.0687
  403MPD2    C2 6070   0.988   2.468  13.385  0.4667  0.3522  0.1999
  403MPD2    C3 6071   1.119   2.459  13.435  0.1385 -0.1980 -0.4136
  403MPD2    C4 6072   1.215   2.426  13.351  0.0877  0.2017  0.8741
  403MPD2    C5 6073   1.189   2.401  13.218  0.0830  0.4538  0.2212
  403MPD2     H 6074   0.907   2.504  13.447  0.0992 -3.0059  1.6601
  403MPD2    H1 6075   1.316   2.414  13.388  0.6956 -0.2876 -0.9883
  403MPD2    H2 6076   1.037   2.342  13.082 -0.2409 -0.9006 -0.0395
  403MPD2    H3 6077   1.273   2.353  13.170  0.9413  0.4613  1.6995
  403MPD2     N 6078   1.141   2.478  13.578  0.0960  0.6653 -1.2541
  403MPD2    H5 6079   1.057   2.504  13.629 -0.0722  1.7543 -2.0739
  403MPD2    N1 6080   0.814   2.404  13.212  0.1917  0.4094  0.1177
  403MPD2    H7 6081   0.814   2.367  13.117 -1.2282  0.9945 -0.1138
  404TMC3    C1 6082   0.591   2.339  13.228 -0.4059  0.4449  0.4330
  404TMC3    C2 6083   0.524   2.253  13.309 -0.1853 -1.0638 -0.1164
  404TMC3    C3 6084   0.493   2.132  13.263  0.7449 -0.2708  0.1633
  404TMC3    C4 6085   0.588   2.323  13.093  0.5366 -0.7122 -0.5608
  404TMC3    C5 6086   0.553   2.203  13.049 -0.1469  0.6915 -0.2862
  404TMC3    C6 6087   0.510   2.110  13.132 -0.0353 -0.2985  0.2066
  404TMC3     C 6088   0.701   2.409  13.291  0.4742  0.1240  0.5480
  404TMC3     O 6089   0.687   2.444  13.410 -0.1722  0.0723  0.3751
  404TMC3     H 6090   0.522   2.275  13.415  2.4516 -0.9802 -0.0891
  404TMC3    H1 6091   0.638   2.389  13.024  1.4282  0.5158  1.2403
  404TMC3    H2 6092   0.505   2.010  13.091 -1.2676 -0.4521  0.7417
  404TMC3    C7 6093   0.522   2.182  12.909 -0.2143  0.4605 -0.5572
  404TMC3    C8 6094   0.551   2.019  13.340 -1.0163  0.7816 -0.1036
  404TMC3    O1 6095   0.437   2.097  12.897  0.3237  0.0247  0.5899
  404TMC3    O2 6096   0.608   1.930  13.281  0.4549 -0.6394  0.2408
  405MPD2     C 6097   1.302   3.509  15.028  0.6869 -0.5623 -0.6403
  405MPD2    C1 6098   1.206   3.467  14.934 -0.3150 -1.0199 -0.6961
  405MPD2    C2 6099   1.075   3.470  14.970  0.3846  1.2574 -0.2808
  405MPD2    C3 6100   1.037   3.508  15.100  0.2005  0.5854  0.5378
  405MPD2    C4 6101   1.134   3.551  15.191 -0.2193  0.7416  0.1436
  405MPD2    C5 6102   1.263   3.554  15.151  0.5540 -0.0993  0.4347
  405MPD2     H 6103   0.998   3.430  14.904 -0.2687 -4.1269  3.7303
  405MPD2    H1 6104   1.112   3.566  15.296  2.0564  0.4647  0.6687
  405MPD2    H2 6105   1.409   3.494  15.019  0.9679  1.4880 -0.7840
  405MPD2    H3 6106   1.340   3.577  15.223 -0.4898 -0.1300  1.5590
  405MPD2     N 6107   0.907   3.489  15.141 -0.0096  0.5860 -0.6890
  405MPD2    H5 6108   0.838   3.496  15.067  0.7588 -0.0463 -1.4671
  405MPD2    N1 6109   1.244   3.416  14.810 -0.6092 -0.4130  0.1794
  405MPD2    H7 6110   1.345   3.412  14.797 -0.3391  0.0746  2.0661
  406TMC3    C1 6111   0.534   3.535  15.154 -0.0704 -0.5254  0.5993
  406TMC3    C2 6112   0.495   3.414  15.122  0.0153 -0.1561  0.4799
  406TMC3    C3 6113   0.561   3.310  15.180 -0.7534  0.0105 -0.5448
  406TMC3    C4 6114   0.647   3.552  15.230 -0.4359 -0.3585 -0.1080
  406TMC3    C5 6115   0.727   3.450  15.268 -0.2578  0.0239 -0.9415
  406TMC3    C6 6116   0.685   3.323  15.242 -0.1037 -0.3444  0.3167
  406TMC3     C 6117   0.490   3.645  15.081  0.5558  0.2360 -1.1481
  406TMC3     O 6118   0.515   3.756  15.130 -0.2977 -0.2024 -0.0500
  406TMC3     H 6119   0.403   3.398  15.067 -1.0752 -1.0779  2.5657
  406TMC3    H1 6120   0.669   3.654  15.260  0.3017 -0.0268 -1.8236
  406TMC3    H2 6121   0.749   3.237  15.263 -1.1286 -1.4177 -0.9663
  406TMC3    C7 6122   0.872   3.472  15.269  0.5264 -0.0361 -0.4676
  406TMC3    C8 6123   0.568   3.194  15.097  0.1820 -0.8586 -1.1373
  406TMC3    O1 6124   0.939   3.415  15.353 -0.2307 -0.1687  0.0432
  406TMC3    O2 6125   0.469   3.123  15.094 -0.0917 -0.2155 -0.0376
  407MPD2     C 6126   3.365   4.053   9.992 -0.2898 -0.0305 -0.7595
  407MPD2    C1 6127   3.463   4.130   9.940 -0.4830 -0.2668 -0.3021
  407MPD2    C2 6128   3.475   4.266   9.972  0.5695 -0.9889 -0.6407
  407MPD2    C3 6129   3.369   4.321  10.044 -0.7381  0.3968 -0.3185
  407MPD2    C4 6130   3.262   4.245  10.085 -0.3554 -0.2799 -0.2137
  407MPD2    C5 6131   3.262   4.110  10.065  0.4579  0.3163  0.7564
  407MPD2     H 6132   3.557   4.328   9.937  0.6463  0.1508  1.5741
  407MPD2    H1 6133   3.187   4.290  10.149 -1.4970 -1.5489 -0.6548
  407MPD2    H2 6134   3.373   3.947   9.975  1.1314  0.1828 -1.4163
  407MPD2    H3 6135   3.201   4.039  10.119  0.3408  1.1352  1.7014
  407MPD2     N 6136   3.373   4.457  10.077  0.1241 -0.0613 -0.0242
  407MPD2    H5 6137   3.286   4.499  10.107  0.3145  0.5586 -0.3389
  407MPD2    N1 6138   3.559   4.073   9.858  0.7753 -0.2800 -0.1022
  407MPD2    H7 6139   3.614   4.141   9.807 -1.7578  2.7583  1.2584
  408TMC3    C1 6140   3.629   3.913   9.699  0.2969 -0.3574  0.7324
  408TMC3    C2 6141   3.760   3.888   9.703  0.1988 -0.4253  0.2570
  408TMC3    C3 6142   3.842   3.930   9.602 -0.1076 -0.7257 -0.1832
  408TMC3    C4 6143   3.569   3.988   9.602  0.1741 -0.5665  0.1588
  408TMC3    C5 6144   3.655   4.033   9.505 -0.3679  0.2307  0.3343
  408TMC3    C6 6145   3.789   4.001   9.496  0.5004 -0.0374  0.2323
  408TMC3     C 6146   3.582   3.937   9.834 -0.0269 -0.0195  0.2363
  408TMC3     O 6147   3.574   3.844   9.910  0.2014 -0.2411  0.2539
  408TMC3     H 6148   3.798   3.846   9.796 -0.6321  0.8664  1.1875
  408TMC3    H1 6149   3.471   4.026   9.627 -0.5650 -1.9781 -0.6336
  408TMC3    H2 6150   3.849   4.042   9.416  0.3065 -2.5383 -1.2006
  408TMC3    C7 6151   3.602   4.133   9.408 -0.1387 -0.0842 -0.0950
  408TMC3    C8 6152   3.987   3.929   9.634  0.5302  0.4770  0.0623
  408TMC3    O1 6153   3.677   4.206   9.345  0.5184  0.3704  0.1572
  408TMC3    O2 6154   4.022   3.849   9.720 -0.4211  0.4239  0.0543
  409MPD2     C 6155   3.082   4.688  16.873 -0.7339 -0.0309  0.9635
  409MPD2    C1 6156   3.185   4.733  16.961  0.1994 -0.0771  0.2040
  409MPD2    C2 6157   3.279   0.082  16.913 -0.2690  0.5586  0.0788
  409MPD2    C3 6158   3.275   0.129  16.782 -0.8857  0.2699  0.3311
  409MPD2    C4 6159   3.171   0.095  16.699  0.1133 -0.8099 -0.3403
  409MPD2    C5 6160   3.079   0.000  16.746 -0.0966  0.6575 -0.1666
  409MPD2     H 6161   3.347   0.116  16.990  0.4494 -1.4113  0.3037
  409MPD2    H1 6162   3.151   0.138  16.602  0.1837 -0.1094 -0.0424
  409MPD2    H2 6163   3.015   4.606  16.896  0.9351 -1.6977 -0.0803
  409MPD2    H3 6164   3.000   4.709  16.677  1.4121 -1.9823 -0.8863
  409MPD2     N 6165   3.378   0.216  16.735  0.0778 -0.6079  0.2968
  409MPD2    H5 6166   3.365   0.244  16.638  1.9129  0.3438  0.3372
  409MPD2    N1 6167   3.200   4.694  17.102 -0.0549 -0.0765  0.5528
  409MPD2    H7 6168   3.266   0.009  17.160  1.3507  0.1773 -1.2336
  410TMC3    C1 6169   3.584   0.330  16.722 -0.1593 -0.3383 -0.6368
  410TMC3    C2 6170   3.709   0.342  16.783 -0.2995 -0.3324 -0.1623
  410TMC3    C3 6171   3.778   0.450  16.740  0.0560  0.3903  0.8523
  410TMC3    C4 6172   3.541   0.402  16.618 -0.0597 -0.0803  0.1734
  410TMC3    C5 6173   3.627   0.497  16.579 -0.2256  0.0100  0.1009
  410TMC3    C6 6174   3.748   0.526  16.641  0.6142 -0.2918 -0.1075
  410TMC3     C 6175   3.487   0.263  16.800 -0.0721  0.4449 -0.1440
  410TMC3     O 6176   3.516   0.242  16.917 -0.5531  0.4166  0.1196
  410TMC3     H 6177   3.739   0.276  16.864 -0.8057  1.0771  1.1758
  410TMC3    H1 6178   3.436   0.400  16.591  0.0591  0.6563 -0.3416
  410TMC3    H2 6179   3.814   0.606  16.608  0.5243 -0.5286 -0.8702
  410TMC3    C7 6180   3.589   0.547  16.445 -0.2147  0.3568 -0.5856
  410TMC3    C8 6181   3.898   0.476  16.807  0.0458  0.2446 -0.0699
  410TMC3    O1 6182   3.487   0.496  16.398  0.0122  0.1668  0.2014
  410TMC3    O2 6183   3.937   0.592  16.801 -0.0380 -0.5638 -0.1644
  411MPD2     C 6184   3.644   1.309  14.239  0.2998 -0.3760 -0.0656
  411MPD2    C1 6185   3.529   1.312  14.313 -0.0032 -0.1788  0.4924
  411MPD2    C2 6186   3.445   1.198  14.317  0.1963  0.5211 -0.0386
  411MPD2    C3 6187   3.483   1.082  14.259  0.5874 -0.1851  0.6615
  411MPD2    C4 6188   3.605   1.077  14.200  0.1081 -0.7483  0.3328
  411MPD2    C5 6189   3.685   1.188  14.191 -0.2958 -0.1331  0.3722
  411MPD2     H 6190   3.345   1.216  14.357 -0.2234  1.3764 -1.4977
  411MPD2    H1 6191   3.642   0.994  14.141  2.4452 -0.8661  1.9925
  411MPD2    H2 6192   3.714   1.392  14.236 -2.0152  1.5217 -2.3660
  411MPD2    H3 6193   3.783   1.187  14.145 -0.3597  0.4547  0.2173
  411MPD2     N 6194   3.398   0.968  14.252  0.2363  0.1289 -0.0188
  411MPD2    H5 6195   3.430   0.893  14.192 -2.2191  1.0468 -2.4440
  411MPD2    N1 6196   3.498   1.429  14.380 -0.6822  1.0074 -0.3668
  411MPD2    H7 6197   3.544   1.514  14.346 -0.9552  2.2846  2.4587
  412TMC3    C1 6198   3.212   0.824  14.282 -0.1254 -0.2628 -1.0221
  412TMC3    C2 6199   3.103   0.790  14.355  0.4192 -0.5211  0.1741
  412TMC3    C3 6200   3.025   0.688  14.311 -0.0440  0.3949 -0.3089
  412TMC3    C4 6201   3.222   0.782  14.151  0.6307 -0.6418 -0.0348
  412TMC3    C5 6202   3.134   0.686  14.107  0.1872 -0.0376  0.2160
  412TMC3    C6 6203   3.057   0.624  14.197 -0.0365 -0.5903  1.0771
  412TMC3     C 6204   3.281   0.950  14.326  0.6000  0.3910  0.0662
  412TMC3     O 6205   3.235   1.008  14.425  0.8995  0.7452  0.1618
  412TMC3     H 6206   3.087   0.825  14.456 -5.2084  0.8303 -1.2124
  412TMC3    H1 6207   3.299   0.822  14.086  1.4022 -2.4776 -0.2502
  412TMC3    H2 6208   2.999   0.539  14.162  1.1050 -0.5242 -0.9842
  412TMC3    C7 6209   3.049   0.750  14.002  0.2533 -0.0242 -0.1076
  412TMC3    C8 6210   2.883   0.701  14.317 -0.5220 -0.0234  1.0561
  412TMC3    O1 6211   2.931   0.717  14.001 -0.0443 -0.1530 -0.7660
  412TMC3    O2 6212   2.839   0.813  14.334  0.3851  0.2626  0.2107
  413MPD2     C 6213   0.472   0.007  15.306 -0.2906 -0.1150 -0.4821
  413MPD2    C1 6214   0.401   4.624  15.294 -0.7128  0.5490 -0.3746
  413MPD2    C2 6215   0.474   4.509  15.287  0.1998 -1.3697 -0.5468
  413MPD2    C3 6216   0.611   4.503  15.321  0.2209  0.1394 -0.1097
  413MPD2    C4 6217   0.678   4.620  15.338 -0.2502 -0.7419  1.0362
  413MPD2    C5 6218   0.607   0.001  15.321 -0.1372  0.8696 -0.0306
  413MPD2     H 6219   0.426   4.419  15.251  1.2761 -2.6286  1.1484
  413MPD2    H1 6220   0.785   4.610  15.355 -0.5818 -1.3594  2.7101
  413MPD2    H2 6221   0.424   0.104  15.298  2.0103  1.0262 -0.3115
  413MPD2    H3 6222   0.659   0.096  15.328  0.3035  0.6472 -0.2755
  413MPD2     N 6223   0.671   4.379  15.300  0.2093 -0.4432 -0.0707
  413MPD2    H5 6224   0.597   4.312  15.282 -0.0662 -0.1500 -0.0240
  413MPD2    N1 6225   0.260   4.620  15.269 -0.7614 -0.2906  0.3157
  413MPD2    H7 6226   0.205   4.703  15.250 -2.7895 -1.8349 -0.5737
  414TMC3    C1 6227   0.820   4.209  15.251 -0.4930  0.2186 -0.2416
  414TMC3    C2 6228   0.901   4.118  15.312 -0.5695 -0.0559 -0.0437
  414TMC3    C3 6229   0.888   3.985  15.276  0.2931 -0.2695  0.4202
  414TMC3    C4 6230   0.737   4.171  15.151  0.7237  0.0045  0.2665
  414TMC3    C5 6231   0.741   4.042  15.105  0.4131 -0.0768 -0.5647
  414TMC3    C6 6232   0.808   3.941  15.171 -0.1511  0.1460 -0.1198
  414TMC3     C 6233   0.796   4.334  15.324  0.2801 -0.3646 -0.8861
  414TMC3     O 6234   0.882   4.382  15.397  0.2997 -0.3046  0.3113
  414TMC3     H 6235   0.946   4.148  15.405 -3.2022 -2.6032  2.0503
  414TMC3    H1 6236   0.682   4.240  15.088  0.0380 -1.6338 -0.9357
  414TMC3    H2 6237   0.797   3.836  15.146 -2.7864 -0.0216  1.7182
  414TMC3    C7 6238   0.646   4.019  14.994 -0.4080  0.2418 -0.3827
  414TMC3    C8 6239   0.922   3.877  15.366  0.0545  1.0363  0.1501
  414TMC3    O1 6240   0.539   4.079  15.011  0.3106 -0.3377 -0.1944
  414TMC3    O2 6241   0.839   3.784  15.364 -0.3705  0.0091 -0.6650
  415TMC3    C1 6242   0.951   2.395  10.399 -0.4098  0.7034  0.3892
  415TMC3    C2 6243   1.026   2.445  10.299  0.4886  0.1033 -0.3784
  415TMC3    C3 6244   0.976   2.421  10.175 -0.5629 -0.2601 -0.0524
  415TMC3    C4 6245   0.831   2.333  10.383 -0.6054 -0.1890 -1.5304
  415TMC3    C5 6246   0.782   2.305  10.263 -0.0322  0.1139  0.7119
  415TMC3    C6 6247   0.856   2.352  10.159  0.2904  0.9801  0.3313
  415TMC3     C 6248   0.990   2.408  10.540  0.7180  0.1190 -0.9327
  415TMC3     O 6249   0.903   2.438  10.622 -0.0933 -0.5699  0.0850
  415TMC3     H 6250   1.126   2.478  10.323 -0.3438 -0.0038  3.2048
  415TMC3    H1 6251   0.766   2.318  10.469  1.7236 -3.6115 -0.3825
  415TMC3    H2 6252   0.825   2.321  10.059  2.9587 -0.6685  0.0229
  415TMC3    C7 6253   0.655   2.241  10.241 -0.5257  0.1065 -0.1592
  415TMC3    C8 6254   1.061   2.459  10.060  0.0423  0.0602  0.4060
  415TMC3    O1 6255   0.592   2.287  10.150  0.2837  0.2335 -0.0134
  415TMC3    O2 6256   1.019   2.418   9.954  0.7780 -0.4379 -0.2380
  416MPD2     C 6257   2.400   1.006  12.073 -0.5171 -0.3130 -0.9548
  416MPD2    C1 6258   2.354   1.060  11.958  0.1476  0.5527  0.3482
  416MPD2    C2 6259   2.361   0.987  11.845  0.2610  0.2787 -0.0149
  416MPD2    C3 6260   2.406   0.853  11.849 -0.7588 -0.3496 -0.5163
  416MPD2    C4 6261   2.442   0.800  11.969 -0.4881 -0.1313  0.1687
  416MPD2    C5 6262   2.457   0.883  12.077 -0.0807  0.0560 -0.4315
  416MPD2     H 6263   2.321   1.020  11.750 -0.6719 -1.4330 -0.2215
  416MPD2    H1 6264   2.468   0.695  11.967 -2.0914 -0.5823  1.9369
  416MPD2    H2 6265   2.404   1.060  12.167  1.8823 -1.1092 -0.5936
  416MPD2    H3 6266   2.510   0.854  12.167  0.3814 -1.1491 -1.0887
  416MPD2     N 6267   2.396   0.762  11.741 -0.3119  0.3204  0.3488
  416MPD2    H5 6268   2.442   0.672  11.750  0.1213  0.5204  0.1337
  416MPD2    N1 6269   2.301   1.191  11.961  0.3266 -0.5800  0.2737
  416MPD2    H7 6270   2.300   1.241  12.049 -2.1720 -1.7151  0.8860
  417TMC3    C1 6271   2.223   1.403  11.888 -0.0887 -0.8422 -0.0449
  417TMC3    C2 6272   2.269   1.451  12.008  0.0050  0.0385 -0.3617
  417TMC3    C3 6273   2.248   1.580  12.034  0.7741 -0.0498  0.1461
  417TMC3    C4 6274   2.138   1.468  11.800  0.1629  0.5088  0.3067
  417TMC3    C5 6275   2.125   1.598  11.830 -0.5989 -0.1679  0.0224
  417TMC3    C6 6276   2.167   1.655  11.945 -0.0150  0.5146 -0.1260
  417TMC3     C 6277   2.268   1.266  11.847 -0.2971 -0.2843 -0.5096
  417TMC3     O 6278   2.287   1.252  11.727 -0.0647 -0.0719 -0.0467
  417TMC3     H 6279   2.332   1.392  12.073 -2.0432 -0.8770  0.7813
  417TMC3    H1 6280   2.109   1.424  11.705  2.5721 -1.4373  0.4694
  417TMC3    H2 6281   2.133   1.754  11.973 -0.8183  0.1223  0.2911
  417TMC3    C7 6282   2.095   1.694  11.724  0.5628  0.4222  0.4458
  417TMC3    C8 6283   2.279   1.634  12.166  0.2122  0.7386  0.0262
  417TMC3    O1 6284   2.159   1.797  11.729  0.5752 -0.0340 -0.2074
  417TMC3    O2 6285   2.208   1.721  12.209 -0.1379  0.1667 -0.1669
  418TMC3    C1 6286   2.185   2.940  17.735  0.1433 -0.0567  0.8571
  418TMC3    C2 6287   2.064   3.013   0.009 -0.6205  0.1078 -0.4950
  418TMC3    C3 6288   1.998   2.999   0.132 -0.4513 -0.0057  0.0887
  418TMC3    C4 6289   2.238   2.866   0.095 -0.4895  0.0519  0.0243
  418TMC3    C5 6290   2.167   2.859   0.215  0.7297  0.0093 -0.1573
  418TMC3    C6 6291   2.045   2.921   0.238 -0.2564 -0.3357  0.2441
  418TMC3     C 6292   2.236   2.934  17.601  0.1805  1.1705  0.1973
  418TMC3     O 6293   2.219   3.038  17.539 -0.0645  0.0204 -0.3703
  418TMC3     H 6294   2.013   3.060  17.665  1.0779  0.8107 -1.1390
  418TMC3    H1 6295   2.330   2.810   0.086 -0.8677 -0.5752  0.0440
  418TMC3    H2 6296   1.973   2.889   0.312 -0.4154 -0.6329 -0.0386
  418TMC3    C7 6297   2.209   2.756   0.306  0.4013 -0.2505 -0.1181
  418TMC3    C8 6298   1.855   2.986   0.122 -0.9405  0.3312 -0.0653
  418TMC3    O1 6299   2.264   2.663   0.248 -0.1040 -0.1313  0.2516
  418TMC3    O2 6300   1.805   3.086   0.072  0.2685  0.2937 -0.3911
  419MPD2     C 6301   0.249   1.003  12.707  0.4600 -0.3765  0.0165
  419MPD2    C1 6302   0.167   1.102  12.659  0.7503 -1.0802  0.7608
  419MPD2    C2 6303   0.129   1.213  12.742  0.4709  0.3443 -0.0315
  419MPD2    C3 6304   0.179   1.220  12.870  0.1167  0.0726 -0.3338
  419MPD2    C4 6305   0.265   1.123  12.909 -0.2393  0.3894  0.4537
  419MPD2    C5 6306   0.302   1.012  12.836  0.6810 -0.2604  0.3496
  419MPD2     H 6307   0.069   1.291  12.697 -0.2852 -0.1777  0.0746
  419MPD2    H1 6308   0.311   1.126  13.007 -1.6470 -0.3796  1.1459
  419MPD2    H2 6309   0.287   0.923  12.644  0.5955 -1.0731  0.9849
  419MPD2    H3 6310   0.364   0.933  12.876  0.2301 -0.6979  0.1868
  419MPD2     N 6311   0.131   1.326  12.958  0.0445  0.0959  0.1745
  419MPD2    H5 6312   0.066   1.394  12.918  0.6448 -0.5208 -1.7800
  419MPD2    N1 6313   0.134   1.115  12.523 -0.0830  0.0267  0.5475
  419MPD2    H7 6314   0.103   1.206  12.490  1.6326  0.3146 -0.2821
  420TMC3    C1 6315   0.074   1.449  13.142  0.2606 -0.0657  0.0285
  420TMC3    C2 6316   0.004   1.539  13.063  0.9380 -0.7944 -0.0657
  420TMC3    C3 6317   4.631   1.602  13.107  0.0491 -0.1092 -0.4446
  420TMC3    C4 6318   0.045   1.435  13.278 -0.1139  0.1314 -0.0526
  420TMC3    C5 6319   4.665   1.499  13.321 -0.4205 -0.3024 -0.8539
  420TMC3    C6 6320   4.584   1.574  13.234 -0.1766 -0.3404  0.0620
  420TMC3     C 6321   0.157   1.347  13.088  0.8143  0.7402  0.3049
  420TMC3     O 6322   0.222   1.271  13.162  0.2933 -0.3221 -0.4436
  420TMC3     H 6323   0.032   1.551  12.959  0.1238  1.6003 -0.0027
  420TMC3    H1 6324   0.090   1.345  13.318 -1.2338 -0.8463 -1.0054
  420TMC3    H2 6325   4.489   1.610  13.272 -1.1393 -0.8613 -1.8546
  420TMC3    C7 6326   4.604   1.447  13.443 -0.1503 -0.5514 -0.5555
  420TMC3    C8 6327   4.530   1.628  13.004 -0.6117 -0.4052 -0.0029
  420TMC3    O1 6328   4.655   1.344  13.487  0.2118  0.7000 -0.4369
  420TMC3    O2 6329   4.554   1.692  12.903 -0.3769  0.3206 -0.5209
  421TMC3    C1 6330   1.261   2.513  13.777  0.1026 -0.0554  0.0587
  421TMC3    C2 6331   1.225   2.643  13.785  0.3086 -0.5173 -0.2347
  421TMC3    C3 6332   1.276   2.730  13.880  0.0683  0.9572 -0.3327
  421TMC3    C4 6333   1.346   2.458  13.865 -0.4268 -0.3239 -0.6142
  421TMC3    C5 6334   1.381   2.538  13.967 -0.0014 -0.4178 -0.0503
  421TMC3    C6 6335   1.350   2.671  13.980  0.8894 -0.3539 -0.3809
  421TMC3     C 6336   1.262   2.451  13.645  0.4506 -0.0443 -0.0467
  421TMC3     O 6337   1.374   2.417  13.603  0.1107  0.1580 -1.2887
  421TMC3     H 6338   1.156   2.682  13.711  2.2379 -1.2605 -2.4346
  421TMC3    H1 6339   1.384   2.358  13.852 -1.2845 -0.8974  1.4041
  421TMC3    H2 6340   1.402   2.726  14.058  1.3259  0.5949 -1.3370
  421TMC3    C7 6341   1.470   2.486  14.070  0.2005  0.2450 -0.1427
  421TMC3    C8 6342   1.205   2.852  13.909  0.6352  0.0016 -0.5610
  421TMC3    O1 6343   1.512   2.561  14.154  0.3656 -0.0130  0.2588
  421TMC3    O2 6344   1.219   2.890  14.022 -0.2252  0.0264 -0.6339
  422TMC3    C1 6345   3.706   4.056  12.309 -0.6003 -0.3123 -0.5390
  422TMC3    C2 6346   3.717   4.156  12.401  0.7759 -0.2029 -1.0856
  422TMC3    C3 6347   3.606   4.220  12.436 -0.0154  0.4092  1.3845
  422TMC3    C4 6348   3.585   4.023  12.252  0.0158 -0.0023  0.1376
  422TMC3    C5 6349   3.475   4.093  12.299 -0.4247  0.5988  0.6696
  422TMC3    C6 6350   3.483   4.191  12.387  0.0964  0.5422 -0.0799
  422TMC3     C 6351   3.821   4.026  12.231 -0.0081 -0.1913 -0.8088
  422TMC3     O 6352   3.801   4.000  12.113  0.1760  0.5532 -0.0073
  422TMC3     H 6353   3.813   4.183  12.443 -1.1520  3.3562  1.0993
  422TMC3    H1 6354   3.577   3.933  12.191 -2.3324 -0.4155  1.0419
  422TMC3    H2 6355   3.403   4.264  12.397  0.9550  1.5596 -0.6589
  422TMC3    C7 6356   3.348   4.036  12.270 -0.1923 -0.0589 -0.8464
  422TMC3    C8 6357   3.624   4.305  12.556  0.4473  0.0931  0.0350
  422TMC3    O1 6358   3.348   3.917  12.256 -0.6303  0.0980 -0.2620
  422TMC3    O2 6359   3.733   4.360  12.557  0.0755  0.0805  0.4028
  423MPD2     C 6360   0.604   0.100   0.652  0.8731  0.3909  0.0480
  423MPD2    C1 6361   0.625   4.696   0.659 -0.2449  0.0469 -0.3673
  423MPD2    C2 6362   0.642   4.619   0.546  0.5324  0.1296  0.9573
  423MPD2    C3 6363   0.620   4.680   0.425  0.0236  0.0390  0.7328
  423MPD2    C4 6364   0.600   0.084   0.414 -0.0519 -0.1510  0.0190
  423MPD2    C5 6365   0.596   0.158   0.529 -0.2507  0.4743  0.1617
  423MPD2     H 6366   0.664   4.514   0.560 -1.0223 -0.0930  1.7446
  423MPD2    H1 6367   0.595   0.139   0.321 -1.1542  0.9748  0.7452
  423MPD2    H2 6368   0.606   0.165   0.739  0.6563 -0.0064  0.3494
  423MPD2    H3 6369   0.585   0.265   0.520 -1.0657  0.3910  0.1493
  423MPD2     N 6370   0.619   4.612   0.304 -0.2566  1.0310 -0.1963
  423MPD2    H5 6371   0.622   4.671   0.221 -1.0116  1.6470  0.2135
  423MPD2    N1 6372   0.650   4.632   0.787 -0.0722 -0.3411  0.3657
  423MPD2    H7 6373   0.689   4.538   0.787  0.0489 -0.2943 -0.4882
  424TMC3    C1 6374   0.651   4.602   1.022  0.5575 -0.4286  1.0586
  424TMC3    C2 6375   0.776   4.549   1.031  0.7947 -1.0660  0.1700
  424TMC3    C3 6376   0.808   4.479   1.147  0.5382  0.1354 -0.6635
  424TMC3    C4 6377   0.563   4.604   1.126 -0.3049 -0.2481  0.1524
  424TMC3    C5 6378   0.605   4.550   1.244 -0.1576  0.1046 -0.3608
  424TMC3    C6 6379   0.728   4.498   1.256  0.8959  0.3055  0.0938
  424TMC3     C 6380   0.610   4.687   0.909 -0.2879 -0.5195 -0.0321
  424TMC3     O 6381   0.544   0.053   0.940  0.5924 -0.2965 -0.4162
  424TMC3     H 6382   0.840   4.566   0.945 -0.6538 -0.7786 -0.8556
  424TMC3    H1 6383   0.465   4.648   1.118  1.0263  2.7887  0.4392
  424TMC3    H2 6384   0.752   4.462   1.356 -0.5640  0.6583  0.5779
  424TMC3    C7 6385   0.510   4.513   1.352 -0.4616 -0.4270 -0.1041
  424TMC3    C8 6386   0.926   4.400   1.166  0.3276  0.5012 -0.5162
  424TMC3    O1 6387   0.544   4.499   1.470 -0.4207 -0.1774  0.4358
  424TMC3    O2 6388   0.917   4.324   1.261  0.4165  0.8900 -0.5683
  425MPD2     C 6389   4.384   3.948  17.381  0.4368  0.2757  0.4344
  425MPD2    C1 6390   4.340   3.819  17.351 -0.4299  0.2556  0.1504
  425MPD2    C2 6391   4.217   3.795  17.388  0.7374 -0.0340 -0.4001
  425MPD2    C3 6392   4.134   3.887  17.456  0.0050  0.0067  0.3189
  425MPD2    C4 6393   4.172   4.016  17.474 -0.6960  0.5832  0.1729
  425MPD2    C5 6394   4.300   4.049  17.433 -0.5326 -0.1641 -0.1795
  425MPD2     H 6395   4.171   3.701  17.362 -1.9976  1.3525 -0.5665
  425MPD2    H1 6396   4.119   4.096  17.524  0.0523  1.8497 -1.0496
  425MPD2    H2 6397   4.480   3.983  17.345 -0.4211  1.0095 -1.1667
  425MPD2    H3 6398   4.338   4.148  17.456  1.0225 -0.7350 -0.3124
  425MPD2     N 6399   4.005   3.839  17.490 -0.4594 -0.3437  0.1209
  425MPD2    H5 6400   3.990   3.740  17.476 -1.5499 -0.0612 -0.6306
  425MPD2    N1 6401   4.424   3.734  17.273 -0.1958 -0.0790  0.3343
  425MPD2    H7 6402   4.522   3.762  17.268  0.2051 -1.6466 -0.7952
  426TMC3    C1 6403   4.476   3.561  17.116  0.4611 -0.3121  0.7506
  426TMC3    C2 6404   4.412   3.488  17.010 -0.6888 -0.1458  0.0865
  426TMC3    C3 6405   4.462   3.372  16.963  0.0615 -0.7269  0.3017
  426TMC3    C4 6406   4.584   3.505  17.173 -0.6633  0.1894 -0.3942
  426TMC3    C5 6407   4.614   3.373  17.142 -0.6654 -0.0768 -0.1500
  426TMC3    C6 6408   4.568   3.312  17.029  0.1146  0.3176 -0.0647
  426TMC3     C 6409   4.376   3.637  17.194 -0.3659 -0.4234  0.0682
  426TMC3     O 6410   4.259   3.615  17.168  0.6141  0.1281 -0.0227
  426TMC3     H 6411   4.340   3.545  16.952 -0.7245  0.3343  0.6044
  426TMC3    H1 6412   4.619   3.549  17.266 -0.4658 -2.2876  0.6984
  426TMC3    H2 6413   4.604   3.213  17.006 -0.1623  0.2576 -0.2471
  426TMC3    C7 6414   4.586   3.288  17.253  0.1789  0.0713 -0.1046
  426TMC3    C8 6415   4.416   3.308  16.841  0.2937  0.8944  0.7924
  426TMC3    O1 6416   4.533   3.342  17.349 -0.1358  0.2447 -0.2534
  426TMC3    O2 6417   4.495   3.225  16.788  0.1224 -0.3587  0.4164
  427MPD2     C 6418   2.650   1.117  14.537  0.2488 -0.1819  0.5478
  427MPD2    C1 6419   2.610   1.099  14.667 -0.1072 -0.5558 -0.2498
  427MPD2    C2 6420   2.480   1.136  14.711  0.3077  0.1132  0.7558
  427MPD2    C3 6421   2.390   1.181  14.610 -0.3565 -0.1560  0.1631
  427MPD2    C4 6422   2.420   1.185  14.474  0.0266  0.5492 -0.1459
  427MPD2    C5 6423   2.549   1.150  14.441  0.0123  0.2595 -0.2066
  427MPD2     H 6424   2.457   1.124  14.816 -0.3405  1.6566  0.8012
  427MPD2    H1 6425   2.349   1.225  14.404  1.6679 -1.3040 -2.8517
  427MPD2    H2 6426   2.755   1.110  14.511  0.0868 -0.6321  0.0073
  427MPD2    H3 6427   2.580   1.176  14.340 -0.9482  0.4345 -0.4558
  427MPD2     N 6428   2.262   1.222  14.642 -0.2562 -0.2207  0.2611
  427MPD2    H5 6429   2.215   1.291  14.583  0.3533  1.7620  2.0779
  427MPD2    N1 6430   2.700   1.065  14.771  0.2051 -0.3479 -0.0018
  427MPD2    H7 6431   2.665   1.062  14.867 -0.9011 -0.2822 -0.4066
  428TMC3    C1 6432   2.900   0.990  14.886  0.5462 -0.1384  0.0476
  428TMC3    C2 6433   2.819   0.929  14.977  1.1786  0.2547  0.1686
  428TMC3    C3 6434   2.883   0.873  15.084  0.2035  0.6668 -0.2404
  428TMC3    C4 6435   3.038   0.990  14.893  0.1825  0.4460 -0.1005
  428TMC3    C5 6436   3.094   0.937  15.001 -0.2414 -0.6103  0.0254
  428TMC3    C6 6437   3.019   0.869  15.094  0.4884 -0.0192 -0.5810
  428TMC3     C 6438   2.835   1.042  14.764  0.8738  1.1575  0.0862
  428TMC3     O 6439   2.913   1.055  14.667 -1.2116 -0.0989  0.3034
  428TMC3     H 6440   2.712   0.946  14.978  1.2718  0.9467 -1.4330
  428TMC3    H1 6441   3.096   1.046  14.820  1.2634 -0.0709  0.3702
  428TMC3    H2 6442   3.067   0.820  15.177 -1.2794  0.6369  0.8363
  428TMC3    C7 6443   3.200   1.004  15.076  0.3117 -0.1899  0.4436
  428TMC3    C8 6444   2.813   0.812  15.197 -0.9604 -0.1396  0.2281
  428TMC3    O1 6445   3.244   0.946  15.175  0.3093  0.0397 -0.0704
  428TMC3    O2 6446   2.884   0.752  15.277 -0.6420  0.1847 -0.6153
  429MPD2     C 6447   3.988   1.101  17.411  0.1226  0.6741  0.7425
  429MPD2    C1 6448   4.007   1.022  17.301  0.1092 -0.3152  0.1958
  429MPD2    C2 6449   4.032   1.078  17.180 -0.1813 -0.1249 -0.0798
  429MPD2    C3 6450   4.052   1.217  17.180  0.1706  0.2098  0.2071
  429MPD2    C4 6451   4.026   1.297  17.293  0.2207  0.3231 -0.0422
  429MPD2    C5 6452   3.994   1.237  17.410 -0.4737  0.5699  0.4021
  429MPD2     H 6453   4.053   1.027  17.087 -0.4192 -0.1471 -0.1193
  429MPD2    H1 6454   4.039   1.404  17.293 -0.5935  0.4241  0.2551
  429MPD2    H2 6455   3.969   1.062  17.510  1.5372  0.2498  0.8376
  429MPD2    H3 6456   3.980   1.299  17.497 -0.8354 -0.2407  0.9198
  429MPD2     N 6457   4.097   1.272  17.059  0.1403  0.1183 -0.2155
  429MPD2    H5 6458   4.092   1.206  16.982 -0.7190  0.4939 -0.4849
  429MPD2    N1 6459   3.985   0.878  17.301  0.4361 -0.0562 -0.0857
  429MPD2    H7 6460   3.996   0.830  17.213  0.4720 -2.8346  1.4578
  430TMC3    C1 6461   4.223   1.389  16.899 -0.7032 -0.3499 -0.0333
  430TMC3    C2 6462   4.218   1.503  16.825 -0.6265 -0.6040  0.4358
  430TMC3    C3 6463   4.267   1.492  16.697 -0.0098 -0.3947  0.3776
  430TMC3    C4 6464   4.276   1.267  16.862  0.2162 -0.0155 -0.1352
  430TMC3    C5 6465   4.320   1.259  16.741 -0.2088  0.5692 -0.4446
  430TMC3    C6 6466   4.324   1.373  16.660  0.4083 -0.2909 -0.9397
  430TMC3     C 6467   4.143   1.398  17.027  0.7093  1.0988 -0.0758
  430TMC3     O 6468   4.148   1.502  17.094 -0.5339  0.0734  0.4746
  430TMC3     H 6469   4.153   1.585  16.853  0.7679  0.3575  0.8653
  430TMC3    H1 6470   4.280   1.179  16.925  0.1849 -1.0922 -1.6597
  430TMC3    H2 6471   4.358   1.365  16.558  1.3867 -3.7316 -0.3396
  430TMC3    C7 6472   4.275   1.138  16.684  0.1513 -0.2862  0.8229
  430TMC3    C8 6473   4.206   1.552  16.587  0.4984 -0.6065  0.7295
  430TMC3    O1 6474   4.264   1.041  16.759 -0.1287  0.1694  0.2010
  430TMC3    O2 6475   4.216   1.496  16.480  0.4226  0.4859  0.2547
  431MPD2     C 6476   4.409   1.686  12.480 -0.1547  0.6278 -0.0264
  431MPD2    C1 6477   4.500   1.691  12.379 -0.3419 -0.6083 -0.2992
  431MPD2    C2 6478   4.545   1.573  12.323  0.6743  0.2096 -0.1462
  431MPD2    C3 6479   4.506   1.454  12.367  0.4021 -0.3365  0.2605
  431MPD2    C4 6480   4.425   1.455  12.479 -0.5209  0.8406 -0.0550
  431MPD2    C5 6481   4.377   1.571  12.527  0.4113 -0.3257  0.1596
  431MPD2     H 6482   4.605   1.579  12.234 -0.5525 -0.2748 -1.0142
  431MPD2    H1 6483   4.380   1.364  12.517  0.4865 -0.0934 -1.1063
  431MPD2    H2 6484   4.362   1.776  12.518  0.4712  0.6151  0.7692
  431MPD2    H3 6485   4.296   1.552  12.597  0.5496 -2.1725 -0.1905
  431MPD2     N 6486   4.530   1.329  12.311  0.4824 -0.6511 -0.6598
  431MPD2    H5 6487   4.501   1.244  12.359 -1.2756  0.3053  0.0028
  431MPD2    N1 6488   4.552   1.812  12.327 -0.0141 -0.0730 -0.0476
  431MPD2    H7 6489   4.610   1.809  12.244 -2.3381  0.2500 -1.6542
  432TMC3    C1 6490   4.654   1.180  12.179  0.1443 -0.3121  0.3549
  432TMC3    C2 6491   0.003   1.168  12.074  0.1106 -0.4572  0.4525
  432TMC3    C3 6492   0.124   1.108  12.080  0.2076  0.1668 -0.3717
  432TMC3    C4 6493   4.698   1.121  12.300 -0.5417  0.9488  0.5498
  432TMC3    C5 6494   0.084   1.063  12.303  0.2181 -0.3959  0.3480
  432TMC3    C6 6495   0.165   1.051  12.198 -0.2651  0.4562  0.2187
  432TMC3     C 6496   4.597   1.312  12.196 -0.6474  0.0836 -0.1917
  432TMC3     O 6497   4.619   1.395  12.109 -0.2181 -0.0152 -0.0125
  432TMC3     H 6498   4.707   1.210  11.980  0.4372  0.3712  0.7117
  432TMC3    H1 6499   4.637   1.111  12.389 -0.4014 -0.5306  0.4803
  432TMC3    H2 6500   0.265   1.012  12.213 -0.9729 -1.4910 -0.1568
  432TMC3    C7 6501   0.146   1.019  12.429 -0.7034  0.3587 -0.4267
  432TMC3    C8 6502   0.220   1.128  11.972 -0.3175 -0.0193 -0.1586
  432TMC3    O1 6503   0.214   0.918  12.431 -0.1161 -0.6107  0.3366
  432TMC3    O2 6504   0.171   1.167  11.865 -0.2372 -0.5449  0.0300
  433MPD2     C 6505   3.428   0.433  10.793  0.2560  0.1474  0.2765
  433MPD2    C1 6506   3.529   0.351  10.836  0.7622  0.0247 -0.1655
  433MPD2    C2 6507   3.598   0.392  10.952  0.5195 -0.4639  0.4546
  433MPD2    C3 6508   3.560   0.499  11.028  0.2453 -0.0012  0.5934
  433MPD2    C4 6509   3.454   0.573  10.977 -0.1234 -0.5677  0.0253
  433MPD2    C5 6510   3.389   0.542  10.858 -0.2114 -0.4818  0.3761
  433MPD2     H 6511   3.670   0.318  10.988  0.2172  0.0118  2.0321
  433MPD2    H1 6512   3.427   0.669  11.019 -1.8211 -0.5199 -1.1815
  433MPD2    H2 6513   3.378   0.413  10.699  0.0325  1.8477  0.0455
  433MPD2    H3 6514   3.307   0.603  10.822  1.2135  0.9373 -0.4325
  433MPD2     N 6515   3.632   0.526  11.152  0.5604 -0.0384 -0.0944
  433MPD2    H5 6516   3.710   0.467  11.181  0.5750 -0.5499 -1.1983
  433MPD2    N1 6517   3.575   0.245  10.755  0.0700 -0.1624 -0.0642
  433MPD2    H7 6518   3.535   0.247  10.662 -2.4528 -0.8638  1.0215
  434TMC3    C1 6519   3.681   0.047  10.698  0.0231 -0.3507  0.6885
  434TMC3    C2 6520   3.799   4.723  10.711 -0.6564  0.1466 -0.3064
  434TMC3    C3 6521   3.821   4.605  10.643  0.0054 -0.2027  0.1754
  434TMC3    C4 6522   3.577   4.729  10.620 -0.4396 -0.2613  0.1460
  434TMC3    C5 6523   3.598   4.615  10.561 -0.6482 -0.1503 -0.0297
  434TMC3    C6 6524   3.714   4.547  10.579 -0.1332 -0.5354  0.0843
  434TMC3     C 6525   3.647   0.140  10.799  0.4647 -0.4386 -0.2191
  434TMC3     O 6526   3.673   0.098  10.911 -0.3466 -0.1984 -0.4440
  434TMC3     H 6527   3.853   0.030  10.795  0.1698 -0.7589 -0.3818
  434TMC3    H1 6528   3.473   0.024  10.625 -0.4378 -0.3659  0.9505
  434TMC3    H2 6529   3.728   4.451  10.530  0.2014  0.2773 -1.4124
  434TMC3    C7 6530   3.488   4.564  10.487  0.3203  0.1917  0.2777
  434TMC3    C8 6531   3.939   4.531  10.688 -0.0182  0.9097 -0.6810
  434TMC3    O1 6532   3.395   4.642  10.456 -0.2506  0.2155 -0.3808
  434TMC3    O2 6533   4.039   4.600  10.698 -0.0678 -0.2575  0.1717
  435MPD2     C 6534   1.093   0.197  15.456  0.6256 -0.1278  0.5869
  435MPD2    C1 6535   1.065   0.162  15.590 -0.1473 -0.2858 -0.2347
  435MPD2    C2 6536   1.159   0.081  15.654 -0.7205 -0.0876 -0.5345
  435MPD2    C3 6537   1.271   0.035  15.591 -0.3070  0.3085  0.5319
  435MPD2    C4 6538   1.305   0.084  15.467  0.1292  0.3158 -0.0008
  435MPD2    C5 6539   1.213   0.161  15.397 -0.0456  0.3234  0.6204
  435MPD2     H 6540   1.143   0.043  15.754 -0.0821  2.5498  0.5731
  435MPD2    H1 6541   1.402   0.060  15.427 -0.5526  0.4675 -1.7298
  435MPD2    H2 6542   1.019   0.248  15.396  0.2207 -2.5939 -1.0501
  435MPD2    H3 6543   1.243   0.190  15.297 -0.1573 -0.8108  0.2577
  435MPD2     N 6544   1.347   4.684  15.677 -0.1296  0.5263 -0.1704
  435MPD2    H5 6545   1.312   4.664  15.770  0.9995  2.5375  0.6973
  435MPD2    N1 6546   0.942   0.184  15.654  0.2076  0.3073  0.0753
  435MPD2    H7 6547   0.939   0.164  15.753  1.8797 -2.5370 -0.4489
  436TMC3    C1 6548   0.637   0.283  15.913 -0.2061 -0.0756 -0.8887
  436TMC3    C2 6549   0.747   0.255  15.825 -0.1732 -0.0077 -0.5581
  436TMC3    C3 6550   0.725   0.262  15.693  0.3755  0.8124  0.1504
  436TMC3    C4 6551   0.515   0.315  15.864  0.2082  0.0548  0.8479
  436TMC3    C5 6552   0.497   0.312  15.735  0.3397 -0.3582  0.5751
  436TMC3    C6 6553   0.600   0.294  15.644 -0.4003 -0.9313  0.6198
  436TMC3     C 6554   0.673   0.332  16.044 -0.0444  0.3218 -0.7083
  436TMC3     O 6555   0.785   0.387  16.047  0.4821 -0.1822  0.5204
  436TMC3     H 6556   0.840   0.238  15.879  0.8458 -0.4187 -2.4252
  436TMC3    H1 6557   0.447   0.367  15.930 -1.2456 -0.4600 -0.2393
  436TMC3    H2 6558   0.587   0.288  15.537 -1.6663 -0.0660  0.7151
  436TMC3    C7 6559   0.373   0.355  15.682 -0.0178  0.1186  0.5570
  436TMC3    C8 6560   0.833   0.245  15.597  0.1350  0.4824 -0.4652
  436TMC3    O1 6561   0.383   0.415  15.573  0.5353 -0.1794 -0.2519
  436TMC3    O2 6562   0.807   0.293  15.485  0.4281 -0.0322 -0.4528
  437TMC3    C1 6563   4.613   2.613  11.612 -0.1623 -0.4117 -0.3985
  437TMC3    C2 6564   4.623   2.534  11.498  0.1044  0.1683 -0.3299
  437TMC3    C3 6565   4.687   2.596  11.390  0.7348  0.3563 -0.4374
  437TMC3    C4 6566   4.676   2.731  11.623  1.2051 -1.0442 -0.0688
  437TMC3    C5 6567   0.013   2.786  11.520 -0.2505  0.1534 -0.2079
  437TMC3    C6 6568   0.014   2.722  11.399 -0.0076  0.2370  0.6453
  437TMC3     C 6569   4.607   2.539  11.737 -0.3520 -0.0197  0.5612
  437TMC3     O 6570   4.688   2.578  11.821  0.0529 -0.2102  0.1114
  437TMC3     H 6571   4.595   2.430  11.503  0.2521  0.0638 -1.5550
  437TMC3    H1 6572   4.663   2.784  11.717 -1.7365 -2.6214  0.4057
  437TMC3    H2 6573   0.063   2.764  11.312  0.4080 -0.4428  0.5509
  437TMC3    C7 6574   0.140   2.830  11.552  0.7744  0.6239 -0.1832
  437TMC3    C8 6575   4.664   2.542  11.262 -0.0122 -0.1278  0.0670
  437TMC3    O1 6576   0.215   2.871  11.462 -0.3153 -0.1947 -0.0461
  437TMC3    O2 6577   4.569   2.460  11.255  0.6515 -0.0820 -0.1375
  438MPD2     C 6578   2.070   2.879  16.529  0.0405  0.4105 -0.0076
  438MPD2    C1 6579   2.123   2.761  16.578  0.7119  0.1760 -0.1284
  438MPD2    C2 6580   2.095   2.730  16.706  0.1876  0.2927 -0.8899
  438MPD2    C3 6581   2.030   2.816  16.793  0.2082 -0.5158  0.6943
  438MPD2    C4 6582   1.967   2.926  16.741  0.0265 -0.4746  0.0682
  438MPD2    C5 6583   1.988   2.950  16.607 -0.0693  0.4512  0.5862
  438MPD2     H 6584   2.124   2.629  16.730 -1.1887  0.1181  0.0703
  438MPD2    H1 6585   1.907   2.999  16.795 -0.2090  0.5751 -1.5892
  438MPD2    H2 6586   2.088   2.912  16.427 -0.2057  0.7937  0.0723
  438MPD2    H3 6587   1.929   3.037  16.581  0.8409  0.6098 -0.9380
  438MPD2     N 6588   2.009   2.791  16.928  0.2399 -0.7420  0.9759
  438MPD2    H5 6589   1.954   2.858  16.980  1.3376  0.8006  0.1744
  438MPD2    N1 6590   2.206   2.676  16.510 -0.6207 -0.4343  0.4235
  438MPD2    H7 6591   2.234   2.590  16.557  0.1597  0.5365  1.7477
  439TMC3    C1 6592   2.342   2.598  16.340 -0.1167  0.1401  0.0161
  439TMC3    C2 6593   2.351   2.575  16.201  0.0469 -0.2462 -0.0112
  439TMC3    C3 6594   2.471   2.530  16.160 -0.6818 -0.4714 -0.2104
  439TMC3    C4 6595   2.433   2.565  16.436 -0.4857  0.3543  0.8607
  439TMC3    C5 6596   2.545   2.502  16.394 -0.2435 -0.2273  0.3338
  439TMC3    C6 6597   2.565   2.500  16.256  0.8068  1.0028 -0.4301
  439TMC3     C 6598   2.237   2.687  16.377  0.4495 -0.3214  0.4298
  439TMC3     O 6599   2.215   2.781  16.301 -0.0143  0.3791  0.5202
  439TMC3     H 6600   2.270   2.611  16.140 -0.7754  2.4197  2.6311
  439TMC3    H1 6601   2.424   2.597  16.539  2.7357 -0.7006  1.4561
  439TMC3    H2 6602   2.657   2.448  16.230 -0.4085 -1.3306 -0.0940
  439TMC3    C7 6603   2.615   2.389  16.460  0.5288 -0.3670  0.9643
  439TMC3    C8 6604   2.477   2.455  16.042  0.3798  0.1367  0.4172
  439TMC3    O1 6605   2.734   2.365  16.432 -0.3353  0.3084  0.0125
  439TMC3    O2 6606   2.544   2.355  16.042 -0.7068  0.7611 -0.8670
  440MPD2     C 6607   0.219   3.356  15.377  0.1507 -0.1905  0.3397
  440MPD2    C1 6608   0.323   3.444  15.419 -0.7541 -0.2503  0.2347
  440MPD2    C2 6609   0.435   3.389  15.476  0.1180 -0.0190 -0.9043
  440MPD2    C3 6610   0.453   3.248  15.502  0.3148 -0.3430 -0.7020
  440MPD2    C4 6611   0.347   3.167  15.457 -0.1164 -1.0535 -0.2664
  440MPD2    C5 6612   0.235   3.219  15.397 -0.0417 -0.3105  0.5899
  440MPD2     H 6613   0.511   3.456  15.514 -1.2956  0.8258  0.4106
  440MPD2    H1 6614   0.344   3.059  15.469  0.6154 -1.0098  0.2852
  440MPD2    H2 6615   0.131   3.389  15.323  0.6359  0.8422  0.1627
  440MPD2    H3 6616   0.153   3.159  15.359 -0.5578  1.0582 -0.5053
  440MPD2     N 6617   0.563   3.183  15.563 -0.0243  0.4097 -1.0393
  440MPD2    H5 6618   0.565   3.083  15.580 -1.6698  0.3371 -1.2651
  440MPD2    N1 6619   0.324   3.585  15.404 -0.1998 -0.4357  0.0208
  440MPD2    H7 6620   0.408   3.632  15.436  0.3254 -0.2810 -1.5947
  441TMC3    C1 6621   0.796   3.175  15.643  0.0891  0.4826 -0.1837
  441TMC3    C2 6622   0.886   3.246  15.710  0.0413  0.1370  0.6466
  441TMC3    C3 6623   1.016   3.216  15.697  0.1966 -0.0528 -0.1313
  441TMC3    C4 6624   0.827   3.064  15.569 -0.3314 -0.8064 -0.5138
  441TMC3    C5 6625   0.960   3.023  15.570 -0.3320 -0.5544 -0.2433
  441TMC3    C6 6626   1.057   3.103  15.624 -1.0270 -0.2715 -0.4053
  441TMC3     C 6627   0.675   3.254  15.608 -0.4779  0.4950 -0.4800
  441TMC3     O 6628   0.702   3.377  15.608  0.8105 -0.5331 -0.2943
  441TMC3     H 6629   0.853   3.331  15.768 -0.5866  0.5639 -0.3260
  441TMC3    H1 6630   0.753   2.995  15.530 -0.2170 -2.1201  1.5888
  441TMC3    H2 6631   1.161   3.079  15.603 -0.7520  0.4020  0.1725
  441TMC3    C7 6632   0.979   2.881  15.599 -0.5918  0.5175 -0.1378
  441TMC3    C8 6633   1.116   3.315  15.682 -0.4597  0.2622 -0.2794
  441TMC3    O1 6634   0.888   2.809  15.561 -0.1273  0.0763  0.0292
  441TMC3    O2 6635   1.230   3.292  15.723  0.0950  0.5180  0.1508
  442MPD2     C 6636   3.737   3.424  16.186  0.3718  0.2745  0.1508
  442MPD2    C1 6637   3.667   3.331  16.258 -1.0071 -0.5806  1.0703
  442MPD2    C2 6638   3.644   3.205  16.212  0.2075  0.3921  0.9757
  442MPD2    C3 6639   3.690   3.166  16.089 -0.5581 -0.3863  0.1730
  442MPD2    C4 6640   3.746   3.264  16.005  1.1052  0.4118  0.0741
  442MPD2    C5 6641   3.767   3.392  16.057 -0.1749  0.3874  0.0376
  442MPD2     H 6642   3.620   3.130  16.287 -1.1847 -0.4437 -0.3179
  442MPD2    H1 6643   3.784   3.234  15.909  0.4108 -2.3793  0.6620
  442MPD2    H2 6644   3.758   3.526  16.215 -2.3206  0.4259  1.5820
  442MPD2    H3 6645   3.810   3.461  15.985 -1.1200  0.9450  0.0161
  442MPD2     N 6646   3.686   3.030  16.043  0.0035  0.2361  0.3580
  442MPD2    H5 6647   3.710   3.015  15.945 -1.9208 -0.2710 -0.0325
  442MPD2    N1 6648   3.620   3.356  16.386  0.4989 -0.3216 -0.5288
  442MPD2    H7 6649   3.560   3.282  16.422  1.8348 -1.7535 -1.2401
  443TMC3    C1 6650   3.559   3.481  16.572  0.2019 -0.1130 -0.1540
  443TMC3    C2 6651   3.540   3.606  16.629 -0.6022 -0.1155  0.3896
  443TMC3    C3 6652   3.454   3.616  16.733  0.0582 -0.8366 -0.3300
  443TMC3    C4 6653   3.496   3.370  16.624 -0.5385 -0.4275 -0.1126
  443TMC3    C5 6654   3.430   3.383  16.748 -0.1285  0.1650 -0.6052
  443TMC3    C6 6655   3.411   3.508  16.801 -0.2392  0.3471  0.0429
  443TMC3     C 6656   3.630   3.478  16.450  0.1181 -0.2122  0.6974
  443TMC3     O 6657   3.708   3.569  16.427  0.2474  0.3366 -0.2943
  443TMC3     H 6658   3.591   3.691  16.585 -1.7507  0.7149  0.6644
  443TMC3    H1 6659   3.513   3.268  16.591 -0.8442 -0.5906  0.2297
  443TMC3    H2 6660   3.363   3.538  16.894  1.7024 -0.5688  1.3551
  443TMC3    C7 6661   3.355   3.272  16.804 -0.6453  0.0304 -0.6078
  443TMC3    C8 6662   3.422   3.745  16.787 -0.7350  0.1855  0.1837
  443TMC3    O1 6663   3.312   3.191  16.725  0.2821  0.2848 -0.4750
  443TMC3    O2 6664   3.459   3.767  16.901  0.4850  0.1600 -0.2220
  444MPD2     C 6665   4.086   2.968  16.836  0.0022  0.0693  0.4332
  444MPD2    C1 6666   4.019   2.846  16.840 -0.0336  0.2353  0.5602
  444MPD2    C2 6667   4.038   2.752  16.741 -0.2466  0.0777 -1.3163
  444MPD2    C3 6668   4.139   2.760  16.650 -0.4538 -0.1160  0.0080
  444MPD2    C4 6669   4.210   2.876  16.648  0.2620  0.3972 -0.3573
  444MPD2    C5 6670   4.179   2.979  16.732 -0.1089  0.0570 -0.5422
  444MPD2     H 6671   3.981   2.659  16.738  0.2469 -0.2813  0.3561
  444MPD2    H1 6672   4.292   2.888  16.578  1.6558 -1.5715  0.9410
  444MPD2    H2 6673   4.063   3.048  16.905  2.6462  0.7475  0.5244
  444MPD2    H3 6674   4.236   3.071  16.730  0.0652 -0.0206  1.1378
  444MPD2     N 6675   4.164   2.656  16.550 -0.3874 -1.1045  0.6255
  444MPD2    H5 6676   4.099   2.579  16.555  0.4000 -1.8114 -0.0418
  444MPD2    N1 6677   3.920   2.820  16.931 -0.0599  0.1353  0.7340
  444MPD2    H7 6678   3.862   2.738  16.916 -0.4402  0.5403 -0.0312
  445TMC3    C1 6679   4.270   2.494  16.428  0.1337  0.3785  0.2831
  445TMC3    C2 6680   4.156   2.433  16.382 -0.2012 -0.3291  0.8146
  445TMC3    C3 6681   4.160   2.313  16.328  0.8330 -0.8255  0.3986
  445TMC3    C4 6682   4.381   2.419  16.428 -0.4887  0.1864 -0.4692
  445TMC3    C5 6683   4.385   2.294  16.376  0.1237  0.6832  0.2131
  445TMC3    C6 6684   4.273   2.240  16.321  0.2776  0.4871 -0.4941
  445TMC3     C 6685   4.276   2.636  16.470  0.1449  0.1206  0.1540
  445TMC3     O 6686   4.381   2.701  16.461 -0.2587 -0.1474 -0.7518
  445TMC3     H 6687   4.070   2.499  16.376  0.0909 -0.3818 -3.5543
  445TMC3    H1 6688   4.471   2.470  16.460  0.9892 -2.7605  0.0759
  445TMC3    H2 6689   4.286   2.154  16.257 -0.4938 -0.4895  0.6650
  445TMC3    C7 6690   4.515   2.226  16.359  0.7552 -0.2319 -0.4332
  445TMC3    C8 6691   4.047   2.271  16.234 -0.4990  0.2714  0.3134
  445TMC3    O1 6692   4.613   2.299  16.383 -0.0265 -0.2271 -0.1956
  445TMC3    O2 6693   3.959   2.353  16.207 -0.5514 -0.5104 -0.0083
  446MPD2     C 6694   3.862   4.366  11.183  1.1703  0.6270  0.2670
  446MPD2    C1 6695   3.783   4.435  11.096  0.3154  0.6655  0.3336
  446MPD2    C2 6696   3.800   4.570  11.082  0.7972  0.1982  0.0885
  446MPD2    C3 6697   3.908   4.631  11.137 -0.6419 -0.4848 -0.2567
  446MPD2    C4 6698   3.980   4.564  11.223 -0.2669 -0.0825  0.0493
  446MPD2    C5 6699   3.952   4.432  11.251 -0.2558  0.0437  0.4503
  446MPD2     H 6700   3.746   4.626  11.007  0.6495 -0.9734 -0.6869
  446MPD2    H1 6701   4.060   4.608  11.281 -1.0227 -0.5031  1.3940
  446MPD2    H2 6702   3.853   4.258  11.190 -2.5075  1.0082  1.7369
  446MPD2    H3 6703   4.020   4.383  11.320  1.2267  0.2984 -0.8288
  446MPD2     N 6704   3.934   0.030  11.102  0.4684  0.0574  0.9820
  446MPD2    H5 6705   3.863   0.080  11.048  0.0045  0.4279  1.9388
  446MPD2    N1 6706   3.662   4.380  11.038 -0.0211  0.3686 -0.0516
  446MPD2    H7 6707   3.602   4.446  10.989 -1.3436  0.2282  1.3930
  447TMC3    C1 6708   4.048   0.238  11.084 -0.0924 -0.4053 -0.4315
  447TMC3    C2 6709   3.985   0.254  10.969 -0.1500  0.1922  0.1532
  447TMC3    C3 6710   4.054   0.311  10.863 -0.0720 -1.0958 -0.4959
  447TMC3    C4 6711   4.173   0.291  11.108  0.8826  0.1033  0.0497
  447TMC3    C5 6712   4.242   0.344  11.000  0.0788  0.8305 -0.3404
  447TMC3    C6 6713   4.185   0.350  10.874  0.2057 -0.1449 -0.1771
  447TMC3     C 6714   4.044   0.102  11.137 -1.2346  0.3660  0.1089
  447TMC3     O 6715   4.139   0.076  11.208  0.7107 -0.6033 -0.1091
  447TMC3     H 6716   3.885   0.215  10.952 -0.4498 -0.3700  3.1463
  447TMC3    H1 6717   4.225   0.274  11.201  1.9852 -3.3709 -1.1708
  447TMC3    H2 6718   4.237   0.400  10.794  0.0254  0.2023 -0.0751
  447TMC3    C7 6719   4.381   0.316  10.991  0.0673  0.4922  0.3921
  447TMC3    C8 6720   3.987   0.307  10.734  0.0885 -0.1271  0.2246
  447TMC3    O1 6721   4.414   0.262  10.890  0.7184  0.4148 -0.1559
  447TMC3    O2 6722   3.865   0.306  10.728  0.3319  0.3112 -0.1863
  448TMC3    C1 6723   1.786   3.732  17.366  0.0319  0.5698  0.0208
  448TMC3    C2 6724   1.834   3.709  17.242 -0.3130 -0.1030 -0.8662
  448TMC3    C3 6725   1.806   3.585  17.193  0.0386  1.2304  0.0486
  448TMC3    C4 6726   1.705   3.648  17.433  0.2813 -0.5226  0.6765
  448TMC3    C5 6727   1.671   3.532  17.368  0.8972 -0.0563  0.1401
  448TMC3    C6 6728   1.734   3.487  17.255 -0.6558  0.1795 -0.6903
  448TMC3     C 6729   1.797   3.868  17.423 -0.6905 -0.4607 -0.4661
  448TMC3     O 6730   1.806   3.856  17.545 -0.2997 -0.1346 -0.1589
  448TMC3     H 6731   1.898   3.783  17.195 -0.0689 -0.7926 -1.6300
  448TMC3    H1 6732   1.654   3.681  17.523  1.8551  1.4179  0.8682
  448TMC3    H2 6733   1.705   3.395  17.206 -1.8566  2.3175 -4.0134
  448TMC3    C7 6734   1.619   3.424  17.446 -0.2489  0.3380  0.6446
  448TMC3    C8 6735   1.847   3.549  17.057 -0.0642  0.1223  0.3518
  448TMC3    O1 6736   1.565   3.330  17.391  0.7963 -0.3256  0.4053
  448TMC3    O2 6737   1.811   3.436  17.011 -0.5088  0.4256 -0.5876
  449MPD2     C 6738   3.278   2.573  13.956 -0.0158  0.3529  0.2036
  449MPD2    C1 6739   3.155   2.598  13.892 -0.9138 -0.9189  0.3940
  449MPD2    C2 6740   3.039   2.585  13.967 -0.0251 -0.5461 -0.7353
  449MPD2    C3 6741   3.047   2.559  14.100 -0.7877 -0.5245  0.6883
  449MPD2    C4 6742   3.165   2.518  14.159  0.2348 -0.2676  0.3555
  449MPD2    C5 6743   3.278   2.516  14.082  0.1296 -0.3423  0.0988
  449MPD2     H 6744   2.944   2.621  13.927 -1.0517 -2.6051 -0.1319
  449MPD2    H1 6745   3.165   2.484  14.262  0.9838  0.6993  0.6802
  449MPD2    H2 6746   3.368   2.571  13.897  0.1094  0.7221  0.3808
  449MPD2    H3 6747   3.375   2.491  14.124  0.9339  3.1096  0.2930
  449MPD2     N 6748   2.925   2.563  14.169  0.2198  0.2469 -0.0234
  449MPD2    H5 6749   2.849   2.606  14.118  0.3156 -3.3519 -3.2923
  449MPD2    N1 6750   3.140   2.640  13.760  0.3638  0.4474 -0.1410
  449MPD2    H7 6751   3.044   2.650  13.730  0.2379  1.2003  0.5168
  450TMC3    C1 6752   3.189   2.694  13.535 -0.2390  0.0815 -0.8017
  450TMC3    C2 6753   3.248   2.807  13.490  0.0171 -0.0070 -0.0092
  450TMC3    C3 6754   3.165   2.907  13.433 -0.6299 -0.5750 -0.0664
  450TMC3    C4 6755   3.049   2.686  13.536  0.5161  0.6179  0.5596
  450TMC3    C5 6756   2.970   2.798  13.506  0.5074  0.5432  0.2914
  450TMC3    C6 6757   3.028   2.908  13.444 -0.2075 -0.4779  0.4915
  450TMC3     C 6758   3.238   2.662  13.668  0.3410 -0.2330 -0.5310
  450TMC3     O 6759   3.354   2.678  13.689 -0.0624 -0.0391  0.1299
  450TMC3     H 6760   3.355   2.824  13.491  0.4427 -2.6920 -1.9076
  450TMC3    H1 6761   2.999   2.596  13.568  2.4569 -1.8328 -3.2990
  450TMC3    H2 6762   2.981   3.003  13.419  0.0192 -0.4488  0.1751
  450TMC3    C7 6763   2.859   2.815  13.608 -0.9155 -0.1834  0.0097
  450TMC3    C8 6764   3.215   2.993  13.322  0.1573 -0.5989  0.4215
  450TMC3    O1 6765   2.844   2.717  13.680  0.1489 -0.1261  0.7776
  450TMC3    O2 6766   3.135   3.077  13.283  0.2175  0.3434 -0.1937
  451MPD2     C 6767   4.328   0.710   1.278  0.6087  0.6261 -0.5094
  451MPD2    C1 6768   4.319   0.777   1.156 -0.2960 -0.7727  0.1834
  451MPD2    C2 6769   4.412   0.755   1.053 -0.1662  0.6846 -0.4950
  451MPD2    C3 6770   4.506   0.657   1.070 -0.0760 -0.6118  0.4959
  451MPD2    C4 6771   4.515   0.595   1.194  0.2485 -0.5316 -0.0762
  451MPD2    C5 6772   4.428   0.620   1.295 -0.2202  0.3113  0.0710
  451MPD2     H 6773   4.399   0.808   0.959 -1.5278  0.7511 -0.2738
  451MPD2    H1 6774   4.599   0.527   1.204  1.4689  1.1503  1.0066
  451MPD2    H2 6775   4.265   0.737   1.362  1.9886 -0.7452  0.9677
  451MPD2    H3 6776   4.450   0.569   1.389  0.8418  2.9153  1.2218
  451MPD2     N 6777   4.596   0.620   0.963  0.6326 -0.1768  0.0936
  451MPD2    H5 6778   4.644   0.532   0.976 -1.4358 -0.9408  2.6891
  451MPD2    N1 6779   4.207   0.862   1.138 -0.0081 -0.5632  0.0610
  451MPD2    H7 6780   4.134   0.857   1.209 -1.4364  2.1145 -1.2092
  452TMC3    C1 6781   0.020   0.661   0.797 -0.4631  0.0239  0.1316
  452TMC3    C2 6782   0.005   0.536   0.743  0.5195 -0.0618  0.3874
  452TMC3    C3 6783   0.072   0.512   0.622  0.5827 -0.2742 -0.0375
  452TMC3    C4 6784   0.092   0.761   0.736 -0.2179 -0.2455 -0.4092
  452TMC3    C5 6785   0.156   0.718   0.623 -0.5516 -0.2908  0.4183
  452TMC3    C6 6786   0.151   0.603   0.562  0.0289 -0.7215 -0.4259
  452TMC3     C 6787   4.646   0.712   0.874  0.5236  0.0073 -0.0563
  452TMC3     O 6788   4.621   0.831   0.858  0.9882  0.2104  0.1945
  452TMC3     H 6789   4.689   0.450   0.785 -1.0385  0.4804 -0.4251
  452TMC3    H1 6790   0.103   0.853   0.792 -0.6145  0.2719 -1.1959
  452TMC3    H2 6791   0.178   0.586   0.458 -0.0426  0.4452 -0.6307
  452TMC3    C7 6792   0.202   0.830   0.548  0.0859 -0.2373 -0.0273
  452TMC3    C8 6793   0.028   0.398   0.546 -0.2064 -0.3384 -0.6088
  452TMC3    O1 6794   0.214   0.812   0.426  0.4637  0.2437 -0.2950
  452TMC3    O2 6795   0.110   0.315   0.509 -0.2627  0.4246  0.1865
  453TMC3    C1 6796   1.242   3.374  11.782  0.0715 -0.0239  0.1990
  453TMC3    C2 6797   1.121   3.407  11.849 -0.4144  0.3324  0.0644
  453TMC3    C3 6798   1.009   3.353  11.794 -0.2645  0.7074  0.2987
  453TMC3    C4 6799   1.247   3.279  11.687  0.1745  0.4277 -0.4390
  453TMC3    C5 6800   1.129   3.227  11.637 -0.1169 -0.0833 -0.1801
  453TMC3    C6 6801   1.010   3.267  11.686 -0.5313 -0.4656 -0.3735
  453TMC3     C 6802   1.362   3.379  11.859 -0.1576  0.6876 -0.2375
  453TMC3     O 6803   1.425   3.273  11.857 -0.3462  0.0719 -0.3322
  453TMC3     H 6804   1.128   3.445  11.950  0.4193 -0.7005  0.3992
  453TMC3    H1 6805   1.344   3.257  11.643  0.1436 -0.0215 -0.2828
  453TMC3    H2 6806   0.920   3.214  11.655 -0.2140 -0.8447 -0.6574
  453TMC3    C7 6807   1.138   3.147  11.516 -0.3698 -0.5121  0.3393
  453TMC3    C8 6808   0.909   3.318  11.892  0.7474 -0.0928  0.2872
  453TMC3    O1 6809   1.030   3.126  11.458  0.3680 -0.3139  0.1893
  453TMC3    O2 6810   0.871   3.414  11.957  0.3854  0.6559 -0.0677
  454MPD2     C 6811   0.067   2.400  16.065 -0.2690  0.2459  0.3985
  454MPD2    C1 6812   0.025   2.465  15.954  0.7752 -0.7453 -0.4558
  454MPD2    C2 6813   4.731   2.599  15.966  0.4164  0.0787  0.6403
  454MPD2    C3 6814   0.011   2.669  16.083  0.4501 -1.1314  0.4258
  454MPD2    C4 6815   0.068   2.610  16.189 -0.2003  0.3411  0.5564
  454MPD2    C5 6816   0.097   2.476  16.179 -0.3146 -0.3653  0.3211
  454MPD2     H 6817   4.669   2.647  15.891  3.6277  0.1777 -1.9395
  454MPD2    H1 6818   0.104   2.666  16.274  1.0116  0.3079  0.0685
  454MPD2    H2 6819   0.081   2.293  16.068 -0.3484  0.1829 -1.3665
  454MPD2    H3 6820   0.156   2.431  16.258 -1.6876 -0.5693  1.2225
  454MPD2     N 6821   4.707   2.806  16.107 -0.5045 -1.1985  0.1558
  454MPD2    H5 6822   4.692   2.840  16.201 -0.0264  3.3224 -1.4136
  454MPD2    N1 6823   4.728   2.406  15.830 -0.1414 -0.0045 -0.2536
  454MPD2    H7 6824   4.705   2.474  15.758  2.1623  1.0766  0.0627
  455TMC3    C1 6825   4.534   2.957  16.056 -1.0305  0.0704  0.1566
  455TMC3    C2 6826   4.522   3.002  16.180  0.3153 -0.1517  0.2345
  455TMC3    C3 6827   4.401   3.000  16.240  0.3075  0.3733  0.3691
  455TMC3    C4 6828   4.425   2.901  15.990  0.5362 -0.6114  0.5212
  455TMC3    C5 6829   4.308   2.888  16.062 -0.1907  0.7824 -0.5438
  455TMC3    C6 6830   4.289   2.947  16.182 -0.9545  0.1744 -0.0136
  455TMC3     C 6831   4.652   2.886  16.008  0.4463 -0.2743 -0.4768
  455TMC3     O 6832   4.663   2.881  15.888  0.3944  0.4369 -0.5396
  455TMC3     H 6833   4.603   3.049  16.235  1.2903 -1.1723 -0.3330
  455TMC3    H1 6834   4.443   2.857  15.892 -1.5691  1.1546 -0.6532
  455TMC3    H2 6835   4.198   2.935  16.239 -0.6811  0.1993  0.4258
  455TMC3    C7 6836   4.236   2.760  16.034  0.5242 -0.3299 -0.3574
  455TMC3    C8 6837   4.396   3.092  16.349 -0.2070 -0.6846 -0.9179
  455TMC3    O1 6838   4.127   2.746  16.085  0.0122  0.3259 -0.8182
  455TMC3    O2 6839   4.500   3.109  16.413  0.7944  0.2741  0.5366
  456MPD2     C 6840   2.558   3.104  15.813  0.1125  0.2623  0.2242
  456MPD2    C1 6841   2.550   2.978  15.871 -0.2717  0.2094 -0.1540
  456MPD2    C2 6842   2.505   2.975  16.002 -1.2588  0.2269  0.1280
  456MPD2    C3 6843   2.478   3.085  16.078  0.4701 -0.2005  0.8058
  456MPD2    C4 6844   2.480   3.207  16.013  0.2418 -0.1771  0.5089
  456MPD2    C5 6845   2.527   3.216  15.883  0.5345  0.2850  0.0662
  456MPD2     H 6846   2.493   2.879  16.051 -0.3026  1.0346  1.9609
  456MPD2    H1 6847   2.450   3.304  16.050 -0.4250 -0.9998  2.0925
  456MPD2    H2 6848   2.591   3.122  15.712  1.9018 -2.0986  0.4002
  456MPD2    H3 6849   2.530   3.314  15.836  1.5322  0.5518  0.6774
  456MPD2     N 6850   2.438   3.071  16.216  0.0201 -0.0600 -0.2007
  456MPD2    H5 6851   2.430   2.977  16.253  2.1928 -0.4400 -0.7311
  456MPD2    N1 6852   2.588   2.865  15.800 -0.5117 -0.1086  0.0467
  456MPD2    H7 6853   2.602   2.871  15.699  2.1407 -1.1373  0.3626
  457TMC3    C1 6854   2.357   3.133  16.432  0.5735  0.2326 -0.4282
  457TMC3    C2 6855   2.275   3.217  16.504 -0.1038 -0.5824 -0.9014
  457TMC3    C3 6856   2.243   3.181  16.636 -0.5180  0.9015 -0.5568
  457TMC3    C4 6857   2.408   3.023  16.486 -0.4080 -0.5609 -0.2626
  457TMC3    C5 6858   2.370   2.991  16.618  0.5180  0.1060  0.5616
  457TMC3    C6 6859   2.294   3.072  16.693 -0.1070  0.4785 -0.1613
  457TMC3     C 6860   2.389   3.171  16.297 -0.0784 -0.2202 -0.7874
  457TMC3     O 6861   2.381   3.287  16.273 -0.2106  0.4593  0.2145
  457TMC3     H 6862   2.227   3.299  16.451 -1.8122 -0.3065  1.0584
  457TMC3    H1 6863   2.480   2.967  16.429 -0.2274 -2.0554  1.4567
  457TMC3    H2 6864   2.270   3.041  16.794  2.6376  3.1616  1.3261
  457TMC3    C7 6865   2.474   2.934  16.697 -0.1647  0.0875 -0.1196
  457TMC3    C8 6866   2.149   3.272  16.708  0.6645 -0.4370 -0.6539
  457TMC3    O1 6867   2.544   2.839  16.659 -0.1066 -0.1908 -0.0867
  457TMC3    O2 6868   2.102   3.236  16.816 -0.5729 -0.1504 -0.5936
  458MPD2     C 6869   0.541   2.835  11.894 -0.4691  0.1276  0.6625
  458MPD2    C1 6870   0.426   2.786  11.950  0.4611 -0.6615 -0.4356
  458MPD2    C2 6871   0.304   2.778  11.884 -0.3284 -0.0938  0.0792
  458MPD2    C3 6872   0.297   2.814  11.748 -0.3237  0.2659 -0.0841
  458MPD2    C4 6873   0.418   2.854  11.690 -0.1065  0.3067  0.1479
  458MPD2    C5 6874   0.534   2.864  11.761 -0.3687 -0.5417  0.5611
  458MPD2     H 6875   0.217   2.731  11.929 -0.8583  0.7675 -0.0470
  458MPD2    H1 6876   0.421   2.882  11.585  0.6381  1.7926  0.5693
  458MPD2    H2 6877   0.626   2.847  11.960 -0.7135  0.2782  0.9497
  458MPD2    H3 6878   0.623   2.896  11.707  1.0259 -3.6915  0.9953
  458MPD2     N 6879   0.167   2.806  11.686 -0.1570 -0.2015  0.1160
  458MPD2    H5 6880   0.094   2.760  11.739  0.3225 -1.0248  0.0644
  458MPD2    N1 6881   0.434   2.749  12.089 -0.4712  0.8157  0.9056
  458MPD2    H7 6882   0.526   2.749  12.133 -0.1337 -1.1239  0.2207
  459TMC3    C1 6883   0.374   2.709  12.312 -0.0062  0.3287 -0.6425
  459TMC3    C2 6884   0.500   2.723  12.351  0.2359  0.3524 -0.4249
  459TMC3    C3 6885   0.528   2.726  12.486  0.1213  0.3541  0.3013
  459TMC3    C4 6886   0.277   2.675  12.401 -0.6162 -0.0232 -0.0892
  459TMC3    C5 6887   0.306   2.679  12.532 -0.7694 -0.0470 -0.7783
  459TMC3    C6 6888   0.431   2.707  12.580 -0.5873  0.0478  0.5574
  459TMC3     C 6889   0.330   2.722  12.174 -0.4518 -0.1980 -0.6115
  459TMC3     O 6890   0.207   2.733  12.158 -0.2401 -0.0305 -0.0602
  459TMC3     H 6891   0.586   2.753  12.291 -0.0919  2.3461  0.0756
  459TMC3    H1 6892   0.175   2.655  12.371 -0.3146 -3.4506  1.2272
  459TMC3    H2 6893   0.463   2.694  12.683  1.2035 -0.0404 -0.0146
  459TMC3    C7 6894   0.190   2.632  12.607  0.4527 -0.1450  0.4013
  459TMC3    C8 6895   0.669   2.727  12.526  0.2233 -0.3700 -0.0376
  459TMC3    O1 6896   0.080   2.673  12.576  0.0887 -0.2182 -0.2576
  459TMC3    O2 6897   0.751   2.708  12.441  0.2259  0.4718  0.7204
  460MPD2     C 6898   4.146   0.280  10.395 -0.1131  0.1333  1.9099
  460MPD2    C1 6899   4.046   0.282  10.488 -0.1664 -0.0864 -0.0396
  460MPD2    C2 6900   3.918   0.250  10.442 -0.5521 -0.0522  0.3725
  460MPD2    C3 6901   3.895   0.233  10.308 -0.2122 -0.6694  0.0673
  460MPD2    C4 6902   4.000   0.234  10.221  0.3838  0.3796  0.5473
  460MPD2    C5 6903   4.127   0.245  10.267  0.5620 -0.3157  0.3358
  460MPD2     H 6904   3.833   0.239  10.509 -0.9681  1.3715  0.0667
  460MPD2    H1 6905   3.981   0.225  10.114  0.2783 -0.7642  0.6591
  460MPD2    H2 6906   4.248   0.296  10.427  0.3186  1.3959 -0.0941
  460MPD2    H3 6907   4.214   0.231  10.203  0.5599 -3.7174  1.0975
  460MPD2     N 6908   3.765   0.189  10.266  0.0531  0.7713  0.4525
  460MPD2    H5 6909   3.700   0.179  10.344  0.5311 -1.2915  0.5821
  460MPD2    N1 6910   4.073   0.299  10.627  0.4015 -1.0138  0.3635
  460MPD2    H7 6911   4.173   0.295  10.642  0.5100 -1.2811 -0.4541
  461TMC3    C1 6912   3.579   0.142  10.130 -0.0196 -0.5664 -0.3331
  461TMC3    C2 6913   3.561   0.013  10.165 -0.5495 -0.2797  0.0640
  461TMC3    C3 6914   3.463   4.678  10.107 -0.3312  0.6581  0.1182
  461TMC3    C4 6915   3.501   0.201  10.025 -0.9981  0.0310 -0.7655
  461TMC3    C5 6916   3.403   0.125   9.967 -0.3444 -0.9516 -1.2762
  461TMC3    C6 6917   3.379   4.732  10.014  0.8464  0.4004 -0.0961
  461TMC3     C 6918   3.718   0.186  10.136  0.5170  0.0050 -0.6149
  461TMC3     O 6919   3.772   0.219  10.031 -0.0967 -0.0873  0.8229
  461TMC3     H 6920   3.633   4.696  10.227  0.9417  1.8943  0.1777
  461TMC3    H1 6921   3.537   0.289   9.974 -1.5586 -0.4045 -1.8952
  461TMC3    H2 6922   3.292   4.674   9.986  0.0967  1.0250  0.9377
  461TMC3    C7 6923   3.308   0.191   9.885 -0.9552 -0.4696 -0.4972
  461TMC3    C8 6924   3.486   4.530  10.102  0.4979  0.7862 -0.6098
  461TMC3    O1 6925   3.310   0.315   9.885  0.2493 -0.3703  0.2343
  461TMC3    O2 6926   3.602   4.489  10.111 -0.3182 -0.3602 -0.1236
  462TMC3    C1 6927   4.245   0.903   0.040  0.6415  0.1103  0.1982
  462TMC3    C2 6928   4.368   0.844   0.069 -0.1712  0.7502  0.1242
  462TMC3    C3 6929   4.357   0.709   0.096 -0.4542 -0.0261 -0.8726
  462TMC3    C4 6930   4.125   0.845   0.061 -0.1332  0.7666  0.2400
  462TMC3    C5 6931   4.128   0.713   0.095  1.1686 -0.0381 -0.6710
  462TMC3    C6 6932   4.244   0.638   0.111  1.3150  0.3510 -0.2369
  462TMC3     C 6933   4.243   1.035  17.715 -0.0027  0.0001  0.3988
  462TMC3     O 6934   4.130   1.073  17.689  0.0587  0.0059  0.2519
  462TMC3     H 6935   4.466   0.891   0.066  0.8840 -1.5178 -0.8038
  462TMC3    H1 6936   4.028   0.893   0.066 -0.3456  0.4152 -0.4199
  462TMC3    H2 6937   4.244   0.532   0.135 -0.7584  0.4553  0.2294
  462TMC3    C7 6938   4.004   0.634   0.089  0.1411  0.5396 -0.0524
  462TMC3    C8 6939   4.483   0.642   0.112  0.0203  0.2192 -0.4519
  462TMC3    O1 6940   4.011   0.522   0.132 -0.1524  0.3612  0.1308
  462TMC3    O2 6941   4.578   0.704   0.154  0.2151 -0.3243 -0.5068
  463MPD2     C 6942   1.411   3.328   1.521  0.5798  0.0827  0.3011
  463MPD2    C1 6943   1.303   3.414   1.533 -0.1329 -0.3749 -0.1457
  463MPD2    C2 6944   1.334   3.545   1.566 -0.6673 -0.0781  0.1339
  463MPD2    C3 6945   1.467   3.590   1.581  0.3116 -0.0167 -0.4609
  463MPD2    C4 6946   1.569   3.501   1.553 -0.0554 -0.1696 -0.2924
  463MPD2    C5 6947   1.540   3.372   1.526  0.0055 -0.0695  0.6994
  463MPD2     H 6948   1.259   3.618   1.594 -1.8264 -1.9878  2.0472
  463MPD2    H1 6949   1.673   3.528   1.568  0.2419 -1.2143 -0.5295
  463MPD2    H2 6950   1.387   3.224   1.505 -0.1166  0.5550 -1.7625
  463MPD2    H3 6951   1.617   3.295   1.522  0.5828  0.5726 -0.8407
  463MPD2     N 6952   1.496   3.727   1.599 -0.7890  0.1485  1.3872
  463MPD2    H5 6953   1.596   3.746   1.604 -0.6581 -0.5335  1.4017
  463MPD2    N1 6954   1.169   3.376   1.511  0.4262 -0.2757 -0.0932
  463MPD2    H7 6955   1.113   3.458   1.527  1.4761  0.2892  0.6881
  464TMC3    C1 6956   0.961   3.254   1.491 -0.1906 -0.4134  0.0132
  464TMC3    C2 6957   0.897   3.351   1.557  0.7014  0.0809  0.2723
  464TMC3    C3 6958   0.761   3.344   1.564 -0.5501  0.4354  0.0826
  464TMC3    C4 6959   0.898   3.150   1.427  0.4499 -0.6762 -0.2298
  464TMC3    C5 6960   0.761   3.148   1.431 -0.4381  0.4110  0.1928
  464TMC3    C6 6961   0.690   3.248   1.496  0.1055 -0.1685 -0.7972
  464TMC3     C 6962   1.111   3.255   1.488  0.3970 -0.0721 -0.8460
  464TMC3     O 6963   1.164   3.144   1.476  0.1096 -0.2737  0.0265
  464TMC3     H 6964   0.949   3.427   1.615  0.7485 -0.3743  0.8222
  464TMC3    H1 6965   0.963   3.080   1.376 -0.1689 -1.0587 -0.5061
  464TMC3    H2 6966   0.582   3.250   1.500  0.0970 -2.7396  0.3322
  464TMC3    C7 6967   0.684   3.082   1.323 -0.4063  0.2458  0.3772
  464TMC3    C8 6968   0.680   3.449   1.625 -0.7060  0.4553  0.2255
  464TMC3    O1 6969   0.754   3.040   1.228  0.1262 -0.1278  0.3167
  464TMC3    O2 6970   0.583   3.484   1.560 -0.0240  0.6843  0.2357
  465MPD2     C 6971   1.648   2.679  16.998  0.0928  0.6567  0.1447
  465MPD2    C1 6972   1.529   2.710  17.066 -0.1957  0.4294  0.2579
  465MPD2    C2 6973   1.445   2.796  17.008 -0.0574  0.4544 -0.3347
  465MPD2    C3 6974   1.478   2.844  16.886 -0.5208  0.0548  0.6372
  465MPD2    C4 6975   1.597   2.811  16.820  0.1321 -0.8309 -0.0498
  465MPD2    C5 6976   1.685   2.732  16.878 -0.4441 -1.1590  0.4571
  465MPD2     H 6977   1.346   2.816  17.048 -0.0996 -3.0497  1.3117
  465MPD2    H1 6978   1.628   2.871  16.736 -0.0849  0.3586  0.7278
  465MPD2    H2 6979   1.721   2.614  17.046  0.3651  0.6604 -0.2665
  465MPD2    H3 6980   1.778   2.712  16.826  0.3795  2.0108  0.6969
  465MPD2     N 6981   1.379   2.931  16.830  0.1124  0.0565  0.4990
  465MPD2    H5 6982   1.300   2.947  16.892 -1.2874  0.3865 -1.3693
  465MPD2    N1 6983   1.489   2.659  17.193  0.5308 -0.0349  0.3879
  465MPD2    H7 6984   1.404   2.702  17.228  1.0382  2.0160 -0.8924
  466TMC3    C1 6985   1.118   3.202  16.823 -0.0403 -0.0201 -0.3490
  466TMC3    C2 6986   1.155   3.318  16.760  0.1743 -0.6204 -0.9358
  466TMC3    C3 6987   1.254   3.313  16.664  0.0068  0.1602  0.5084
  466TMC3    C4 6988   1.185   3.088  16.796  0.5657  0.4240  0.5988
  466TMC3    C5 6989   1.274   3.081  16.693  0.0441 -0.2787  0.5259
  466TMC3    C6 6990   1.310   3.195  16.624  0.0304 -0.2626 -0.0037
  466TMC3     C 6991   1.029   3.214  16.934  0.3956 -0.6098 -0.6256
  466TMC3     O 6992   1.044   3.133  17.024 -0.7738  0.2855 -0.3344
  466TMC3     H 6993   1.119   3.416  16.789 -1.5982 -1.7342  0.6736
  466TMC3    H1 6994   1.144   2.998  16.840  0.2507  0.1913 -0.1753
  466TMC3    H2 6995   1.391   3.194  16.552 -1.3052 -0.4403 -1.5134
  466TMC3    C7 6996   1.384   2.997  16.711 -0.9986  0.4796  0.1923
  466TMC3    C8 6997   1.294   3.435  16.595  0.1806 -0.0793 -0.2883
  466TMC3    O1 6998   1.478   2.994  16.626  0.4250 -0.4210 -0.7543
  466TMC3    O2 6999   1.316   3.420  16.479  0.5533  0.2648 -0.5243
  467TMC3    C1 7000   2.084   1.741  13.695  0.5830 -0.0853 -0.0316
  467TMC3    C2 7001   2.100   1.685  13.820  0.1239 -0.0884  0.2747
  467TMC3    C3 7002   1.996   1.693  13.906  0.4014 -0.0878 -0.6567
  467TMC3    C4 7003   1.961   1.775  13.646 -0.2708 -1.3877  0.2785
  467TMC3    C5 7004   1.859   1.783  13.730 -0.0110  0.4486  0.5179
  467TMC3    C6 7005   1.875   1.744  13.859  0.7468  0.8530  0.5773
  467TMC3     C 7006   2.193   1.835  13.669 -0.1393  0.1986  0.0745
  467TMC3     O 7007   2.283   1.836  13.750  0.4455 -0.5740 -0.1507
  467TMC3     H 7008   2.195   1.653  13.864  0.1181 -0.0513  0.3137
  467TMC3    H1 7009   1.950   1.809  13.544 -1.1671  2.3590  1.6247
  467TMC3    H2 7010   1.794   1.779  13.922 -0.4784 -0.2915 -0.3716
  467TMC3    C7 7011   1.728   1.811  13.680  0.2681  1.3905 -0.0646
  467TMC3    C8 7012   2.046   1.747  14.027 -0.2077  0.3663  0.4314
  467TMC3    O1 7013   1.717   1.870  13.570  0.0587 -0.8732  0.3298
  467TMC3    O2 7014   2.124   1.688  14.097  0.4137 -0.3596  0.5157
  468MPD2     C 7015   1.440   4.521  10.166 -0.6621 -0.9113  0.1860
  468MPD2    C1 7016   1.436   4.569  10.298  0.3568 -0.1248 -0.0422
  468MPD2    C2 7017   1.373   4.498  10.401  0.0345 -0.3051  0.0293
  468MPD2    C3 7018   1.349   4.365  10.381 -0.0061 -0.6321  0.1414
  468MPD2    C4 7019   1.347   4.320  10.247 -0.6973  0.0881  0.2879
  468MPD2    C5 7020   1.388   4.393  10.145  0.7359 -0.2518  0.1685
  468MPD2     H 7021   1.371   4.536  10.502 -2.5742 -2.2288  0.6980
  468MPD2    H1 7022   1.315   4.220  10.221 -3.5741  0.5786  1.8988
  468MPD2    H2 7023   1.491   4.572  10.084 -2.7051 -0.1267 -0.6025
  468MPD2    H3 7024   1.388   4.347  10.047  0.7930 -1.6800  0.8423
  468MPD2     N 7025   1.319   4.267  10.481  0.1791 -0.3181  0.6325
  468MPD2    H5 7026   1.310   4.171  10.447  0.2835 -0.0637 -0.1150
  468MPD2    N1 7027   1.500   4.689  10.328 -0.0901 -0.1979 -0.1266
  468MPD2    H7 7028   1.475   4.715  10.423 -0.8850 -0.4219 -0.2752
  469TMC3    C1 7029   1.651   0.128  10.311  0.1026 -0.3194 -0.5935
  469TMC3    C2 7030   1.776   0.167  10.283  0.0267  0.4080  0.0280
  469TMC3    C3 7031   1.838   0.262  10.364  0.2912  0.3332 -0.2575
  469TMC3    C4 7032   1.571   0.198  10.401 -0.0822 -0.2798  0.2880
  469TMC3    C5 7033   1.636   0.287  10.477  0.3515  0.5982 -0.2190
  469TMC3    C6 7034   1.771   0.314  10.471  0.2299 -0.1281  0.9512
  469TMC3     C 7035   1.596   0.009  10.251  0.3799  0.2524  0.4858
  469TMC3     O 7036   1.666   4.689  10.165 -0.2040  0.0266  0.8553
  469TMC3     H 7037   1.834   0.104  10.217 -1.4791 -1.9498  0.9589
  469TMC3    H1 7038   1.463   0.186  10.412 -0.2233  1.0951  0.3680
  469TMC3    H2 7039   1.831   0.377  10.535 -2.0351  1.2871  1.6664
  469TMC3    C7 7040   1.551   0.346  10.581 -0.6686 -0.6375  0.1797
  469TMC3    C8 7041   1.975   0.240  10.393  0.1834 -0.4681  0.0935
  469TMC3    O1 7042   1.431   0.341  10.561 -0.1132  0.0375 -0.0819
  469TMC3    O2 7043   2.037   0.345  10.406  0.7206 -0.3564 -0.3971
  470TMC3    C1 7044   3.221   0.274   0.651  0.2682  0.4090  0.3615
  470TMC3    C2 7045   3.177   0.400   0.647  0.8962  0.1989  0.1554
  470TMC3    C3 7046   3.203   0.473   0.759 -0.0857 -0.0769 -0.9927
  470TMC3    C4 7047   3.267   0.204   0.758  0.4732  1.5835  0.4389
  470TMC3    C5 7048   3.289   0.283   0.865 -0.3653  0.2112  0.2004
  470TMC3    C6 7049   3.264   0.413   0.864 -0.0364  0.0376  0.2337
  470TMC3     C 7050   3.224   0.204   0.524  0.1989  0.1353 -0.7964
  470TMC3     O 7051   3.263   0.264   0.427  0.7033  0.0665 -0.6963
  470TMC3     H 7052   3.138   0.438   0.553  0.3792  1.6926  0.9833
  470TMC3    H1 7053   3.311   0.105   0.754  0.0606  1.2838  3.5084
  470TMC3    H2 7054   3.290   0.470   0.952 -1.0314 -1.2548  1.3612
  470TMC3    C7 7055   3.352   0.223   0.982 -1.0817  0.6126 -0.3671
  470TMC3    C8 7056   3.195   0.616   0.752 -0.6437 -0.0702  0.1237
  470TMC3    O1 7057   3.433   0.297   1.040 -0.1138  0.3923 -0.9811
  470TMC3    O2 7058   3.207   0.675   0.861 -0.4440  0.5449  0.4545
  471MPD2     C 7059   3.812   1.809  16.383  0.4429  0.2750  0.3579
  471MPD2    C1 7060   3.869   1.683  16.352 -0.3122 -0.1718 -0.0485
  471MPD2    C2 7061   3.979   1.646  16.425 -0.0525 -0.4812  0.4983
  471MPD2    C3 7062   4.022   1.715  16.540  0.1459  0.4292 -0.1877
  471MPD2    C4 7063   3.971   1.841  16.558 -0.1250 -0.0356 -0.3277
  471MPD2    C5 7064   3.866   1.884  16.485  0.0257 -0.0033 -0.1408
  471MPD2     H 7065   4.014   1.547  16.398 -0.4730 -0.1499 -1.2169
  471MPD2    H1 7066   4.013   1.902  16.637 -0.1358  0.5969 -0.8107
  471MPD2    H2 7067   3.744   1.858  16.314  0.1591  1.0588  1.1865
  471MPD2    H3 7068   3.819   1.979  16.510  0.9348  0.5742 -0.6144
  471MPD2     N 7069   4.123   1.660  16.621  0.7106 -0.1305  0.1601
  471MPD2    H5 7070   4.149   1.712  16.705 -1.8369 -0.0404  0.8733
  471MPD2    N1 7071   3.811   1.596  16.249  0.4792 -0.5065 -0.0749
  471MPD2    H7 7072   3.852   1.510  16.215  2.4003  1.2148 -2.1277
  472TMC3    C1 7073   3.648   1.499  16.110 -0.0537  1.0664 -0.1613
  472TMC3    C2 7074   3.584   1.511  15.990 -0.6087  0.2287 -0.1843
  472TMC3    C3 7075   3.541   1.401  15.930  0.7151 -0.7234 -0.2784
  472TMC3    C4 7076   3.669   1.373  16.169 -0.7533  0.1888  0.1345
  472TMC3    C5 7077   3.628   1.263  16.103  0.6197 -0.3977 -0.2863
  472TMC3    C6 7078   3.566   1.272  15.977  0.5055 -0.1322  0.3623
  472TMC3     C 7079   3.704   1.622  16.170 -0.5171  0.0283  0.0110
  472TMC3     O 7080   3.643   1.724  16.146 -0.2336  0.1796  0.3286
  472TMC3     H 7081   3.576   1.605  15.938  1.8836 -0.6868 -2.2355
  472TMC3    H1 7082   3.719   1.355  16.263  0.9571  0.3204 -0.7460
  472TMC3    H2 7083   3.526   1.188  15.922  1.0931  0.9720 -1.7772
  472TMC3    C7 7084   3.629   1.137  16.167 -0.5717 -0.4844 -0.2448
  472TMC3    C8 7085   3.414   1.420  15.861  0.1809 -0.1182 -0.3594
  472TMC3    O1 7086   3.655   1.134  16.286 -0.2367 -0.0409 -0.2720
  472TMC3    O2 7087   3.397   1.520  15.791 -0.0274 -0.4481  0.1036
  473MPD2     C 7088   3.661   4.003  14.307 -0.6233 -0.5313  0.4914
  473MPD2    C1 7089   3.664   4.100  14.208 -0.6235 -0.0853  0.3487
  473MPD2    C2 7090   3.674   4.233  14.239 -0.2677 -0.0983 -0.2740
  473MPD2    C3 7091   3.690   4.268  14.371  0.3180 -0.2088 -0.3884
  473MPD2    C4 7092   3.690   4.170  14.472  0.7419  0.2316  0.4775
  473MPD2    C5 7093   3.672   4.043  14.436 -0.5603 -0.0735 -0.0500
  473MPD2     H 7094   3.668   4.308  14.161 -1.0971  1.4579  1.2880
  473MPD2    H1 7095   3.702   4.203  14.575 -0.2829 -0.2573  0.7568
  473MPD2    H2 7096   3.639   3.898  14.294 -1.8005  0.0065 -1.9137
  473MPD2    H3 7097   3.675   3.961  14.506  1.6208  0.1976  0.1782
  473MPD2     N 7098   3.690   4.401  14.409  0.4800  0.2090  0.2897
  473MPD2    H5 7099   3.667   4.432  14.502 -0.2279 -0.7671  0.4426
  473MPD2    N1 7100   3.662   4.072  14.067 -0.4759 -0.5353 -0.0064
  473MPD2    H7 7101   3.660   4.155  14.010 -2.7918  0.4146  1.4763
  474TMC3    C1 7102   3.685   4.623  14.395  0.1148 -0.6598 -0.1073
  474TMC3    C2 7103   3.581   4.687  14.338  0.2110 -0.2079  0.0304
  474TMC3    C3 7104   3.584   0.080  14.302  0.3528  0.6169  0.2309
  474TMC3    C4 7105   3.797   4.694  14.426  0.2168 -0.1352 -0.2499
  474TMC3    C5 7106   3.802   0.090  14.387 -0.0467 -0.1985 -0.5632
  474TMC3    C6 7107   3.695   0.156  14.332  0.1593  0.0011  0.1057
  474TMC3     C 7108   3.722   4.506  14.329  0.4865  0.1058 -0.6101
  474TMC3     O 7109   3.777   4.508  14.221  0.0196  0.4841  0.0400
  474TMC3     H 7110   3.496   4.624  14.318  0.6749 -0.8678  0.1342
  474TMC3    H1 7111   3.889   4.648  14.461  0.9047  2.6740  1.6414
  474TMC3    H2 7112   3.697   0.263  14.319  1.7618  0.2418  2.2556
  474TMC3    C7 7113   3.909   0.182  14.422  0.4103 -0.4384 -0.3775
  474TMC3    C8 7114   3.485   0.128  14.204  0.4681 -0.3203  0.2283
  474TMC3    O1 7115   3.917   0.282  14.351  0.0962 -0.4893 -0.2927
  474TMC3    O2 7116   3.379   0.066  14.212  0.8893 -0.1730 -0.2045
  475MPD2     C 7117   2.078   1.974  10.771 -0.2590  0.6065 -0.1587
  475MPD2    C1 7118   2.182   2.062  10.795 -0.0056 -0.3419 -0.5480
  475MPD2    C2 7119   2.197   2.116  10.922 -0.0795  0.3025 -0.3550
  475MPD2    C3 7120   2.099   2.092  11.016  1.1023 -0.0999  0.6825
  475MPD2    C4 7121   1.996   2.008  10.992  0.5071  0.3243 -0.1313
  475MPD2    C5 7122   1.994   1.931  10.873 -0.9162  0.2970  0.1378
  475MPD2     H 7123   2.281   2.181  10.943  0.5772 -1.2864  1.8101
  475MPD2    H1 7124   1.919   1.999  11.068 -0.5932 -0.5679 -1.3468
  475MPD2    H2 7125   2.091   1.919  10.679  0.8195  2.1042 -0.9118
  475MPD2    H3 7126   1.914   1.862  10.844 -0.7695 -0.1792  0.8756
  475MPD2     N 7127   2.083   2.174  11.136  0.1800  0.5945 -0.6920
  475MPD2    H5 7128   1.995   2.164  11.185  0.1086  0.1067 -0.9182
  475MPD2    N1 7129   2.250   2.106  10.681 -0.8115 -0.0964  0.0248
  475MPD2    H7 7130   2.220   2.070  10.591 -1.2174  0.1224  0.0718
  476TMC3    C1 7131   2.338   2.291  10.567 -0.1642 -0.0752 -0.3356
  476TMC3    C2 7132   2.215   2.326  10.528 -0.1711  0.3011 -0.1070
  476TMC3    C3 7133   2.196   2.460  10.500 -0.2602 -0.4029  0.5317
  476TMC3    C4 7134   2.445   2.372  10.580 -0.8887  0.1936 -0.4344
  476TMC3    C5 7135   2.422   2.508  10.563  0.3519 -0.0839  0.0812
  476TMC3    C6 7136   2.296   2.552  10.512  0.0575  0.2162  0.2532
  476TMC3     C 7137   2.331   2.215  10.689 -0.4792 -0.2831 -0.6318
  476TMC3     O 7138   2.413   2.240  10.775 -0.3186 -0.0030  0.3821
  476TMC3     H 7139   2.136   2.256  10.553 -0.3100  0.3636 -0.3738
  476TMC3    H1 7140   2.542   2.332  10.607 -1.6553 -1.9090 -0.7982
  476TMC3    H2 7141   2.272   2.658  10.506 -1.2307 -0.1516 -1.2947
  476TMC3    C7 7142   2.519   2.600  10.611 -1.0284  0.2238 -0.0104
  476TMC3    C8 7143   2.062   2.516  10.488  0.0825 -0.3063  0.2350
  476TMC3    O1 7144   2.486   2.713  10.651 -0.3568  0.2746  0.5857
  476TMC3    O2 7145   2.039   2.634  10.509  0.0633  0.1594 -0.3890
  477MPD2     C 7146   0.163   4.401  11.741 -0.1826  0.4874  0.1889
  477MPD2    C1 7147   0.101   4.311  11.660  0.9801  0.5426  0.0260
  477MPD2    C2 7148   0.083   4.179  11.696  0.1576 -0.4278  0.0014
  477MPD2    C3 7149   0.120   4.144  11.832  0.3359 -0.8983 -0.1665
  477MPD2    C4 7150   0.175   4.234  11.907  0.1492 -0.3308  0.1762
  477MPD2    C5 7151   0.202   4.363  11.860  0.1088 -0.1035  0.4928
  477MPD2     H 7152   0.039   4.113  11.622 -0.1045  0.1511 -0.3505
  477MPD2    H1 7153   0.201   4.220  12.011  1.5416  2.7711  0.2615
  477MPD2    H2 7154   0.183   4.503  11.709  0.0313 -0.1250 -1.6647
  477MPD2    H3 7155   0.244   4.430  11.934 -2.4440  1.4640  0.5120
  477MPD2     N 7156   0.080   4.018  11.883 -0.2198 -0.3528 -0.3737
  477MPD2    H5 7157   0.023   3.958  11.823 -1.5573 -0.7479  1.3065
  477MPD2    N1 7158   0.047   4.366  11.539 -0.0750  0.3497 -0.0508
  477MPD2    H7 7159   0.054   4.467  11.530 -1.2316  0.2770 -1.8312
  478TMC3    C1 7160   4.657   4.414  11.346 -0.0138  0.7590  0.0293
  478TMC3    C2 7161   4.608   4.525  11.409  0.2704 -0.4845  0.0599
  478TMC3    C3 7162   4.493   4.588  11.372  0.2076 -0.1414 -0.0997
  478TMC3    C4 7163   4.572   4.361  11.248 -0.1284 -0.0378  0.4592
  478TMC3    C5 7164   4.464   4.440  11.202  0.5394  0.1722  0.3914
  478TMC3    C6 7165   4.415   4.549  11.270  0.4507 -0.5523 -0.0997
  478TMC3     C 7166   4.716   4.310  11.431 -0.5656 -0.0689  0.5318
  478TMC3     O 7167   4.707   4.193  11.404  0.4932 -0.3680  0.1112
  478TMC3     H 7168   4.658   4.586  11.483  0.2488 -0.3193 -0.0613
  478TMC3    H1 7169   4.579   4.256  11.222 -1.4183 -0.0562  0.1762
  478TMC3    H2 7170   4.316   4.593  11.263  0.3427 -0.6440  0.8814
  478TMC3    C7 7171   4.364   4.344  11.155  0.0374 -0.5719 -0.3615
  478TMC3    C8 7172   4.438   4.667  11.480  0.7676  0.6312 -0.3335
  478TMC3    O1 7173   4.357   4.234  11.207  0.5430  0.4510 -0.5808
  478TMC3    O2 7174   4.465   4.615  11.591  0.8915 -0.0012  0.2904
  479MPD2     C 7175   3.387   1.317  15.013  0.7187 -0.1581  0.2917
  479MPD2    C1 7176   3.329   1.214  15.083 -0.4635 -0.7820 -0.4508
  479MPD2    C2 7177   3.360   1.211  15.218  0.4944 -0.5545  0.2531
  479MPD2    C3 7178   3.428   1.322  15.279  0.2994  0.1537 -0.1554
  479MPD2    C4 7179   3.481   1.426  15.206  0.2934  0.6381 -0.6059
  479MPD2    C5 7180   3.459   1.417  15.072 -0.4662 -0.1963  0.5149
  479MPD2     H 7181   3.325   1.128  15.278 -0.9333 -0.5518 -0.5850
  479MPD2    H1 7182   3.534   1.515  15.238 -0.5219  0.6010  0.8449
  479MPD2    H2 7183   3.380   1.322  14.905 -0.3514 -3.2802  0.2277
  479MPD2    H3 7184   3.488   1.495  15.002  1.4081 -1.2519  0.1218
  479MPD2     N 7185   3.456   1.331  15.413  0.2918 -0.1779 -0.4149
  479MPD2    H5 7186   3.509   1.413  15.440 -1.2536 -0.1752  2.5789
  479MPD2    N1 7187   3.239   1.125  15.023 -0.4961  0.0568 -0.3589
  479MPD2    H7 7188   3.216   1.141  14.925  0.8367 -1.6667 -0.9781
  480TMC3    C1 7189   3.095   1.071  15.615 -0.1638 -0.0588 -0.0475
  480TMC3    C2 7190   3.001   1.131  15.542 -0.1137 -0.6504  0.0002
  480TMC3    C3 7191   3.040   1.227  15.450  0.0891 -0.9394  0.6240
  480TMC3    C4 7192   3.229   1.111  15.602  0.0511 -0.3396 -0.5462
  480TMC3    C5 7193   3.266   1.212  15.517 -0.8551 -0.8042 -0.2219
  480TMC3    C6 7194   3.168   1.275  15.443 -0.2621 -0.7180  0.6991
  480TMC3     C 7195   3.056   0.957  15.698 -0.4038  0.7546  0.1127
  480TMC3     O 7196   3.141   0.881  15.739 -0.0276  0.5114  0.2557
  480TMC3     H 7197   2.899   1.095  15.542 -0.7030  0.9873 -2.1080
  480TMC3    H1 7198   3.304   1.078  15.673 -0.9868 -1.6605 -0.0783
  480TMC3    H2 7199   3.190   1.362  15.381 -2.5023 -1.2364 -0.8191
  480TMC3    C7 7200   3.403   1.270  15.525  1.0774 -0.2373  0.0073
  480TMC3    C8 7201   2.959   1.221  15.330 -0.5801  0.3237 -0.8982
  480TMC3    O1 7202   3.461   1.244  15.629  0.1370  0.3840  0.2045
  480TMC3    O2 7203   2.851   1.169  15.329 -0.1360  0.0221  0.0112
  481MPD2     C 7204   0.025   0.831  13.736  0.1173 -0.3060  0.1845
  481MPD2    C1 7205   4.688   0.790  13.848 -0.0517  0.4259  0.1235
  481MPD2    C2 7206   0.014   0.739  13.958 -0.1897 -0.6718  0.0759
  481MPD2    C3 7207   0.149   0.742  13.971  0.3306 -0.6263  0.3974
  481MPD2    C4 7208   0.219   0.792  13.861 -0.1848 -0.6091 -0.0856
  481MPD2    C5 7209   0.160   0.830  13.742 -0.3355 -0.3495 -0.6987
  481MPD2     H 7210   4.689   0.716  14.045  0.5107 -0.9874  0.4711
  481MPD2    H1 7211   0.327   0.797  13.871 -0.2595  0.6528  0.0944
  481MPD2    H2 7212   4.719   0.876  13.647 -0.6120 -0.4266  0.4586
  481MPD2    H3 7213   0.211   0.859  13.650  1.1943 -2.8545 -0.6584
  481MPD2     N 7214   0.218   0.717  14.088  0.0541  0.3585 -0.3259
  481MPD2    H5 7215   0.316   0.743  14.091 -0.5007  2.2728  0.9954
  481MPD2    N1 7216   4.544   0.819  13.839  0.3854 -0.0571 -0.2651
  481MPD2    H7 7217   4.516   0.886  13.767  0.4154  1.5059  1.1780
  482TMC3    C1 7218   4.317   0.782  13.877  0.3904 -1.2617  0.2966
  482TMC3    C2 7219   4.243   0.674  13.828 -0.4339  0.3872  0.1528
  482TMC3    C3 7220   4.150   0.707  13.730  0.0834 -0.2933  0.2805
  482TMC3    C4 7221   4.302   0.906  13.847 -0.0277  0.0779 -0.0915
  482TMC3    C5 7222   4.209   0.938  13.752  0.3043 -0.3636  0.0926
  482TMC3    C6 7223   4.145   0.838  13.688 -0.7151  0.0116  0.3326
  482TMC3     C 7224   4.448   0.749  13.917 -0.2627  0.0751  0.6245
  482TMC3     O 7225   4.460   0.649  13.987  0.2102 -0.0802  0.6099
  482TMC3     H 7226   4.249   0.575  13.872  1.1766  0.3947 -0.0325
  482TMC3    H1 7227   4.359   0.989  13.886 -1.3294 -0.4015  2.8388
  482TMC3    H2 7228   4.075   0.866  13.610 -1.2591  2.1391  1.5980
  482TMC3    C7 7229   4.170   1.072  13.726  0.6348  1.0676  0.2354
  482TMC3    C8 7230   4.171   0.610  13.627  0.3716  0.8337  0.1866
  482TMC3    O1 7231   4.054   1.091  13.699 -0.0389 -0.0818  0.1417
  482TMC3    O2 7232   4.159   0.489  13.651 -0.0769  0.1921 -0.4325
  483TMC3    C1 7233   3.062   4.191   1.084 -0.2595 -0.7037 -0.1544
  483TMC3    C2 7234   3.116   4.293   1.014  0.1128  0.5645 -0.2838
  483TMC3    C3 7235   3.247   4.319   1.013  0.0480 -0.0289 -0.4183
  483TMC3    C4 7236   3.150   4.111   1.165  0.3433 -0.1337 -0.2512
  483TMC3    C5 7237   3.280   4.142   1.173  0.3246 -0.4191 -0.2387
  483TMC3    C6 7238   3.327   4.244   1.094 -0.0107  0.1489 -0.2493
  483TMC3     C 7239   2.944   4.139   1.021  0.0984 -0.1163  0.6283
  483TMC3     O 7240   2.854   4.221   1.018  0.2817 -0.4401 -0.5335
  483TMC3     H 7241   3.053   4.351   0.947 -4.0046 -3.1034  0.4154
  483TMC3    H1 7242   3.108   4.023   1.212  1.0754  0.3646  1.3464
  483TMC3    H2 7243   3.434   4.260   1.096 -0.4871  3.2807  0.8276
  483TMC3    C7 7244   3.365   4.028   1.184 -0.2832  0.8084  0.6446
  483TMC3    C8 7245   3.300   4.422   0.922 -0.0863  0.5278  0.2875
  483TMC3    O1 7246   3.466   4.023   1.118 -0.0151 -0.4784  0.3243
  483TMC3    O2 7247   3.235   4.455   0.824 -0.0762  0.4506  0.5816
  484MPD2     C 7248   0.800   2.942  12.785  0.3920  0.0259  0.2421
  484MPD2    C1 7249   0.806   2.839  12.699 -0.4428  0.7337  0.1202
  484MPD2    C2 7250   0.923   2.776  12.670 -0.5671 -0.1850 -0.4577
  484MPD2    C3 7251   1.043   2.834  12.714  0.1695  0.1303 -0.5965
  484MPD2    C4 7252   1.038   2.949  12.790  0.5585 -0.6283  0.1184
  484MPD2    C5 7253   0.917   3.003  12.832 -0.7331  0.1804  0.0766
  484MPD2     H 7254   0.925   2.695  12.598 -0.5391 -0.7960  0.2306
  484MPD2    H1 7255   1.127   3.007  12.813 -0.1080 -0.5893  2.5641
  484MPD2    H2 7256   0.706   2.989  12.814  0.7619  0.5755  0.5455
  484MPD2    H3 7257   0.907   3.094  12.890  0.4884 -0.9516  2.0461
  484MPD2     N 7258   1.170   2.783  12.678  0.2292 -0.0418  1.0577
  484MPD2    H5 7259   1.249   2.845  12.691 -0.8516  1.0803  2.3122
  484MPD2    N1 7260   0.685   2.792  12.645  0.4023  0.7076  0.4245
  484MPD2    H7 7261   0.601   2.832  12.684  0.2983  2.2071 -1.3377
  485TMC3    C1 7262   1.346   2.668  12.593 -1.0318  0.0242  0.2365
  485TMC3    C2 7263   1.417   2.562  12.629 -0.4142 -0.2751 -0.0974
  485TMC3    C3 7264   1.546   2.581  12.665 -0.3888 -0.5398  0.2440
  485TMC3    C4 7265   1.398   2.789  12.571  0.1282 -0.4461  0.6826
  485TMC3    C5 7266   1.532   2.804  12.599  0.2546  0.3730 -0.4131
  485TMC3    C6 7267   1.593   2.703  12.665  0.1471 -0.1423 -0.4990
  485TMC3     C 7268   1.203   2.667  12.612 -0.1494  0.1234  0.2808
  485TMC3     O 7269   1.139   2.571  12.572  0.6636  0.2314  0.0217
  485TMC3     H 7270   1.368   2.482  12.684 -0.7289  2.1065  3.1320
  485TMC3    H1 7271   1.350   2.879  12.533 -1.5700 -1.4303  0.5139
  485TMC3    H2 7272   1.681   2.736  12.718 -1.7954  3.1144  0.7380
  485TMC3    C7 7273   1.593   2.842  12.473 -0.3939  0.2739  0.0202
  485TMC3    C8 7274   1.644   2.480  12.629 -0.2410  0.1758 -0.4674
  485TMC3    O1 7275   1.531   2.916  12.401  1.0795 -0.1039 -0.2228
  485TMC3    O2 7276   1.758   2.523  12.628  0.1230 -0.2045 -0.7115
  486MPD2     C 7277   3.174   1.389  12.863 -0.2206 -0.0188  0.0150
  486MPD2    C1 7278   3.040   1.380  12.887 -0.2211 -0.0989  0.2355
  486MPD2    C2 7279   2.986   1.491  12.956 -0.5327  0.2834  0.0368
  486MPD2    C3 7280   3.058   1.611  12.976  0.2995 -0.6153 -0.2377
  486MPD2    C4 7281   3.190   1.613  12.937 -1.2038 -0.2283 -0.4832
  486MPD2    C5 7282   3.240   1.504  12.884  0.0770  0.2221 -0.3895
  486MPD2     H 7283   2.884   1.492  12.994 -0.1874 -0.0274  0.9762
  486MPD2    H1 7284   3.254   1.701  12.931 -2.0052  0.4801  1.4253
  486MPD2    H2 7285   3.222   1.306  12.813  2.7462  0.9838  1.1951
  486MPD2    H3 7286   3.337   1.509  12.837  0.0452 -1.7510 -0.6740
  486MPD2     N 7287   2.993   1.730  13.014  0.1418 -0.4795  0.2014
  486MPD2    H5 7288   2.894   1.717  13.027  0.1739 -1.9588 -1.1467
  486MPD2    N1 7289   2.959   1.264  12.864 -0.4503  0.3704 -0.3807
  486MPD2    H7 7290   3.003   1.194  12.805  0.9225  0.0541  1.0178
  487TMC3    C1 7291   2.765   1.134  12.844 -0.2066 -0.3427  0.1185
  487TMC3    C2 7292   2.653   1.147  12.769  0.7904  0.2626  0.0998
  487TMC3    C3 7293   2.577   1.032  12.753  0.0981  0.1711 -0.2961
  487TMC3    C4 7294   2.808   1.019  12.898  0.8062  0.5131  0.2644
  487TMC3    C5 7295   2.736   0.904  12.872  0.3260 -0.9864 -0.3446
  487TMC3    C6 7296   2.633   0.909  12.777 -0.4263  0.4028  0.1769
  487TMC3     C 7297   2.825   1.259  12.883  0.7158 -0.3245  0.2402
  487TMC3     O 7298   2.750   1.352  12.909  0.4345  0.7770 -0.4143
  487TMC3     H 7299   2.606   1.245  12.758 -0.3038 -0.5240 -2.2432
  487TMC3    H1 7300   2.896   1.034  12.960  0.9557 -0.2003  0.2255
  487TMC3    H2 7301   2.566   0.824  12.769 -1.5667  1.1095  2.1809
  487TMC3    C7 7302   2.704   0.854  12.997 -0.0880  0.0609  0.1322
  487TMC3    C8 7303   2.451   1.051  12.830 -0.5388 -0.4041 -0.5162
  487TMC3    O1 7304   2.748   0.926  13.088  0.0646  0.3813 -0.0723
  487TMC3    O2 7305   2.473   1.128  12.921  0.2193 -0.0835  0.3252
  488MPD2     C 7306   3.131   2.780  16.111 -0.2452  0.0801  0.3431
  488MPD2    C1 7307   3.135   2.876  16.210 -0.3069  0.7727  0.9437
  488MPD2    C2 7308   3.103   2.847  16.341  0.0247 -0.0579 -0.1995
  488MPD2    C3 7309   3.062   2.720  16.370  1.2649 -0.4864 -0.2153
  488MPD2    C4 7310   3.042   2.623  16.278 -0.0021  0.7401  0.3473
  488MPD2    C5 7311   3.074   2.660  16.147 -1.3000 -0.5800 -0.1346
  488MPD2     H 7312   3.109   2.919  16.423  0.9628  1.8256 -1.9248
  488MPD2    H1 7313   2.998   2.527  16.300 -1.6410  1.0719 -1.4340
  488MPD2    H2 7314   3.142   2.806  16.006 -1.3113  1.4693  0.5759
  488MPD2    H3 7315   3.057   2.581  16.075  0.9939 -1.4150  0.2248
  488MPD2     N 7316   3.024   2.695  16.503 -0.0328  0.4791  1.1276
  488MPD2    H5 7317   3.036   2.774  16.566  0.0211  0.2510  1.4034
  488MPD2    N1 7318   3.193   3.006  16.183  0.6746  0.3267  0.5453
  488MPD2    H7 7319   3.185   3.074  16.257  0.8237 -0.5960  1.4145
  489TMC3    C1 7320   2.950   2.604  16.701  0.2817  0.4342 -0.2587
  489TMC3    C2 7321   2.939   2.736  16.739 -0.3532 -0.7588 -0.7170
  489TMC3    C3 7322   2.974   2.761  16.868  0.1037 -0.3413  0.1277
  489TMC3    C4 7323   2.999   2.505  16.779 -0.3692 -0.5207 -0.0484
  489TMC3    C5 7324   3.046   2.538  16.900 -0.8433 -0.1560  0.0417
  489TMC3    C6 7325   3.033   2.669  16.950  0.2855  0.2393  0.4235
  489TMC3     C 7326   2.972   2.586  16.555 -0.0964 -0.2059  0.1827
  489TMC3     O 7327   2.982   2.469  16.517  0.7312  0.4046 -0.3804
  489TMC3     H 7328   2.880   2.806  16.681 -0.4074 -0.6710 -0.5545
  489TMC3    H1 7329   3.024   2.413  16.728 -0.9745  0.0063 -1.2960
  489TMC3    H2 7330   3.080   2.693  17.045  0.1996 -0.7623  0.7163
  489TMC3    C7 7331   3.112   2.432  16.976 -0.0435  0.4193 -0.3811
  489TMC3    C8 7332   3.021   2.893  16.882  0.3665  0.0445 -0.0442
  489TMC3    O1 7333   3.176   2.476  17.071  0.3980  0.5451  0.3641
  489TMC3    O2 7334   3.084   2.938  16.785  0.0501  0.0163  0.5743
  490MPD2     C 7335   4.107   2.425  17.224 -0.0195 -0.2591  0.2123
  490MPD2    C1 7336   4.124   2.320  17.303 -0.9048 -0.5297  0.3451
  490MPD2    C2 7337   4.160   2.334  17.434  0.9318 -0.0602  0.0442
  490MPD2    C3 7338   4.167   2.462  17.495  0.2008  0.3210  0.1124
  490MPD2    C4 7339   4.150   2.570  17.416 -0.1192  0.4684  0.6063
  490MPD2    C5 7340   4.128   2.546  17.283  0.7812  0.8526  0.3932
  490MPD2     H 7341   4.176   2.235  17.475 -0.1223 -0.7035 -1.0567
  490MPD2    H1 7342   4.163   2.673  17.447 -0.1942  0.2034  1.5233
  490MPD2    H2 7343   4.078   2.430  17.120 -4.2322 -0.7527  1.3799
  490MPD2    H3 7344   4.136   2.633  17.220 -1.5739  0.4199 -0.4832
  490MPD2     N 7345   4.226   2.487  17.618  0.3951 -0.2413  0.6143
  490MPD2    H5 7346   4.231   2.584  17.646 -0.4663 -0.2949  0.9422
  490MPD2    N1 7347   4.106   2.186  17.253  0.2547 -0.4164 -0.0441
  490MPD2    H7 7348   4.098   2.110  17.320  0.1235  1.4120  2.0199
  491TMC3    C1 7349   4.049   2.011  17.097  0.1237  0.4173  0.0805
  491TMC3    C2 7350   4.054   1.911  17.197 -0.8007 -0.2845  0.0084
  491TMC3    C3 7351   3.993   1.792  17.169 -0.1398 -0.0828  0.1257
  491TMC3    C4 7352   3.994   1.992  16.977  0.2879  0.2693 -0.6722
  491TMC3    C5 7353   3.930   1.875  16.957  0.1996 -0.3063  0.1170
  491TMC3    C6 7354   3.925   1.775  17.054  0.2482 -0.4886  0.0301
  491TMC3     C 7355   4.092   2.153  17.121  0.2907 -0.1821  0.6809
  491TMC3     O 7356   4.094   2.227  17.028  0.0019 -0.6072  0.3394
  491TMC3     H 7357   4.109   1.923  17.290  1.1167 -0.1222 -1.1325
  491TMC3    H1 7358   3.978   2.072  16.907  1.2732  0.4994 -0.6289
  491TMC3    H2 7359   3.889   1.675  17.032 -0.1950 -0.6548  1.4835
  491TMC3    C7 7360   3.820   1.865  16.859 -0.7790  0.3351 -0.0576
  491TMC3    C8 7361   3.948   1.701  17.277  0.5008 -0.2201 -0.4582
  491TMC3    O1 7362   3.780   1.752  16.833 -0.5207  0.8075 -0.2535
  491TMC3    O2 7363   3.830   1.675  17.275  0.0802  0.4180 -0.9947
  492MPD2     C 7364   4.308   2.782  11.538  0.1841 -0.2555  0.4525
  492MPD2    C1 7365   4.243   2.674  11.477  0.6340 -0.2754 -0.6086
  492MPD2    C2 7366   4.175   2.579  11.557  0.0047 -0.9983 -0.4380
  492MPD2    C3 7367   4.157   2.607  11.694 -0.4101 -0.3025 -0.1497
  492MPD2    C4 7368   4.242   2.695  11.749  0.0261  0.0588 -0.6640
  492MPD2    C5 7369   4.308   2.789  11.674 -0.1001 -0.5372 -0.6845
  492MPD2     H 7370   4.125   2.493  11.514 -1.1031 -0.8979  0.6392
  492MPD2    H1 7371   4.242   2.711  11.856 -1.8372 -1.4482 -0.4352
  492MPD2    H2 7372   4.381   2.839  11.482 -0.5248  0.3558  0.1419
  492MPD2    H3 7373   4.382   2.856  11.716 -0.9786 -0.6314  0.9918
  492MPD2     N 7374   4.077   2.533  11.783 -0.1019 -0.6977 -0.7311
  492MPD2    H5 7375   4.074   2.555  11.882  0.3168 -2.4653 -0.3111
  492MPD2    N1 7376   4.274   2.667  11.340 -0.6875 -0.2282 -0.0933
  492MPD2    H7 7377   4.328   2.747  11.307 -0.5279 -0.0495  0.5989
  493TMC3    C1 7378   4.278   2.601  11.109 -0.2952  0.2577 -0.6746
  493TMC3    C2 7379   4.366   2.707  11.082  0.4006 -0.0442 -0.2409
  493TMC3    C3 7380   4.405   2.734  10.952  0.3879  0.0871 -0.2414
  493TMC3    C4 7381   4.236   2.521  11.011 -0.3120 -0.7422  0.6050
  493TMC3    C5 7382   4.277   2.549  10.883  0.2331 -0.3637 -0.0461
  493TMC3    C6 7383   4.364   2.651  10.852 -0.1280  0.8804  0.5733
  493TMC3     C 7384   4.237   2.567  11.250  0.3897  0.1135  0.1629
  493TMC3     O 7385   4.172   2.470  11.278  0.6220 -0.7678 -0.3738
  493TMC3     H 7386   4.397   2.766  11.168 -3.3146  1.2259  0.2018
  493TMC3    H1 7387   4.154   2.451  11.027 -0.0165 -0.2604  4.1579
  493TMC3    H2 7388   4.400   2.662  10.750  1.9627  0.6150  1.2786
  493TMC3    C7 7389   4.219   2.468  10.775 -0.5396  0.2840 -0.0151
  493TMC3    C8 7390   4.526   2.819  10.949 -0.3644 -0.3562 -0.9434
  493TMC3    O1 7391   4.192   2.516  10.668 -0.0183  0.2447  0.5742
  493TMC3    O2 7392   4.582   2.841  11.055  0.5280  0.0886  0.2038
  494TMC3    C1 7393   0.160   4.078   0.702 -0.2224 -0.6552  0.5742
  494TMC3    C2 7394   0.134   3.949   0.668  0.7226 -0.5855 -0.6121
  494TMC3    C3 7395   0.144   3.910   0.541  0.2721  0.7281 -0.0221
  494TMC3    C4 7396   0.202   4.171   0.612  0.8438  0.0111 -0.2168
  494TMC3    C5 7397   0.204   4.138   0.481 -0.0951 -0.0153  0.6235
  494TMC3    C6 7398   0.187   4.004   0.442 -0.6450 -0.8331 -0.0563
  494TMC3     C 7399   0.207   4.093   0.835  0.3780 -0.2597  0.4371
  494TMC3     O 7400   0.152   4.018   0.915  0.0824  0.5125 -0.1372
  494TMC3     H 7401   0.095   3.883   0.745 -0.1570  0.5202 -0.1068
  494TMC3    H1 7402   0.217   4.275   0.642 -0.8132  0.2013 -0.0531
  494TMC3    H2 7403   0.185   3.970   0.339 -0.6691 -1.3417  0.1086
  494TMC3    C7 7404   0.234   4.226   0.370  0.0037 -0.4318  0.7586
  494TMC3    C8 7405   0.184   3.774   0.523 -0.0418  0.4383  0.6259
  494TMC3    O1 7406   0.221   4.173   0.260  0.1327 -0.2931 -0.3382
  494TMC3    O2 7407   0.226   3.726   0.630  0.8156 -0.1570  0.1986
  495TMC3    C1 7408   3.382   1.562  14.540 -0.2011  0.0034 -0.0595
  495TMC3    C2 7409   3.332   1.645  14.444  0.0385  0.1169  0.7600
  495TMC3    C3 7410   3.205   1.701  14.478 -0.1799 -0.3444 -0.5702
  495TMC3    C4 7411   3.330   1.551  14.669 -0.9340  0.0302 -0.2611
  495TMC3    C5 7412   3.211   1.610  14.696  0.3381  0.5239  0.0922
  495TMC3    C6 7413   3.149   1.683  14.602  0.5659 -0.0259 -0.3400
  495TMC3     C 7414   3.421   1.429  14.493 -0.6397 -0.5631 -0.3414
  495TMC3     O 7415   3.370   1.338  14.550  0.4814  0.2627 -0.4040
  495TMC3     H 7416   3.374   1.650  14.344 -0.2249  1.3256  0.7135
  495TMC3    H1 7417   3.385   1.497  14.745 -0.1459  0.3401 -0.6117
  495TMC3    H2 7418   3.049   1.721  14.617  0.9097  1.9018 -3.0563
  495TMC3    C7 7419   3.154   1.572  14.823  0.2124  0.3768  0.5983
  495TMC3    C8 7420   3.109   1.676  14.376 -0.4791  0.5666 -0.0640
  495TMC3    O1 7421   3.228   1.582  14.918  0.0085  0.1780 -0.1963
  495TMC3    O2 7422   2.999   1.712  14.400  0.2559  0.2054 -0.1961
  496MPD2     C 7423   0.182   1.892  15.177  0.5321  0.2454  0.6593
  496MPD2    C1 7424   0.292   1.834  15.238 -0.1213  0.0482 -0.2210
  496MPD2    C2 7425   0.269   1.743  15.341  0.0579  0.4369  0.7850
  496MPD2    C3 7426   0.138   1.697  15.371 -0.9747  0.3788  0.1139
  496MPD2    C4 7427   0.035   1.752  15.309  0.0345 -0.3319  0.2689
  496MPD2    C5 7428   0.055   1.849  15.214  0.2687 -0.1771  0.4207
  496MPD2     H 7429   0.348   1.695  15.398  0.4941 -1.8094 -1.6646
  496MPD2    H1 7430   4.668   1.725  15.335  0.3634 -0.5961  1.2961
  496MPD2    H2 7431   0.191   1.968  15.100 -1.3898 -0.3528 -0.1466
  496MPD2    H3 7432   4.699   1.893  15.173  0.3554  1.5510  2.0817
  496MPD2     N 7433   0.106   1.602  15.473 -0.4260 -0.6226  0.4835
  496MPD2    H5 7434   0.006   1.585  15.481 -0.5748  0.0703  0.1324
  496MPD2    N1 7435   0.423   1.884  15.202  0.3060  0.1690 -0.5723
  496MPD2    H7 7436   0.435   1.949  15.125  1.1212 -0.1744 -0.7431
  497TMC3    C1 7437   0.128   1.419  15.612 -0.2909  0.8561  1.4034
  497TMC3    C2 7438   0.011   1.364  15.569 -0.0192  0.4192 -0.4544
  497TMC3    C3 7439   4.711   1.242  15.615 -0.4614  0.2838  0.2726
  497TMC3    C4 7440   0.205   1.353  15.709  0.3421 -0.2936  0.2635
  497TMC3    C5 7441   0.169   1.231  15.750  0.3465  0.2141 -0.1126
  497TMC3    C6 7442   0.050   1.171  15.709  0.0682 -0.1313 -0.2933
  497TMC3     C 7443   0.190   1.537  15.557  0.7441 -0.2803  0.2335
  497TMC3     O 7444   0.298   1.571  15.590 -0.4085 -0.1157 -0.8396
  497TMC3     H 7445   4.690   1.421  15.496  0.3885  1.9959  0.4853
  497TMC3    H1 7446   0.299   1.397  15.742  0.0336 -0.6274  1.5879
  497TMC3    H2 7447   0.018   1.070  15.733 -2.4363  0.8069  0.3063
  497TMC3    C7 7448   0.238   1.167  15.863 -0.1496 -0.4913 -0.4882
  497TMC3    C8 7449   4.570   1.218  15.628 -0.0983 -0.1303  0.4508
  497TMC3    O1 7450   0.212   1.050  15.869  0.2954  0.8058  0.2268
  497TMC3    O2 7451   4.515   1.187  15.734 -0.1280 -0.1130  0.0275
  498MPD2     C 7452   1.552   2.489   9.929 -0.0945 -0.3469 -0.3635
  498MPD2    C1 7453   1.524   2.566  10.036  0.6884  0.1941  0.0882
  498MPD2    C2 7454   1.396   2.582  10.081 -0.0610 -0.1554 -0.0944
  498MPD2    C3 7455   1.291   2.512  10.028  0.0061  0.0698 -0.1556
  498MPD2    C4 7456   1.321   2.425   9.925 -0.1637  0.1068 -0.3528
  498MPD2    C5 7457   1.450   2.415   9.876 -0.0490 -0.0804 -0.1732
  498MPD2     H 7458   1.376   2.646  10.167 -0.9966 -0.7636  0.1439
  498MPD2    H1 7459   1.240   2.369   9.879  0.4428 -0.9283 -0.1769
  498MPD2    H2 7460   1.653   2.467   9.895  0.2058  0.8125 -0.2247
  498MPD2    H3 7461   1.468   2.354   9.788 -0.0432  0.0518 -0.2654
  498MPD2     N 7462   1.173   2.532  10.092  0.4874  0.0149  0.1117
  498MPD2    H5 7463   1.174   2.596  10.171 -0.4193  0.8563 -0.5714
  498MPD2    N1 7464   1.626   2.644  10.101  0.0983 -0.1181 -0.5979
  498MPD2    H7 7465   1.597   2.721  10.160 -1.0773 -0.2936 -0.9305
  499TMC3    C1 7466   1.835   2.716  10.166  0.5282 -0.1896 -0.5644
  499TMC3    C2 7467   1.965   2.693  10.189  0.0307  0.0078  0.1719
  499TMC3    C3 7468   2.052   2.799  10.211 -0.3046  0.1092 -0.3209
  499TMC3    C4 7469   1.790   2.847  10.165  0.5413  0.3595  0.2352
  499TMC3    C5 7470   1.875   2.951  10.190  0.6695 -0.7189  0.0028
  499TMC3    C6 7471   2.007   2.929  10.222  0.4214 -0.3059  0.5978
  499TMC3     C 7472   1.756   2.615  10.095 -0.1561  0.5740 -0.2852
  499TMC3     O 7473   1.823   2.522  10.052  0.2827 -0.2959  0.3324
  499TMC3     H 7474   1.998   2.592  10.207  1.2489  0.0918 -1.6391
  499TMC3    H1 7475   1.692   2.875  10.126  0.2166 -1.6236 -0.3826
  499TMC3    H2 7476   2.074   3.011  10.244 -0.9373  0.6263  1.2147
  499TMC3    C7 7477   1.842   3.077  10.124 -0.0834  0.5648 -0.2086
  499TMC3    C8 7478   2.199   2.783  10.227  0.3497 -0.3079 -0.2533
  499TMC3    O1 7479   1.795   3.070  10.011 -0.3532 -0.3947  0.4628
  499TMC3    O2 7480   2.258   2.885  10.247 -0.1753  0.2394 -0.1591
  500MPD2     C 7481   3.304   3.258  10.333  0.4053  0.4143 -0.0193
  500MPD2    C1 7482   3.293   3.390  10.306 -0.1537  0.0329 -0.0694
  500MPD2    C2 7483   3.179   3.431  10.238 -0.9367  0.0264 -0.0990
  500MPD2    C3 7484   3.076   3.347  10.202 -0.0074 -0.0474  0.2307
  500MPD2    C4 7485   3.087   3.217  10.232  0.0180 -0.1546  0.2505
  500MPD2    C5 7486   3.201   3.172  10.297  1.0091  0.2995 -0.3934
  500MPD2     H 7487   3.172   3.537  10.215 -1.4733 -0.5247 -2.4018
  500MPD2    H1 7488   3.010   3.144  10.214 -1.2911  1.1325  0.6237
  500MPD2    H2 7489   3.390   3.216  10.384  0.0011  2.1065  2.0096
  500MPD2    H3 7490   3.204   3.067  10.322  1.3016  0.4065  0.0185
  500MPD2     N 7491   2.963   3.389  10.130  0.8122 -0.8068 -0.5837
  500MPD2    H5 7492   2.888   3.320  10.131 -0.0582  0.1618  0.1537
  500MPD2    N1 7493   3.381   3.495  10.343  0.5198 -0.0602 -0.7765
  500MPD2    H7 7494   3.363   3.591  10.316 -1.3578 -0.1949 -0.0011
  501TMC3    C1 7495   3.544   3.598  10.478 -0.2911 -0.2155  0.3326
  501TMC3    C2 7496   3.468   3.712  10.489 -0.2330 -0.0605 -0.4075
  501TMC3    C3 7497   3.526   3.816  10.552 -0.7818  0.1188 -0.0433
  501TMC3    C4 7498   3.673   3.597  10.518  0.7222 -0.5775  0.2521
  501TMC3    C5 7499   3.729   3.708  10.567  0.3719 -0.9021 -0.1825
  501TMC3    C6 7500   3.658   3.820  10.594  0.1335 -0.4752 -0.0155
  501TMC3     C 7501   3.495   3.478  10.411  0.1279 -0.2343  0.7985
  501TMC3     O 7502   3.566   3.378  10.432  0.3250 -0.7247 -0.2518
  501TMC3     H 7503   3.366   3.732  10.458 -0.7380 -0.5996  0.9006
  501TMC3    H1 7504   3.736   3.510  10.508 -1.3001 -1.9565 -0.5360
  501TMC3    H2 7505   3.705   3.908  10.637  0.4833 -1.3417  1.3900
  501TMC3    C7 7506   3.845   3.678  10.650 -0.3089 -0.6286  0.1300
  501TMC3    C8 7507   3.480   3.960  10.558  0.2441  0.5703  0.3317
  501TMC3    O1 7508   3.842   3.577  10.720 -0.1743  0.0150  0.1666
  501TMC3    O2 7509   3.536   4.039  10.636 -0.7427  0.2379 -0.5060
  502TMC3    C1 7510   2.696   1.962  14.546  0.1905 -0.2575  0.3074
  502TMC3    C2 7511   2.697   2.093  14.493  0.2796  0.6066 -0.2528
  502TMC3    C3 7512   2.594   2.167  14.535  0.5403  0.2260 -0.2642
  502TMC3    C4 7513   2.587   1.913  14.625 -0.3334 -0.4727  0.1974
  502TMC3    C5 7514   2.479   1.993  14.652  0.5384  0.0891 -0.0679
  502TMC3    C6 7515   2.487   2.121  14.607  0.3192  0.5981  0.0066
  502TMC3     C 7516   2.814   1.931  14.609  0.3417  0.4302 -0.3167
  502TMC3     O 7517   2.917   1.975  14.554 -0.6483 -0.6661  0.1197
  502TMC3     H 7518   2.779   2.128  14.430 -0.6155  3.2344  0.0182
  502TMC3    H1 7519   2.587   1.808  14.652  0.5668 -0.1235  1.5405
  502TMC3    H2 7520   2.423   2.196  14.653 -2.4234 -1.7663  0.0775
  502TMC3    C7 7521   2.454   1.981  14.789 -0.1638 -0.2550  0.1797
  502TMC3    C8 7522   2.637   2.295  14.602  0.0347  0.0029  0.2188
  502TMC3    O1 7523   2.539   1.944  14.866  0.4705  0.2693  0.1931
  502TMC3    O2 7524   2.556   2.388  14.620  0.1872 -0.5626  0.5084
  503MPD2     C 7525   0.222   3.048  17.283 -0.3134 -0.0367  0.1406
  503MPD2    C1 7526   0.352   3.081  17.250  0.2849  0.0013  0.2966
  503MPD2    C2 7527   0.459   3.025  17.318 -0.1311  0.0863 -0.5183
  503MPD2    C3 7528   0.437   2.935  17.420  0.5082  0.3360  0.1711
  503MPD2    C4 7529   0.302   2.899  17.447 -0.5481  0.3559 -0.0623
  503MPD2    C5 7530   0.194   2.962  17.386  0.0219 -0.3841  0.3298
  503MPD2     H 7531   0.560   3.053  17.293  0.5895 -1.1011  1.0704
  503MPD2    H1 7532   0.279   2.825  17.523  0.6781 -1.4216 -1.4175
  503MPD2    H2 7533   0.130   3.074  17.232 -1.2459  0.6644  2.2152
  503MPD2    H3 7534   0.097   2.923  17.413 -1.0589  1.0354 -1.4156
  503MPD2     N 7535   0.551   2.876  17.477  0.0381  0.0931  0.1967
  503MPD2    H5 7536   0.644   2.916  17.465 -0.5303  1.1794 -0.6296
  503MPD2    N1 7537   0.380   3.171  17.148  0.3997 -0.4955 -0.2515
  503MPD2    H7 7538   0.475   3.200  17.130  0.4724 -0.7736 -0.3245
  504TMC3    C1 7539   0.656   2.702  17.583 -0.0642  0.1690  0.5715
  504TMC3    C2 7540   0.699   2.677  17.716 -0.6025  0.1435  0.0037
  504TMC3    C3 7541   0.805   2.597  17.734  0.2578  0.2457 -0.2096
  504TMC3    C4 7542   0.722   2.655  17.470 -0.0003 -0.2007 -0.9894
  504TMC3    C5 7543   0.827   2.570  17.495 -0.0891 -0.7743  0.1369
  504TMC3    C6 7544   0.860   2.539  17.628 -0.1861  0.9366  0.4267
  504TMC3     C 7545   0.537   2.783  17.575  0.8665 -0.7771  0.1215
  504TMC3     O 7546   0.450   2.757  17.656 -0.2651  0.1563  0.5129
  504TMC3     H 7547   0.642   2.715   0.060 -1.9383 -2.2583  0.1853
  504TMC3    H1 7548   0.700   2.688  17.369 -1.0433  1.4557 -0.2009
  504TMC3    H2 7549   0.948   2.480  17.653  0.4966  0.9298 -1.9345
  504TMC3    C7 7550   0.912   2.532  17.380 -0.2827  0.1604  0.0321
  504TMC3    C8 7551   0.832   2.548   0.127 -0.4002 -0.9761 -0.2382
  504TMC3    O1 7552   0.876   2.567  17.265 -0.2730 -0.0575 -0.4581
  504TMC3    O2 7553   0.854   2.432   0.143 -0.2718 -0.1039  0.1830
  505MPD2     C 7554   0.269   1.789  11.406 -0.4951  0.6716 -0.5194
  505MPD2    C1 7555   0.311   1.830  11.286  0.3885 -0.4571  0.2447
  505MPD2    C2 7556   0.405   1.933  11.281 -0.3916  0.5180  0.1555
  505MPD2    C3 7557   0.462   1.986  11.393 -0.4179 -0.3492 -1.0619
  505MPD2    C4 7558   0.415   1.942  11.515  0.3938 -0.0264  0.1885
  505MPD2    C5 7559   0.327   1.840  11.522 -0.8577  0.1710 -0.1354
  505MPD2     H 7560   0.432   1.987  11.190  0.5186  0.1849  0.2316
  505MPD2    H1 7561   0.458   1.984  11.605  1.4036 -2.3443  0.7931
  505MPD2    H2 7562   0.195   1.711  11.415 -0.9109  1.1838  0.4569
  505MPD2    H3 7563   0.312   1.789  11.616 -0.1547  1.8867  0.9146
  505MPD2     N 7564   0.588   2.055  11.398  0.1337  0.1974 -0.1974
  505MPD2    H5 7565   0.625   2.095  11.483  0.0876 -2.2810  0.9750
  505MPD2    N1 7566   0.255   1.766  11.175  0.0885 -0.5117  0.0560
  505MPD2    H7 7567   0.198   1.684  11.192 -0.1016 -1.0435 -3.0909
  506TMC3    C1 7568   0.225   1.716  10.949  0.8600  0.2537 -0.0554
  506TMC3    C2 7569   0.228   1.766  10.826 -0.1146 -0.5181 -0.2518
  506TMC3    C3 7570   0.260   1.689  10.724 -0.2104 -1.0293 -0.4734
  506TMC3    C4 7571   0.279   1.591  10.968  0.1159 -0.0241  0.2713
  506TMC3    C5 7572   0.341   1.526  10.863 -0.1683 -0.0694 -0.2412
  506TMC3    C6 7573   0.324   1.570  10.731  0.5544 -0.0345  0.5222
  506TMC3     C 7574   0.268   1.814  11.050 -0.8663  0.2166  0.0199
  506TMC3     O 7575   0.310   1.926  11.015 -0.6120  0.1891 -0.7105
  506TMC3     H 7576   0.165   1.852  10.807  0.7093 -0.0557 -0.8849
  506TMC3    H1 7577   0.286   1.551  11.069  0.0952 -1.9345 -0.4834
  506TMC3    H2 7578   0.358   1.513  10.646 -0.5388  2.1350 -1.3620
  506TMC3    C7 7579   0.485   1.501  10.883 -0.0096 -0.2310 -0.7766
  506TMC3    C8 7580   0.265   1.742  10.590  0.2072  0.0513 -0.6347
  506TMC3    O1 7581   0.524   1.398  10.832 -1.0558  0.7712  0.2188
  506TMC3    O2 7582   0.239   1.659  10.503  0.1008 -0.1155 -0.0831
  507TMC3    C1 7583   1.333   3.096  14.620 -0.0730 -0.2709  0.5260
  507TMC3    C2 7584   1.236   3.043  14.545  0.4518 -0.6552  0.0318
  507TMC3    C3 7585   1.135   3.118  14.497 -0.4025 -0.4677  0.0047
  507TMC3    C4 7586   1.340   3.228  14.656  0.1167  0.2202  0.7355
  507TMC3    C5 7587   1.236   3.304  14.608  0.0477 -0.1767  0.1494
  507TMC3    C6 7588   1.139   3.251  14.523 -0.0960  0.0617  0.2059
  507TMC3     C 7589   1.367   3.012  14.732  0.2598  0.0305  0.8485
  507TMC3     O 7590   1.351   3.059  14.843  0.4255  0.2561  0.6587
  507TMC3     H 7591   1.228   2.935  14.539  1.7581 -0.7788  0.3297
  507TMC3    H1 7592   1.400   3.251  14.743  0.2303  0.5894  0.5618
  507TMC3    H2 7593   1.061   3.313  14.481 -0.9061 -0.5358  0.8214
  507TMC3    C7 7594   1.161   3.382  14.707  0.7129 -0.8475  0.4058
  507TMC3    C8 7595   1.000   3.060  14.532 -0.0559  0.5950 -0.0527
  507TMC3    O1 7596   1.040   3.382  14.698  0.1027 -0.4487 -1.0031
  507TMC3    O2 7597   0.988   2.946  14.483  0.1844 -0.0834  0.0654
  508MPD2     C 7598   2.252   0.057  15.948  0.4774 -0.2713 -0.5627
  508MPD2    C1 7599   2.185   0.111  16.059  0.1825 -0.5598  0.1168
  508MPD2    C2 7600   2.093   0.218  16.036 -0.4983  0.2432 -0.0691
  508MPD2    C3 7601   2.063   0.257  15.907 -0.0424  0.3644  0.1753
  508MPD2    C4 7602   2.128   0.198  15.809 -0.2827 -0.1713 -0.4605
  508MPD2    C5 7603   2.228   0.111  15.829 -0.0121  0.0450 -0.0001
  508MPD2     H 7604   2.042   0.259  16.123  0.5708  1.0533  0.1725
  508MPD2    H1 7605   2.118   0.233  15.707  1.0515  0.2746 -0.4451
  508MPD2    H2 7606   2.318   4.707  15.961  0.6676  0.0283  0.4126
  508MPD2    H3 7607   2.278   0.067  15.744  1.1286  0.4630  0.4449
  508MPD2     N 7608   1.959   0.346  15.881  0.2460 -0.1984  0.5114
  508MPD2    H5 7609   1.901   0.379  15.957 -0.1267  0.7599 -0.1982
  508MPD2    N1 7610   2.208   0.055  16.187 -0.3362  0.1749 -0.0348
  508MPD2    H7 7611   2.281   4.719  16.192  0.2346  0.7562 -0.1762
  509TMC3    C1 7612   1.781   0.685  15.630 -0.2817  0.3904  0.0243
  509TMC3    C2 7613   1.833   0.779  15.716 -0.3667  0.4247  0.4306
  509TMC3    C3 7614   1.896   0.743  15.826 -0.5470  0.5684 -0.2241
  509TMC3    C4 7615   1.783   0.557  15.672  0.6933 -0.4047  0.4704
  509TMC3    C5 7616   1.847   0.522  15.780 -0.1934 -0.2664 -0.5917
  509TMC3    C6 7617   1.904   0.610  15.866  0.1836 -0.1008 -1.1788
  509TMC3     C 7618   1.690   0.726  15.523 -0.5764 -0.1509 -0.5833
  509TMC3     O 7619   1.577   0.677  15.516 -0.8164  0.1641 -0.4217
  509TMC3     H 7620   1.810   0.884  15.701 -0.4195  0.1142 -1.5893
  509TMC3    H1 7621   1.737   0.489  15.600 -1.3655 -0.2161  1.6087
  509TMC3    H2 7622   1.951   0.586  15.961  0.2548 -0.7163 -1.3683
  509TMC3    C7 7623   1.929   0.396  15.757 -0.4759 -0.1874  0.5149
  509TMC3    C8 7624   1.976   0.840  15.901  0.0836 -0.2352 -0.2742
  509TMC3    O1 7625   1.955   0.363  15.641  0.3540  0.1844  0.1993
  509TMC3    O2 7626   1.987   0.823  16.020  0.6598  0.0579 -0.7887
  510MPD2     C 7627   4.392   1.885  14.325  0.1418  0.1209  0.8610
  510MPD2    C1 7628   4.460   1.807  14.421 -0.2558  0.8472 -0.3429
  510MPD2    C2 7629   4.592   1.783  14.395 -0.0514 -0.2340 -0.2385
  510MPD2    C3 7630   4.657   1.837  14.290 -0.4741  0.0906 -0.1692
  510MPD2    C4 7631   4.584   1.886  14.184 -0.1592  0.8344 -0.7212
  510MPD2    C5 7632   4.452   1.913  14.203  0.2068  0.4079 -0.6363
  510MPD2     H 7633   4.646   1.729  14.472  0.9292  0.9868 -0.0660
  510MPD2    H1 7634   4.628   1.926  14.093  0.6539 -1.2525 -1.2498
  510MPD2    H2 7635   4.284   1.889  14.326  0.1485  0.6031 -1.1674
  510MPD2    H3 7636   4.391   1.955  14.123  3.4987 -0.6016 -3.6602
  510MPD2     N 7637   0.069   1.822  14.290 -0.1167 -0.1093  0.3647
  510MPD2    H5 7638   0.106   1.782  14.375  0.3865  1.6758  0.9797
  510MPD2    N1 7639   4.384   1.752  14.528 -0.1330 -0.5304 -0.0631
  510MPD2    H7 7640   4.289   1.786  14.535 -0.9193 -1.9416 -3.7302
  511TMC3    C1 7641   4.294   1.575  14.650  0.4938 -0.0623 -0.8914
  511TMC3    C2 7642   4.199   1.650  14.707  0.0259  0.1589  0.0981
  511TMC3    C3 7643   4.090   1.581  14.755 -0.2809  0.5286  0.2826
  511TMC3    C4 7644   4.289   1.440  14.649  0.1274 -0.4974 -0.2330
  511TMC3    C5 7645   4.181   1.377  14.702 -0.2212  0.1513 -0.9352
  511TMC3    C6 7646   4.078   1.449  14.747  0.2136  0.8594 -0.0299
  511TMC3     C 7647   4.413   1.639  14.602  0.8976  0.5031  0.7426
  511TMC3     O 7648   4.525   1.582  14.596 -0.5159 -0.1370 -0.0736
  511TMC3     H 7649   4.206   1.756  14.730  1.2179 -0.6977  3.7445
  511TMC3    H1 7650   4.363   1.381  14.595  0.1955 -0.8005  0.1891
  511TMC3    H2 7651   3.980   1.409  14.769  0.4717 -0.6237 -1.5550
  511TMC3    C7 7652   4.144   1.254  14.632  0.2696  0.2551 -0.5911
  511TMC3    C8 7653   4.007   1.646  14.850  0.4191  0.4085  0.1710
  511TMC3    O1 7654   4.195   1.234  14.521 -0.5054 -0.0211 -0.2584
  511TMC3    O2 7655   4.015   1.768  14.851  0.3673 -0.0359 -0.1894
  512TMC3    C1 7656   3.310   1.355  13.288 -0.6324  0.5795  0.4046
  512TMC3    C2 7657   3.399   1.366  13.389  0.1013  0.2239  0.1926
  512TMC3    C3 7658   3.509   1.288  13.384  0.2761 -1.0325  0.3117
  512TMC3    C4 7659   3.320   1.262  13.192 -0.0201  0.3206 -0.5320
  512TMC3    C5 7660   3.422   1.167  13.198  1.2410  0.4060 -1.1316
  512TMC3    C6 7661   3.518   1.186  13.295 -0.3816  1.2132 -0.1556
  512TMC3     C 7662   3.169   1.403  13.310  0.0616  0.4548  0.1399
  512TMC3     O 7663   3.153   1.505  13.371  0.3687  0.2662  0.2647
  512TMC3     H 7664   3.365   1.429  13.470 -0.2120 -0.6761  0.7508
  512TMC3    H1 7665   3.245   1.258  13.113  0.9904  0.3733 -1.4908
  512TMC3    H2 7666   3.607   1.126  13.309 -1.4914  0.1278  2.2442
  512TMC3    C7 7667   3.456   1.093  13.077  0.3460  0.1955 -0.0754
  512TMC3    C8 7668   3.608   1.318  13.480  0.6321 -0.0145 -0.1065
  512TMC3    O1 7669   3.440   1.152  12.971  0.0436  0.5086 -0.2671
  512TMC3    O2 7670   3.692   1.233  13.493 -0.3928  0.2553 -0.4361
  513MPD2     C 7671   1.072   0.885  13.189 -0.6569  0.4601  0.2392
  513MPD2    C1 7672   1.037   0.756  13.220  0.3210 -1.0782  0.0235
  513MPD2    C2 7673   1.095   0.697  13.330  0.5161  0.1936  0.8497
  513MPD2    C3 7674   1.178   0.760  13.420  0.0943 -0.0753  0.2779
  513MPD2    C4 7675   1.211   0.890  13.386  0.2537 -0.7774  0.7243
  513MPD2    C5 7676   1.165   0.944  13.269  0.0322  0.3321  0.0583
  513MPD2     H 7677   1.064   0.596  13.353 -0.1563  0.5638  1.5977
  513MPD2    H1 7678   1.286   0.947  13.439  0.1935  0.6801 -0.7845
  513MPD2    H2 7679   1.035   0.942  13.104 -0.3585  2.5726  1.5300
  513MPD2    H3 7680   1.198   1.046  13.254  0.4878 -0.3044 -3.3871
  513MPD2     N 7681   1.221   0.701  13.541  0.0046 -0.1715  0.3969
  513MPD2    H5 7682   1.175   0.611  13.553 -3.6616  1.8953  1.8961
  513MPD2    N1 7683   0.953   0.679  13.135 -0.0844 -0.0826  0.6166
  513MPD2    H7 7684   0.940   0.582  13.163  0.4494 -0.4127 -0.2706
  514TMC3    C1 7685   0.892   0.596  12.926 -0.4867  1.2649  0.2240
  514TMC3    C2 7686   0.982   0.568  12.831 -0.0347  0.4554 -0.0043
  514TMC3    C3 7687   1.021   0.437  12.811  0.2358  0.2808 -0.0539
  514TMC3    C4 7688   0.849   0.493  13.008 -0.0422  0.1394  0.2162
  514TMC3    C5 7689   0.912   0.366  13.000 -0.1513  0.4431  0.2895
  514TMC3    C6 7690   0.998   0.337  12.900  0.5942  0.1439 -0.4251
  514TMC3     C 7691   0.934   0.711  13.004 -0.0929  0.2695  0.2839
  514TMC3     O 7692   0.982   0.806  12.938 -0.0378 -0.0488  0.7347
  514TMC3     H 7693   1.018   0.646  12.765 -1.0559  0.9166 -0.0251
  514TMC3    H1 7694   0.779   0.516  13.087 -1.1740  0.2345 -0.8129
  514TMC3    H2 7695   1.036   0.237  12.885 -0.8327 -0.2272 -1.5659
  514TMC3    C7 7696   0.949   0.311  13.131  0.3305 -0.5826  0.1690
  514TMC3    C8 7697   1.108   0.407  12.697  0.4448 -0.1529 -0.2569
  514TMC3    O1 7698   0.932   0.391  13.222  0.1687 -0.2791 -0.0594
  514TMC3    O2 7699   1.186   0.316  12.721  0.2020  1.2087  0.0471
  515MPD2     C 7700   3.649   3.054  15.188  0.5497  0.2423  0.0563
  515MPD2    C1 7701   3.642   3.076  15.049 -0.0157  0.0288  0.3106
  515MPD2    C2 7702   3.719   3.174  15.000  1.1202 -0.1460 -0.0204
  515MPD2    C3 7703   3.813   3.238  15.078 -0.3104  0.3705 -0.3747
  515MPD2    C4 7704   3.826   3.208  15.212  0.7387 -0.3032 -0.4318
  515MPD2    C5 7705   3.735   3.119  15.260  0.0753  0.2034 -0.9510
  515MPD2     H 7706   3.715   3.197  14.894 -1.6539 -0.8820 -0.0789
  515MPD2    H1 7707   3.900   3.250  15.279 -2.2594  0.2443  2.5703
  515MPD2    H2 7708   3.576   2.987  15.232 -0.2312  0.2308 -1.2577
  515MPD2    H3 7709   3.754   3.091  15.364  0.5556 -0.0063 -1.0947
  515MPD2     N 7710   3.896   3.335  15.021 -0.6265  0.2321  0.0365
  515MPD2    H5 7711   3.964   3.371  15.087 -0.5696 -2.6723  1.5680
  515MPD2    N1 7712   3.559   2.998  14.960  0.2021 -0.1652  0.0209
  515MPD2    H7 7713   3.562   3.027  14.863 -2.0811  1.2806  0.3842
  516TMC3    C1 7714   3.406   2.827  14.886 -0.2905 -0.4598  0.6389
  516TMC3    C2 7715   3.342   2.910  14.795 -0.1102  0.3230  0.5829
  516TMC3    C3 7716   3.258   2.853  14.701 -0.1020  0.0748 -1.0848
  516TMC3    C4 7717   3.377   2.694  14.889  0.1615 -0.0872 -0.9131
  516TMC3    C5 7718   3.297   2.639  14.792 -0.0278  0.1162  0.6308
  516TMC3    C6 7719   3.238   2.715  14.698  0.3146  0.2926 -0.4209
  516TMC3     C 7720   3.494   2.883  14.994  0.0935 -0.3973  0.4327
  516TMC3     O 7721   3.493   2.824  15.101 -0.3673  0.1226  0.3067
  516TMC3     H 7722   3.352   3.017  14.796 -1.0370  0.4057  1.5677
  516TMC3    H1 7723   3.439   2.638  14.958 -0.1497  0.6222 -0.0658
  516TMC3    H2 7724   3.164   2.672  14.631  0.4293  1.1930 -1.1237
  516TMC3    C7 7725   3.311   2.502  14.768 -0.2490 -0.7477  0.3621
  516TMC3    C8 7726   3.171   2.935  14.615  0.7594  0.1623  0.2746
  516TMC3    O1 7727   3.346   2.443  14.867  0.6630 -0.3735 -0.1820
  516TMC3    O2 7728   3.159   3.057  14.637  0.7297  0.3935  0.6424
  517MPD2     C 7729   3.230   4.114  17.687  0.7322  0.5044 -1.0131
  517MPD2    C1 7730   3.355   4.117   0.003  0.6363  0.1003  0.1285
  517MPD2    C2 7731   3.400   4.239   0.051  0.3879  0.7895  0.2993
  517MPD2    C3 7732   3.323   4.359   0.050  0.2549 -0.0244  0.0875
  517MPD2    C4 7733   3.194   4.348  17.737  0.8867  0.6235 -0.5904
  517MPD2    C5 7734   3.147   4.229  17.681 -0.1583 -0.4033  0.0657
  517MPD2     H 7735   3.503   4.232   0.085  0.7775 -0.4530 -1.1511
  517MPD2    H1 7736   3.135   4.438  17.724 -0.4297  0.4543  4.2314
  517MPD2    H2 7737   3.189   4.020  17.651  0.3194  0.7434 -1.1529
  517MPD2    H3 7738   3.046   4.228  17.643 -0.9601 -1.7079  2.2220
  517MPD2     N 7739   3.373   4.483   0.090 -0.0345 -0.0329  0.3709
  517MPD2    H5 7740   3.306   4.559   0.093 -2.4041 -2.1140  0.3927
  517MPD2    N1 7741   3.449   4.007   0.007 -0.6651  0.3226  0.4154
  517MPD2    H7 7742   3.541   4.019   0.048  0.1619 -1.1719 -0.9991
  518TMC3    C1 7743   3.560   3.814  17.673 -0.3261  0.2154  0.7951
  518TMC3    C2 7744   3.568   3.682  17.674  1.1045 -0.5522 -0.3279
  518TMC3    C3 7745   3.675   3.625  17.618  0.1094  0.4100  0.0222
  518TMC3    C4 7746   3.664   3.894  17.622 -0.0984 -0.2602  0.7123
  518TMC3    C5 7747   3.771   3.832  17.561 -0.3410  0.2851 -0.2841
  518TMC3    C6 7748   3.772   3.694  17.549  0.2745  0.1554  0.2532
  518TMC3     C 7749   3.427   3.877  17.696 -0.0420  0.3923  0.4340
  518TMC3     O 7750   3.327   3.828  17.638 -0.1588  0.0037 -0.0145
  518TMC3     H 7751   3.491   3.623  17.722 -1.3564  1.4970 -1.7605
  518TMC3    H1 7752   3.657   4.002  17.611 -1.9519 -0.4759 -0.3066
  518TMC3    H2 7753   3.854   3.642  17.502  0.0188  2.0538 -2.3243
  518TMC3    C7 7754   3.901   3.913  17.545 -0.3406 -0.8582 -0.2127
  518TMC3    C8 7755   3.666   3.479  17.590  1.0418  0.1158  0.7073
  518TMC3    O1 7756   3.898   4.029  17.582  0.3817 -0.2808 -0.5737
  518TMC3    O2 7757   3.733   3.445  17.496  0.1721 -0.5105  0.3482
  519MPD2     C 7758   0.080   3.041  14.236 -0.0671 -0.3045 -0.3901
  519MPD2    C1 7759   0.066   3.078  14.103  0.4029 -0.8557  0.2556
  519MPD2    C2 7760   0.140   3.018  14.005 -0.2717 -0.0692 -0.0464
  519MPD2    C3 7761   0.244   2.928  14.046  0.4489 -0.0782  0.0773
  519MPD2    C4 7762   0.262   2.910  14.183  0.5400  0.3493  1.0665
  519MPD2    C5 7763   0.177   2.960  14.276  0.5162  0.8689 -0.0730
  519MPD2     H 7764   0.125   3.036  13.899 -0.9347  0.2334  0.0995
  519MPD2    H1 7765   0.335   2.841  14.223  0.5219 -0.0374  0.4386
  519MPD2    H2 7766   0.024   3.090  14.315  1.0374 -0.4382  0.4684
  519MPD2    H3 7767   0.201   2.946  14.381 -0.1034  3.8790  0.4731
  519MPD2     N 7768   0.326   2.845  13.963 -0.4039 -0.6065  0.6202
  519MPD2    H5 7769   0.402   2.790  14.002 -1.1929 -2.1754 -0.0111
  519MPD2    N1 7770   4.687   3.163  14.074  0.4394 -0.2313  0.3276
  519MPD2    H7 7771   4.641   3.186  14.162 -1.1489 -0.1629 -0.5173
  520TMC3    C1 7772   0.406   2.771  13.748  0.0611 -0.0710 -0.4615
  520TMC3    C2 7773   0.370   2.751  13.619  0.3006 -0.4819  0.3276
  520TMC3    C3 7774   0.388   2.629  13.557  0.3728  0.0478 -0.2177
  520TMC3    C4 7775   0.480   2.670  13.810  0.3311 -0.0809  0.5150
  520TMC3    C5 7776   0.504   2.548  13.738  0.1812  0.3942 -0.0421
  520TMC3    C6 7777   0.462   2.528  13.605  0.6789  0.5316 -0.8565
  520TMC3     C 7778   0.312   2.845  13.825 -0.5140  0.7761 -1.0747
  520TMC3     O 7779   0.215   2.887  13.763  0.0216  0.2995  0.3942
  520TMC3     H 7780   0.317   2.835  13.575 -1.7534 -1.1673  1.4754
  520TMC3    H1 7781   0.524   2.679  13.908 -0.1201 -0.2338  0.7306
  520TMC3    H2 7782   0.471   2.437  13.547 -2.8052  0.1181 -0.7581
  520TMC3    C7 7783   0.593   2.450  13.801  0.4400 -0.2557  0.0826
  520TMC3    C8 7784   0.325   2.609  13.434  1.0360 -0.1469  0.2053
  520TMC3    O1 7785   0.595   2.441  13.924 -0.0519  0.0956  0.2668
  520TMC3    O2 7786   0.376   2.544  13.345  0.1091  0.0790 -0.2344
  521MPD2     C 7787   1.035   0.953  17.507  0.2802  0.5270 -0.1692
  521MPD2    C1 7788   0.964   0.848  17.456 -0.3386 -0.3440  0.2793
  521MPD2    C2 7789   1.028   0.732  17.424 -0.1177 -1.4574 -0.1582
  521MPD2    C3 7790   1.166   0.728  17.406  0.4258  0.2842 -0.7992
  521MPD2    C4 7791   1.234   0.848  17.438 -0.3680 -0.3948 -0.4933
  521MPD2    C5 7792   1.168   0.950  17.501  0.1320  0.5714 -0.3455
  521MPD2     H 7793   0.975   0.648  17.379  0.8372 -0.3412 -3.3796
  521MPD2    H1 7794   1.340   0.857  17.421 -0.1819  1.6767  1.7901
  521MPD2    H2 7795   0.992   1.044  17.547 -0.6927 -0.5683  1.2319
  521MPD2    H3 7796   1.221   1.033  17.547 -1.5809  0.4211  1.8977
  521MPD2     N 7797   1.228   0.610  17.356 -0.4018 -0.0799 -0.8133
  521MPD2    H5 7798   1.173   0.527  17.333  3.0481 -2.5893  0.0370
  521MPD2    N1 7799   0.825   0.854  17.463  0.0795 -0.6169  0.2387
  521MPD2    H7 7800   0.779   0.943  17.479  0.6936 -0.1149 -0.7546
  522TMC3    C1 7801   1.412   0.476  17.294 -0.2511 -0.0237 -0.4540
  522TMC3    C2 7802   1.532   0.411  17.324 -0.3827  0.3836  0.6408
  522TMC3    C3 7803   1.583   0.316  17.242  0.4032 -0.0352 -0.1111
  522TMC3    C4 7804   1.340   0.431  17.183 -0.1878 -0.0302  0.2507
  522TMC3    C5 7805   1.390   0.320  17.112 -0.1629 -1.2141  0.1203
  522TMC3    C6 7806   1.510   0.259  17.138 -0.3845  0.2585  0.5138
  522TMC3     C 7807   1.367   0.591  17.370  0.3937 -0.8325 -1.4379
  522TMC3     O 7808   1.454   0.661  17.423  0.1344 -0.2403  0.5186
  522TMC3     H 7809   1.593   0.460  17.398  0.5313  0.7873 -0.3831
  522TMC3    H1 7810   1.251   0.482  17.148  0.4864  0.2136 -1.1269
  522TMC3    H2 7811   1.553   0.193  17.063  0.5673  1.9283 -0.4337
  522TMC3    C7 7812   1.302   0.267  17.012  0.7100  0.6453  0.3044
  522TMC3    C8 7813   1.702   0.253  17.285 -0.5138  0.1224 -0.7871
  522TMC3    O1 7814   1.273   0.148  17.012 -0.1708 -0.8945 -0.3183
  522TMC3    O2 7815   1.723   0.239  17.405  0.3918 -0.0454  0.0304
  523MPD2     C 7816   3.159   0.027   9.594  0.9805  0.4335  0.6270
  523MPD2    C1 7817   3.189   0.135   9.675  0.7455 -0.5061 -0.2337
  523MPD2    C2 7818   3.146   0.262   9.643 -0.6122  0.1455 -0.3254
  523MPD2    C3 7819   3.070   0.278   9.526 -0.2177 -0.0500 -0.2891
  523MPD2    C4 7820   3.038   0.171   9.447  0.0735  0.7334  0.7118
  523MPD2    C5 7821   3.080   0.046   9.482 -0.2251 -0.6938 -0.5245
  523MPD2     H 7822   3.170   0.347   9.704 -1.4951  0.6202 -0.6360
  523MPD2    H1 7823   2.984   0.183   9.354  0.6146 -1.4152  0.1116
  523MPD2    H2 7824   3.180   4.659   9.621  0.5637  0.2932  0.4234
  523MPD2    H3 7825   3.051   4.695   9.423  1.2067 -1.8269  0.4091
  523MPD2     N 7826   3.032   0.408   9.474  0.1820 -0.2224 -0.3044
  523MPD2    H5 7827   3.000   0.421   9.378 -0.4063 -0.9710 -0.2067
  523MPD2    N1 7828   3.266   0.103   9.791 -0.3570 -0.2417 -0.3222
  523MPD2    H7 7829   3.298   0.008   9.805 -1.8340 -0.7346 -0.3485
  524TMC3    C1 7830   3.003   0.637   9.464 -0.0643  0.0937  0.0905
  524TMC3    C2 7831   2.986   0.618   9.331 -0.0069 -0.6893  0.1232
  524TMC3    C3 7832   2.916   0.722   9.267  0.1372 -0.4536  0.5364
  524TMC3    C4 7833   2.944   0.735   9.531  0.4012  0.0402 -0.4655
  524TMC3    C5 7834   2.877   0.836   9.466 -0.2040  0.4809  0.6190
  524TMC3    C6 7835   2.857   0.829   9.330  0.3327  0.7174 -0.1330
  524TMC3     C 7836   3.054   0.526   9.542 -0.2245  0.0309  0.0748
  524TMC3     O 7837   3.070   0.551   9.660 -0.1833 -0.0711  0.0731
  524TMC3     H 7838   3.058   0.557   9.278 -0.1172 -1.7543  1.2026
  524TMC3    H1 7839   2.957   0.754   9.637 -0.2367 -0.9903 -0.2093
  524TMC3    H2 7840   2.786   0.886   9.272  2.1373  3.4252  0.3475
  524TMC3    C7 7841   2.783   0.914   9.538  0.5116 -0.3369 -0.3215
  524TMC3    C8 7842   2.922   0.721   9.118 -0.8389 -0.2039 -0.4796
  524TMC3    O1 7843   2.747   0.872   9.644  0.2252 -0.3408 -0.7004
  524TMC3    O2 7844   2.985   0.629   9.076  0.2531  0.7546  0.1654
  525MPD2     C 7845   1.446   2.236  14.459  0.4174 -0.1334  0.0422
  525MPD2    C1 7846   1.561   2.226  14.532 -0.3668  0.3519 -0.2689
  525MPD2    C2 7847   1.635   2.342  14.546 -0.0466  0.0414  0.4466
  525MPD2    C3 7848   1.604   2.469  14.498  0.0022 -0.7851 -0.0844
  525MPD2    C4 7849   1.488   2.474  14.430  0.2273  0.4839 -0.5770
  525MPD2    C5 7850   1.417   2.361  14.406 -1.0786  0.2746 -0.4784
  525MPD2     H 7851   1.729   2.319  14.596  0.2207  1.7462  0.7180
  525MPD2    H1 7852   1.458   2.571  14.390 -0.2822 -0.2865 -2.0418
  525MPD2    H2 7853   1.385   2.149  14.437  1.1346 -0.8113  0.7216
  525MPD2    H3 7854   1.322   2.371  14.355 -3.1978 -2.8925  2.8397
  525MPD2     N 7855   1.673   2.588  14.525 -0.6222 -0.2231 -0.2963
  525MPD2    H5 7856   1.631   2.678  14.505  0.1466 -0.0339 -1.0436
  525MPD2    N1 7857   1.608   2.104  14.587  0.2493 -0.4322 -0.0277
  525MPD2    H7 7858   1.690   2.095  14.645  1.7029  0.1207 -2.0029
  526TMC3    C1 7859   1.609   1.892  14.688 -0.0173 -0.4491  0.0097
  526TMC3    C2 7860   1.544   1.819  14.783  0.1080 -0.6039  0.2774
  526TMC3    C3 7861   1.616   1.740  14.871  0.6143  0.1480 -0.1652
  526TMC3    C4 7862   1.751   1.894  14.682 -0.2025  0.9845  0.5361
  526TMC3    C5 7863   1.820   1.804  14.763 -0.4207 -0.4075 -0.0309
  526TMC3    C6 7864   1.750   1.732  14.859 -0.6567 -0.7631  0.6169
  526TMC3     C 7865   1.532   1.988  14.603 -0.0283  0.1218  0.3837
  526TMC3     O 7866   1.428   1.952  14.555  0.0837 -0.0102  0.1176
  526TMC3     H 7867   1.436   1.818  14.792  0.1577 -1.4472  0.8288
  526TMC3    H1 7868   1.816   1.957  14.621  0.8393 -0.6006  0.0019
  526TMC3    H2 7869   1.805   1.669  14.928 -0.4656 -1.6130 -0.3004
  526TMC3    C7 7870   1.961   1.785  14.736 -0.4474 -0.7984 -0.3894
  526TMC3    C8 7871   1.573   1.725  15.004  0.3648  0.2749 -0.2816
  526TMC3    O1 7872   1.999   1.825  14.623 -0.4361  0.0738  0.4599
  526TMC3    O2 7873   1.656   1.686  15.083  0.2185 -0.1001  0.2119
  527MPD2     C 7874   0.019   4.416   1.510 -0.0854  0.5610 -0.4387
  527MPD2    C1 7875   0.045   4.385   1.376 -0.8231  0.4395 -0.4630
  527MPD2    C2 7876   0.158   4.412   1.307  0.1497  0.4579 -0.4599
  527MPD2    C3 7877   0.262   4.471   1.376 -0.3224  0.5848 -0.0956
  527MPD2    C4 7878   0.249   4.483   1.511 -0.5584  0.1527  0.4556
  527MPD2    C5 7879   0.128   4.464   1.577 -0.2284  0.4451  0.2363
  527MPD2     H 7880   0.163   4.372   1.207  0.4046 -2.1887  0.6187
  527MPD2    H1 7881   0.325   4.535   1.568 -0.4279 -0.6643  1.0297
  527MPD2    H2 7882   4.671   4.391   1.574  0.5754 -0.6644 -0.0778
  527MPD2    H3 7883   0.117   4.485   1.683  0.3516 -0.8832  0.5719
  527MPD2     N 7884   0.382   4.492   1.303 -0.3630  0.6129  0.2871
  527MPD2    H5 7885   0.365   4.491   1.203  1.9564 -0.4976 -0.0958
  527MPD2    N1 7886   4.681   4.327   1.295 -0.1767  0.0527  0.0720
  527MPD2    H7 7887   4.707   4.314   1.198 -1.0111  1.3013 -0.3264
  528TMC3    C1 7888   4.504   4.185   1.251 -0.0045 -0.6065  0.9299
  528TMC3    C2 7889   4.538   4.209   1.122  0.6692  0.1320  0.3374
  528TMC3    C3 7890   4.568   4.099   1.043  0.4139 -0.8026  0.1511
  528TMC3    C4 7891   4.497   4.059   1.301  0.9976 -0.5088 -0.0351
  528TMC3    C5 7892   4.548   3.952   1.224  0.2674  0.6407  0.2110
  528TMC3    C6 7893   4.579   3.974   1.089 -0.2238  0.5615  0.0209
  528TMC3     C 7894   4.560   4.276   1.347 -0.2302 -0.9627 -0.6035
  528TMC3     O 7895   4.515   4.265   1.462 -0.2199  0.0570  0.5257
  528TMC3     H 7896   4.528   4.311   1.086  0.4754 -0.1761 -0.4797
  528TMC3    H1 7897   4.488   4.054   1.408 -0.0911 -1.9910 -0.1945
  528TMC3    H2 7898   4.632   3.902   1.027 -2.9753 -0.6440 -0.9014
  528TMC3    C7 7899   4.627   3.862   1.303  0.0610  0.0225 -0.0364
  528TMC3    C8 7900   4.562   4.112   0.895 -0.4190 -0.3427 -0.0882
  528TMC3    O1 7901   4.628   3.883   1.419 -0.4860 -0.4874 -0.3204
  528TMC3    O2 7902   4.582   4.226   0.854 -0.3500  0.1856  0.3705
  529MPD2     C 7903   2.354   3.176   0.203 -0.2441 -0.6798  0.6768
  529MPD2    C1 7904   2.340   3.147   0.335 -0.1292 -0.5378 -0.6003
  529MPD2    C2 7905   2.252   3.215   0.411 -0.4106 -0.4614  0.2850
  529MPD2    C3 7906   2.173   3.315   0.359 -0.0048  0.3339  0.2245
  529MPD2    C4 7907   2.177   3.338   0.222  0.2284  0.1008 -0.3170
  529MPD2    C5 7908   2.277   3.281   0.148  0.4380  0.4782 -0.3425
  529MPD2     H 7909   2.223   3.181   0.510 -1.0249 -1.4588 -0.2373
  529MPD2    H1 7910   2.114   3.409   0.171  1.0973  0.2483 -1.1889
  529MPD2    H2 7911   2.426   3.120   0.145 -1.0776 -0.2497 -0.7817
  529MPD2    H3 7912   2.290   3.311   0.045 -1.2849  1.4568 -0.2763
  529MPD2     N 7913   2.066   3.377   0.433  0.1454 -0.6791  0.1373
  529MPD2    H5 7914   2.003   3.431   0.375  0.7361 -1.1643 -0.9635
  529MPD2    N1 7915   2.410   3.044   0.401  0.8659 -0.5826  0.5563
  529MPD2    H7 7916   2.385   3.045   0.499 -2.2432 -0.9683 -0.2208
  530TMC3    C1 7917   2.544   2.852   0.438  0.4554  0.6217  0.3237
  530TMC3    C2 7918   2.607   2.899   0.550 -0.5840 -0.6238  0.3025
  530TMC3    C3 7919   2.657   2.807   0.632 -0.0526 -0.3180 -0.5159
  530TMC3    C4 7920   2.537   2.724   0.410 -0.0096 -0.3431  0.1903
  530TMC3    C5 7921   2.584   2.638   0.502  0.3206  0.3841  0.1559
  530TMC3    C6 7922   2.652   2.673   0.611  0.1951  0.2657  0.3995
  530TMC3     C 7923   2.494   2.951   0.345 -0.0631 -0.1127 -0.6822
  530TMC3     O 7924   2.518   2.938   0.228  0.6168  0.3217  0.5418
  530TMC3     H 7925   2.622   3.006   0.558 -4.0208 -0.1376  0.2424
  530TMC3    H1 7926   2.475   2.693   0.327 -1.0965  2.5712 -0.0655
  530TMC3    H2 7927   2.698   2.592   0.666  0.4465 -0.4243 -0.8446
  530TMC3    C7 7928   2.550   2.502   0.492 -0.4445  0.3449 -0.3151
  530TMC3    C8 7929   2.756   2.853   0.727 -0.2870 -0.0434 -0.0516
  530TMC3    O1 7930   2.543   2.460   0.380 -0.2569  0.4625 -0.5879
  530TMC3    O2 7931   2.765   2.974   0.742 -0.4348  0.0192  0.5253
  531MPD2     C 7932   1.198   0.005  13.442 -0.3824  0.2588 -0.3671
  531MPD2    C1 7933   1.180   0.137  13.459  0.3302  0.5297  0.4800
  531MPD2    C2 7934   1.107   0.196  13.355 -0.3148 -0.4799  0.7328
  531MPD2    C3 7935   1.062   0.128  13.240  0.1017 -0.0127 -0.1103
  531MPD2    C4 7936   1.087   4.727  13.232  0.5253 -0.2236 -0.9826
  531MPD2    C5 7937   1.151   4.663  13.337 -0.2155  0.7267 -0.6801
  531MPD2     H 7938   1.079   0.300  13.365  0.2312 -0.2524 -0.0943
  531MPD2    H1 7939   1.039   4.677  13.149 -0.7452 -0.0599 -0.3404
  531MPD2    H2 7940   1.255   4.685  13.516 -1.6945 -1.3278 -0.5414
  531MPD2    H3 7941   1.163   4.555  13.330  0.2259  0.6180  1.8701
  531MPD2     N 7942   0.997   0.183  13.131 -0.0283  0.3625  0.5175
  531MPD2    H5 7943   0.994   0.130  13.044  2.0308  1.6124 -0.2997
  531MPD2    N1 7944   1.220   0.204  13.577  0.3061  0.0696  0.0144
  531MPD2    H7 7945   1.277   0.153  13.644 -0.4532  2.3799  2.4158
  532TMC3    C1 7946   1.270   0.398  13.711 -0.0685  0.2147  0.1582
  532TMC3    C2 7947   1.230   0.536  13.733 -0.1680  0.3116  0.0057
  532TMC3    C3 7948   1.328   0.634  13.740  0.2657 -0.2448 -0.9922
  532TMC3    C4 7949   1.400   0.359  13.707  0.7925 -0.5798 -0.3139
  532TMC3    C5 7950   1.494   0.456  13.739 -0.2729  0.4475 -0.1729
  532TMC3    C6 7951   1.456   0.589  13.760 -0.0518  0.1695 -0.2162
  532TMC3     C 7952   1.190   0.339  13.606  0.0112 -0.0654 -0.5771
  532TMC3     O 7953   1.126   0.422  13.540  0.2419 -0.4865  0.6001
  532TMC3     H 7954   1.126   0.562  13.722 -0.4842 -0.7381  0.5530
  532TMC3    H1 7955   1.432   0.267  13.660 -0.8838 -0.0579 -2.4890
  532TMC3    H2 7956   1.537   0.661  13.774  1.1728 -1.4032  0.8560
  532TMC3    C7 7957   1.619   0.408  13.801 -0.4803 -0.4135 -0.3519
  532TMC3    C8 7958   1.313   0.743  13.639  0.3994  0.4243  0.3261
  532TMC3    O1 7959   1.709   0.485  13.829 -0.0126 -0.2073 -0.1270
  532TMC3    O2 7960   1.382   0.844  13.632  0.2132 -0.3395 -0.2006
  533TMC3    C1 7961   1.841   2.720  14.622  0.1661  0.0361 -0.1337
  533TMC3    C2 7962   1.974   2.749  14.638 -0.3191 -0.1296 -0.6779
  533TMC3    C3 7963   2.004   2.875  14.671  0.4819 -0.0200 -0.3259
  533TMC3    C4 7964   1.740   2.800  14.673 -0.0387 -0.0791 -0.0091
  533TMC3    C5 7965   1.780   2.927  14.719  0.0750 -0.4113  0.1617
  533TMC3    C6 7966   1.912   2.973  14.697 -0.3334 -0.1530  0.6742
  533TMC3     C 7967   1.796   2.583  14.594  0.2376  0.6413 -0.1987
  533TMC3     O 7968   1.870   2.492  14.624 -0.2281 -0.7071 -0.6120
  533TMC3     H 7969   2.043   2.668  14.617  1.6556  1.0272  1.3648
  533TMC3    H1 7970   1.646   2.751  14.700 -1.4561  1.9041 -1.3552
  533TMC3    H2 7971   1.937   3.066  14.746 -1.4613 -0.0037  0.9643
  533TMC3    C7 7972   1.736   2.957  14.855  0.5491  0.9648  0.0830
  533TMC3    C8 7973   2.139   2.907  14.688 -0.6895  0.2098 -0.2498
  533TMC3    O1 7974   1.749   3.070  14.901  0.0373 -0.0596 -0.0467
  533TMC3    O2 7975   2.224   2.823  14.723  0.2699 -0.3579  0.0290
  534MPD2     C 7976   0.480   3.019   1.118 -0.9394  0.0372  0.2293
  534MPD2    C1 7977   0.451   3.063   1.244  0.1275  0.4061 -0.2636
  534MPD2    C2 7978   0.320   3.107   1.269  0.5092 -0.1394 -0.8765
  534MPD2    C3 7979   0.220   3.102   1.168 -0.2536  0.1657 -0.3994
  534MPD2    C4 7980   0.260   3.069   1.040  0.5159 -0.0110  0.4653
  534MPD2    C5 7981   0.386   3.020   1.019 -1.0952 -0.4059  0.5086
  534MPD2     H 7982   0.297   3.145   1.368 -2.8191 -0.6685 -1.4262
  534MPD2    H1 7983   0.188   3.069   0.960 -2.6952  1.1525  3.3519
  534MPD2    H2 7984   0.577   2.979   1.089 -1.3726 -0.2629 -0.8087
  534MPD2    H3 7985   0.415   2.980   0.922 -2.2763  3.2276 -1.3276
  534MPD2     N 7986   0.083   3.149   1.190 -0.2358 -0.1865  0.1250
  534MPD2    H5 7987   0.011   3.133   1.120 -1.0499  1.9846  0.4971
  534MPD2    N1 7988   0.548   3.074   1.349  0.2201 -0.2159  0.1818
  534MPD2    H7 7989   0.521   3.098   1.444  2.3634 -0.4769  0.8645
  535TMC3    C1 7990   4.637   3.231   1.300 -0.0077 -0.4446  0.2193
  535TMC3    C2 7991   4.538   3.176   1.385  0.4926  0.2716 -0.5299
  535TMC3    C3 7992   4.414   3.228   1.383 -0.4085 -0.0407  0.2001
  535TMC3    C4 7993   4.602   3.308   1.195  0.3599 -0.4280  0.1964
  535TMC3    C5 7994   4.476   3.355   1.194 -0.6675  0.3721 -0.4096
  535TMC3    C6 7995   4.386   3.320   1.286  0.3118  0.4669  1.0287
  535TMC3     C 7996   0.031   3.177   1.310 -0.3378  0.1676 -0.0752
  535TMC3     O 7997   0.075   3.155   1.422  0.6458 -0.1315  0.3268
  535TMC3     H 7998   4.570   3.098   1.454  1.5551  1.0879 -0.0932
  535TMC3    H1 7999   4.678   3.343   1.125  0.3530 -0.0389  0.3855
  535TMC3    H2 8000   4.286   3.360   1.272 -0.8199 -2.2166  1.5087
  535TMC3    C7 8001   4.436   3.447   1.092  0.5237  0.1295 -0.0387
  535TMC3    C8 8002   4.309   3.137   1.392 -0.3627 -0.0338  0.0144
  535TMC3    O1 8003   4.492   3.424   0.987 -0.0069 -0.1207 -0.3760
  535TMC3    O2 8004   4.201   3.166   1.348 -0.3919  0.2209  0.3482
  536MPD2     C 8005   3.409   1.856  15.873  0.1545  1.2525  0.8066
  536MPD2    C1 8006   3.299   1.795  15.932 -0.1896 -0.2726 -0.1510
  536MPD2    C2 8007   3.174   1.802  15.876 -0.1637  0.2183 -0.0402
  536MPD2    C3 8008   3.161   1.867  15.751  0.1602 -0.0258  1.0775
  536MPD2    C4 8009   3.267   1.932  15.702 -0.2155  0.1783 -0.4407
  536MPD2    C5 8010   3.389   1.934  15.762 -0.3364  0.3276  0.4960
  536MPD2     H 8011   3.089   1.744  15.912  0.3135  0.6712  1.8396
  536MPD2    H1 8012   3.251   1.985  15.609  2.5419  2.4551  0.3524
  536MPD2    H2 8013   3.502   1.863  15.928  0.8917 -0.2399 -0.2481
  536MPD2    H3 8014   3.469   1.988  15.713 -0.0966 -1.1507 -0.7319
  536MPD2     N 8015   3.044   1.864  15.675 -0.5417 -0.2610 -0.1335
  536MPD2    H5 8016   3.044   1.914  15.587  1.3422 -2.8272 -1.6056
  536MPD2    N1 8017   3.328   1.728  16.059 -0.5214 -0.2777  0.3184
  536MPD2    H7 8018   3.422   1.732  16.098 -0.0963 -0.6605 -0.6624
  537TMC3    C1 8019   3.309   1.600  16.234  0.1450 -0.9642  0.0262
  537TMC3    C2 8020   3.341   1.680  16.339 -0.0400  0.1254  0.4535
  537TMC3    C3 8021   3.339   1.615  16.457  0.3442 -0.5789  0.3552
  537TMC3    C4 8022   3.252   1.477  16.241  0.4698  0.0011 -0.4162
  537TMC3    C5 8023   3.262   1.415  16.364  0.2410  1.1809  0.4195
  537TMC3    C6 8024   3.309   1.485  16.475 -0.5265 -0.4936  0.0571
  537TMC3     C 8025   3.234   1.666  16.133 -0.5527 -0.2349 -0.0895
  537TMC3     O 8026   3.122   1.625  16.110  0.2362 -0.1427 -0.1607
  537TMC3     H 8027   3.384   1.778  16.323  1.1779 -0.6698 -1.1208
  537TMC3    H1 8028   3.226   1.426  16.149  1.7871  0.6879 -1.1713
  537TMC3    H2 8029   3.295   1.437  16.571 -3.0138  0.9043  0.3828
  537TMC3    C7 8030   3.182   1.292  16.383  0.4547 -0.2485 -0.2496
  537TMC3    C8 8031   3.394   1.687  16.572 -0.3459 -0.0508 -0.5134
  537TMC3    O1 8032   3.111   1.263  16.288  0.2764  0.5078 -0.4884
  537TMC3    O2 8033   3.439   1.614  16.658 -0.1881 -0.4162  0.4275
  538TMC3    C1 8034   4.673   0.639  11.230  0.0349 -0.4053 -0.2638
  538TMC3    C2 8035   0.047   0.593  11.168 -0.4445  0.4336 -0.2137
  538TMC3    C3 8036   0.046   0.563  11.035  0.0139 -0.8734  0.0670
  538TMC3    C4 8037   4.559   0.652  11.167  0.2729 -1.1983  0.5831
  538TMC3    C5 8038   4.551   0.620  11.033  0.6670  0.2450 -0.2772
  538TMC3    C6 8039   4.660   0.582  10.959  1.1859 -0.1182  0.1644
  538TMC3     C 8040   4.689   0.699  11.356  0.4226  0.3298  0.3299
  538TMC3     O 8041   4.590   0.699  11.431 -0.8026  0.4332  0.0069
  538TMC3     H 8042   0.127   0.557  11.232 -2.1971 -1.3131  1.0211
  538TMC3    H1 8043   4.477   0.695  11.222  3.6098  2.5551  2.6061
  538TMC3    H2 8044   4.668   0.570  10.852  1.6368 -2.0066  0.4006
  538TMC3    C7 8045   4.423   0.656  10.968 -0.3244 -0.1436  0.2031
  538TMC3    C8 8046   0.172   0.521  10.975 -0.0893  0.9740 -0.4455
  538TMC3    O1 8047   4.322   0.650  11.041  0.0082 -0.1121 -0.4986
  538TMC3    O2 8048   0.264   0.507  11.055  0.1595  0.3734  0.0075
  539MPD2     C 8049   4.384   0.162  11.652 -1.1788  0.3431 -0.2672
  539MPD2    C1 8050   4.312   0.145  11.531  0.2852  0.4738  0.4674
  539MPD2    C2 8051   4.214   0.235  11.501  0.1654  0.4246 -0.6062
  539MPD2    C3 8052   4.187   0.346  11.584  0.4122  0.0019 -0.4438
  539MPD2    C4 8053   4.252   0.359  11.703 -0.1763  0.5368  0.3473
  539MPD2    C5 8054   4.355   0.264  11.731  0.6289  0.8246  0.3826
  539MPD2     H 8055   4.167   0.226  11.403 -2.1799 -0.3642  0.5719
  539MPD2    H1 8056   4.235   0.433  11.781 -1.4848  0.6456 -0.0463
  539MPD2    H2 8057   4.465   0.100  11.689  0.1594  1.3784 -1.4164
  539MPD2    H3 8058   4.414   0.287  11.819  2.1228 -1.5872  0.0049
  539MPD2     N 8059   4.090   0.445  11.547  0.2001 -0.4263  0.1940
  539MPD2    H5 8060   4.081   0.527  11.606  1.4602 -0.0258 -0.1662
  539MPD2    N1 8061   4.343   0.032  11.451  0.1551 -0.4451  0.1363
  539MPD2    H7 8062   4.309   0.040  11.355 -0.5480 -1.5037  0.2912
  540TMC3    C1 8063   3.900   0.542  11.453  0.3535  0.3381  0.3644
  540TMC3    C2 8064   3.821   0.564  11.337  0.5317 -0.6114 -0.0572
  540TMC3    C3 8065   3.707   0.639  11.351 -0.3074 -0.9015 -0.4360
  540TMC3    C4 8066   3.865   0.592  11.575  0.4354 -0.1793 -0.1715
  540TMC3    C5 8067   3.752   0.670  11.575 -0.2183  0.4273  0.2943
  540TMC3    C6 8068   3.669   0.691  11.468 -0.2960 -0.2296 -0.1800
  540TMC3     C 8069   3.997   0.438  11.447  0.0052  0.4672  0.1822
  540TMC3     O 8070   3.972   0.349  11.363 -0.1428 -0.4775 -0.0371
  540TMC3     H 8071   3.853   0.518  11.244  0.2014  0.7386 -0.8425
  540TMC3    H1 8072   3.913   0.565  11.668 -0.6711 -0.2473  0.3714
  540TMC3    H2 8073   3.567   0.728  11.472 -0.2723 -0.0660 -1.2020
  540TMC3    C7 8074   3.671   0.681  11.702  0.6239  0.3087 -0.2252
  540TMC3    C8 8075   3.599   0.624  11.244 -0.3458  0.6050 -0.0616
  540TMC3    O1 8076   3.656   0.573  11.759 -0.4728 -0.1488  0.1106
  540TMC3    O2 8077   3.494   0.693  11.247  0.4900 -1.0701  0.0535
  541MPD2     C 8078   2.422   1.553  13.672 -0.3955 -0.4711 -0.0666
  541MPD2    C1 8079   2.339   1.509  13.578  0.4326  0.0920  0.6649
  541MPD2    C2 8080   2.344   1.565  13.448  0.5793 -0.0480 -0.2642
  541MPD2    C3 8081   2.414   1.681  13.417  0.1950 -0.2010 -0.1019
  541MPD2    C4 8082   2.500   1.720  13.522 -0.2648  0.3981  0.8157
  541MPD2    C5 8083   2.507   1.655  13.646 -0.2055  0.9203 -0.1551
  541MPD2     H 8084   2.274   1.528  13.374  0.7415 -2.4063  0.7537
  541MPD2    H1 8085   2.548   1.817  13.514  1.3847 -0.7918 -3.8151
  541MPD2    H2 8086   2.405   1.521  13.774 -3.7590  0.6801 -0.2652
  541MPD2    H3 8087   2.556   1.704  13.729  1.2632 -1.3173  0.3065
  541MPD2     N 8088   2.413   1.747  13.291 -0.2517  0.3963  0.1863
  541MPD2    H5 8089   2.483   1.821  13.283  1.1138 -0.8958  0.1193
  541MPD2    N1 8090   2.264   1.384  13.598 -0.5195 -0.6392  0.1155
  541MPD2    H7 8091   2.279   1.333  13.684  0.7175  0.4696  0.5454
  542TMC3    C1 8092   2.356   1.791  13.072  0.1119 -0.4146 -0.2714
  542TMC3    C2 8093   2.325   1.737  12.947  0.3765 -0.3771  0.3391
  542TMC3    C3 8094   2.279   1.820  12.853 -0.3682  0.1050  0.3428
  542TMC3    C4 8095   2.358   1.925  13.094 -0.4795 -0.3534 -0.3713
  542TMC3    C5 8096   2.318   2.009  13.000 -0.9899 -0.1774  0.3699
  542TMC3    C6 8097   2.282   1.956  12.875  0.3125  0.2206  0.0496
  542TMC3     C 8098   2.344   1.701  13.183  0.4035 -0.1943  0.5239
  542TMC3     O 8099   2.279   1.602  13.161  0.0897 -0.2352 -0.4025
  542TMC3     H 8100   2.309   1.632  12.927 -0.1369  0.1114 -1.7933
  542TMC3    H1 8101   2.391   1.973  13.186 -1.9258 -0.8374  0.3936
  542TMC3    H2 8102   2.244   2.012  12.791 -1.8356 -0.3942  0.6203
  542TMC3    C7 8103   2.340   2.150  13.014  0.2074 -0.0913 -0.5799
  542TMC3    C8 8104   2.288   1.776  12.713 -0.4661 -0.0866 -0.8583
  542TMC3    O1 8105   2.420   2.191  13.098  0.0116  0.6251  0.0773
  542TMC3    O2 8106   2.222   1.834  12.627 -0.0537  0.7538 -0.0779
  543TMC3    C1 8107   2.030   2.660  17.128  0.4587 -0.5665  0.2595
  543TMC3    C2 8108   2.055   2.532  17.165 -0.1211 -0.0765  0.2106
  543TMC3    C3 8109   1.993   2.482  17.278 -0.1952  0.1334 -0.6150
  543TMC3    C4 8110   1.952   2.745  17.205  0.4948  0.1896  0.1107
  543TMC3    C5 8111   1.896   2.695  17.320  0.0658 -0.1410 -0.1322
  543TMC3    C6 8112   1.919   2.567  17.362 -1.1070  0.3670 -0.4960
  543TMC3     C 8113   2.084   2.702  17.002  0.6443 -0.2734 -0.2555
  543TMC3     O 8114   2.176   2.629  16.962  0.0387  0.7581 -0.3516
  543TMC3     H 8115   2.110   2.466  17.100 -1.4203 -2.2645  1.3650
  543TMC3    H1 8116   1.925   2.843  17.169  1.0823 -0.4216 -2.0196
  543TMC3    H2 8117   1.857   2.531  17.443  0.6522 -4.1454 -1.1576
  543TMC3    C7 8118   1.804   2.771  17.407 -0.5027  0.4083 -0.1220
  543TMC3    C8 8119   1.950   2.345  17.273  0.0761  0.1276  0.1473
  543TMC3    O1 8120   1.790   2.735  17.522 -0.0626 -0.3208 -0.0640
  543TMC3    O2 8121   1.968   2.290  17.169 -0.2360  0.6493 -0.3321
  544MPD2     C 8122   1.894   1.886  17.521  0.2390 -0.0671  0.4389
  544MPD2    C1 8123   1.909   1.910  17.385  1.0456  0.0172  0.5668
  544MPD2    C2 8124   1.914   2.043  17.338  0.7009 -0.0761 -1.1236
  544MPD2    C3 8125   1.912   2.151  17.430 -0.1970 -0.2032 -1.4252
  544MPD2    C4 8126   1.901   2.122  17.568 -0.2344 -0.4905 -0.3506
  544MPD2    C5 8127   1.885   1.993  17.607  0.3897  0.8007 -0.4802
  544MPD2     H 8128   1.910   2.064  17.232  0.0515  1.3872 -0.8185
  544MPD2    H1 8129   1.899   2.197  17.647  0.3672 -2.5148  1.5783
  544MPD2    H2 8130   1.897   1.790  17.571  1.8642  0.1411  0.7513
  544MPD2    H3 8131   1.860   1.981  17.711 -0.2260  3.9809 -0.2526
  544MPD2     N 8132   1.919   2.291  17.396  0.0838 -0.4882  0.2269
  544MPD2    H5 8133   1.924   2.354  17.476 -0.3109  0.3770 -0.4221
  544MPD2    N1 8134   1.904   1.798  17.300 -1.3430  0.3755  0.0697
  544MPD2    H7 8135   1.900   1.703  17.336 -0.0739  0.0724 -0.6169
  545TMC3    C1 8136   1.934   1.673  17.104  0.3107 -0.0267 -0.2277
  545TMC3    C2 8137   2.030   1.664  17.003 -0.3273 -0.1211  0.2772
  545TMC3    C3 8138   2.076   1.532  16.975 -0.8023 -0.2081  0.2748
  545TMC3    C4 8139   1.884   1.568  17.173  0.3101  0.0605 -0.1174
  545TMC3    C5 8140   1.926   1.445  17.134  0.9633  0.3128  0.8178
  545TMC3    C6 8141   2.031   1.424  17.047  0.7290  0.2581 -0.8021
  545TMC3     C 8142   1.926   1.805  17.167 -0.2255  0.2504  0.2872
  545TMC3     O 8143   1.948   1.897  17.092 -0.8271  0.7916 -0.1741
  545TMC3     H 8144   2.079   1.749  16.957 -0.8647  0.4574  0.7811
  545TMC3    H1 8145   1.794   1.583  17.232  0.1916  2.8050 -0.9807
  545TMC3    H2 8146   2.056   1.322  17.020  0.8844  0.0012  0.3271
  545TMC3    C7 8147   1.835   1.333  17.176 -0.4066  0.4762  0.5233
  545TMC3    C8 8148   2.200   1.521  16.907 -0.2239 -0.2979  0.3040
  545TMC3    O1 8149   1.718   1.360  17.204 -0.3212 -0.1367  0.0375
  545TMC3    O2 8150   2.268   1.429  16.941 -0.0851  0.0107  0.1999
  546MPD2     C 8151   3.635   1.978  17.202  0.4129  0.4507 -0.5027
  546MPD2    C1 8152   3.563   2.066  17.121  0.4771 -0.3408 -0.0941
  546MPD2    C2 8153   3.578   2.203  17.134 -0.3197  0.3351 -0.4029
  546MPD2    C3 8154   3.678   2.248  17.226 -1.1433  0.1934  0.1081
  546MPD2    C4 8155   3.744   2.164  17.308 -0.3345  0.1019 -0.5785
  546MPD2    C5 8156   3.731   2.029  17.286 -0.0683  0.2058  0.0214
  546MPD2     H 8157   3.522   2.276  17.077 -2.7306 -0.9723  0.2835
  546MPD2    H1 8158   3.830   2.195  17.367 -0.5052  1.2034 -0.9073
  546MPD2    H2 8159   3.627   1.870  17.198  0.6463  0.4103  0.0343
  546MPD2    H3 8160   3.796   1.954  17.329 -2.8435 -2.6184 -0.7228
  546MPD2     N 8161   3.705   2.389  17.244 -0.0795 -0.2100 -0.3819
  546MPD2    H5 8162   3.748   2.415  17.332 -0.4270 -0.5080 -0.1259
  546MPD2    N1 8163   3.468   2.009  17.033 -0.1436  0.3293 -0.3463
  546MPD2    H7 8164   3.467   1.908  17.026 -0.5553  0.4617 -2.3240
  547TMC3    C1 8165   3.283   1.999  16.887 -0.7799  0.4164  0.4701
  547TMC3    C2 8166   3.197   2.053  16.798 -0.5101  0.3622  0.4736
  547TMC3    C3 8167   3.097   1.977  16.745 -0.0673 -0.3349  0.2762
  547TMC3    C4 8168   3.261   1.869  16.927 -0.4852  0.1797 -0.6454
  547TMC3    C5 8169   3.171   1.789  16.857  0.4019 -0.1239 -0.2613
  547TMC3    C6 8170   3.081   1.847  16.775  0.3704  0.3945  0.5108
  547TMC3     C 8171   3.375   2.083  16.961  0.7247 -0.8760 -0.0129
  547TMC3     O 8172   3.374   2.200  16.928 -0.2258 -0.1047  0.6975
  547TMC3     H 8173   3.207   2.153  16.757  5.0194 -0.3869  0.0068
  547TMC3    H1 8174   3.307   1.822  17.013 -2.3959 -1.9056 -0.7745
  547TMC3    H2 8175   3.011   1.785  16.721  1.7037  1.1962 -2.1332
  547TMC3    C7 8176   3.140   1.651  16.908  0.1091 -0.0715 -0.2440
  547TMC3    C8 8177   2.989   2.042  16.672  0.1426  0.0713 -0.0201
  547TMC3    O1 8178   3.195   1.622  17.013  0.5171 -0.3741 -0.2536
  547TMC3    O2 8179   3.011   2.147  16.617  0.0537  0.2865 -0.4278
  548MPD2     C 8180   3.489   3.218  12.675 -0.7741 -0.2744  0.7792
  548MPD2    C1 8181   3.429   3.097  12.689 -0.3231  0.1371  0.5028
  548MPD2    C2 8182   3.489   2.980  12.651  0.0060 -0.5820  0.4251
  548MPD2    C3 8183   3.612   2.988  12.603  0.6428 -0.1039 -0.8076
  548MPD2    C4 8184   3.679   3.113  12.588 -0.2288  0.5299  0.3704
  548MPD2    C5 8185   3.617   3.224  12.629  0.1118 -0.1914 -0.3344
  548MPD2     H 8186   3.443   2.882  12.659  2.6544 -1.8734 -0.3341
  548MPD2    H1 8187   3.779   3.117  12.545 -0.2953 -1.4500  0.0182
  548MPD2    H2 8188   3.431   3.308  12.696 -1.9994 -0.7680 -0.4693
  548MPD2    H3 8189   3.664   3.321  12.613 -0.5289  0.2230  0.2753
  548MPD2     N 8190   3.677   2.877  12.558  0.0285  0.0475 -0.1023
  548MPD2    H5 8191   3.625   2.790  12.566  1.8543 -1.0043  0.2206
  548MPD2    N1 8192   3.300   3.094  12.742  0.0211  0.3084  0.1993
  548MPD2    H7 8193   3.250   3.182  12.747  0.6171  0.7731 -2.0671
  549TMC3    C1 8194   3.104   3.025  12.847 -0.5343 -0.1437 -0.3746
  549TMC3    C2 8195   3.027   3.100  12.755 -0.1330 -0.7471 -0.4140
  549TMC3    C3 8196   2.913   3.161  12.809  1.0288 -0.4573  0.6473
  549TMC3    C4 8197   3.062   3.000  12.972  0.1612 -0.4301 -0.4956
  549TMC3    C5 8198   2.939   3.043  13.009  0.1212 -0.5930  0.3353
  549TMC3    C6 8199   2.869   3.136  12.936  0.1621 -0.1852 -0.0117
  549TMC3     C 8200   3.239   2.994  12.809  0.3980 -0.0699  0.1268
  549TMC3     O 8201   3.284   2.882  12.833 -0.2909 -0.0070 -0.2283
  549TMC3     H 8202   3.063   3.120  12.655  0.7435 -0.8737 -0.1277
  549TMC3    H1 8203   3.129   2.944  13.036  2.3689 -0.2478 -2.6762
  549TMC3    H2 8204   2.772   3.167  12.973  0.8097  1.9735 -0.1174
  549TMC3    C7 8205   2.862   2.972  13.108  0.1365 -0.7884  0.5918
  549TMC3    C8 8206   2.810   3.185  12.707 -0.4984 -0.1225  0.5718
  549TMC3    O1 8207   2.762   3.030  13.160  0.6972 -0.0581  0.2290
  549TMC3    O2 8208   2.695   3.172  12.745 -0.2745  0.4188  0.3303
  550TMC3    C1 8209   1.986   0.771  12.496  0.0780  0.6089  0.6490
  550TMC3    C2 8210   1.952   0.792  12.623 -0.4538 -0.6206 -0.2301
  550TMC3    C3 8211   1.943   0.917  12.672 -0.0080 -0.5613  0.3960
  550TMC3    C4 8212   1.995   0.877  12.416  0.0217 -0.8423 -0.4991
  550TMC3    C5 8213   1.998   1.003  12.464 -0.6890  0.3860 -0.3815
  550TMC3    C6 8214   1.983   1.030  12.601 -0.3129  0.0125 -0.2069
  550TMC3     C 8215   1.921   0.655  12.439 -0.2550  0.8384  0.1930
  550TMC3     O 8216   1.936   0.545  12.490 -0.0478 -0.1589  0.2945
  550TMC3     H 8217   1.916   0.707  12.680 -0.3234 -1.7087 -1.7688
  550TMC3    H1 8218   2.023   0.872  12.311  0.2313 -1.0398 -0.4340
  550TMC3    H2 8219   1.964   1.128  12.644  0.6822 -0.7158  1.8920
  550TMC3    C7 8220   1.890   1.068  12.390 -0.1806 -0.4589  0.1273
  550TMC3    C8 8221   1.809   0.938  12.732  1.0010 -0.0684 -0.1649
  550TMC3    O1 8222   1.828   0.993  12.319  0.1896 -0.1496  0.1353
  550TMC3    O2 8223   1.782   1.055  12.762 -0.1295  0.3345  0.4033
  551TMC3    C1 8224   3.935   4.126  13.085 -0.5569 -0.8181 -0.4194
  551TMC3    C2 8225   4.054   4.120  13.022 -0.0774 -0.0088 -0.2983
  551TMC3    C3 8226   4.163   4.095  13.105 -0.3211  0.4252  0.2297
  551TMC3    C4 8227   3.924   4.133  13.224 -0.0227  0.0799 -0.4183
  551TMC3    C5 8228   4.039   4.130  13.301 -0.4083  0.4925 -0.0521
  551TMC3    C6 8229   4.159   4.102  13.243 -0.3644  0.2475 -0.4666
  551TMC3     C 8230   3.815   4.146  13.010 -0.1768 -0.3689  0.3005
  551TMC3     O 8231   3.723   4.184  13.078 -0.7216  0.4627  0.3117
  551TMC3     H 8232   4.068   4.122  12.915 -0.7101 -1.5840 -0.4114
  551TMC3    H1 8233   3.822   4.143  13.260  0.3084  0.9925  0.2590
  551TMC3    H2 8234   4.249   4.106  13.304 -0.8072  2.1359  0.0933
  551TMC3    C7 8235   4.037   4.163  13.439  0.1610 -0.1786  0.4663
  551TMC3    C8 8236   4.291   4.071  13.052 -0.7632  0.0702 -0.2746
  551TMC3    O1 8237   4.130   4.136  13.512  0.4764 -0.3490  0.0969
  551TMC3    O2 8238   4.371   3.992  13.101  0.1963 -0.5080  0.9383
  552MPD2     C 8239   0.912   0.708  13.849 -0.2981 -0.3167  0.6007
  552MPD2    C1 8240   0.970   0.665  13.960  0.5709 -0.2985 -0.6875
  552MPD2    C2 8241   1.086   0.731  14.005  0.2620  0.0868  0.1800
  552MPD2    C3 8242   1.111   0.855  13.956 -0.5784  0.8502 -0.2505
  552MPD2    C4 8243   1.047   0.905  13.846  0.4528  0.6950  0.6074
  552MPD2    C5 8244   0.946   0.823  13.791 -0.5180 -0.2400 -0.2153
  552MPD2     H 8245   1.145   0.679  14.078  0.3780 -1.0422 -0.7166
  552MPD2    H1 8246   1.074   0.999  13.799 -2.3962 -0.2631 -2.9348
  552MPD2    H2 8247   0.829   0.654  13.805 -2.0472  2.0386  0.9475
  552MPD2    H3 8248   0.894   0.848  13.700 -0.0050  2.6438  0.2895
  552MPD2     N 8249   1.208   0.936  14.026 -0.1930 -0.0762 -0.2988
  552MPD2    H5 8250   1.216   1.035  14.002  0.5737 -0.1266 -0.2354
  552MPD2    N1 8251   0.947   0.534  14.014 -0.6598  0.1405 -0.1842
  552MPD2    H7 8252   1.007   0.503  14.090 -0.4956  3.4391  1.0159
  553TMC3    C1 8253   0.873   0.330  14.047  0.4748  0.3130  0.0083
  553TMC3    C2 8254   0.909   0.226  13.964  0.5291  0.2379  0.0543
  553TMC3    C3 8255   0.992   0.134  14.020  0.4968  0.1524  0.2591
  553TMC3    C4 8256   0.930   0.346  14.171  0.5441 -0.2036  0.0865
  553TMC3    C5 8257   0.995   0.237  14.232  0.2281 -0.1538  0.3281
  553TMC3    C6 8258   1.036   0.132  14.152  0.2723  0.2628 -0.0433
  553TMC3     C 8259   0.848   0.445  13.975  0.2736  0.2879 -0.4360
  553TMC3     O 8260   0.757   0.452  13.892 -0.3241 -0.0877 -0.0943
  553TMC3     H 8261   0.859   0.230  13.868  1.2307 -0.1973 -0.3311
  553TMC3    H1 8262   0.917   0.434  14.234 -3.4927 -1.3742  0.9207
  553TMC3    H2 8263   1.096   0.059  14.204 -1.3342 -2.0037 -1.3715
  553TMC3    C7 8264   1.084   0.284  14.344 -0.0885  0.1109 -1.0626
  553TMC3    C8 8265   1.073   0.058  13.922  0.5443 -0.2194 -0.0037
  553TMC3    O1 8266   1.109   0.404  14.349  0.6693 -0.0817  0.8127
  553TMC3    O2 8267   1.181   0.026  13.965  0.1359 -0.2435  0.0360
  554TMC3    C1 8268   3.192   0.426  11.740 -0.0238 -0.3781  0.5293
  554TMC3    C2 8269   3.131   0.319  11.679  0.2867  0.2343 -0.3452
  554TMC3    C3 8270   3.052   0.355  11.573 -0.5976 -1.0797 -0.6174
  554TMC3    C4 8271   3.179   0.557  11.701 -0.7029  0.0725 -0.3578
  554TMC3    C5 8272   3.103   0.584  11.594  0.6697  0.7680 -0.3171
  554TMC3    C6 8273   3.044   0.482  11.523  0.1457 -0.4239  0.2066
  554TMC3     C 8274   3.298   0.392  11.835 -0.7838  0.5584 -0.7077
  554TMC3     O 8275   3.333   0.474  11.916 -0.4245  0.2459 -0.6944
  554TMC3     H 8276   3.120   0.226  11.733  1.0436 -0.8233 -2.0001
  554TMC3    H1 8277   3.247   0.630  11.744 -0.5227  0.4364 -1.2454
  554TMC3    H2 8278   2.986   0.515  11.437  0.1176  1.6767  1.0438
  554TMC3    C7 8279   3.168   0.670  11.496 -0.1086  0.0960  0.4583
  554TMC3    C8 8280   2.993   0.249  11.491 -0.1761 -0.4912 -0.5486
  554TMC3    O1 8281   3.196   0.630  11.385 -0.3501  0.2193 -0.8165
  554TMC3    O2 8282   2.976   0.141  11.547 -0.4037 -0.4397 -0.2686
  555TMC3    C1 8283   1.810   4.061  14.813 -0.5292  0.0695 -0.0051
  555TMC3    C2 8284   1.880   4.021  14.701 -0.0742 -0.5928  0.2910
  555TMC3    C3 8285   2.005   3.973  14.730 -0.0375  0.0933 -0.3746
  555TMC3    C4 8286   1.854   4.055  14.938 -0.2076  0.1095  0.0394
  555TMC3    C5 8287   1.977   4.007  14.965  0.4505  0.2896 -0.2864
  555TMC3    C6 8288   2.063   3.978  14.859 -0.5186 -0.1885  0.1238
  555TMC3     C 8289   1.676   4.125  14.807  0.9491  0.0488 -0.4155
  555TMC3     O 8290   1.647   4.204  14.897  0.5010  0.3962 -0.2878
  555TMC3     H 8291   1.831   4.018  14.604 -0.0621  0.1861  0.2617
  555TMC3    H1 8292   1.795   4.086  15.023 -0.4168  2.9308 -1.1650
  555TMC3    H2 8293   2.154   3.926  14.884  0.4020  0.7205 -1.3210
  555TMC3    C7 8294   1.984   3.934  15.087  0.1911  0.4499 -0.6960
  555TMC3    C8 8295   2.098   3.956  14.619  0.7861 -0.2051 -0.4670
  555TMC3    O1 8296   1.894   3.861  15.112 -0.5333  0.1312 -1.3035
  555TMC3    O2 8297   2.066   4.013  14.517 -0.3159 -0.2724 -0.0416
  556MPD2     C 8298   0.151   1.278  10.555 -0.3341 -0.2156 -0.7003
  556MPD2    C1 8299   0.223   1.178  10.618 -0.1097  0.2867  0.5475
  556MPD2    C2 8300   0.296   1.086  10.542 -0.8929  0.3508 -0.6076
  556MPD2    C3 8301   0.290   1.096  10.400  0.9092 -0.1351  0.5577
  556MPD2    C4 8302   0.220   1.200  10.339  0.0972 -0.8976 -0.7066
  556MPD2    C5 8303   0.156   1.289  10.421  0.2189  0.3188 -0.1738
  556MPD2     H 8304   0.348   1.003  10.588 -3.3719 -1.7069 -1.5405
  556MPD2    H1 8305   0.221   1.223  10.233 -2.6957  2.1053 -0.0606
  556MPD2    H2 8306   0.087   1.352  10.602 -0.3461 -0.5510 -0.1940
  556MPD2    H3 8307   0.112   1.378  10.378 -2.2802 -1.8354 -2.1597
  556MPD2     N 8308   0.352   0.990  10.325 -0.2517  0.0813 -0.9214
  556MPD2    H5 8309   0.378   0.910  10.382 -0.7126 -0.5409 -1.5845
  556MPD2    N1 8310   0.220   1.163  10.759 -0.2619  0.4117 -0.5477
  556MPD2    H7 8311   0.286   1.093  10.792 -1.6175 -0.1164  1.0581
  557TMC3    C1 8312   0.377   0.860  10.135 -0.3880  0.0284  0.1414
  557TMC3    C2 8313   0.299   0.856  10.025  0.9716 -0.1207 -0.2957
  557TMC3    C3 8314   0.216   0.749  10.007 -0.6251  0.1740 -0.6878
  557TMC3    C4 8315   0.384   0.760  10.224  0.3370  0.0866 -0.1906
  557TMC3    C5 8316   0.298   0.651  10.202 -0.3204 -0.0728  0.2550
  557TMC3    C6 8317   0.222   0.640  10.094 -0.1091 -0.0575 -0.5913
  557TMC3     C 8318   0.369   0.995  10.190 -0.3869  0.1692 -0.2994
  557TMC3     O 8319   0.359   1.085  10.112 -0.2686 -0.4540 -0.6309
  557TMC3     H 8320   0.285   0.943   9.961  0.0536  0.9589  1.3767
  557TMC3    H1 8321   0.457   0.753  10.304  0.2609  0.5583 -0.0760
  557TMC3    H2 8322   0.152   0.559  10.084 -0.6682  0.2640  0.8270
  557TMC3    C7 8323   0.260   0.579  10.323 -0.0211 -0.5661 -0.4018
  557TMC3    C8 8324   0.100   0.762   9.919  0.6737 -0.9820  0.2634
  557TMC3    O1 8325   0.136   0.590  10.348 -0.3128  0.1729 -0.2167
  557TMC3    O2 8326   0.063   0.868   9.879  0.2243 -0.3193 -0.2854
  558TMC3    C1 8327   2.807   3.534  10.027  0.1732 -0.7285  0.6763
  558TMC3    C2 8328   2.724   3.483  10.118  0.0823 -0.4012 -0.2040
  558TMC3    C3 8329   2.594   3.460  10.078  0.1936 -0.0365 -0.0391
  558TMC3    C4 8330   2.761   3.582   9.907  0.8188  0.0986 -0.0366
  558TMC3    C5 8331   2.632   3.560   9.876  0.6593 -0.0165 -0.4848
  558TMC3    C6 8332   2.545   3.491   9.953 -0.1182 -0.3358  0.9178
  558TMC3     C 8333   2.947   3.515  10.064 -0.8297  0.4278 -0.2143
  558TMC3     O 8334   3.033   3.601  10.043  0.3935  0.2650  0.1735
  558TMC3     H 8335   2.759   3.469  10.220 -0.7226 -1.0096 -0.0147
  558TMC3    H1 8336   2.830   3.626   9.835 -1.4869  1.1042 -1.6135
  558TMC3    H2 8337   2.446   3.458   9.921  0.4650 -0.0850 -1.1221
  558TMC3    C7 8338   2.591   3.617   9.749 -0.7180 -0.7904 -0.2737
  558TMC3    C8 8339   2.501   3.375  10.158  0.8763  0.0625  0.4187
  558TMC3    O1 8340   2.669   3.636   9.657  0.1510 -0.2804  0.5214
  558TMC3    O2 8341   2.424   3.302  10.105  0.0105  0.0447  0.0821
  559MPD2     C 8342   2.853   4.607  10.537  0.0208  0.1161  0.5598
  559MPD2    C1 8343   2.808   4.488  10.589  0.4782 -0.6740  0.9774
  559MPD2    C2 8344   2.899   4.415  10.669  0.7757  0.4626  0.6510
  559MPD2    C3 8345   3.032   4.456  10.685 -0.7644 -0.6857 -0.6848
  559MPD2    C4 8346   3.070   4.577  10.632 -0.2941  0.2886  0.5247
  559MPD2    C5 8347   2.979   4.644  10.559  0.3362  0.1614  1.1039
  559MPD2     H 8348   2.881   4.323  10.723 -1.6930  1.1368  1.0014
  559MPD2    H1 8349   3.167   4.621  10.651 -0.8753  1.8482 -0.0397
  559MPD2    H2 8350   2.798   4.669  10.468 -1.2333 -1.6367 -0.0144
  559MPD2    H3 8351   3.013   0.003  10.517  0.0162 -0.3539 -0.3231
  559MPD2     N 8352   3.116   4.368  10.747  0.0928  1.0913 -0.6028
  559MPD2    H5 8353   3.082   4.286  10.796  0.3511  1.3042 -0.0668
  559MPD2    N1 8354   2.669   4.458  10.565  0.5387 -0.2465  0.1045
  559MPD2    H7 8355   2.616   4.507  10.494  1.2955 -2.5063 -2.0003
  560TMC3    C1 8356   3.325   4.282  10.832 -0.6354 -0.2833 -0.1068
  560TMC3    C2 8357   3.274   4.156  10.841 -0.0707  0.5843  0.1687
  560TMC3    C3 8358   3.335   4.061  10.919  0.1912 -0.7166  0.4066
  560TMC3    C4 8359   3.436   4.314  10.899 -0.1760  0.5452  0.3849
  560TMC3    C5 8360   3.500   4.223  10.976  0.0844 -0.0794  0.2814
  560TMC3    C6 8361   3.446   4.096  10.988  0.5729  0.1489 -0.4918
  560TMC3     C 8362   3.251   4.392  10.766  0.4623  0.8708 -0.9705
  560TMC3     O 8363   3.309   4.496  10.752  0.7225  0.6506  0.3454
  560TMC3     H 8364   3.186   4.128  10.784 -1.0691  0.1888  1.9177
  560TMC3    H1 8365   3.468   4.417  10.904 -0.1004  0.6728 -2.6897
  560TMC3    H2 8366   3.481   4.027  11.064  3.5113  1.8040 -0.3261
  560TMC3    C7 8367   3.620   4.253  11.053 -0.8903  0.3898  0.7388
  560TMC3    C8 8368   3.303   3.926  10.890  0.0876  0.5323 -0.0085
  560TMC3    O1 8369   3.664   4.151  11.110  0.0213  0.0527 -1.0048
  560TMC3    O2 8370   3.191   3.884  10.853  0.1900 -0.4295 -0.5714
  561TMC3    C1 8371   0.806   3.262  11.180 -0.0635  0.2374 -0.7207
  561TMC3    C2 8372   0.766   3.222  11.300 -0.1420 -0.2843 -0.0721
  561TMC3    C3 8373   0.688   3.314  11.372  0.3238 -0.6127  0.0549
  561TMC3    C4 8374   0.762   3.378  11.121  0.3939  0.7684  0.3590
  561TMC3    C5 8375   0.676   3.460  11.187  0.6138  0.5400 -0.2040
  561TMC3    C6 8376   0.642   3.430  11.317  0.2367 -0.2291  0.6301
  561TMC3     C 8377   0.930   3.218  11.121  0.3563  0.4641  0.3859
  561TMC3     O 8378   0.936   3.120  11.049  0.2817  1.0076  0.7134
  561TMC3     H 8379   0.805   3.131  11.344 -1.9435 -0.5069  1.1061
  561TMC3    H1 8380   0.794   3.408  11.022  3.1253 -0.5127  0.8443
  561TMC3    H2 8381   0.566   3.496  11.360 -1.7764 -1.0955 -1.5781
  561TMC3    C7 8382   0.662   3.606  11.161 -0.1420  0.2362 -0.4668
  561TMC3    C8 8383   0.644   3.265  11.503 -0.2784 -0.2468 -0.1300
  561TMC3    O1 8384   0.562   3.662  11.204 -1.0626  0.7412  1.0690
  561TMC3    O2 8385   0.664   3.149  11.535 -0.1872 -0.6832 -0.7473
  562TMC3    C1 8386   2.052   4.481  16.025  0.1068 -0.1123 -0.3577
  562TMC3    C2 8387   1.964   4.584  16.045 -0.0195  0.6896  0.0098
  562TMC3    C3 8388   1.918   4.642  15.931 -0.6585  0.6913 -0.0124
  562TMC3    C4 8389   2.098   4.441  15.904  0.2475 -1.0361 -0.3365
  562TMC3    C5 8390   2.044   4.493  15.791  0.4722 -0.0042  0.2617
  562TMC3    C6 8391   1.962   4.604  15.805  1.2146 -1.0055 -0.3990
  562TMC3     C 8392   2.111   4.416  16.140  0.2771 -0.6446 -0.3480
  562TMC3     O 8393   2.199   4.337  16.124  0.2240 -0.8029  0.5025
  562TMC3     H 8394   1.948   4.631  16.141  1.8989 -1.3560  1.3270
  562TMC3    H1 8395   2.150   4.346  15.907  0.9361 -0.6567 -0.0711
  562TMC3    H2 8396   1.933   4.643  15.708  0.6252 -0.1499  0.1151
  562TMC3    C7 8397   2.080   4.446  15.657 -0.2422  0.2653 -0.3093
  562TMC3    C8 8398   1.804   4.732  15.949  0.8586  0.3152  0.5565
  562TMC3    O1 8399   1.993   4.438  15.575 -0.3800  0.3281 -0.2357
  562TMC3    O2 8400   1.744   4.727  16.055  0.8584  0.1163 -0.7847
  563MPD2     C 8401   4.405   0.891  15.451  0.1224  0.0619  0.7681
  563MPD2    C1 8402   4.423   0.849  15.577 -0.0020 -0.2959 -0.4940
  563MPD2    C2 8403   4.549   0.821  15.619  0.6884  0.1714 -0.2077
  563MPD2    C3 8404   4.659   0.845  15.542  0.7011  0.5428 -0.3724
  563MPD2    C4 8405   4.646   0.899  15.412 -1.2876 -0.3789 -0.6877
  563MPD2    C5 8406   4.518   0.913  15.373  0.1021  0.0066  0.3426
  563MPD2     H 8407   4.565   0.769  15.713 -0.8963  0.4440  0.2085
  563MPD2    H1 8408   4.724   0.904  15.338 -1.9016  3.7169 -1.0518
  563MPD2    H2 8409   4.306   0.911  15.414  0.8072  1.2370 -0.4319
  563MPD2    H3 8410   4.482   0.946  15.276 -2.6449  0.1201  1.3876
  563MPD2     N 8411   0.053   0.825  15.603  0.2102 -1.0857  0.7814
  563MPD2    H5 8412   0.054   0.809  15.703  0.6953 -0.4807  0.8757
  563MPD2    N1 8413   4.322   0.825  15.671 -0.1545  0.0811 -1.0148
  563MPD2    H7 8414   4.344   0.781  15.760 -1.1091  3.1545  0.7357
  564TMC3    C1 8415   4.117   0.798  15.770 -0.1808 -0.5413  0.0114
  564TMC3    C2 8416   4.009   0.723  15.743 -1.0080 -0.3272 -0.2514
  564TMC3    C3 8417   3.949   0.664  15.853 -0.7008  0.3294 -0.0234
  564TMC3    C4 8418   4.167   0.830  15.896  0.1353  0.3330 -0.5457
  564TMC3    C5 8419   4.094   0.780  15.999 -0.6002  0.2651 -0.3145
  564TMC3    C6 8420   3.983   0.704  15.981 -0.5589  0.3083 -0.5349
  564TMC3     C 8421   4.192   0.838  15.650  0.2220  0.4617  0.1391
  564TMC3     O 8422   4.131   0.858  15.544  0.0397  0.1388  0.3906
  564TMC3     H 8423   3.982   0.693  15.642  0.9756 -2.0924 -0.2521
  564TMC3    H1 8424   4.248   0.900  15.911  1.5605 -1.3889 -0.2271
  564TMC3    H2 8425   3.927   0.671  16.068  0.6352  0.2878  0.2328
  564TMC3    C7 8426   4.186   0.729  16.099  0.0280  0.0989 -0.1443
  564TMC3    C8 8427   3.977   0.522  15.855  0.2430 -0.1151  0.4164
  564TMC3    O1 8428   4.277   0.794  16.142  0.0230  0.2361 -0.0896
  564TMC3    O2 8429   3.956   0.470  15.963 -0.7022  0.8521  0.3065
  565TMC3    C1 8430   0.012   2.426  10.089 -0.3801  0.0392 -0.1557
  565TMC3    C2 8431   0.074   2.396  10.204  0.1919 -0.0202 -0.0343
  565TMC3    C3 8432   0.055   2.272  10.256  0.1222  0.0745 -0.3231
  565TMC3    C4 8433   4.676   2.329  10.021  1.2150  0.9349  0.3066
  565TMC3    C5 8434   4.664   2.202  10.074  0.1161  0.6381  0.6777
  565TMC3    C6 8435   4.726   2.169  10.194  0.1306 -0.5778 -0.7518
  565TMC3     C 8436   0.053   2.538  10.008 -0.5014  0.1201  0.3912
  565TMC3     O 8437   4.721   2.567   9.912 -0.0366 -0.2162  0.3914
  565TMC3     H 8438   0.116   2.476  10.263 -0.8286  1.6817 -1.5902
  565TMC3    H1 8439   4.620   2.363   9.935 -0.2326 -1.0845  0.4266
  565TMC3    H2 8440   4.692   2.082  10.250  0.9332 -0.1280  0.4326
  565TMC3    C7 8441   4.577   2.103  10.021  0.0329  0.5834  0.3293
  565TMC3    C8 8442   0.112   2.227  10.384  0.9716 -0.1678 -0.7724
  565TMC3    O1 8443   4.584   1.990  10.069 -0.0796  0.1766 -0.1086
  565TMC3    O2 8444   0.047   2.148  10.448 -0.1680 -0.9550 -0.3738
  566MPD2     C 8445   1.547   3.319  13.979 -0.2718 -0.3992 -0.0418
  566MPD2    C1 8446   1.569   3.455  13.977 -0.3789  0.5449  0.4472
  566MPD2    C2 8447   1.490   3.526  13.885  0.1619 -0.7144  0.2825
  566MPD2    C3 8448   1.398   3.474  13.799 -0.4921 -0.8918 -0.4400
  566MPD2    C4 8449   1.376   3.339  13.809  0.3853  0.3336  0.1810
  566MPD2    C5 8450   1.445   3.262  13.907 -0.9414  0.2384  0.0128
  566MPD2     H 8451   1.519   3.630  13.880 -1.5952 -0.3482 -2.2698
  566MPD2    H1 8452   1.298   3.288  13.754  0.3437 -1.2467  1.7174
  566MPD2    H2 8453   1.604   3.257  14.047  1.8222  1.9173  0.3034
  566MPD2    H3 8454   1.426   3.155  13.908 -0.5661  0.1738  0.3343
  566MPD2     N 8455   1.333   3.554  13.701  0.0894 -0.7464  0.0387
  566MPD2    H5 8456   1.268   3.513  13.635 -0.3346 -1.2758  0.7772
  566MPD2    N1 8457   1.672   3.513  14.053 -0.0192 -0.1775 -0.0213
  566MPD2    H7 8458   1.751   3.456  14.080 -1.6114 -1.4865  1.8882
  567TMC3    C1 8459   1.811   3.676  14.125  0.4163 -0.2783  0.0252
  567TMC3    C2 8460   1.864   3.787  14.079 -0.1384 -0.1140  0.3360
  567TMC3    C3 8461   1.999   3.800  14.087 -0.4981  0.0872  0.2127
  567TMC3    C4 8462   1.882   3.583  14.192  0.3266 -0.4078  0.2288
  567TMC3    C5 8463   2.012   3.611  14.228  0.4936 -0.3281 -0.0249
  567TMC3    C6 8464   2.075   3.718  14.166 -0.6653 -0.2477  1.3206
  567TMC3     C 8465   1.675   3.646  14.087  0.2350  0.7016  0.0426
  567TMC3     O 8466   1.596   3.737  14.055 -0.3238 -0.6922 -0.6749
  567TMC3     H 8467   1.813   3.863  14.021 -1.5749 -1.8110 -0.6575
  567TMC3    H1 8468   1.839   3.496  14.239 -0.6354 -0.3711 -0.5943
  567TMC3    H2 8469   2.173   3.748  14.201 -0.0724 -0.7774  0.0773
  567TMC3    C7 8470   2.055   3.582  14.366 -0.4131  0.3686  0.2615
  567TMC3    C8 8471   2.060   3.888  13.996  0.0084 -0.1771  0.1395
  567TMC3    O1 8472   2.159   3.525  14.391  0.5873  0.1520 -0.0650
  567TMC3    O2 8473   1.989   3.978  13.954 -0.1630  0.9754 -0.3107
  568MPD2     C 8474   4.516   4.365  16.814 -0.6040 -0.3401 -0.2297
  568MPD2    C1 8475   4.379   4.361  16.836  0.0898  0.3136 -0.3670
  568MPD2    C2 8476   4.290   4.414  16.748 -0.5975  0.5167  0.2241
  568MPD2    C3 8477   4.345   4.472  16.631  0.1110  0.2659  0.5468
  568MPD2    C4 8478   4.485   4.481  16.614 -0.2012 -0.1958  0.3989
  568MPD2    C5 8479   4.565   4.418  16.703 -0.1325  0.1525  0.2979
  568MPD2     H 8480   4.182   4.425  16.747 -0.7461 -0.8298  1.8799
  568MPD2    H1 8481   4.518   4.541  16.531  1.1082 -0.0990  0.9941
  568MPD2    H2 8482   4.588   4.321  16.882 -2.0874  1.7236  2.6767
  568MPD2    H3 8483   4.672   4.411  16.689 -0.2517  0.1863 -0.6575
  568MPD2     N 8484   4.252   4.515  16.533  0.1993 -0.1377  1.0025
  568MPD2    H5 8485   4.155   4.487  16.549 -1.2023  3.6111 -0.8282
  568MPD2    N1 8486   4.332   4.286  16.945  0.1925 -1.2259  0.9303
  568MPD2    H7 8487   4.400   4.236  17.001  2.5290  0.5540 -0.3715
  569TMC3    C1 8488   4.183   4.551  16.308 -0.1864  0.1141 -0.4865
  569TMC3    C2 8489   4.079   4.467  16.324 -0.1669 -0.6385 -0.5929
  569TMC3    C3 8490   3.971   4.473  16.230  0.1339  0.2466 -0.6505
  569TMC3    C4 8491   4.207   4.613  16.187  0.0084  0.4737 -0.2093
  569TMC3    C5 8492   4.100   4.617  16.097  0.0890  0.6807 -0.1943
  569TMC3    C6 8493   3.980   4.551  16.120  0.7558  0.0822 -0.8529
  569TMC3     C 8494   4.283   4.573  16.409  0.5400  0.3858  0.2039
  569TMC3     O 8495   4.383   4.639  16.378  0.1318  0.4144  0.7357
  569TMC3     H 8496   4.058   4.410  16.413  0.9047  1.3526  0.9338
  569TMC3    H1 8497   4.287   4.686  16.178 -1.0913  1.7517  0.2037
  569TMC3    H2 8498   3.904   4.545  16.044  1.5915  0.3239 -1.7115
  569TMC3    C7 8499   4.085   0.001  16.024 -0.5282 -0.5458 -1.1280
  569TMC3    C8 8500   3.858   4.382  16.257  0.8782  0.2100  0.5056
  569TMC3    O1 8501   3.979   0.057  16.030 -0.6377  0.6110  1.1216
  569TMC3    O2 8502   3.885   4.266  16.290 -0.3224 -0.2487 -0.1450
  570TMC3    C1 8503   3.288   3.189  16.081  0.3317  0.0094 -0.0301
  570TMC3    C2 8504   3.357   3.235  15.972 -0.0535 -0.6284  0.2687
  570TMC3    C3 8505   3.408   3.365  15.965  0.7765  1.1700  0.7855
  570TMC3    C4 8506   3.263   3.276  16.183  0.2427  0.3176 -0.1438
  570TMC3    C5 8507   3.301   3.405  16.167  0.2879  0.6602  0.2036
  570TMC3    C6 8508   3.371   3.454  16.060 -0.8395  0.1753  0.3358
  570TMC3     C 8509   3.235   3.052  16.066 -0.2540 -0.6526  0.3292
  570TMC3     O 8510   3.244   3.001  15.953 -0.6844 -0.2691 -0.2979
  570TMC3     H 8511   3.376   3.166  15.891 -0.9233  0.8146 -1.1663
  570TMC3    H1 8512   3.219   3.249  16.279  1.8004 -2.0573 -0.0835
  570TMC3    H2 8513   3.382   3.562  16.048  1.5376  0.1872  2.4156
  570TMC3    C7 8514   3.276   3.486  16.283  0.4623  0.1308 -0.6292
  570TMC3    C8 8515   3.460   3.423  15.836 -0.1121 -0.0551  0.3230
  570TMC3    O1 8516   3.254   3.434  16.392 -0.3534  0.2048 -0.0793
  570TMC3    O2 8517   3.492   3.543  15.838 -0.5139 -0.1228  1.0136
  571MPD2     C 8518   1.138   0.606   0.121 -0.4915 -0.3200 -0.2618
  571MPD2    C1 8519   1.209   0.492   0.136 -0.9149 -0.0673 -0.1536
  571MPD2    C2 8520   1.336   0.485   0.078  0.0126  0.9953 -1.0178
  571MPD2    C3 8521   1.384   0.591   0.000  0.1450 -0.5904 -0.1917
  571MPD2    C4 8522   1.301   0.696  17.719 -1.0114  0.7836  0.1483
  571MPD2    C5 8523   1.178   0.711   0.042  0.3490 -0.1793 -0.8041
  571MPD2     H 8524   1.388   0.391   0.087  0.1503  0.9562 -2.1875
  571MPD2    H1 8525   1.337   0.781  17.661 -3.0248  0.3488 -1.7229
  571MPD2    H2 8526   1.041   0.622   0.169 -0.6683  1.4499 -1.2181
  571MPD2    H3 8527   1.102   0.783   0.012  0.5863 -0.1107 -1.2417
  571MPD2     N 8528   1.511   0.586  17.681 -0.6535 -0.2579 -1.0770
  571MPD2    H5 8529   1.553   0.660  17.625 -0.6544 -1.1205 -2.2260
  571MPD2    N1 8530   1.137   0.388   0.204 -0.3190  0.5840  0.4013
  571MPD2    H7 8531   1.044   0.410   0.239 -0.9423 -0.0140 -0.9075
  572TMC3    C1 8532   1.735   0.536  17.650 -0.4686 -0.0148 -0.0586
  572TMC3    C2 8533   1.848   0.494  17.719  1.2667 -0.1497  0.0639
  572TMC3    C3 8534   1.964   0.568  17.707  0.0122  0.0502  0.5420
  572TMC3    C4 8535   1.747   0.645  17.565  0.3835  0.0948 -0.4077
  572TMC3    C5 8536   1.865   0.710  17.554  0.2313 -0.1031  0.2122
  572TMC3    C6 8537   1.972   0.664  17.611 -0.1732  0.0008 -0.6477
  572TMC3     C 8538   1.607   0.490  17.697  0.4417 -0.3669  0.2614
  572TMC3     O 8539   1.613   0.377   0.008 -0.3430 -0.5109  0.1295
  572TMC3     H 8540   1.829   0.424   0.060  0.9587 -1.9267 -1.5701
  572TMC3    H1 8541   1.664   0.668  17.500  0.0389 -1.5457 -0.5598
  572TMC3    H2 8542   2.069   0.713  17.604  0.0273 -0.3532 -0.3852
  572TMC3    C7 8543   1.848   0.854  17.535 -0.0257 -0.5549  0.1412
  572TMC3    C8 8544   2.034   0.606   0.087 -0.1748  0.4387  0.0334
  572TMC3    O1 8545   1.736   0.898  17.548  0.0490  0.5025  0.2149
  572TMC3    O2 8546   2.063   0.722   0.091 -0.1704  0.4117  0.1599
  573MPD2     C 8547   2.021   0.183   0.247 -0.1419  0.0541  0.0276
  573MPD2    C1 8548   2.150   0.227   0.202 -0.5071 -0.8438 -0.4207
  573MPD2    C2 8549   2.175   0.241   0.064  0.0774  0.3216  0.4152
  573MPD2    C3 8550   2.075   0.221  17.713  0.1057 -0.1076 -0.1623
  573MPD2    C4 8551   1.948   0.186   0.019  1.0843 -0.5696  0.1337
  573MPD2    C5 8552   1.922   0.167   0.154 -0.1021 -0.7030  0.1631
  573MPD2     H 8553   2.277   0.252   0.030  0.1595  0.5562  0.7343
  573MPD2    H1 8554   1.877   0.147  17.686 -0.0831 -1.4388  1.7396
  573MPD2    H2 8555   1.996   0.165   0.350 -3.4340  1.6785 -0.4885
  573MPD2    H3 8556   1.820   0.139   0.173 -0.9389  3.9203  2.5578
  573MPD2     N 8557   2.082   0.259  17.573  0.3068  0.1754  0.0125
  573MPD2    H5 8558   1.995   0.248  17.522 -0.5352 -0.8970  1.6871
  573MPD2    N1 8559   2.249   0.251   0.295  0.2277  0.5276  0.0537
  573MPD2    H7 8560   2.228   0.226   0.391  0.7034 -1.4461 -0.3648
  574TMC3    C1 8561   2.153   0.370  17.378  0.0344  0.5748  0.0102
  574TMC3    C2 8562   2.026   0.420  17.363  0.3067  0.6091  0.7698
  574TMC3    C3 8563   2.009   0.509  17.251 -0.5919 -0.3219 -0.0035
  574TMC3    C4 8564   2.253   0.390  17.280 -0.0438  0.4287  0.1549
  574TMC3    C5 8565   2.219   0.455  17.168 -0.3218  0.0769 -0.1208
  574TMC3    C6 8566   2.105   0.521  17.153 -0.3139  0.6542 -0.8220
  574TMC3     C 8567   2.189   0.314  17.508  0.3004 -0.2858  0.0555
  574TMC3     O 8568   2.308   0.305  17.541  0.3731  0.3629  0.6903
  574TMC3     H 8569   1.952   0.413  17.441 -0.4049 -1.1692 -0.0638
  574TMC3    H1 8570   2.354   0.355  17.300  0.0573  0.6363  0.0180
  574TMC3    H2 8571   2.084   0.582  17.066 -1.8431  0.8287 -0.3278
  574TMC3    C7 8572   2.304   0.449  17.057 -0.5782  0.1577  0.5671
  574TMC3    C8 8573   1.897   0.592  17.244 -0.6397 -0.1988 -0.7250
  574TMC3    O1 8574   2.310   0.547  16.983  0.5672 -0.0151  0.0857
  574TMC3    O2 8575   1.793   0.553  17.295  0.0892 -0.2524 -0.3572
  575TMC3    C1 8576   0.006   2.133  11.273  0.3313 -0.5418  1.0267
  575TMC3    C2 8577   4.655   2.029  11.285 -0.0156 -0.6913 -0.7546
  575TMC3    C3 8578   4.635   1.943  11.183 -0.4414 -0.0814  0.3613
  575TMC3    C4 8579   0.066   2.166  11.148 -0.3840 -0.3175  0.2184
  575TMC3    C5 8580   0.029   2.089  11.042 -0.6673 -1.0083  0.1466
  575TMC3    C6 8581   4.684   1.976  11.056 -1.3053 -0.0910  0.2883
  575TMC3     C 8582   0.035   2.210  11.401 -0.0109 -0.6072  0.2262
  575TMC3     O 8583   4.711   2.170  11.502  0.5716 -0.8604 -0.3630
  575TMC3     H 8584   4.617   2.013  11.385 -0.3222  3.0970 -0.2718
  575TMC3    H1 8585   0.115   2.260  11.128 -0.2558 -0.7525 -1.4996
  575TMC3    H2 8586   4.652   1.919  10.969 -0.9504  0.7283 -0.3917
  575TMC3    C7 8587   0.077   2.117  10.908  0.0373  0.8638 -0.4539
  575TMC3    C8 8588   4.619   1.807  11.228  0.3191  0.0988  0.1766
  575TMC3    O1 8589   0.013   2.062  10.818 -0.1828 -0.1600  0.0117
  575TMC3    O2 8590   4.649   1.769  11.342  0.4686  0.2037 -0.4377
  576MPD2     C 8591   4.435   3.762  12.590  0.6237  0.4651 -0.1512
  576MPD2    C1 8592   4.474   3.859  12.502 -0.1943 -0.8404 -0.5409
  576MPD2    C2 8593   4.412   3.980  12.494 -0.4406  0.4186  0.1942
  576MPD2    C3 8594   4.295   3.998  12.570  0.4292 -0.6638  0.6324
  576MPD2    C4 8595   4.256   3.905  12.659  0.0887 -0.1065  0.1083
  576MPD2    C5 8596   4.326   3.787  12.673 -0.4707  0.4652  0.3833
  576MPD2     H 8597   4.460   4.054  12.429 -0.7938 -0.4931 -1.1034
  576MPD2    H1 8598   4.165   3.918  12.716 -0.2835 -0.4106 -0.4195
  576MPD2    H2 8599   4.467   3.659  12.599  0.0863  0.2799 -0.3608
  576MPD2    H3 8600   4.291   3.713  12.745  0.8335  1.2555  1.8419
  576MPD2     N 8601   4.227   4.123  12.559 -0.0928  0.2848  0.4610
  576MPD2    H5 8602   4.274   4.184  12.493 -1.4379 -0.9534 -1.6142
  576MPD2    N1 8603   4.570   3.834  12.399  0.6432  0.5199 -0.2411
  576MPD2    H7 8604   4.583   3.912  12.336  0.5574  0.6801 -0.0639
  577TMC3    C1 8605   4.718   3.732  12.241 -0.0546 -0.2971  0.2291
  577TMC3    C2 8606   0.035   3.611  12.192  0.0702  0.5493  0.0710
  577TMC3    C3 8607   0.101   3.616  12.073  0.0464  1.2428 -0.7701
  577TMC3    C4 8608   4.716   3.847  12.170  0.8755 -0.5173 -0.4165
  577TMC3    C5 8609   0.037   3.839  12.048 -0.1812  0.6403 -0.0166
  577TMC3    C6 8610   0.101   3.734  11.997  0.0509  0.9311 -0.4655
  577TMC3     C 8611   4.638   3.713  12.363  0.8590  0.1735 -0.6721
  577TMC3     O 8612   4.623   3.602  12.405  0.3386  0.0938 -0.1650
  577TMC3     H 8613   0.051   3.526  12.257  2.5251  0.6454 -0.4050
  577TMC3    H1 8614   4.682   3.945  12.201  0.4070 -0.7258 -0.2792
  577TMC3    H2 8615   0.137   3.731  11.895  1.5444 -1.3502  0.1184
  577TMC3    C7 8616   0.094   3.972  12.020 -0.3707 -0.9390  0.8462
  577TMC3    C8 8617   0.189   3.505  12.038  0.3430  0.0001 -0.8120
  577TMC3    O1 8618   0.148   4.029  12.117  0.1205 -0.4092 -0.1402
  577TMC3    O2 8619   0.185   3.416  12.118  0.4078 -0.2401 -0.8901
  578MPD2     C 8620   3.252   3.389   0.946 -0.1320  0.9036 -0.0687
  578MPD2    C1 8621   3.275   3.312   0.834  0.5508 -0.3312 -0.1139
  578MPD2    C2 8622   3.337   3.190   0.846  0.1459  0.1861  0.1962
  578MPD2    C3 8623   3.394   3.150   0.967 -0.3018  0.0241  0.3876
  578MPD2    C4 8624   3.367   3.233   1.078  0.3954  0.6058  0.3225
  578MPD2    C5 8625   3.299   3.354   1.069  0.1386 -0.6025  0.5193
  578MPD2     H 8626   3.360   3.136   0.755  0.9738  1.7246 -0.5002
  578MPD2    H1 8627   3.403   3.199   1.174 -3.2564 -0.7809  1.2152
  578MPD2    H2 8628   3.200   3.483   0.934 -1.8363  0.3616  3.1644
  578MPD2    H3 8629   3.286   3.422   1.152 -2.1326 -2.2802  1.5421
  578MPD2     N 8630   3.465   3.024   0.982  0.4498  0.3656 -0.6801
  578MPD2    H5 8631   3.462   2.968   0.898  0.2062 -1.8777  0.8228
  578MPD2    N1 8632   3.213   3.364   0.724  0.8894  0.5096  0.2440
  578MPD2    H7 8633   3.164   3.452   0.728  0.3916  0.2938 -1.1185
  579TMC3    C1 8634   3.615   2.860   1.065  0.5938 -0.4395 -0.3073
  579TMC3    C2 8635   3.713   2.824   1.153 -0.1212 -0.4762  0.9990
  579TMC3    C3 8636   3.768   2.700   1.139  0.6259 -0.0183  0.3465
  579TMC3    C4 8637   3.570   2.766   0.974 -0.3283 -0.3650  0.1491
  579TMC3    C5 8638   3.643   2.647   0.959  0.5349 -0.7128 -0.3182
  579TMC3    C6 8639   3.736   2.613   1.048 -0.3520  0.8892 -0.5014
  579TMC3     C 8640   3.545   2.984   1.091 -0.0399 -0.1552  0.0308
  579TMC3     O 8641   3.594   3.059   1.177 -0.3319  0.4471 -0.1371
  579TMC3     H 8642   3.743   2.888   1.235  2.4821  1.3233 -1.3562
  579TMC3    H1 8643   3.475   2.783   0.923 -1.6453 -0.9730  2.3941
  579TMC3    H2 8644   3.799   2.525   1.040  0.1885  1.5198 -3.2840
  579TMC3    C7 8645   3.584   2.530   0.887  0.1458 -0.6087 -0.4599
  579TMC3    C8 8646   3.883   2.668   1.226 -0.1444 -0.8442  0.3279
  579TMC3    O1 8647   3.615   2.420   0.933 -0.2507 -0.0353 -0.2274
  579TMC3    O2 8648   3.903   2.548   1.243 -0.0024  0.3286 -0.4573
  580TMC3    C1 8649   2.599   2.816  12.278 -0.0983 -0.3224 -0.0938
  580TMC3    C2 8650   2.708   2.897  12.298  0.5196  0.4415 -0.6329
  580TMC3    C3 8651   2.796   2.848  12.394 -0.1786  0.0231  0.1478
  580TMC3    C4 8652   2.572   2.693  12.334 -0.0885  0.1411 -0.4040
  580TMC3    C5 8653   2.660   2.660  12.431 -0.4061 -0.2137 -0.3223
  580TMC3    C6 8654   2.771   2.733  12.460  0.1959  0.0954 -0.0356
  580TMC3     C 8655   2.492   2.878  12.204  0.3425  0.5838  0.2542
  580TMC3     O 8656   2.374   2.846  12.225 -0.1962 -0.3877  0.1026
  580TMC3     H 8657   2.729   2.990  12.246 -1.5232  0.6854 -1.0412
  580TMC3    H1 8658   2.485   2.639  12.301 -0.0085 -0.8082  0.9352
  580TMC3    H2 8659   2.849   2.697  12.527  0.5242 -0.7668 -0.8796
  580TMC3    C7 8660   2.645   2.539  12.499  1.2189  0.1217 -0.3348
  580TMC3    C8 8661   2.923   2.917  12.413 -0.4234 -0.0662  0.2851
  580TMC3    O1 8662   2.684   2.535  12.617  0.1605 -0.2123  0.4237
  580TMC3    O2 8663   2.995   2.901  12.508 -0.7443  0.4125  0.1475
  581MPD2     C 8664   0.393   2.442  14.181 -0.0706 -0.3459  0.3598
  581MPD2    C1 8665   0.350   2.450  14.313 -0.2044 -0.2442  0.1366
  581MPD2    C2 8666   0.228   2.523  14.332  0.3300  0.2623 -0.6862
  581MPD2    C3 8667   0.153   2.578  14.226 -0.0431  0.8612  0.0064
  581MPD2    C4 8668   0.204   2.572  14.099  0.0884 -0.0552  0.1706
  581MPD2    C5 8669   0.323   2.503  14.080  1.0375 -0.4535  0.4655
  581MPD2     H 8670   0.180   2.529  14.429 -0.3493 -1.5127 -0.9159
  581MPD2    H1 8671   0.158   2.613  14.010  0.1867  0.9407  0.5824
  581MPD2    H2 8672   0.478   2.381  14.154 -0.3778 -1.7517  2.5478
  581MPD2    H3 8673   0.349   2.482  13.977 -0.5401  0.8296 -0.2040
  581MPD2     N 8674   0.026   2.626  14.263  0.5441 -0.7591  0.1761
  581MPD2    H5 8675   0.006   2.632  14.362 -0.3715  0.1131 -0.0628
  581MPD2    N1 8676   0.409   2.366  14.405  0.0733  0.2921 -0.1247
  581MPD2    H7 8677   0.473   2.297  14.368  0.7059  0.3312  0.9008
  582TMC3    C1 8678   0.436   2.265  14.608  0.1359  0.2808 -0.4190
  582TMC3    C2 8679   0.490   2.270  14.733 -0.0470 -0.2385 -0.1876
  582TMC3    C3 8680   0.506   2.155  14.801  0.2658 -0.0627  0.6555
  582TMC3    C4 8681   0.390   2.149  14.557 -0.4400 -0.1367  0.0767
  582TMC3    C5 8682   0.388   2.037  14.631 -0.4659 -0.1880  0.0986
  582TMC3    C6 8683   0.449   2.039  14.757  0.1179 -0.2251 -0.2257
  582TMC3     C 8684   0.400   2.385  14.540  0.9807  0.1913 -0.5587
  582TMC3     O 8685   0.354   2.475  14.609 -0.0493  0.6790 -0.1069
  582TMC3     H 8686   0.515   2.366  14.777 -1.7136  0.0343  0.1531
  582TMC3    H1 8687   0.327   2.156  14.469  0.1890 -0.0122 -0.3683
  582TMC3    H2 8688   0.445   1.949  14.818  0.8802  1.1119  1.7922
  582TMC3    C7 8689   0.254   1.981  14.631  0.0271 -0.0356  0.6259
  582TMC3    C8 8690   0.501   2.166  14.949 -0.0317 -0.1251 -0.1426
  582TMC3    O1 8691   0.214   1.934  14.525  0.0656  0.1865  0.1391
  582TMC3    O2 8692   0.419   2.087  14.999  0.0778  0.4325 -1.0503
  583MPD2     C 8693   0.844   3.948  16.962 -0.6865 -0.0542  0.2718
  583MPD2    C1 8694   0.780   4.043  16.886 -0.5499  0.4349 -0.5172
  583MPD2    C2 8695   0.708   4.146  16.946  0.4564  0.8421  0.0934
  583MPD2    C3 8696   0.686   4.149  17.081 -0.3500  0.3854  0.4323
  583MPD2    C4 8697   0.758   4.058  17.163 -0.4297  1.0312  0.6068
  583MPD2    C5 8698   0.835   3.957  17.105  0.3087 -0.0214 -0.2381
  583MPD2     H 8699   0.640   4.207  16.886 -0.9903 -0.2976  0.5606
  583MPD2    H1 8700   0.764   4.056  17.271  0.1134  1.6087  0.5858
  583MPD2    H2 8701   0.910   3.878  16.912 -1.4097 -2.0147  2.0701
  583MPD2    H3 8702   0.885   3.879  17.161 -0.1100  0.0583  0.2416
  583MPD2     N 8703   0.599   4.248  17.135 -0.1060 -0.3495  0.0527
  583MPD2    H5 8704   0.552   4.307  17.068 -3.1159 -1.4531  1.2018
  583MPD2    N1 8705   0.816   4.042  16.749  0.0270 -0.8609 -0.3883
  583MPD2    H7 8706   0.822   4.129  16.697 -3.5456 -0.9309 -0.9482
  584TMC3    C1 8707   0.479   4.353  17.310 -0.2914 -0.3404 -0.3662
  584TMC3    C2 8708   0.447   4.464  17.237 -0.7256  0.4097  0.3261
  584TMC3    C3 8709   0.392   4.567  17.310  0.0138  0.5119 -0.2894
  584TMC3    C4 8710   0.440   4.335  17.438  0.6830  0.1725 -0.0508
  584TMC3    C5 8711   0.379   4.440  17.500 -0.0293  0.2597 -0.1453
  584TMC3    C6 8712   0.349   4.559  17.440  0.0425  0.4089 -0.7348
  584TMC3     C 8713   0.587   4.265  17.270  0.0317 -0.4980 -0.8413
  584TMC3     O 8714   0.644   4.214  17.367  0.5583  0.1778  0.5419
  584TMC3     H 8715   0.480   4.492  17.138 -3.0030  1.4182 -0.1455
  584TMC3    H1 8716   0.467   4.247  17.495 -2.0864 -0.5575  0.1542
  584TMC3    H2 8717   0.304   4.642  17.492 -1.6727 -1.0142  0.0439
  584TMC3    C7 8718   0.342   4.422  17.635  0.3276  0.5743  0.3420
  584TMC3    C8 8719   0.342   4.683  17.232 -0.5162  0.4121 -0.0419
  584TMC3    O1 8720   0.350   4.304  17.673 -0.1631 -0.6135 -0.2264
  584TMC3    O2 8721   0.330   4.664  17.111  0.0719  0.4983  0.1893
  585MPD2     C 8722   4.005   3.086   0.495  0.5690  0.2727 -0.1008
  585MPD2    C1 8723   4.110   3.124   0.422  0.0429  0.8217 -0.5756
  585MPD2    C2 8724   4.188   3.021   0.360 -0.0791 -0.9820 -0.8027
  585MPD2    C3 8725   4.148   2.892   0.368 -0.2136  0.4570 -0.3330
  585MPD2    C4 8726   4.030   2.864   0.434  0.2178  0.5517  0.0541
  585MPD2    C5 8727   3.963   2.959   0.500 -0.0523  0.1812 -0.3702
  585MPD2     H 8728   4.269   3.045   0.293  0.3555  1.3521  0.5867
  585MPD2    H1 8729   3.994   2.762   0.438  1.6076  0.0504  0.0407
  585MPD2    H2 8730   3.935   3.153   0.543  1.2883  1.6852 -1.0188
  585MPD2    H3 8731   3.872   2.936   0.554  0.5731 -2.3107 -0.3505
  585MPD2     N 8732   4.217   2.787   0.303 -0.5027 -0.1710  0.1601
  585MPD2    H5 8733   4.188   2.691   0.319  1.8414 -1.1047 -1.1565
  585MPD2    N1 8734   4.141   3.262   0.409 -0.2665  0.5003 -0.0374
  585MPD2    H7 8735   4.089   3.330   0.464  0.6039  0.1652  1.1949
  586TMC3    C1 8736   4.381   2.675   0.180 -0.0403 -0.3754 -0.6649
  586TMC3    C2 8737   4.514   2.637   0.182 -0.1474  0.5579 -1.4177
  586TMC3    C3 8738   4.539   2.508   0.147  0.0659  0.2742  0.3548
  586TMC3    C4 8739   4.290   2.582   0.144 -0.6357 -0.2950  0.1537
  586TMC3    C5 8740   4.326   2.459   0.094  0.1466 -0.1778  0.2879
  586TMC3    C6 8741   4.449   2.411   0.108 -0.3660  0.3273  0.6420
  586TMC3     C 8742   4.338   2.800   0.233 -0.6766  0.9183  0.4683
  586TMC3     O 8743   4.404   2.900   0.202 -0.5058  0.2938 -0.0150
  586TMC3     H 8744   4.589   2.713   0.200  0.1938  0.5255 -2.6672
  586TMC3    H1 8745   4.189   2.618   0.129 -0.0108  1.8935  1.3424
  586TMC3    H2 8746   4.485   2.317   0.066  0.9154  0.9962  0.2424
  586TMC3    C7 8747   4.252   2.402  17.719  0.5258  0.1750  0.1562
  586TMC3    C8 8748   4.665   2.462   0.099  0.5553  0.2581  0.0635
  586TMC3    O1 8749   4.253   2.277  17.730  0.6026  0.0529 -0.2657
  586TMC3    O2 8750   4.695   2.342   0.124  0.3568  0.7335 -0.5558
  587TMC3    C1 8751   1.700   1.955  15.969 -0.1604  0.3096 -0.1278
  587TMC3    C2 8752   1.768   2.074  15.947 -0.8011  0.6899 -0.3036
  587TMC3    C3 8753   1.883   2.094  16.016  0.4174 -0.4980 -0.3318
  587TMC3    C4 8754   1.753   1.854  16.045  0.1019  0.2186  0.7718
  587TMC3    C5 8755   1.874   1.877  16.111  0.1615  0.3833 -0.1797
  587TMC3    C6 8756   1.937   2.000  16.100 -0.2284  0.1202  0.6379
  587TMC3     C 8757   1.562   1.962  15.932  0.2263  1.0207  0.2169
  587TMC3     O 8758   1.533   2.048  15.854  0.1014  0.3130  0.1032
  587TMC3     H 8759   1.728   2.164  15.900  0.5007  2.7534  2.5479
  587TMC3    H1 8760   1.701   1.762  16.067  0.1513 -0.0569 -0.2859
  587TMC3    H2 8761   2.033   2.009  16.150  0.1362 -1.6567  0.2506
  587TMC3    C7 8762   1.926   1.776  16.209 -0.1261 -0.2618 -0.2938
  587TMC3    C8 8763   1.919   2.228  16.033 -0.7924 -0.2790 -0.5797
  587TMC3    O1 8764   2.020   1.821  16.271  0.3371 -0.8675  0.6667
  587TMC3    O2 8765   1.942   2.290  15.931 -0.1680  0.3292  0.3089
  588TMC3    C1 8766   3.913   4.259   9.882 -0.0230  0.7264 -0.1889
  588TMC3    C2 8767   3.918   4.129   9.928  0.2956 -0.6564  0.3113
  588TMC3    C3 8768   4.040   4.090   9.963 -0.2546 -0.2914  0.3327
  588TMC3    C4 8769   4.014   4.340   9.874  0.2262 -0.4164 -0.2498
  588TMC3    C5 8770   4.132   4.296   9.916 -0.0378  0.2582 -0.0835
  588TMC3    C6 8771   4.147   4.173   9.970  0.3526  0.1330  0.3370
  588TMC3     C 8772   3.786   4.298   9.823  0.2011  0.1062  0.5393
  588TMC3     O 8773   3.741   4.228   9.731 -0.1219  0.6367  0.1737
  588TMC3     H 8774   3.845   4.057   9.892  1.5531 -1.6817 -0.1751
  588TMC3    H1 8775   3.999   4.436   9.827 -0.0146 -0.2909  0.0846
  588TMC3    H2 8776   4.247   4.136   9.992 -0.0520 -1.8004 -1.0482
  588TMC3    C7 8777   4.234   4.395   9.926 -0.0371  0.3088 -0.6629
  588TMC3    C8 8778   4.045   3.973  10.041 -0.4491 -0.4663  0.3654
  588TMC3    O1 8779   4.328   4.376  10.001 -0.6484  0.1468 -0.2613
  588TMC3    O2 8780   3.936   3.929  10.069 -0.2565  0.2490 -0.2033
  589TMC3    C1 8781   2.962   1.451   0.966  0.2668 -0.2196  0.4193
  589TMC3    C2 8782   2.963   1.428   1.102  0.7391  0.2656 -0.0749
  589TMC3    C3 8783   2.976   1.297   1.149  0.0408 -0.3676 -0.2278
  589TMC3    C4 8784   2.984   1.351   0.877  0.4561 -0.1896  0.3478
  589TMC3    C5 8785   2.993   1.223   0.930 -0.6375 -0.4008  0.4677
  589TMC3    C6 8786   2.982   1.195   1.059 -0.7249  0.0478 -0.1421
  589TMC3     C 8787   2.933   1.582   0.902  0.2079 -0.4240 -0.5839
  589TMC3     O 8788   2.920   1.574   0.784 -0.0245 -0.1265  0.0494
  589TMC3     H 8789   2.963   1.505   1.177  0.2376 -2.6088  2.8786
  589TMC3    H1 8790   2.992   1.372   0.771 -1.0699 -1.5900 -0.0550
  589TMC3    H2 8791   2.979   1.091   1.091 -1.4113  0.2746  0.5196
  589TMC3    C7 8792   3.059   1.111   0.862  0.4701  0.4924  0.0935
  589TMC3    C8 8793   3.071   1.275   1.251 -0.4175  0.3987 -0.3112
  589TMC3    O1 8794   3.102   1.022   0.928 -0.0253 -0.4054  0.1891
  589TMC3    O2 8795   3.070   1.338   1.356  0.6178  0.1309  0.5435
  590MPD2     C 8796   2.774   4.490  16.561  0.8900  0.0310  0.0017
  590MPD2    C1 8797   2.729   4.622  16.550  0.0962  0.0700  0.5414
  590MPD2    C2 8798   2.807   4.716  16.482 -0.4432  0.2959 -0.1181
  590MPD2    C3 8799   2.924   4.673  16.416 -0.6097 -0.1740 -0.0827
  590MPD2    C4 8800   2.967   4.543  16.426 -0.3398  0.2184  0.3186
  590MPD2    C5 8801   2.895   4.452  16.501 -0.4859  0.0132 -1.1612
  590MPD2     H 8802   2.769   0.080  16.461 -0.6332  0.1514 -0.4505
  590MPD2    H1 8803   3.052   4.506  16.371  0.5490  3.0241 -0.1986
  590MPD2    H2 8804   2.699   4.418  16.591  0.7739  0.7309  1.4109
  590MPD2    H3 8805   2.924   4.348  16.500  2.3336  0.7927 -0.4426
  590MPD2     N 8806   2.993   0.035  16.337  0.4556 -0.6046  0.0022
  590MPD2    H5 8807   2.965   0.132  16.337  1.1837 -0.3956  1.3265
  590MPD2    N1 8808   2.593   4.644  16.577 -0.3980 -0.3488  0.4542
  590MPD2    H7 8809   2.536   4.560  16.579 -1.6185  0.4482 -1.5353
  591TMC3    C1 8810   3.114   0.128  16.172  0.2603 -0.5752 -0.8543
  591TMC3    C2 8811   3.205   0.108  16.069 -0.6207 -0.7035 -0.5642
  591TMC3    C3 8812   3.201   0.198  15.967  0.5406  0.1375  0.0147
  591TMC3    C4 8813   3.018   0.228  16.168 -0.0128 -0.3093  0.2314
  591TMC3    C5 8814   3.015   0.309  16.059  0.2049  0.4730  0.2485
  591TMC3    C6 8815   3.103   0.290  15.952 -0.7163  0.1287 -0.0844
  591TMC3     C 8816   3.100   0.014  16.257  0.2891  1.0652  0.2617
  591TMC3     O 8817   3.177   4.652  16.246  0.8906 -0.3648 -0.7863
  591TMC3     H 8818   3.270   0.021  16.076  2.3018  1.4718 -0.9210
  591TMC3    H1 8819   2.941   0.235  16.244 -0.1400  2.1965 -0.1213
  591TMC3    H2 8820   3.102   0.351  15.862 -1.4223  0.8342  0.4109
  591TMC3    C7 8821   2.910   0.408  16.037 -0.0490  0.0546 -0.5456
  591TMC3    C8 8822   3.323   0.199  15.893 -0.8969  0.1950  0.6566
  591TMC3    O1 8823   2.811   0.393  16.110  0.7879 -0.0821  0.2783
  591TMC3    O2 8824   3.385   0.095  15.900  0.2923 -0.0599 -1.0781
  592MPD2     C 8825   3.466   2.312  11.401  0.1115 -0.0294 -0.4184
  592MPD2    C1 8826   3.498   2.333  11.534 -0.5036  0.3317 -1.0008
  592MPD2    C2 8827   3.458   2.240  11.633 -0.1994  0.2139 -0.4158
  592MPD2    C3 8828   3.359   2.147  11.607 -0.9306 -0.4060  0.2278
  592MPD2    C4 8829   3.322   2.137  11.480  0.2815 -0.5397 -0.4074
  592MPD2    C5 8830   3.380   2.208  11.376 -0.2577 -0.5707 -0.2620
  592MPD2     H 8831   3.488   2.249  11.737  0.4178  2.0806 -0.7519
  592MPD2    H1 8832   3.249   2.065  11.443  1.1455 -1.6533  0.0398
  592MPD2    H2 8833   3.501   2.372  11.318  2.8124 -1.8447 -0.6013
  592MPD2    H3 8834   3.341   2.194  11.276 -0.1968 -0.2347 -0.3335
  592MPD2     N 8835   3.311   2.072  11.717 -0.2173 -0.0349 -0.2479
  592MPD2    H5 8836   3.349   2.099  11.808  1.7591  0.7571 -1.2959
  592MPD2    N1 8837   3.590   2.444  11.558 -0.1308  0.0803 -0.1349
  592MPD2    H7 8838   3.614   2.508  11.483  1.0380 -0.8260 -0.5406
  593TMC3    C1 8839   3.717   2.592  11.696  0.0336 -0.6690  0.1667
  593TMC3    C2 8840   3.704   2.662  11.813 -0.4025 -0.2330 -0.4181
  593TMC3    C3 8841   3.766   2.783  11.818 -0.0930  0.9278 -0.0038
  593TMC3    C4 8842   3.789   2.645  11.588  0.2496 -0.5926 -0.9816
  593TMC3    C5 8843   3.846   2.768  11.596  0.3281  0.4187  0.2735
  593TMC3    C6 8844   3.842   2.834  11.711  0.8341 -0.4727  0.5929
  593TMC3     C 8845   3.629   2.475  11.687 -0.0422 -0.7849  0.0219
  593TMC3     O 8846   3.594   2.428  11.793  0.0048 -0.0970  0.3977
  593TMC3     H 8847   3.653   2.618  11.898  0.5207  0.6503  0.5988
  593TMC3    H1 8848   3.792   2.578  11.503 -1.8954 -0.3851 -1.2238
  593TMC3    H2 8849   3.882   2.935  11.713 -2.9587  1.0270  1.2682
  593TMC3    C7 8850   3.920   2.823  11.483  0.5209 -0.1342  0.4372
  593TMC3    C8 8851   3.733   2.855  11.941  0.2805 -0.5856  0.4960
  593TMC3    O1 8852   4.000   2.916  11.499 -0.2382  0.0365  0.0965
  593TMC3    O2 8853   3.638   2.813  12.001 -0.7772  0.1759 -0.6428
  594MPD2     C 8854   1.740   1.337  13.852 -0.3792  0.2439 -0.1593
  594MPD2    C1 8855   1.761   1.279  13.976  0.2152 -0.0153  0.1915
  594MPD2    C2 8856   1.889   1.271  14.034  0.0190  1.0318  0.2516
  594MPD2    C3 8857   1.999   1.317  13.959  0.2365  0.2880 -0.6515
  594MPD2    C4 8858   1.982   1.364  13.827  0.0651  0.9305  0.1614
  594MPD2    C5 8859   1.850   1.375  13.776 -0.1097 -0.4507  0.2046
  594MPD2     H 8860   1.901   1.246  14.138  1.5718 -0.3627 -0.2632
  594MPD2    H1 8861   2.064   1.401  13.767 -0.2386 -0.6716 -1.2678
  594MPD2    H2 8862   1.638   1.354  13.818 -0.9109  0.4545  1.5523
  594MPD2    H3 8863   1.823   1.419  13.680 -0.5285  0.1566  0.6047
  594MPD2     N 8864   2.121   1.298  14.023  0.6115  0.1733 -0.2782
  594MPD2    H5 8865   2.122   1.264  14.119 -1.3115 -2.2460 -1.1258
  594MPD2    N1 8866   1.640   1.238  14.043  0.5063  0.7268  0.4692
  594MPD2    H7 8867   1.551   1.242  13.995 -0.8625 -2.9846  2.6997
  595TMC3    C1 8868   2.507   1.514  14.156  0.6312 -1.1923  0.8505
  595TMC3    C2 8869   2.451   1.438  14.062  0.1536 -0.3298  0.1027
  595TMC3    C3 8870   2.327   1.380  14.095 -0.2411 -0.3190 -0.0233
  595TMC3    C4 8871   2.453   1.531  14.278  0.7629 -0.1015  0.3561
  595TMC3    C5 8872   2.331   1.474  14.313  0.2711  0.5750  0.4036
  595TMC3    C6 8873   2.263   1.405  14.216 -0.5940  0.6824  0.0350
  595TMC3     C 8874   2.643   1.556  14.140 -0.3857 -0.7539 -0.1871
  595TMC3     O 8875   2.684   1.664  14.186 -0.2852  0.5301  0.3137
  595TMC3     H 8876   2.489   1.440  13.960 -0.9254 -1.8665 -0.3206
  595TMC3    H1 8877   2.506   1.595  14.347 -0.3742 -0.0827  1.2055
  595TMC3    H2 8878   2.162   1.372  14.236  0.1458 -0.9129  1.2447
  595TMC3    C7 8879   2.262   1.503  14.443  0.4755  0.7426 -0.1130
  595TMC3    C8 8880   2.245   1.340  13.985  0.4467 -0.3189 -0.0867
  595TMC3    O1 8881   2.157   1.441  14.467  0.7818 -0.4348 -0.0077
  595TMC3    O2 8882   2.281   1.374  13.871 -0.3041 -0.2857  0.0388
  596MPD2     C 8883   1.599   3.918  16.861  0.8362  0.1727 -0.2930
  596MPD2    C1 8884   1.600   4.035  16.797  0.3831 -0.8341  1.0260
  596MPD2    C2 8885   1.619   4.039  16.657 -0.1254  0.1916 -0.4928
  596MPD2    C3 8886   1.619   3.922  16.583 -0.4481  0.0786  0.5551
  596MPD2    C4 8887   1.623   3.796  16.646  0.2179  0.1120 -0.0211
  596MPD2    C5 8888   1.617   3.800  16.785  0.6574 -0.1642 -0.1754
  596MPD2     H 8889   1.629   4.137  16.612  0.1286  0.2015 -0.4113
  596MPD2    H1 8890   1.631   3.704  16.589  1.3049 -0.3098  0.8130
  596MPD2    H2 8891   1.591   3.909  16.968 -1.9329  1.8537 -0.3479
  596MPD2    H3 8892   1.626   3.706  16.838 -2.2284  1.8570  3.8448
  596MPD2     N 8893   1.626   3.917  16.443  0.0613  0.1830  0.5039
  596MPD2    H5 8894   1.637   3.823  16.406  0.5733  0.3423  0.2605
  596MPD2    N1 8895   1.574   4.161  16.854  0.5140  0.2263  0.0064
  596MPD2    H7 8896   1.545   4.222  16.778 -0.7696 -0.8798 -0.3986
  597TMC3    C1 8897   1.501   4.333  16.996 -0.8147 -0.0787  0.0665
  597TMC3    C2 8898   1.522   4.409  16.887 -0.3393  0.2636  0.5546
  597TMC3    C3 8899   1.487   4.540  16.907 -0.1675 -0.4597  0.2288
  597TMC3    C4 8900   1.440   4.377  17.114 -0.3351  1.4365  0.8446
  597TMC3    C5 8901   1.391   4.506  17.116  0.0075  0.1169 -0.1080
  597TMC3    C6 8902   1.416   4.587  17.014 -0.0079  0.4528  0.5213
  597TMC3     C 8903   1.548   4.190  16.984  0.4416 -0.4606  0.2706
  597TMC3     O 8904   1.540   4.121  17.083 -0.1837 -0.2800  0.6668
  597TMC3     H 8905   1.592   4.396  16.805 -1.7245 -1.2695 -0.3839
  597TMC3    H1 8906   1.422   4.318  17.203 -1.2991 -2.2388 -1.7363
  597TMC3    H2 8907   1.401   4.694  17.022 -0.2464  0.1961  3.5730
  597TMC3    C7 8908   1.291   4.531  17.221 -0.1301  1.0845  0.4287
  597TMC3    C8 8909   1.543   4.632  16.811 -0.7536 -0.3435 -0.2572
  597TMC3    O1 8910   1.276   4.448  17.305 -0.1699 -0.4163  0.1275
  597TMC3    O2 8911   1.652   4.605  16.768  0.8022  0.1720  0.3898
  598TMC3    C1 8912   3.991   0.400  15.051  0.1704 -0.4577  0.4867
  598TMC3    C2 8913   3.931   0.281  15.011 -0.1863  0.3294  0.3347
  598TMC3    C3 8914   3.833   0.278  14.921  0.2124  0.6413  0.2251
  598TMC3    C4 8915   3.971   0.513  14.971  0.0246  0.1092 -0.0085
  598TMC3    C5 8916   3.874   0.502  14.876  0.6065 -0.0318 -0.0075
  598TMC3    C6 8917   3.793   0.387  14.854 -0.1275 -0.8172 -0.0403
  598TMC3     C 8918   4.102   0.391  15.143 -0.2587 -0.1559 -0.0141
  598TMC3     O 8919   4.112   0.288  15.201 -0.6697 -0.3508 -0.3498
  598TMC3     H 8920   3.972   0.189  15.052  0.2412  0.9516  1.2950
  598TMC3    H1 8921   4.030   0.604  14.964 -1.7060  1.0460 -2.5723
  598TMC3    H2 8922   3.712   0.388  14.782  0.0020  1.0067 -0.1760
  598TMC3    C7 8923   3.839   0.616  14.798 -0.4925  0.0572  0.1960
  598TMC3    C8 8924   3.791   0.147  14.869 -0.5089  0.5738 -0.5390
  598TMC3    O1 8925   3.761   0.588  14.707  0.3380  0.3857 -0.3287
  598TMC3    O2 8926   3.681   0.142  14.811  0.3397  0.2412 -0.3846
  599MPD2     C 8927   4.375   2.835  15.632 -0.7900  0.1277 -0.5910
  599MPD2    C1 8928   4.331   2.701  15.644  0.1241  0.1994 -1.0336
  599MPD2    C2 8929   4.193   2.688  15.670 -0.5793 -0.4473  0.2649
  599MPD2    C3 8930   4.108   2.793  15.704  0.3743 -0.6923  0.4358
  599MPD2    C4 8931   4.163   2.920  15.711  0.9306 -0.6798  0.3670
  599MPD2    C5 8932   4.291   2.939  15.676  0.4772 -0.0080 -0.1880
  599MPD2     H 8933   4.160   2.586  15.684 -0.4343 -0.4739  0.4228
  599MPD2    H1 8934   4.104   3.008  15.734 -0.0437 -0.9145 -1.2843
  599MPD2    H2 8935   4.478   2.861  15.607 -0.6376  1.4017  1.3329
  599MPD2    H3 8936   4.332   3.039  15.678 -1.1530  0.6517 -0.3536
  599MPD2     N 8937   3.981   2.773  15.769  0.2860 -0.4098 -0.1012
  599MPD2    H5 8938   3.930   2.855  15.799 -1.1708 -0.8045 -1.4995
  599MPD2    N1 8939   4.414   2.590  15.600  0.2113 -0.4702  0.3376
  599MPD2    H7 8940   4.514   2.598  15.588  0.3850  0.4395  2.5255
  600TMC3    C1 8941   3.807   2.668  15.900 -0.0733  0.0117 -0.2563
  600TMC3    C2 8942   3.731   2.563  15.921  0.9738  0.0465  0.1665
  600TMC3    C3 8943   3.628   2.577  16.012 -0.1866  0.0550 -0.4308
  600TMC3    C4 8944   3.772   2.783  15.959  0.0258  0.0650  0.2725
  600TMC3    C5 8945   3.672   2.798  16.046  0.5072  0.5147  0.3981
  600TMC3    C6 8946   3.591   2.689  16.081  0.9672 -0.7339 -0.3167
  600TMC3     C 8947   3.927   2.654  15.815  0.2433 -0.3769  0.0470
  600TMC3     O 8948   3.948   2.542  15.773  0.6014 -1.1177  0.4449
  600TMC3     H 8949   3.763   2.467  15.881  2.5569  1.7413 -2.6389
  600TMC3    H1 8950   3.837   2.869  15.960 -0.2797  0.2911  2.6385
  600TMC3    H2 8951   3.502   2.692  16.143  1.3182  1.6086  0.0650
  600TMC3    C7 8952   3.645   2.922  16.116  0.0720  0.1143 -0.6590
  600TMC3    C8 8953   3.532   2.472  15.989 -0.5268  0.0135 -0.9056
  600TMC3    O1 8954   3.617   2.909  16.236 -0.4424  0.1128  0.1162
  600TMC3    O2 8955   3.587   2.363  16.005 -0.9673 -0.5453  0.1417
  601MPD2     C 8956   1.981   1.354  17.577  0.6778 -0.1699 -0.1767
  601MPD2    C1 8957   1.867   1.293  17.539  0.1193  0.5700  0.1292
  601MPD2    C2 8958   1.862   1.153  17.523 -0.1110  0.3091  0.2722
  601MPD2    C3 8959   1.967   1.072  17.552  0.5006  0.1008 -0.1456
  601MPD2    C4 8960   2.089   1.134  17.570  0.1332  0.1783 -0.5502
  601MPD2    C5 8961   2.094   1.271  17.587  0.7821  0.9727 -0.5056
  601MPD2     H 8962   1.768   1.118  17.482  0.6937 -1.1394 -0.3453
  601MPD2    H1 8963   2.180   1.077  17.584  0.0118 -0.3505 -1.9549
  601MPD2    H2 8964   1.981   1.462  17.591  0.9707 -0.3106  0.8621
  601MPD2    H3 8965   2.186   1.319  17.617  1.8880 -2.2690  1.2384
  601MPD2     N 8966   1.960   0.931  17.550 -0.2320  0.1335  0.4232
  601MPD2    H5 8967   2.051   0.886  17.555 -1.8053 -3.0193  0.7433
  601MPD2    N1 8968   1.747   1.363  17.503 -0.0873 -0.0748 -0.2740
  601MPD2    H7 8969   1.662   1.315  17.478  1.1070 -1.1265 -2.3658
  602TMC3    C1 8970   1.608   1.545  17.460 -0.4589 -0.2199  0.1458
  602TMC3    C2 8971   1.593   1.674  17.419  0.1611  0.0197  0.7164
  602TMC3    C3 8972   1.463   1.726  17.409 -0.0350 -0.8114  0.6050
  602TMC3    C4 8973   1.500   1.460  17.484 -0.0842  0.2032  0.0226
  602TMC3    C5 8974   1.371   1.514  17.458 -0.1837 -0.2310  0.1022
  602TMC3    C6 8975   1.359   1.644  17.421 -0.4862  0.0274 -0.4599
  602TMC3     C 8976   1.742   1.501  17.494  0.3801 -0.5335 -0.6972
  602TMC3     O 8977   1.825   1.590  17.480 -0.0072  0.0490  0.1052
  602TMC3     H 8978   1.674   1.744  17.406  0.8844 -0.9506  0.0028
  602TMC3    H1 8979   1.505   1.354  17.503  0.9965 -0.1682 -2.3131
  602TMC3    H2 8980   1.257   1.681  17.421  0.3053  2.2229 -0.1215
  602TMC3    C7 8981   1.257   1.423  17.436 -0.3640  0.0400  0.4591
  602TMC3    C8 8982   1.447   1.838  17.317  1.4070 -0.5633  0.0118
  602TMC3    O1 8983   1.263   1.301  17.461  0.1341 -0.6230  0.1494
  602TMC3    O2 8984   1.537   1.838  17.234 -0.3265 -0.0454  0.6539
  603TMC3    C1 8985   4.132   1.577  11.018 -0.0883 -0.4919 -0.3374
  603TMC3    C2 8986   4.113   1.618  11.145  0.2037 -0.1781 -0.3780
  603TMC3    C3 8987   4.169   1.734  11.182  0.2839 -0.5190  0.3176
  603TMC3    C4 8988   4.202   1.643  10.924 -0.2549  0.1718  0.4150
  603TMC3    C5 8989   4.247   1.771  10.964  0.0557  0.8738 -0.2140
  603TMC3    C6 8990   4.229   1.816  11.091 -0.2494  0.0566  0.1536
  603TMC3     C 8991   4.053   1.463  10.970 -0.2706 -0.2466 -0.3814
  603TMC3     O 8992   3.940   1.462  11.015  0.1890 -0.3305  0.2290
  603TMC3     H 8993   4.064   1.556  11.219  0.5657  2.8672  2.4376
  603TMC3    H1 8994   4.222   1.602  10.825  0.6146  2.0823 -0.1986
  603TMC3    H2 8995   4.274   1.906  11.128  1.1694 -1.4718  2.1142
  603TMC3    C7 8996   4.315   1.856  10.875 -0.2423 -0.0203 -0.6131
  603TMC3    C8 8997   4.186   1.753  11.324  0.6890  0.7923 -0.0416
  603TMC3    O1 8998   4.408   1.920  10.920 -0.5994  0.0822 -0.3884
  603TMC3    O2 8999   4.125   1.673  11.401  1.1890 -0.2905  0.3814
  604MPD2     C 9000   0.561   0.541  16.501 -0.4198 -0.6364 -0.1477
  604MPD2    C1 9001   0.456   0.458  16.468 -0.2595  0.8017  0.0850
  604MPD2    C2 9002   0.458   0.385  16.350  0.2808 -0.7239  0.8486
  604MPD2    C3 9003   0.559   0.397  16.254 -0.4983 -0.3709 -0.1049
  604MPD2    C4 9004   0.648   0.498  16.282  0.0892 -0.2890  0.0660
  604MPD2    C5 9005   0.646   0.566  16.403  0.0063  0.1920  0.3913
  604MPD2     H 9006   0.372   0.323  16.326 -0.8910  1.0531  0.4358
  604MPD2    H1 9007   0.729   0.524  16.216  0.3025  0.5078  0.6379
  604MPD2    H2 9008   0.563   0.596  16.594 -1.1931 -0.8805  0.0148
  604MPD2    H3 9009   0.713   0.649  16.426 -1.5218  0.6806  3.0537
  604MPD2     N 9010   0.565   0.330  16.129 -0.1444  0.4500 -0.2558
  604MPD2    H5 9011   0.477   0.289  16.098 -0.5276 -0.6967  2.3111
  604MPD2    N1 9012   0.349   0.447  16.561 -0.0416  0.0715 -0.0455
  604MPD2    H7 9013   0.347   0.525  16.627  0.5490 -0.4616  0.6142
  605TMC3    C1 9014   0.126   0.400  16.634 -0.3991 -0.1856  0.3032
  605TMC3    C2 9015   0.159   0.505  16.715 -0.6984  0.6349 -0.1842
  605TMC3    C3 9016   0.109   0.629  16.700  0.2147 -0.5983 -0.2667
  605TMC3    C4 9017   0.023   0.418  16.543 -0.0578  0.0535 -0.1337
  605TMC3    C5 9018   4.711   0.546  16.531  0.4950 -0.2088  0.0416
  605TMC3    C6 9019   0.021   0.652  16.602  0.3002 -0.1219  0.5092
  605TMC3     C 9020   0.242   0.356  16.555 -0.3358 -0.4081 -0.0726
  605TMC3     O 9021   0.212   0.270  16.474 -0.1467 -0.1021 -0.3677
  605TMC3     H 9022   0.224   0.504  16.801 -0.7060  0.4479 -0.1811
  605TMC3    H1 9023   4.732   0.334  16.480  0.1910 -0.3668  0.3203
  605TMC3    H2 9024   4.706   0.748  16.593  3.6592  1.4958 -0.9949
  605TMC3    C7 9025   4.588   0.564  16.444 -0.1760 -0.5252  0.1493
  605TMC3    C8 9026   0.209   0.737  16.715  0.3619 -0.2015  0.2308
  605TMC3    O1 9027   4.562   0.677  16.407  0.7555 -0.0614 -0.4441
  605TMC3    O2 9028   0.329   0.699  16.718 -0.3544 -0.0741 -0.5281
  606TMC3    C1 9029   1.526   4.462   0.595 -0.4780 -0.0997 -0.4758
  606TMC3    C2 9030   1.553   4.353   0.676 -0.0060 -0.0016 -0.9712
  606TMC3    C3 9031   1.619   4.255   0.608 -0.4112 -1.1036 -0.2129
  606TMC3    C4 9032   1.529   4.465   0.456 -0.2142 -0.0741 -0.2408
  606TMC3    C5 9033   1.587   4.356   0.403 -0.0347  0.1951 -0.2012
  606TMC3    C6 9034   1.644   4.257   0.472  0.1754  0.4264 -0.1181
  606TMC3     C 9035   1.461   4.573   0.659  0.5362 -0.5994 -0.2360
  606TMC3     O 9036   1.416   4.560   0.769 -0.1374 -0.4113 -0.6095
  606TMC3     H 9037   1.561   4.351   0.784 -1.7480 -0.8860 -0.8547
  606TMC3    H1 9038   1.481   4.540   0.393 -0.2171 -1.7059 -2.1682
  606TMC3    H2 9039   1.708   4.180   0.431 -0.0855  0.6850 -1.0131
  606TMC3    C7 9040   1.562   4.338   0.263  0.0015 -0.3335  0.1037
  606TMC3    C8 9041   1.596   4.121   0.657  0.1442 -0.6792  0.1627
  606TMC3    O1 9042   1.546   4.441   0.200 -0.4362 -0.6455 -0.0134
  606TMC3    O2 9043   1.619   4.034   0.576  0.3014 -0.7617  0.3207
  607MPD2     C 9044   3.504   1.851  11.950  0.2153 -0.0347 -0.0126
  607MPD2    C1 9045   3.550   1.950  12.036 -0.7149 -0.3382 -0.3824
  607MPD2    C2 9046   3.510   1.938  12.167 -0.3684  0.6573  0.1763
  607MPD2    C3 9047   3.436   1.836  12.220 -0.1151 -0.2511  0.0527
  607MPD2    C4 9048   3.384   1.741  12.137 -0.7737 -0.0242 -0.1931
  607MPD2    C5 9049   3.423   1.751  12.007  0.4002 -0.4074  0.3604
  607MPD2     H 9050   3.562   1.999  12.241 -0.4020  0.2248  0.5549
  607MPD2    H1 9051   3.329   1.653  12.168  0.2234 -1.8770 -3.6906
  607MPD2    H2 9052   3.535   1.851  11.847 -1.2299 -4.2785 -0.4568
  607MPD2    H3 9053   3.391   1.674  11.938 -2.5506  1.1528  0.0007
  607MPD2     N 9054   3.433   1.829  12.358 -0.2244  0.3456  0.5522
  607MPD2    H5 9055   3.475   1.905  12.410  1.8960 -0.7519  0.4576
  607MPD2    N1 9056   3.643   2.051  12.000 -0.1118 -0.6198  0.5319
  607MPD2    H7 9057   3.659   2.119  12.074  0.9450  1.5191 -1.6997
  608TMC3    C1 9058   3.831   2.145  11.911 -0.2062 -0.2396  0.6180
  608TMC3    C2 9059   3.881   2.150  12.036 -0.2447  0.2629 -0.4684
  608TMC3    C3 9060   3.967   2.248  12.067  0.3069 -0.1805  0.1442
  608TMC3    C4 9061   3.873   2.233  11.813 -0.0914  0.1090  0.3861
  608TMC3    C5 9062   3.962   2.325  11.852 -0.4137 -0.0220  0.5702
  608TMC3    C6 9063   4.002   2.342  11.981  0.4614 -0.1926  0.4910
  608TMC3     C 9064   3.711   2.056  11.886 -0.2546 -0.0462  0.0106
  608TMC3     O 9065   3.702   2.000  11.777 -0.5359 -0.1454 -0.5831
  608TMC3     H 9066   3.859   2.071  12.107  0.8945 -0.6391 -1.1167
  608TMC3    H1 9067   3.831   2.238  11.714  1.5168  0.6464 -0.2748
  608TMC3    H2 9068   4.068   2.423  12.010 -0.2470  0.8404 -0.7654
  608TMC3    C7 9069   4.014   2.411  11.743  0.4508  0.1959  0.3214
  608TMC3    C8 9070   3.999   2.281  12.206  0.2530  0.3412 -0.5274
  608TMC3    O1 9071   3.987   2.377  11.627 -0.0083 -0.0234 -0.0601
  608TMC3    O2 9072   4.098   2.343  12.228  0.4209 -0.4627  0.2550
  609TMC3    C1 9073   1.678   2.056   8.450 -0.2182 -0.1245 -0.4316
  609TMC3    C2 9074   1.704   2.182   8.470 -0.0067 -0.0380 -0.0242
  609TMC3    C3 9075   1.802   2.241   8.392 -0.8387 -0.5273  0.7891
  609TMC3    C4 9076   1.748   1.977   8.363 -0.4986  0.3038  0.3789
  609TMC3    C5 9077   1.846   2.034   8.286 -0.1267  0.0392 -0.2236
  609TMC3    C6 9078   1.884   2.166   8.309 -0.3655 -0.5430 -0.2422
  609TMC3     C 9079   1.603   1.974   8.544  0.0055 -0.1955 -0.4157
  609TMC3     O 9080   1.630   1.852   8.541 -0.0806  0.1852  0.0590
  609TMC3     H 9081   1.647   2.251   8.531  1.4940 -0.5682  1.9679
  609TMC3    H1 9082   1.704   1.883   8.332  0.0873  0.5439 -1.1814
  609TMC3    H2 9083   1.961   2.210   8.248  1.3658 -1.5922  1.2018
  609TMC3    C7 9084   1.932   1.945   8.209 -0.5309 -0.0133 -0.5580
  609TMC3    C8 9085   1.805   2.385   8.387 -0.5059 -0.2565  0.2143
  609TMC3    O1 9086   1.908   1.827   8.233  0.1916 -0.3807 -0.0598
  609TMC3    O2 9087   1.743   2.435   8.479  0.2467 -0.0329 -0.1523
  610TMC3    C1 9088   4.183   2.137  12.536 -0.7775  0.3535  0.0846
  610TMC3    C2 9089   4.169   2.086  12.413  0.1245  0.7152  0.3962
  610TMC3    C3 9090   4.122   1.961  12.401  0.7959  0.0601  0.6192
  610TMC3    C4 9091   4.152   2.064  12.652 -0.3899  0.1700 -0.0666
  610TMC3    C5 9092   4.105   1.941  12.632  0.2799 -0.2573 -0.1942
  610TMC3    C6 9093   4.090   1.884  12.511 -0.1368  0.7582 -0.0926
  610TMC3     C 9094   4.279   2.252  12.547 -0.1597 -0.1834 -0.3905
  610TMC3     O 9095   4.341   2.255  12.653 -0.9354  0.2326  0.7198
  610TMC3     H 9096   4.190   2.148  12.327 -2.5835  1.0485 -0.0425
  610TMC3    H1 9097   4.172   2.105  12.750  1.7220 -3.0568  0.8391
  610TMC3    H2 9098   4.073   1.778  12.497  0.2813  0.6365  0.3323
  610TMC3    C7 9099   4.158   1.855  12.734  1.0202  0.1508 -0.3002
  610TMC3    C8 9100   4.074   1.925  12.268  0.4875 -0.8066 -0.3230
  610TMC3    O1 9101   4.230   1.904  12.821 -0.1687  0.0081 -0.0330
  610TMC3    O2 9102   4.107   2.000  12.179  0.1140  0.4219 -0.5402
  611MPD2     C 9103   3.529   1.410  10.039 -0.3417 -0.4069 -0.0414
  611MPD2    C1 9104   3.456   1.523  10.070 -0.1999 -0.0723 -0.3412
  611MPD2    C2 9105   3.528   1.641  10.075  0.5782 -0.2140 -0.6118
  611MPD2    C3 9106   3.664   1.647  10.046  0.1457 -0.6041 -0.0511
  611MPD2    C4 9107   3.733   1.528  10.016  0.4015 -0.4778  0.0757
  611MPD2    C5 9108   3.664   1.414  10.013 -1.6156 -0.3589  0.7334
  611MPD2     H 9109   3.466   1.730  10.072  1.4288  0.3520 -1.3307
  611MPD2    H1 9110   3.841   1.526  10.004  0.3764 -0.7904 -0.1006
  611MPD2    H2 9111   3.471   1.318  10.037  1.3709 -1.5380  1.6201
  611MPD2    H3 9112   3.722   1.324  10.000 -2.7717 -0.8843 -0.7080
  611MPD2     N 9113   3.728   1.776  10.040 -0.1194  0.1799  0.4740
  611MPD2    H5 9114   3.666   1.855  10.054 -0.8264 -0.1546 -0.7981
  611MPD2    N1 9115   3.316   1.504  10.093  0.4916  0.2570  0.6434
  611MPD2    H7 9116   3.267   1.415  10.089 -1.4252  1.3269  0.0637
  612TMC3    C1 9117   3.895   1.935  10.041  0.6980 -0.2157  0.4445
  612TMC3    C2 9118   4.019   1.954  10.090 -0.6402 -0.2899  0.3152
  612TMC3    C3 9119   4.057   2.087  10.112 -0.1900 -0.2264  0.3356
  612TMC3    C4 9120   3.818   2.035   9.991 -0.0129 -0.1387  0.3664
  612TMC3    C5 9121   3.868   2.163   9.992  0.5373  0.2378 -0.0448
  612TMC3    C6 9122   3.986   2.191  10.058  0.4009 -0.3261  0.5889
  612TMC3     C 9123   3.862   1.801  10.016 -0.8982 -0.7814  0.3405
  612TMC3     O 9124   3.950   1.714  10.013 -0.0126  0.4050 -0.1297
  612TMC3     H 9125   4.079   1.871  10.123  0.0888 -0.2082 -0.7997
  612TMC3    H1 9126   3.719   2.009   9.955 -0.5283 -0.3406  1.9295
  612TMC3    H2 9127   4.012   2.293  10.085 -0.9142  0.0323  0.5245
  612TMC3    C7 9128   3.776   2.270   9.938  0.2875 -0.0226 -0.3878
  612TMC3    C8 9129   4.161   2.120  10.203  0.3834 -0.3755 -0.0372
  612TMC3    O1 9130   3.666   2.226   9.903  0.2263 -0.1404 -0.6362
  612TMC3    O2 9131   4.225   2.219  10.176  0.2450 -0.2258  0.2142
  613MPD2     C 9132   3.294   3.954  15.006 -0.3023  0.7796  0.3065
  613MPD2    C1 9133   3.187   3.867  15.017 -0.2057  0.4646 -0.4659
  613MPD2    C2 9134   3.116   3.866  15.135 -0.6240 -0.5043 -0.2549
  613MPD2    C3 9135   3.145   3.949  15.235 -0.8454  0.2846 -0.4721
  613MPD2    C4 9136   3.238   4.046  15.214 -0.2234  0.0604  0.2762
  613MPD2    C5 9137   3.319   4.039  15.116 -0.8061 -0.4747 -0.3124
  613MPD2     H 9138   3.039   3.791  15.153 -0.9556 -0.3141 -0.8766
  613MPD2    H1 9139   3.255   4.117  15.295  2.0434 -1.3727  1.0576
  613MPD2    H2 9140   3.350   3.949  14.913 -2.5106 -4.2526 -0.7639
  613MPD2    H3 9141   3.398   4.114  15.118 -0.3987 -0.9054 -0.1786
  613MPD2     N 9142   3.063   3.936  15.344  0.1487 -0.1258 -0.0908
  613MPD2    H5 9143   2.992   3.863  15.340  0.6745 -0.7710  2.0897
  613MPD2    N1 9144   3.158   3.771  14.917 -0.3392  0.3575  0.2037
  613MPD2    H7 9145   3.099   3.693  14.945  0.3557 -0.2744 -0.0854
  614TMC3    C1 9146   3.112   3.689  14.700 -0.7075  0.3219 -0.4078
  614TMC3    C2 9147   3.074   3.576  14.769 -0.0146  0.1795  0.1307
  614TMC3    C3 9148   2.947   3.551  14.801  0.1585 -0.0983  0.8385
  614TMC3    C4 9149   3.017   3.761  14.633  0.3025  0.1077 -0.2894
  614TMC3    C5 9150   2.887   3.732  14.660 -0.4670  0.3484 -0.2005
  614TMC3    C6 9151   2.847   3.629  14.744 -0.4725  0.4149  0.6484
  614TMC3     C 9152   3.193   3.776  14.778 -0.3171  0.2405  0.5835
  614TMC3     O 9153   3.266   3.851  14.715 -0.3639  0.5313 -0.2106
  614TMC3     H 9154   3.137   3.533  14.846  0.7613 -0.0041 -0.6041
  614TMC3    H1 9155   3.042   3.846  14.571 -0.7132  1.1693  0.7611
  614TMC3    H2 9156   2.746   3.623  14.781 -0.3307  1.5075  1.2020
  614TMC3    C7 9157   2.796   3.769  14.560 -0.1643 -0.0510 -0.8373
  614TMC3    C8 9158   2.923   3.520  14.942  0.3582  0.2938 -0.3866
  614TMC3    O1 9159   2.843   3.804  14.452 -0.8074 -0.5397  0.3885
  614TMC3    O2 9160   3.011   3.555  15.020 -0.0190  0.1865  0.1557
  615MPD2     C 9161   1.465   0.638  16.059 -0.7042 -0.0979  0.5309
  615MPD2    C1 9162   1.544   0.752  16.073  0.2319 -0.2677 -0.6672
  615MPD2    C2 9163   1.570   0.836  15.968 -0.5681 -0.3552  0.3147
  615MPD2    C3 9164   1.513   0.813  15.850 -0.1106  1.1586  0.1021
  615MPD2    C4 9165   1.431   0.697  15.830  0.1044  0.0395  0.2819
  615MPD2    C5 9166   1.405   0.616  15.939  0.1353 -0.2739  0.3408
  615MPD2     H 9167   1.634   0.922  15.983  0.6663 -0.4042 -4.5744
  615MPD2    H1 9168   1.384   0.664  15.738 -0.3321  0.3710  0.3858
  615MPD2    H2 9169   1.435   0.572  16.140 -0.5120 -0.3736  0.3773
  615MPD2    H3 9170   1.338   0.531  15.930 -1.4963  1.0039  0.3129
  615MPD2     N 9171   1.512   0.902  15.745  0.3108 -0.2169 -0.0690
  615MPD2    H5 9172   1.455   0.875  15.666  0.8569 -3.0519  0.4998
  615MPD2    N1 9173   1.612   0.779  16.194  0.2300 -0.1113 -0.4394
  615MPD2    H7 9174   1.686   0.848  16.198  0.9109 -0.7608 -1.7983
  616TMC3    C1 9175   1.674   0.745  16.411  0.3061  0.4287 -1.3752
  616TMC3    C2 9176   1.811   0.736  16.425  0.0625 -0.1185  0.1533
  616TMC3    C3 9177   1.877   0.850  16.476 -0.4555 -0.0449  0.4872
  616TMC3    C4 9178   1.605   0.855  16.457 -0.3519  0.0513 -0.1441
  616TMC3    C5 9179   1.675   0.949  16.529 -0.3028 -0.4878  0.5793
  616TMC3    C6 9180   1.813   0.955  16.526  0.5246 -0.3004 -0.5179
  616TMC3     C 9181   1.608   0.690  16.298 -0.0586  0.4064 -0.3507
  616TMC3     O 9182   1.590   0.569  16.292  0.2680  0.2976 -0.7688
  616TMC3     H 9183   1.856   0.646  16.386 -0.0375 -0.1240  0.0507
  616TMC3    H1 9184   1.499   0.861  16.435 -0.5832  0.0242  0.9423
  616TMC3    H2 9185   1.866   1.022  16.594  0.0407 -1.4120  0.9621
  616TMC3    C7 9186   1.608   1.059  16.585  0.4391  0.1227 -0.3910
  616TMC3    C8 9187   2.020   0.866  16.450 -0.7920  0.8650 -0.4245
  616TMC3    O1 9188   1.669   1.155  16.617  0.1721  1.0632  0.4513
  616TMC3    O2 9189   2.098   0.772  16.440 -0.6857  0.9092 -1.3031
  617MPD2     C 9190   4.496   3.824  13.571  0.2543  0.1019 -0.1349
  617MPD2    C1 9191   4.526   3.756  13.690  0.2594  0.2211 -0.2592
  617MPD2    C2 9192   4.421   3.720  13.776 -0.0248 -0.2374 -0.5339
  617MPD2    C3 9193   4.297   3.776  13.752  0.5368  0.1811  0.0201
  617MPD2    C4 9194   4.277   3.858  13.642  0.2412  0.4028  0.0937
  617MPD2    C5 9195   4.373   3.877  13.551  0.4875 -0.1700 -0.2103
  617MPD2     H 9196   4.431   3.663  13.868  1.3181  0.6678 -0.1126
  617MPD2    H1 9197   4.181   3.904  13.618 -0.4811 -1.1554 -0.0321
  617MPD2    H2 9198   4.567   3.838  13.491  0.6905  1.3018  0.4615
  617MPD2    H3 9199   4.363   3.939  13.462  0.4013 -1.7156 -1.2773
  617MPD2     N 9200   4.171   3.739  13.814 -0.2071  0.1375 -0.0124
  617MPD2    H5 9201   4.091   3.775  13.763  0.1415  0.4868 -0.3080
  617MPD2    N1 9202   4.663   3.724  13.720  0.0880  0.4807 -0.7339
  617MPD2    H7 9203   4.728   3.756  13.649 -0.4082 -0.0314 -1.4182
  618TMC3    C1 9204   0.120   3.658  13.834 -0.5096  0.4823  0.8164
  618TMC3    C2 9205   0.161   3.534  13.879  0.8358 -0.3110 -0.4609
  618TMC3    C3 9206   0.271   3.474  13.818 -0.4501  0.1912 -1.3581
  618TMC3    C4 9207   0.189   3.727  13.737  1.0660 -0.3464  0.4400
  618TMC3    C5 9208   0.305   3.667  13.688 -0.2988 -0.0599 -0.0065
  618TMC3    C6 9209   0.348   3.538  13.719  0.3884  0.1771  0.1550
  618TMC3     C 9210   4.714   3.675  13.838 -0.2880 -0.2026 -0.5491
  618TMC3     O 9211   4.650   3.618  13.928  0.6833 -0.2437 -0.0274
  618TMC3     H 9212   0.104   3.488  13.959 -1.7308  1.4432 -1.2781
  618TMC3    H1 9213   0.158   3.825  13.701  2.0622 -0.1940 -0.0096
  618TMC3    H2 9214   0.440   3.496  13.680  2.4565  0.3753  4.7490
  618TMC3    C7 9215   0.343   3.706  13.557  0.1202  0.6206 -0.3690
  618TMC3    C8 9216   0.314   3.343  13.859 -0.2209 -0.2327 -0.4001
  618TMC3    O1 9217   0.249   3.749  13.493  0.3353 -0.1861  0.3594
  618TMC3    O2 9218   0.320   3.321  13.983  0.2055  0.4202  0.1027
  619MPD2     C 9219   1.251   4.425  14.269 -0.2064  0.5113  0.6631
  619MPD2    C1 9220   1.223   4.365  14.149  0.5185 -0.1930 -0.3578
  619MPD2    C2 9221   1.104   4.407  14.086 -0.1383  0.1096 -0.3037
  619MPD2    C3 9222   1.016   4.488  14.153  0.6249  0.0203 -0.0385
  619MPD2    C4 9223   1.058   4.548  14.270 -0.2247  0.0461 -1.0834
  619MPD2    C5 9224   1.174   4.516  14.330 -0.0052  0.0034 -0.0789
  619MPD2     H 9225   1.077   4.363  13.991  0.4552  0.0158 -0.4250
  619MPD2    H1 9226   0.985   4.610  14.321 -0.4452 -1.4236  0.4111
  619MPD2    H2 9227   1.341   4.407  14.327 -0.7451 -1.5108  0.8638
  619MPD2    H3 9228   1.203   4.547  14.430  0.0285  1.7279 -0.6162
  619MPD2     N 9229   0.887   4.517  14.105 -0.0102  0.0468 -0.4160
  619MPD2    H5 9230   0.830   4.592  14.142 -2.4718 -1.8555 -0.3767
  619MPD2    N1 9231   1.313   4.283  14.078  0.4639  1.1810 -0.1165
  619MPD2    H7 9232   1.280   4.236  13.994 -1.0363  0.1348  1.0577
  620TMC3    C1 9233   1.521   4.208  14.003 -0.4928  0.5812 -0.1072
  620TMC3    C2 9234   1.449   4.223  13.879  0.2212 -0.4586 -0.6708
  620TMC3    C3 9235   1.497   4.303  13.782 -0.2642 -0.5416  0.0835
  620TMC3    C4 9236   1.653   4.251  14.020 -1.2487  0.4331 -0.0896
  620TMC3    C5 9237   1.700   4.327  13.915  0.5022 -0.7056  0.4792
  620TMC3    C6 9238   1.619   4.359  13.805  0.0588  0.2826  0.4039
  620TMC3     C 9239   1.428   4.227  14.125 -1.0211  0.0645  0.1610
  620TMC3     O 9240   1.473   4.241  14.236 -0.4753  0.1659 -0.1911
  620TMC3     H 9241   1.357   4.166  13.874  0.3447 -0.8505  1.4904
  620TMC3    H1 9242   1.710   4.250  14.112  1.6685 -1.7610 -1.9303
  620TMC3    H2 9243   1.665   4.437  13.745  1.7996 -1.7047 -0.8405
  620TMC3    C7 9244   1.762   4.443  13.973  0.2215  0.0209 -0.2920
  620TMC3    C8 9245   1.397   4.409  13.760 -0.0119  0.1344 -0.2365
  620TMC3    O1 9246   1.857   4.441  14.049 -0.6540 -0.3048  0.2840
  620TMC3    O2 9247   1.441   4.524  13.781  0.0978  0.1332 -0.7893
  621MPD2     C 9248   1.913   1.159   8.997 -0.1274 -0.7312  0.0570
  621MPD2    C1 9249   1.993   1.110   9.097  0.3258  0.6049 -0.3134
  621MPD2    C2 9250   1.967   1.151   9.234 -0.3706  1.0928 -0.1176
  621MPD2    C3 9251   1.882   1.260   9.266 -0.4518  0.0788  0.1683
  621MPD2    C4 9252   1.824   1.315   9.155 -0.0360 -0.5119 -0.3699
  621MPD2    C5 9253   1.840   1.268   9.030  0.1843  0.2249  0.4377
  621MPD2     H 9254   2.023   1.111   9.318  0.7384  1.3924 -0.7061
  621MPD2    H1 9255   1.761   1.402   9.169  0.1388 -0.2331 -1.3091
  621MPD2    H2 9256   1.904   1.123   8.895  0.5008  0.2945 -0.3699
  621MPD2    H3 9257   1.798   1.310   8.939  2.9890 -0.4036 -1.1652
  621MPD2     N 9258   1.864   1.292   9.405  0.2242 -0.4577 -0.3604
  621MPD2    H5 9259   1.918   1.241   9.473 -1.2843  1.3558  2.1727
  621MPD2    N1 9260   2.074   0.995   9.076 -0.5638  0.0914  0.0994
  621MPD2    H7 9261   2.113   0.947   9.156 -0.4023 -1.0281 -0.6603
  622TMC3    C1 9262   2.170   0.810   8.958  0.4851  0.3343  0.0181
  622TMC3    C2 9263   2.189   0.731   9.066  0.3437 -0.0180 -0.5700
  622TMC3    C3 9264   2.255   0.613   9.049 -0.2825 -0.9504 -0.2413
  622TMC3    C4 9265   2.196   0.758   8.834  0.2240 -0.0420  0.6089
  622TMC3    C5 9266   2.236   0.626   8.821 -0.1582  0.2637 -0.5313
  622TMC3    C6 9267   2.283   0.559   8.928 -0.1039  0.2503 -0.3343
  622TMC3     C 9268   2.114   0.942   8.959  0.9163 -0.4023  0.4008
  622TMC3     O 9269   2.101   0.995   8.847  0.2548  0.1324  0.0064
  622TMC3     H 9270   2.190   0.783   9.161  0.4906  0.3660 -0.7800
  622TMC3    H1 9271   2.175   0.807   8.739 -1.1376  0.9069  1.3921
  622TMC3    H2 9272   2.316   0.456   8.920 -0.7229  0.0084  0.2457
  622TMC3    C7 9273   2.222   0.555   8.697  0.3562 -0.9539 -0.1085
  622TMC3    C8 9274   2.282   0.527   9.163  0.0091  0.5746 -0.0666
  622TMC3    O1 9275   2.227   0.618   8.593 -0.2944 -0.9156  0.1118
  622TMC3    O2 9276   2.351   0.428   9.139  0.7715  0.5041 -0.0697
  623MPD2     C 9277   0.722   1.143  15.833 -0.2710 -0.0362 -0.6373
  623MPD2    C1 9278   0.684   1.021  15.894  0.3348 -0.3100  0.2768
  623MPD2    C2 9279   0.701   0.998  16.027  0.0508  0.2118  0.4132
  623MPD2    C3 9280   0.774   1.089  16.103  0.1946  0.2002  0.6561
  623MPD2    C4 9281   0.795   1.213  16.047  0.1488  0.6040  0.1826
  623MPD2    C5 9282   0.771   1.237  15.915 -1.4939 -0.4016 -1.4081
  623MPD2     H 9283   0.660   0.907  16.067 -1.7578  0.1368 -1.5776
  623MPD2    H1 9284   0.831   1.293  16.111 -2.3416  0.8999  1.2285
  623MPD2    H2 9285   0.695   1.173  15.733  0.8508  2.3154 -0.2394
  623MPD2    H3 9286   0.789   1.338  15.880 -0.3711 -0.4619 -1.0178
  623MPD2     N 9287   0.795   1.065  16.241 -0.6972  0.5073 -0.0277
  623MPD2    H5 9288   0.815   1.138  16.308  1.9647 -0.5906  0.3744
  623MPD2    N1 9289   0.627   0.912  15.829 -0.1792 -0.2538 -0.0127
  623MPD2    H7 9290   0.622   0.828  15.887 -0.6732 -0.7748 -0.8241
  624TMC3    C1 9291   0.907   0.843  16.620 -0.5760  0.6473 -0.6657
  624TMC3    C2 9292   0.854   0.935  16.705 -0.2882  0.2443 -0.3349
  624TMC3    C3 9293   0.778   1.031  16.649 -0.8106 -0.2237 -1.0771
  624TMC3    C4 9294   0.868   0.829  16.492  0.1451  0.2095 -0.2916
  624TMC3    C5 9295   0.806   0.939  16.440  0.1781 -0.8384  0.2510
  624TMC3    C6 9296   0.768   1.049  16.516 -0.0312  0.4594  0.8259
  624TMC3     C 9297   1.001   0.750  16.664  0.3532 -0.4964  0.0613
  624TMC3     O 9298   1.078   0.800  16.741 -0.5951 -0.0626 -0.1826
  624TMC3     H 9299   0.877   0.938  16.811 -2.2872  0.9158  0.0808
  624TMC3    H1 9300   0.916   0.759  16.425 -1.1239  0.0170 -1.0152
  624TMC3    H2 9301   0.708   1.125  16.467  1.0053 -0.8163 -2.4536
  624TMC3    C7 9302   0.791   0.940  16.295 -0.5313 -0.5826 -0.4004
  624TMC3    C8 9303   0.651   1.031  16.714 -0.4266  0.5605 -0.2729
  624TMC3    O1 9304   0.789   0.827  16.249 -0.2835  0.1034 -0.3789
  624TMC3    O2 9305   0.637   0.956  16.812  0.4076 -0.0606 -0.1890
  625MPD2     C 9306   1.463   1.795   0.889 -0.2990 -0.2258  0.4956
  625MPD2    C1 9307   1.444   1.913   0.825 -0.6609 -0.4255 -0.2451
  625MPD2    C2 9308   1.548   1.977   0.765 -0.3277  0.7022  0.0588
  625MPD2    C3 9309   1.674   1.908   0.768  0.3279 -0.2892 -0.3322
  625MPD2    C4 9310   1.685   1.792   0.839 -0.3835 -0.0012 -0.6518
  625MPD2    C5 9311   1.585   1.746   0.915  0.3017 -0.6261 -0.2567
  625MPD2     H 9312   1.520   2.065   0.709 -0.1935 -0.8295 -2.3762
  625MPD2    H1 9313   1.778   1.736   0.844 -0.2600  0.2283 -0.3707
  625MPD2    H2 9314   1.385   1.744   0.944  0.3487 -0.9187  0.7857
  625MPD2    H3 9315   1.596   1.654   0.971  3.9029 -0.0621 -0.0338
  625MPD2     N 9316   1.792   1.967   0.709 -0.4085  0.2347 -0.2342
  625MPD2    H5 9317   1.787   2.064   0.680 -2.1764  0.1403 -0.2247
  625MPD2    N1 9318   1.319   1.982   0.818  0.0935  0.0869  0.5041
  625MPD2    H7 9319   1.319   2.082   0.802 -1.2071  0.0051 -0.0457
  626TMC3    C1 9320   1.080   2.014   0.834 -0.2361 -0.2626 -0.7249
  626TMC3    C2 9321   1.080   2.098   0.725  0.3489 -0.1256  0.2819
  626TMC3    C3 9322   0.968   2.167   0.696 -0.7751 -0.1629  0.7612
  626TMC3    C4 9323   0.973   2.004   0.913  0.1953  0.2238  0.0566
  626TMC3    C5 9324   0.858   2.069   0.880 -0.1038 -0.2940 -1.0072
  626TMC3    C6 9325   0.854   2.149   0.774 -0.1106  0.3128 -0.4986
  626TMC3     C 9326   1.201   1.936   0.863  0.0838  0.3891 -0.6672
  626TMC3     O 9327   1.177   1.830   0.920 -0.1198  0.4507  0.1075
  626TMC3     H 9328   1.167   2.114   0.663 -0.2655  0.4192 -0.4409
  626TMC3    H1 9329   0.980   1.955   1.009 -1.9312  0.9231  0.5511
  626TMC3    H2 9330   0.760   2.189   0.737 -1.0052 -1.2899  0.0405
  626TMC3    C7 9331   0.737   2.046   0.960  0.4068 -0.0459  0.3164
  626TMC3    C8 9332   0.983   2.279   0.599  0.8432 -0.5919 -0.2617
  626TMC3    O1 9333   0.759   1.962   1.048 -0.5720 -0.0986  0.3340
  626TMC3    O2 9334   1.060   2.256   0.506 -0.3346  0.6841 -0.2990
  627MPD2     C 9335   4.027   2.517  13.893 -0.2792  0.2239 -0.6965
  627MPD2    C1 9336   4.045   2.507  14.028 -0.8486 -0.1804 -0.4061
  627MPD2    C2 9337   3.960   2.426  14.103 -0.0168  0.1555  0.6030
  627MPD2    C3 9338   3.842   2.375  14.053  0.3869  0.4430  0.5355
  627MPD2    C4 9339   3.827   2.391  13.920  0.9997 -0.3792 -0.0460
  627MPD2    C5 9340   3.906   2.466  13.840  0.0106 -0.0841 -0.3478
  627MPD2     H 9341   3.984   2.394  14.204 -0.3805  0.3474  0.7477
  627MPD2    H1 9342   3.749   2.344  13.862  1.0935 -0.8434  0.2050
  627MPD2    H2 9343   4.099   2.569  13.830  0.1996 -1.9081 -1.9128
  627MPD2    H3 9344   3.900   2.469  13.732  0.0274  0.8200 -0.3227
  627MPD2     N 9345   3.760   2.305  14.141  0.4503 -0.3445  0.0599
  627MPD2    H5 9346   3.790   2.323  14.236  0.8989  1.2857 -0.3920
  627MPD2    N1 9347   4.164   2.566  14.091  0.2456 -0.3398  0.2096
  627MPD2    H7 9348   4.222   2.614  14.023 -0.1828 -1.9387 -1.3146
  628TMC3    C1 9349   4.301   2.664  14.253  0.7352  1.0328 -0.0848
  628TMC3    C2 9350   4.424   2.637  14.193  0.0404  0.0174  0.7429
  628TMC3    C3 9351   4.542   2.696  14.235 -0.0259 -0.0561 -0.9159
  628TMC3    C4 9352   4.294   2.737  14.363  0.8131 -0.0580 -0.3896
  628TMC3    C5 9353   4.420   2.794  14.401  0.7020  0.4690  0.1660
  628TMC3    C6 9354   4.543   2.770  14.345 -0.9200 -0.1329  0.2509
  628TMC3     C 9355   4.186   2.579  14.222  0.2356 -0.3990  0.1597
  628TMC3     O 9356   4.104   2.567  14.313  0.0195  0.2800  0.5535
  628TMC3     H 9357   4.429   2.556  14.121 -1.3062  0.4716  0.1484
  628TMC3    H1 9358   4.196   2.749  14.407  0.5901  4.2090 -2.0335
  628TMC3    H2 9359   4.637   2.820  14.366 -0.7076  0.6152 -2.4935
  628TMC3    C7 9360   4.412   2.928  14.463 -0.1946 -0.2701 -0.2063
  628TMC3    C8 9361   4.658   2.642  14.169 -0.1971  0.3045 -0.2268
  628TMC3    O1 9362   4.511   2.953  14.531 -0.7825 -0.3294  0.1294
  628TMC3    O2 9363   4.656   2.605  14.051  0.2762  0.1675  0.3062
  629MPD2     C 9364   2.399   1.214  16.333 -0.3298  0.0861 -0.0993
  629MPD2    C1 9365   2.411   1.073  16.340  0.2703 -0.3301  0.1208
  629MPD2    C2 9366   2.296   1.003  16.380  0.2702  0.4974 -0.5304
  629MPD2    C3 9367   2.176   1.065  16.395 -0.2209 -0.1981  0.0619
  629MPD2    C4 9368   2.171   1.201  16.397 -0.1457 -0.8890  0.6344
  629MPD2    C5 9369   2.280   1.274  16.373 -0.1814 -0.2404 -0.2028
  629MPD2     H 9370   2.299   0.897  16.401 -0.5713  0.4288 -0.7468
  629MPD2    H1 9371   2.076   1.249  16.411 -0.8966 -1.7859 -1.3133
  629MPD2    H2 9372   2.476   1.287  16.309 -1.2211  1.4361  1.2240
  629MPD2    H3 9373   2.284   1.381  16.386 -0.2942 -0.1983 -0.5029
  629MPD2     N 9374   2.043   1.000  16.427 -0.3019  0.0879  0.0059
  629MPD2    H5 9375   1.971   1.067  16.451 -2.0173 -1.1861 -1.6034
  629MPD2    N1 9376   2.538   1.016  16.315 -0.6349 -0.7699  1.1079
  629MPD2    H7 9377   2.618   1.074  16.292 -0.7219 -1.1641 -0.1957
  630TMC3    C1 9378   2.694   0.848  16.252 -0.4191  0.1900  0.0399
  630TMC3    C2 9379   2.753   0.933  16.167  0.0963  0.1822  0.8176
  630TMC3    C3 9380   2.876   0.899  16.118  0.0724 -0.0177 -0.8755
  630TMC3    C4 9381   2.763   0.744  16.306  0.0849  0.2953  0.4735
  630TMC3    C5 9382   2.889   0.721  16.267  0.9003  0.4860 -0.2361
  630TMC3    C6 9383   2.938   0.783  16.156  0.1136 -0.3999  1.0863
  630TMC3     C 9384   2.568   0.883  16.319  0.1222  0.2365  0.5794
  630TMC3     O 9385   2.492   0.789  16.328  0.3062  0.4235 -0.2591
  630TMC3     H 9386   2.694   1.016  16.132  0.2144 -0.5759 -1.1985
  630TMC3    H1 9387   2.728   0.710  16.403 -1.8397  2.3540  0.4834
  630TMC3    H2 9388   3.033   0.751  16.115  0.5134 -0.0478  1.7403
  630TMC3    C7 9389   2.992   0.691  16.365  0.5829 -0.6069 -0.1009
  630TMC3    C8 9390   2.970   0.995  16.080 -0.1524  0.5812 -0.6741
  630TMC3    O1 9391   2.979   0.625  16.463  0.5329 -0.6175 -0.0988
  630TMC3    O2 9392   3.087   0.967  16.106 -0.0155 -0.2166  0.2658
  631MPD2     C 9393   0.809   1.520  15.522  0.2626 -0.3034 -0.6617
  631MPD2    C1 9394   0.902   1.570  15.431 -1.1551  0.1276  0.5990
  631MPD2    C2 9395   1.013   1.500  15.420 -0.3778  0.4342  0.5429
  631MPD2    C3 9396   1.042   1.379  15.476  0.2492 -1.1387  0.2435
  631MPD2    C4 9397   0.945   1.330  15.562  0.3427 -0.6310 -0.5804
  631MPD2    C5 9398   0.838   1.405  15.588  0.1791 -0.0910  0.5463
  631MPD2     H 9399   1.092   1.541  15.358 -0.5320 -0.1862 -0.0655
  631MPD2    H1 9400   0.957   1.244  15.627 -1.2216 -1.5095 -1.4592
  631MPD2    H2 9401   0.719   1.580  15.533  1.2064  0.8589  0.8222
  631MPD2    H3 9402   0.767   1.362  15.659 -2.0978  1.0386 -1.0590
  631MPD2     N 9403   1.167   1.322  15.445 -0.0038 -0.0215  0.4347
  631MPD2    H5 9404   1.230   1.376  15.386 -0.9977  1.0881  0.3933
  631MPD2    N1 9405   0.870   1.682  15.352  1.1808 -0.2469  0.2982
  631MPD2    H7 9406   0.783   1.733  15.365  0.2865 -1.6207 -0.2648
  632TMC3    C1 9407   0.893   1.866  15.201  0.7463 -0.4893 -0.0381
  632TMC3    C2 9408   0.773   1.894  15.263 -0.5560 -0.2832 -0.4077
  632TMC3    C3 9409   0.660   1.902  15.191 -0.5111 -0.4326  0.0773
  632TMC3    C4 9410   0.900   1.840  15.070  0.9487  0.0026  0.2534
  632TMC3    C5 9411   0.781   1.853  15.002 -0.1470 -0.0654  0.1184
  632TMC3    C6 9412   0.657   1.886  15.053 -0.3805  0.0846 -0.4260
  632TMC3     C 9413   0.956   1.744  15.266  0.3701 -0.3230  0.1004
  632TMC3     O 9414   1.049   1.702  15.201 -0.7025 -0.8331 -0.1741
  632TMC3     H 9415   0.773   1.921  15.368 -0.5603 -2.0508  0.0543
  632TMC3    H1 9416   0.997   1.852  15.023  0.5950 -1.4492 -0.8386
  632TMC3    H2 9417   0.565   1.864  15.001 -1.2171  1.0180  0.6821
  632TMC3    C7 9418   0.782   1.794  14.874 -0.4127 -0.7540  1.2605
  632TMC3    C8 9419   0.545   1.856  15.271  0.2868  0.4122 -0.0790
  632TMC3    O1 9420   0.728   1.855  14.778 -1.2750  0.1429 -0.6024
  632TMC3    O2 9421   0.562   1.807  15.385 -0.1340 -0.2424  0.1711
  633MPD2     C 9422   1.015   4.135  17.661  0.6248 -0.6119 -0.2785
  633MPD2    C1 9423   1.029   4.033  17.566  0.5786 -0.3889  0.0749
  633MPD2    C2 9424   1.032   3.903  17.610 -0.1660  0.0762  0.4032
  633MPD2    C3 9425   1.021   3.875   0.011 -0.0206  0.1945  0.2956
  633MPD2    C4 9426   1.035   3.979   0.103  0.0766  0.4613  0.0794
  633MPD2    C5 9427   1.025   4.108   0.059 -0.1941  0.1159  0.0833
  633MPD2     H 9428   1.027   3.822  17.537 -0.2256 -0.9661  1.5613
  633MPD2    H1 9429   1.037   3.959   0.209  0.7689  0.0170 -0.0203
  633MPD2    H2 9430   1.008   4.241  17.639 -1.5505 -0.1077  2.7925
  633MPD2    H3 9431   1.038   4.186   0.134  1.6081  0.5488 -0.6741
  633MPD2     N 9432   1.028   3.750   0.066 -0.3638 -0.9273 -0.1143
  633MPD2    H5 9433   1.052   3.751   0.165 -0.7979  0.7357 -0.0232
  633MPD2    N1 9434   1.052   4.051  17.430 -0.4669  0.8331  0.0660
  633MPD2    H7 9435   1.077   3.965  17.383  1.2263  1.6084 -0.4544
  634TMC3    C1 9436   1.081   4.175  17.226 -0.6287  0.2570 -0.2005
  634TMC3    C2 9437   1.170   4.092  17.171 -0.0328  0.3809 -1.3702
  634TMC3    C3 9438   1.182   4.098  17.033 -0.2070 -0.5731  0.0096
  634TMC3    C4 9439   1.019   4.280  17.158  0.6005 -0.5753  0.4558
  634TMC3    C5 9440   1.046   4.288  17.027  0.1078 -0.5413 -0.2117
  634TMC3    C6 9441   1.134   4.209  16.961 -0.1481  0.1057 -0.2455
  634TMC3     C 9442   1.061   4.176  17.370 -0.5460 -0.5596 -0.2094
  634TMC3     O 9443   1.020   4.281  17.422 -0.1785  0.0108 -0.0739
  634TMC3     H 9444   1.206   4.007  17.228  0.0702  0.1733 -1.7447
  634TMC3    H1 9445   0.923   4.318  17.192  0.7522  0.7501 -0.6272
  634TMC3    H2 9446   1.150   4.220  16.854  1.8355 -0.5807 -0.0152
  634TMC3    C7 9447   0.997   4.396  16.945  0.7292  0.1729  0.3324
  634TMC3    C8 9448   1.229   3.980  16.966 -0.7827 -0.2951  0.3436
  634TMC3    O1 9449   1.027   4.391  16.823  0.4369 -0.2323 -0.0279
  634TMC3    O2 9450   1.223   3.874  17.029 -0.1281  0.3737  0.6656
  635TMC3    C1 9451   1.105   0.206   0.346 -0.3211  0.0676  0.1305
  635TMC3    C2 9452   1.047   0.294   0.431  0.6709 -0.3626 -0.3434
  635TMC3    C3 9453   0.960   0.237   0.515  0.1177  0.2702 -0.6329
  635TMC3    C4 9454   1.105   0.071   0.372 -0.0461  0.5161 -0.2247
  635TMC3    C5 9455   1.029   0.026   0.475  0.9311 -0.1594  0.4193
  635TMC3    C6 9456   0.951   0.110   0.555  0.9172  0.3675  0.0818
  635TMC3     C 9457   1.188   0.267   0.239  0.0316  0.6289  0.0989
  635TMC3     O 9458   1.292   0.209   0.199 -0.0827 -0.2264  0.0840
  635TMC3     H 9459   1.068   0.400   0.425 -0.8404 -0.1675 -2.0883
  635TMC3    H1 9460   1.170   0.010   0.310  0.1483  1.4809 -0.9656
  635TMC3    H2 9461   0.894   0.079   0.641  2.3548 -2.5354 -0.0142
  635TMC3    C7 9462   1.062   4.638   0.540  0.1635 -0.2212 -0.5596
  635TMC3    C8 9463   0.888   0.331   0.593 -0.0056 -0.4241  0.1393
  635TMC3    O1 9464   1.002   4.622   0.643  0.2631  0.1870 -0.2910
  635TMC3    O2 9465   0.890   0.309   0.713 -0.7923  0.2598  0.4441
  636MPD2     C 9466   2.202   4.306  15.427 -0.3720 -1.2984  0.5263
  636MPD2    C1 9467   2.264   4.321  15.554  0.1972 -0.3684 -0.0999
  636MPD2    C2 9468   2.377   4.251  15.582  0.6702 -0.2448 -0.1549
  636MPD2    C3 9469   2.446   4.170  15.497 -0.3316  0.0343  0.2722
  636MPD2    C4 9470   2.368   4.133  15.385 -0.0868 -0.0631  0.4249
  636MPD2    C5 9471   2.250   4.205  15.353  0.7051  0.0739 -0.3072
  636MPD2     H 9472   2.416   4.282  15.678 -1.0225 -0.3983  0.5749
  636MPD2    H1 9473   2.403   4.065  15.309 -1.6793  0.5302 -0.8458
  636MPD2    H2 9474   2.115   4.359  15.391  2.6184  1.3548 -2.7280
  636MPD2    H3 9475   2.204   4.186  15.257 -2.7844 -1.3764  1.6391
  636MPD2     N 9476   2.560   4.112  15.537 -0.2172  0.2123 -0.2916
  636MPD2    H5 9477   2.604   4.149  15.620 -2.9534  1.7369  0.4801
  636MPD2    N1 9478   2.206   4.406  15.652 -0.0061 -0.3913 -0.7076
  636MPD2    H7 9479   2.260   4.430  15.734 -0.1884 -1.0297 -0.4023
  637TMC3    C1 9480   2.731   3.947  15.539  1.1442  0.1565  0.0224
  637TMC3    C2 9481   2.842   4.031  15.531  0.1820 -0.4550  0.2650
  637TMC3    C3 9482   2.960   3.970  15.547 -0.3648 -0.3086 -0.0006
  637TMC3    C4 9483   2.733   3.817  15.553 -0.1410  0.8287 -0.3888
  637TMC3    C5 9484   2.854   3.757  15.562  0.4391 -0.1826 -0.6158
  637TMC3    C6 9485   2.966   3.833  15.567 -0.2640 -0.9273 -0.5008
  637TMC3     C 9486   2.602   3.995  15.485  0.1809 -0.0653 -0.2459
  637TMC3     O 9487   2.548   3.914  15.403 -0.4057  0.2971  0.1105
  637TMC3     H 9488   2.837   4.136  15.506  2.2275  0.0229  1.9078
  637TMC3    H1 9489   2.644   3.756  15.557  0.8684 -0.5606  1.1870
  637TMC3    H2 9490   3.064   3.788  15.575  0.2596  0.3084  0.0676
  637TMC3    C7 9491   2.876   3.648  15.469  0.3269 -0.1371  0.8308
  637TMC3    C8 9492   3.060   4.011  15.458  0.0724 -0.5941  0.5386
  637TMC3    O1 9493   2.972   3.669  15.392 -0.2175  0.1825  0.5180
  637TMC3    O2 9494   3.113   4.116  15.493  0.0776 -0.1434 -0.6091
  638MPD2     C 9495   1.642   2.913  15.137  0.3965 -0.0842  0.2794
  638MPD2    C1 9496   1.701   2.814  15.055 -0.4265 -0.3553  0.1295
  638MPD2    C2 9497   1.706   2.682  15.094 -0.5551 -0.3584  0.4756
  638MPD2    C3 9498   1.639   2.639  15.209  0.6952  0.4609 -0.1889
  638MPD2    C4 9499   1.578   2.737  15.288  0.5545  0.1741 -0.4128
  638MPD2    C5 9500   1.580   2.869  15.256  0.2506 -0.3518  0.2470
  638MPD2     H 9501   1.751   2.605  15.033  0.5532  2.3609 -2.1401
  638MPD2    H1 9502   1.526   2.706  15.378  1.3291 -1.4733 -0.5151
  638MPD2    H2 9503   1.625   3.015  15.106  1.5065  0.0114 -0.0329
  638MPD2    H3 9504   1.525   2.940  15.316  0.1772  0.0322 -0.2784
  638MPD2     N 9505   1.651   2.500  15.235 -0.3851  0.4849  0.4343
  638MPD2    H5 9506   1.705   2.439  15.175 -3.1410  2.2299 -3.8281
  638MPD2    N1 9507   1.733   2.833  14.919 -0.6461  0.0283 -1.0217
  638MPD2    H7 9508   1.778   2.756  14.871 -4.4208 -1.3842 -2.2614
  639TMC3    C1 9509   1.558   2.284  15.289  0.2631 -0.7160  0.3701
  639TMC3    C2 9510   1.471   2.257  15.188  0.1252 -0.1683 -0.4268
  639TMC3    C3 9511   1.517   2.182  15.083 -0.9535  0.0146  0.6345
  639TMC3    C4 9512   1.686   2.246  15.277  0.2903 -0.1158  0.1438
  639TMC3    C5 9513   1.736   2.178  15.170 -0.4163 -0.2438  0.2351
  639TMC3    C6 9514   1.649   2.142  15.070 -0.2708  0.0926 -0.1286
  639TMC3     C 9515   1.562   2.433  15.316  0.1307  0.7356  0.4110
  639TMC3     O 9516   1.481   2.470  15.405  0.9472  0.0342  0.3844
  639TMC3     H 9517   1.369   2.283  15.214 -0.3552 -2.0030 -0.4718
  639TMC3    H1 9518   1.754   2.268  15.359 -1.7700 -0.0624  1.8165
  639TMC3    H2 9519   1.688   2.079  14.991 -0.3193  0.4046 -0.4036
  639TMC3    C7 9520   1.853   2.099  15.196 -0.1171 -0.6743  0.4774
  639TMC3    C8 9521   1.431   2.147  14.977 -0.0438  0.3982  0.4150
  639TMC3    O1 9522   1.878   2.080  15.313  0.2118 -0.5755 -0.3459
  639TMC3    O2 9523   1.500   2.106  14.887  0.1566  0.1906 -0.3259
  640MPD2     C 9524   1.872   1.743   9.694 -0.4531 -0.2847 -0.7168
  640MPD2    C1 9525   1.783   1.831   9.629 -0.2963  0.3144  0.3248
  640MPD2    C2 9526   1.687   1.903   9.701  0.2548  0.5013 -0.0171
  640MPD2    C3 9527   1.680   1.890   9.838 -0.3663  0.1318  0.1817
  640MPD2    C4 9528   1.763   1.802   9.901 -0.7113 -0.0243  0.5160
  640MPD2    C5 9529   1.857   1.728   9.831  0.3610  0.0237 -0.5728
  640MPD2     H 9530   1.632   1.980   9.648 -1.1596 -0.0265  0.6861
  640MPD2    H1 9531   1.733   1.771  10.000 -2.3705 -1.6785 -0.5112
  640MPD2    H2 9532   1.960   1.699   9.650  0.4614 -0.2322  1.0631
  640MPD2    H3 9533   1.919   1.659   9.888  0.8791  1.1871  0.2748
  640MPD2     N 9534   1.584   1.964   9.925 -0.3218  0.3427 -0.0651
  640MPD2    H5 9535   1.571   1.947  10.024  1.3616  0.3222  0.1597
  640MPD2    N1 9536   1.788   1.839   9.484 -0.0411  0.5723  0.3910
  640MPD2    H7 9537   1.876   1.801   9.453 -0.0744 -0.0970  1.1227
  641TMC3    C1 9538   1.732   1.881   9.249  0.3286  0.0687 -0.0059
  641TMC3    C2 9539   1.831   1.798   9.204 -0.4359 -0.0383 -0.2540
  641TMC3    C3 9540   1.873   1.815   9.076  0.1252 -0.0631  0.6194
  641TMC3    C4 9541   1.681   1.979   9.175  0.5338 -0.2145 -0.7990
  641TMC3    C5 9542   1.719   1.985   9.049  0.1540  0.8598  0.4107
  641TMC3    C6 9543   1.815   1.901   8.992 -0.1044  0.2228  0.6416
  641TMC3     C 9544   1.696   1.886   9.395 -0.0124  0.1509  0.0367
  641TMC3     O 9545   1.590   1.937   9.424  0.0055  0.7531  0.2610
  641TMC3     H 9546   1.870   1.722   9.270 -1.0763  0.7540  1.0356
  641TMC3    H1 9547   1.627   2.062   9.220  0.2279 -0.4404 -0.7567
  641TMC3    H2 9548   1.855   1.910   8.892  1.3928 -3.1993  0.9279
  641TMC3    C7 9549   1.668   2.080   8.948 -0.0346 -0.2567  0.8809
  641TMC3    C8 9550   1.954   1.713   9.013 -0.3367 -0.4109  0.0861
  641TMC3    O1 9551   1.725   2.077   8.838  0.0351 -0.1255  0.0148
  641TMC3    O2 9552   1.960   1.719   8.887 -0.0272 -0.0639  0.0077
  642TMC3    C1 9553   3.825   2.762  12.418 -0.3136  0.3692  0.2039
  642TMC3    C2 9554   3.948   2.738  12.356 -0.2605  0.3664  1.1298
  642TMC3    C3 9555   3.953   2.657  12.239 -0.1949 -0.0004  0.7481
  642TMC3    C4 9556   3.720   2.689  12.370 -0.0052 -0.4052 -0.2775
  642TMC3    C5 9557   3.736   2.585  12.279  0.5831 -0.8033  0.2229
  642TMC3    C6 9558   3.853   2.570  12.203  0.0198  0.0277 -0.5002
  642TMC3     C 9559   3.802   2.869  12.512  1.2922 -0.4283  0.4152
  642TMC3     O 9560   3.900   2.931  12.541  0.1755  0.0773  0.2542
  642TMC3     H 9561   4.028   2.807  12.380 -1.0615  1.5870  0.2763
  642TMC3    H1 9562   3.617   2.704  12.400 -0.6925  1.0232 -3.2641
  642TMC3    H2 9563   3.859   2.502  12.119  1.0916 -0.5588  0.0490
  642TMC3    C7 9564   3.629   2.483  12.261  0.3146  0.3767 -0.3646
  642TMC3    C8 9565   4.024   2.717  12.126  0.0082 -0.2054  0.1067
  642TMC3    O1 9566   3.644   2.398  12.173 -0.2191 -0.5917  0.0433
  642TMC3    O2 9567   4.009   2.659  12.020 -0.4428 -0.1576  0.3638
  643TMC3    C1 9568   2.765   1.409  17.538 -0.4550 -0.0634  0.0815
  643TMC3    C2 9569   2.640   1.441  17.488  0.3659 -0.1937 -0.3487
  643TMC3    C3 9570   2.600   1.390  17.367 -0.1566 -0.7723 -0.6625
  643TMC3    C4 9571   2.853   1.324  17.486 -0.7982 -1.0757  0.7004
  643TMC3    C5 9572   2.811   1.266  17.365  1.1830  0.4945 -0.3267
  643TMC3    C6 9573   2.683   1.292  17.316  0.8378  0.9034 -0.2090
  643TMC3     C 9574   2.814   1.516  17.623  0.6762  0.5451 -0.0750
  643TMC3     O 9575   2.763   1.626  17.615 -0.5109  0.1469  0.3240
  643TMC3     H 9576   2.571   1.508  17.538  1.6102  0.5695  0.3440
  643TMC3    H1 9577   2.959   1.326  17.508 -0.6688  3.0569 -0.4155
  643TMC3    H2 9578   2.650   1.226  17.237 -2.9986 -0.4645  2.5373
  643TMC3    C7 9579   2.912   1.274  17.266  0.3857 -0.2557  0.4166
  643TMC3    C8 9580   2.556   1.495  17.279  0.2187 -0.1462  0.3617
  643TMC3    O1 9581   3.001   1.351  17.292  0.2617  0.0542  0.1541
  643TMC3    O2 9582   2.501   1.453  17.178 -0.2689 -0.2771  0.6247
  644MPD2     C 9583   2.055   2.054   9.381 -0.5870  0.0011  0.8282
  644MPD2    C1 9584   2.092   2.017   9.252  0.3287 -0.4191  0.4027
  644MPD2    C2 9585   2.046   2.096   9.154 -1.6700  0.2861  0.1156
  644MPD2    C3 9586   1.966   2.212   9.174 -0.1213 -0.1020 -0.4047
  644MPD2    C4 9587   1.923   2.237   9.303  0.1676 -0.5522  0.0705
  644MPD2    C5 9588   1.969   2.157   9.406  0.5229  0.1807  0.3445
  644MPD2     H 9589   2.073   2.084   9.050 -1.9240 -0.6421  0.1503
  644MPD2    H1 9590   1.863   2.321   9.339  0.8070 -0.4615  0.9289
  644MPD2    H2 9591   2.093   2.005   9.470  1.2543 -1.1782 -0.6220
  644MPD2    H3 9592   1.951   2.195   9.506 -1.4759  3.0578 -1.1006
  644MPD2     N 9593   1.931   2.294   9.071 -0.3293 -0.3411 -0.0344
  644MPD2    H5 9594   1.967   2.264   8.981  1.3962  0.1356  0.4983
  644MPD2    N1 9595   2.192   1.920   9.239  0.3121  0.8936  0.3251
  644MPD2    H7 9596   2.208   1.876   9.329 -0.3932 -0.0297  0.0097
  645TMC3    C1 9597   1.867   2.481   8.943 -0.0617  0.1957  0.0812
  645TMC3    C2 9598   1.961   2.443   8.852  0.5762 -0.0772  0.8266
  645TMC3    C3 9599   1.972   2.521   8.739 -0.6403  0.3564 -0.4515
  645TMC3    C4 9600   1.781   2.587   8.925 -0.0210 -0.4382  0.4939
  645TMC3    C5 9601   1.787   2.657   8.804 -0.3100  0.2410  0.1715
  645TMC3    C6 9602   1.892   2.631   8.719  0.0190 -0.6056  0.3160
  645TMC3     C 9603   1.848   2.408   9.066  0.0173  0.8483  0.5574
  645TMC3     O 9604   1.787   2.455   9.163  0.5499  0.2418 -0.2707
  645TMC3     H 9605   2.035   2.367   8.869  1.4234  0.5869  0.1165
  645TMC3    H1 9606   1.697   2.600   8.992 -0.5788  0.3937 -0.3555
  645TMC3    H2 9607   1.907   2.687   8.627 -1.5664  0.2495  0.5872
  645TMC3    C7 9608   1.696   2.767   8.774  0.5934  0.3558 -0.5180
  645TMC3    C8 9609   2.073   2.505   8.643 -0.3825  0.1259  0.4272
  645TMC3    O1 9610   1.737   2.837   8.683  0.2369 -0.3411  0.4271
  645TMC3    O2 9611   2.126   2.602   8.584  0.2423 -0.3267  0.4697
  646MPD2     C 9612   1.876   1.644  14.383  0.3398 -0.0599 -0.6315
  646MPD2    C1 9613   1.787   1.577  14.467 -0.6694 -0.8946  0.0235
  646MPD2    C2 9614   1.659   1.616  14.464 -0.4388 -0.4912  0.1441
  646MPD2    C3 9615   1.609   1.724  14.388 -0.2232  0.1846 -0.0905
  646MPD2    C4 9616   1.702   1.799  14.320 -0.6012 -0.3492  0.0245
  646MPD2    C5 9617   1.836   1.753  14.317 -0.0367 -0.0313 -0.4846
  646MPD2     H 9618   1.577   1.566  14.515  0.7909 -0.8603  1.7444
  646MPD2    H1 9619   1.674   1.885  14.260  1.7324  1.3797  1.4351
  646MPD2    H2 9620   1.979   1.613  14.368  0.5209  0.2103  0.0406
  646MPD2    H3 9621   1.916   1.801  14.261 -0.7933  1.9182  0.0900
  646MPD2     N 9622   1.468   1.745  14.354  0.1301 -0.0920 -0.1926
  646MPD2    H5 9623   1.402   1.704  14.420  1.7690 -0.4408  1.2412
  646MPD2    N1 9624   1.849   1.479  14.550  0.4231  0.4669 -0.3507
  646MPD2    H7 9625   1.943   1.455  14.519 -0.1324  0.5772 -2.1119
  647TMC3    C1 9626   1.874   1.325  14.738 -0.8281 -0.0898  0.6259
  647TMC3    C2 9627   1.822   1.296  14.861 -0.9259 -0.0724 -0.0142
  647TMC3    C3 9628   1.900   1.236  14.948 -0.5263 -0.0529 -0.1579
  647TMC3    C4 9629   2.003   1.299  14.693 -0.4538 -0.3184  0.3240
  647TMC3    C5 9630   2.076   1.241  14.787  0.3253  0.3214 -0.4336
  647TMC3    C6 9631   2.028   1.203  14.910 -0.8187  0.3119  0.1557
  647TMC3     C 9632   1.792   1.419  14.658  0.4463  0.5118 -0.7259
  647TMC3     O 9633   1.682   1.447  14.699 -0.0028  0.1665  0.3502
  647TMC3     H 9634   1.720   1.320  14.889 -0.1318  1.0965  1.9615
  647TMC3    H1 9635   2.035   1.333  14.595  4.1692  2.3533  2.7432
  647TMC3    H2 9636   2.081   1.144  14.983  0.2317  0.7266 -0.2731
  647TMC3    C7 9637   2.195   1.172  14.750  0.4666 -0.2257  0.4791
  647TMC3    C8 9638   1.855   1.181  15.076 -0.0159 -0.1409 -0.6305
  647TMC3    O1 9639   2.226   1.076  14.820  0.3975 -0.3703  0.0602
  647TMC3    O2 9640   1.935   1.151  15.163  0.1333 -0.2100 -0.0184
  648TMC3    C1 9641   1.558   3.971  16.224  0.3466  0.4442  0.5525
  648TMC3    C2 9642   1.608   3.850  16.175  0.5053  0.6931  0.2362
  648TMC3    C3 9643   1.589   3.818  16.047  0.0440 -0.3779  0.0193
  648TMC3    C4 9644   1.483   4.049  16.143 -0.3728 -0.1510  0.0446
  648TMC3    C5 9645   1.463   4.014  16.009 -0.1863 -0.6991 -0.2207
  648TMC3    C6 9646   1.525   3.903  15.954  0.3010  0.3166 -0.1190
  648TMC3     C 9647   1.584   4.019  16.357  0.4393  0.0673 -0.9650
  648TMC3     O 9648   1.571   4.139  16.376  0.4911  0.3916  0.4442
  648TMC3     H 9649   1.652   3.776  16.243 -0.9624 -0.1384  0.2733
  648TMC3    H1 9650   1.438   4.140  16.183  1.2939  0.8944 -0.5093
  648TMC3    H2 9651   1.508   3.874  15.851 -1.0341 -0.3833  0.3005
  648TMC3    C7 9652   1.374   4.091  15.926 -0.2393 -0.1523  0.0954
  648TMC3    C8 9653   1.565   3.670  16.035  0.2674 -0.6007  0.7987
  648TMC3    O1 9654   1.370   4.065  15.808  0.4542  0.1056  0.3423
  648TMC3    O2 9655   1.539   3.604  16.140  0.0714 -0.0556 -0.5466
  649TMC3    C1 9656   0.163   0.199  12.329 -0.9583  0.0868  0.4719
  649TMC3    C2 9657   0.288   0.181  12.280 -0.1128 -0.3915 -0.1900
  649TMC3    C3 9658   0.374   0.107  12.367  0.3045  0.5211 -0.1693
  649TMC3    C4 9659   0.118   0.139  12.451 -0.2837 -0.0583 -0.9148
  649TMC3    C5 9660   0.205   0.049  12.510  0.0583 -0.1353  0.0286
  649TMC3    C6 9661   0.337   0.043  12.479 -0.1747  0.2746  0.5732
  649TMC3     C 9662   0.067   0.281  12.257 -0.1071 -0.3017 -0.3328
  649TMC3     O 9663   4.693   0.304  12.301  0.3935 -0.3425  0.1286
  649TMC3     H 9664   0.328   0.230  12.192  0.2516  1.9013  1.2497
  649TMC3    H1 9665   0.012   0.136  12.476  0.0974  0.8715  0.7832
  649TMC3    H2 9666   0.405   0.024  12.560 -0.6037 -3.3256  0.0874
  649TMC3    C7 9667   0.173   0.007  12.643  0.0279  1.1089 -0.3175
  649TMC3    C8 9668   0.516   0.131  12.350  0.1964 -0.7125  0.0093
  649TMC3    O1 9669   0.090   0.073  12.697  0.2311 -0.6579  0.1615
  649TMC3    O2 9670   0.592   0.045  12.385  0.0247 -0.1473 -0.3888
  650TMC3    C1 9671   2.957   1.950  13.028  0.4395 -0.0586  0.0654
  650TMC3    C2 9672   2.993   2.079  13.063  0.2315 -0.3435 -0.5458
  650TMC3    C3 9673   2.894   2.173  13.062  0.2295  0.3132  0.2616
  650TMC3    C4 9674   2.832   1.921  12.975 -1.1197 -0.2693  0.2611
  650TMC3    C5 9675   2.737   2.025  12.968  0.0792 -0.1431 -0.0749
  650TMC3    C6 9676   2.771   2.152  13.006  0.3379  0.2193  0.1716
  650TMC3     C 9677   3.050   1.852  13.034 -1.0063 -0.3146 -0.4177
  650TMC3     O 9678   3.171   1.878  13.046 -0.2838  0.0907  0.8550
  650TMC3     H 9679   3.091   2.110  13.098 -0.3030 -1.8938  2.3010
  650TMC3    H1 9680   2.803   1.824  12.936 -0.3616 -0.0335 -0.8862
  650TMC3    H2 9681   2.694   2.228  12.997  0.2828  0.3873  2.1126
  650TMC3    C7 9682   2.649   2.009  12.852  0.1431  1.3581  0.1643
  650TMC3    C8 9683   2.923   2.315  13.084  0.0254 -0.2554  0.6740
  650TMC3    O1 9684   2.631   1.898  12.805  0.3778 -0.6442  0.3837
  650TMC3    O2 9685   3.031   2.367  13.061 -0.2889 -0.4803 -0.1601
  651MPD2     C 9686   1.820   3.764  10.622 -0.2476 -0.2034  0.2869
  651MPD2    C1 9687   1.772   3.893  10.610 -0.0721 -0.1718 -0.7291
  651MPD2    C2 9688   1.866   3.989  10.579  0.0412 -0.0099 -0.3519
  651MPD2    C3 9689   2.002   3.969  10.560 -0.1414 -1.1142  0.0959
  651MPD2    C4 9690   2.034   3.836  10.564  0.9583 -0.4915  0.2317
  651MPD2    C5 9691   1.944   3.736  10.584  0.3220  0.7217 -0.3584
  651MPD2     H 9692   1.830   4.091  10.578  0.0781  0.0086  0.3506
  651MPD2    H1 9693   2.134   3.802  10.538  0.6791 -0.4821 -0.8510
  651MPD2    H2 9694   1.757   3.684  10.659 -0.8337 -0.1068 -0.4935
  651MPD2    H3 9695   1.971   3.631  10.580  1.0253  0.8793  0.1568
  651MPD2     N 9696   2.093   4.076  10.549 -0.8006 -0.4087  0.2760
  651MPD2    H5 9697   2.058   4.171  10.546 -1.6423 -0.6918  1.2587
  651MPD2    N1 9698   1.640   3.948  10.636 -0.0545 -0.1970 -0.1881
  651MPD2    H7 9699   1.621   4.045  10.614 -0.6885 -0.8065 -2.3817
  652TMC3    C1 9700   2.470   4.340  10.564  0.2143  0.2630  0.0451
  652TMC3    C2 9701   2.411   4.219  10.574 -0.4079  0.8718  0.8188
  652TMC3    C3 9702   2.290   4.197  10.513 -0.0293 -0.4676  0.6713
  652TMC3    C4 9703   2.410   4.440  10.488 -0.1152  1.1924 -0.0336
  652TMC3    C5 9704   2.291   4.412  10.425  0.1130 -0.4649 -0.4028
  652TMC3    C6 9705   2.224   4.286  10.436 -0.1581  0.2061 -0.7901
  652TMC3     C 9706   2.607   4.345  10.610  0.3360  0.3291 -0.2659
  652TMC3     O 9707   2.650   4.255  10.680  0.6526 -0.1169 -0.3807
  652TMC3     H 9708   2.456   4.145  10.639 -2.5016  0.9276  2.3305
  652TMC3    H1 9709   2.438   4.543  10.507 -0.2016  0.9530  1.3841
  652TMC3    H2 9710   2.127   4.267  10.392 -0.1384 -0.6179 -0.4926
  652TMC3    C7 9711   2.254   4.516  10.329  0.2158 -0.3281 -0.1018
  652TMC3    C8 9712   2.228   4.063  10.539  0.1511  0.7727  0.5569
  652TMC3    O1 9713   2.348   4.592  10.296 -0.1640  0.4361  0.0888
  652TMC3    O2 9714   2.299   3.965  10.550  0.2244  0.1109  0.2392
  653MPD2     C 9715   0.665   3.815  17.692  0.2183  0.0788 -0.4558
  653MPD2    C1 9716   0.634   3.915  17.596 -0.8784 -0.7213  0.0563
  653MPD2    C2 9717   0.594   3.875  17.475 -0.2470 -0.3098  0.1623
  653MPD2    C3 9718   0.565   3.741  17.446 -0.0130  0.3205 -1.4782
  653MPD2    C4 9719   0.568   3.648  17.548  0.5236  0.1831 -0.4403
  653MPD2    C5 9720   0.620   3.688  17.668  0.9330 -0.0173 -0.4298
  653MPD2     H 9721   0.591   3.943  17.390  0.0907  0.2635  0.6085
  653MPD2    H1 9722   0.530   3.547  17.541  2.2043 -0.6487  2.3572
  653MPD2    H2 9723   0.709   3.829   0.051  1.0854  1.2885 -1.0225
  653MPD2    H3 9724   0.629   3.617   0.009 -1.0172 -0.1461 -0.3294
  653MPD2     N 9725   0.507   3.703  17.318 -0.6105  0.3084  0.0202
  653MPD2    H5 9726   0.505   3.772  17.243  0.9590  0.1299 -0.1961
  653MPD2    N1 9727   0.659   4.051  17.620 -0.5601 -0.1562 -0.4177
  653MPD2    H7 9728   0.649   4.115  17.542  0.3800  0.9204  0.3542
  654TMC3    C1 9729   0.414   3.559  17.162 -0.1007  0.4123 -0.1184
  654TMC3    C2 9730   0.315   3.636  17.104  0.6356 -1.0388  0.5253
  654TMC3    C3 9731   0.235   3.577  17.002 -0.1772  0.2757  0.5054
  654TMC3    C4 9732   0.430   3.427  17.120  0.1922  0.2491 -1.0532
  654TMC3    C5 9733   0.346   3.369  17.030 -0.1512 -0.3076  0.1980
  654TMC3    C6 9734   0.251   3.445  16.965 -0.6884  0.3077  0.2702
  654TMC3     C 9735   0.471   3.574  17.292 -0.4117 -0.3020 -0.7460
  654TMC3     O 9736   0.454   3.474  17.364 -0.4512  0.0549  0.1920
  654TMC3     H 9737   0.296   3.737  17.138 -0.1388 -0.5584 -1.3019
  654TMC3    H1 9738   0.513   3.378  17.170  0.4165  0.0804 -1.5937
  654TMC3    H2 9739   0.188   3.397  16.891  0.8193  2.2783 -2.2702
  654TMC3    C7 9740   0.288   3.255  17.086 -0.1914  0.3612 -0.1140
  654TMC3    C8 9741   0.127   3.656  16.944  0.1970 -0.3573  0.3864
  654TMC3    O1 9742   0.168   3.247  17.091  0.3677 -0.0597 -0.2867
  654TMC3    O2 9743   0.105   3.760  17.009  0.4113  0.4729 -0.0620
  655MPD2     C 9744   1.907   4.078  15.631 -0.2098  0.4196  0.1959
  655MPD2    C1 9745   1.775   4.124  15.611  0.3883 -0.0605 -0.0608
  655MPD2    C2 9746   1.689   4.063  15.518 -0.4095  0.1222 -0.2695
  655MPD2    C3 9747   1.750   3.964  15.436  0.1114  0.3242 -0.4361
  655MPD2    C4 9748   1.882   3.928  15.451 -0.2909 -0.1575  0.7387
  655MPD2    C5 9749   1.956   3.986  15.546 -0.4519  0.7767  0.1483
  655MPD2     H 9750   1.590   4.106  15.509  0.9031  3.8256  2.7499
  655MPD2    H1 9751   1.927   3.857  15.384  1.4726  2.1557 -0.5326
  655MPD2    H2 9752   1.974   4.120  15.705 -1.3282  1.1035  0.8273
  655MPD2    H3 9753   2.058   3.961  15.571 -1.2640  1.9906  4.7735
  655MPD2     N 9754   1.679   3.903  15.330 -0.2483 -0.2940  0.1385
  655MPD2    H5 9755   1.735   3.851  15.263 -0.3914  0.7279 -0.7823
  655MPD2    N1 9756   1.711   4.225  15.679  0.6327 -0.0743 -0.6346
  655MPD2    H7 9757   1.623   4.256  15.638 -0.2787 -0.7980  0.7905
  656TMC3    C1 9758   1.679   4.396  15.825 -0.3891  0.0838  0.2201
  656TMC3    C2 9759   1.636   4.396  15.952 -0.6317 -0.4971 -0.6472
  656TMC3    C3 9760   1.540   4.479  15.985 -0.7229 -0.5618 -0.0082
  656TMC3    C4 9761   1.622   4.470  15.725 -0.0545  0.1108 -0.7033
  656TMC3    C5 9762   1.541   4.569  15.763  1.2539 -0.4103  0.4235
  656TMC3    C6 9763   1.499   4.581  15.898  0.1005 -0.4842  0.1929
  656TMC3     C 9764   1.759   4.290  15.785 -0.5293  0.7288  0.0814
  656TMC3     O 9765   1.851   4.259  15.860  0.5965  0.3595  0.0815
  656TMC3     H 9766   1.677   4.340  16.035 -0.6885  1.0517  0.4261
  656TMC3    H1 9767   1.670   4.467  15.628  1.3790  2.5565 -0.0834
  656TMC3    H2 9768   1.438   4.663  15.935  0.5656 -0.3220  0.6004
  656TMC3    C7 9769   1.471   4.635  15.648 -0.7626 -0.0507 -0.1889
  656TMC3    C8 9770   1.475   4.456  16.116 -0.9614  0.1531 -0.7418
  656TMC3    O1 9771   1.536   4.656  15.543 -0.1862 -0.3808  0.1813
  656TMC3    O2 9772   1.496   4.347  16.168  0.2460 -0.6126  0.1234
  657TMC3    C1 9773   0.263   3.802  15.333 -0.0834 -0.4363  0.1687
  657TMC3    C2 9774   0.364   3.863  15.406 -0.4385  0.8799 -0.0263
  657TMC3    C3 9775   0.388   3.995  15.370 -0.0672 -0.0597 -0.2770
  657TMC3    C4 9776   0.191   3.866  15.242  0.0081 -0.6565  0.2916
  657TMC3    C5 9777   0.220   3.999  15.209  0.2030 -0.4256 -0.2579
  657TMC3    C6 9778   0.321   4.067  15.271  0.1680 -0.4470  0.1259
  657TMC3     C 9779   0.228   3.658  15.341 -0.2823  0.4775  0.2804
  657TMC3     O 9780   0.114   3.625  15.306  0.5325 -0.4842 -0.0050
  657TMC3     H 9781   0.416   3.812  15.487  0.4129  0.8642 -0.5781
  657TMC3    H1 9782   0.108   3.817  15.191 -0.9544 -0.4055  1.6182
  657TMC3    H2 9783   0.350   4.169  15.248  1.5779 -0.8568  0.0988
  657TMC3    C7 9784   0.154   4.063  15.100  0.5686  0.1621 -0.1207
  657TMC3    C8 9785   0.487   4.073  15.447  0.0003 -0.1332 -0.3524
  657TMC3    O1 9786   0.041   4.024  15.071 -0.2639  0.0207  0.0872
  657TMC3    O2 9787   0.499   4.194  15.423 -0.4511 -0.5065 -0.3666
  658MPD2     C 9788   1.978   3.628  14.877  0.2099 -0.0335 -0.5390
  658MPD2    C1 9789   1.864   3.672  14.809 -0.3246  0.4785 -0.6287
  658MPD2    C2 9790   1.868   3.678  14.668  0.0042 -0.6938  0.5262
  658MPD2    C3 9791   1.970   3.618  14.598  0.0041 -0.2289 -0.2400
  658MPD2    C4 9792   2.070   3.561  14.669  0.1769 -0.2478  0.0622
  658MPD2    C5 9793   2.079   3.563  14.805 -0.3239  0.5274  0.0378
  658MPD2     H 9794   1.789   3.727  14.614  0.7504  0.7267  0.7140
  658MPD2    H1 9795   2.151   3.510  14.618  1.3891  0.9735  0.7926
  658MPD2    H2 9796   1.987   3.643  14.984  0.2673 -1.5972 -0.3296
  658MPD2    H3 9797   2.158   3.515  14.862 -2.0931 -0.1352  1.9348
  658MPD2     N 9798   1.963   3.626  14.459  0.7881 -0.3319 -0.2977
  658MPD2    H5 9799   1.882   3.673  14.421  0.4181 -0.1542  0.7313
  658MPD2    N1 9800   1.762   3.723  14.885 -0.5098  0.2818 -0.2800
  658MPD2    H7 9801   1.779   3.716  14.985  0.8456  1.0793 -0.4543
  659TMC3    C1 9802   1.542   3.799  14.948 -0.6142 -0.3092 -0.4495
  659TMC3    C2 9803   1.582   3.815  15.077  0.5668 -0.4044  0.1287
  659TMC3    C3 9804   1.503   3.884  15.164  0.3268  0.5330 -0.1106
  659TMC3    C4 9805   1.421   3.836  14.909  0.5083  0.2047  1.3547
  659TMC3    C5 9806   1.346   3.901  14.996 -0.0301  0.0457  0.2246
  659TMC3    C6 9807   1.383   3.937  15.119 -0.5690  0.5516  0.3241
  659TMC3     C 9808   1.644   3.780  14.841  0.2642 -0.6304  0.2562
  659TMC3     O 9809   1.614   3.811  14.729 -0.8891 -0.6786 -0.0456
  659TMC3     H 9810   1.683   3.798  15.113  0.6506 -2.5562 -1.1944
  659TMC3    H1 9811   1.396   3.818  14.805  0.1334  0.0761  1.4654
  659TMC3    H2 9812   1.314   3.992  15.182 -2.2784 -1.4423  0.2158
  659TMC3    C7 9813   1.212   3.939  14.958  0.2008 -0.0213 -0.7539
  659TMC3    C8 9814   1.549   3.939  15.296  0.5370  0.2607  0.7077
  659TMC3    O1 9815   1.162   4.035  15.015 -0.3920  0.2722 -0.0602
  659TMC3    O2 9816   1.459   3.999  15.353 -0.0356  0.5173 -0.4149
  660MPD2     C 9817   4.635   3.149  12.585 -0.3202 -0.4394  0.5137
  660MPD2    C1 9818   4.506   3.202  12.564  0.0691  0.6495  0.4183
  660MPD2    C2 9819   4.405   3.136  12.632 -0.3218  0.4848 -0.1808
  660MPD2    C3 9820   4.427   3.037  12.727 -0.4404  0.6671  0.8270
  660MPD2    C4 9821   4.555   3.002  12.757  0.3633  0.3458 -0.0684
  660MPD2    C5 9822   4.662   3.057  12.680 -0.5632  0.7039 -0.2540
  660MPD2     H 9823   4.305   3.173  12.613  0.1745  1.9739  0.0562
  660MPD2    H1 9824   4.576   2.921  12.826  0.7405  0.9303  0.5024
  660MPD2    H2 9825   4.718   3.185  12.526 -1.1339  1.6967  0.6950
  660MPD2    H3 9826   0.031   3.026  12.688 -0.4548  1.4171  1.3275
  660MPD2     N 9827   4.325   2.976  12.804 -0.7109  0.3368  0.2819
  660MPD2    H5 9828   4.354   2.896  12.860  2.9107  0.9093 -0.7778
  660MPD2    N1 9829   4.491   3.300  12.462  0.5340 -0.1442 -0.0271
  660MPD2    H7 9830   4.572   3.320  12.403  1.0784  0.4482  0.9178
  661TMC3    C1 9831   4.352   3.414  12.303  0.1895 -0.0922 -0.1178
  661TMC3    C2 9832   4.456   3.413  12.215  0.6522  0.6727 -0.1157
  661TMC3    C3 9833   4.429   3.456  12.088 -0.0549  0.0762  0.2980
  661TMC3    C4 9834   4.217   3.435  12.270  0.3905 -0.2773  0.2504
  661TMC3    C5 9835   4.197   3.458  12.132  0.4617 -0.3029  0.3165
  661TMC3    C6 9836   4.301   3.465  12.043  1.3216  0.8937  0.1712
  661TMC3     C 9837   4.370   3.362  12.442  0.3411 -0.1796  0.8104
  661TMC3     O 9838   4.272   3.373  12.517  0.0078 -0.2215 -0.1064
  661TMC3     H 9839   4.555   3.424  12.256  1.2836 -0.9445 -1.1657
  661TMC3    H1 9840   4.134   3.441  12.339 -0.0231  1.0006 -0.3594
  661TMC3    H2 9841   4.280   3.474  11.937 -0.4212  0.4405  0.4904
  661TMC3    C7 9842   4.069   3.404  12.079  0.4887 -0.2841 -0.4123
  661TMC3    C8 9843   4.515   3.427  11.975 -0.3137  0.0121 -0.6947
  661TMC3    O1 9844   4.071   3.387  11.958 -0.2531 -0.4335  0.2836
  661TMC3    O2 9845   4.500   3.493  11.871 -0.4996  0.2836  0.6505
  662MPD2     C 9846   0.217   2.434  17.406 -0.2254 -0.2076 -0.6446
  662MPD2    C1 9847   0.161   2.333  17.481 -0.0253  0.5941 -0.0992
  662MPD2    C2 9848   0.088   2.359  17.593 -0.2557  0.5836  0.5919
  662MPD2    C3 9849   0.066   2.491  17.634  1.0928 -0.3658  0.3575
  662MPD2    C4 9850   0.115   2.596  17.557 -0.7644 -0.0607 -0.6281
  662MPD2    C5 9851   0.185   2.565  17.445  0.2000  0.0067  0.5391
  662MPD2     H 9852   0.068   2.274  17.657  2.8482 -1.2734 -0.9325
  662MPD2    H1 9853   0.087   2.696  17.588 -0.4738 -0.8807  2.1875
  662MPD2    H2 9854   0.280   2.418  17.319 -2.0211  0.6864 -2.1168
  662MPD2    H3 9855   0.225   2.647  17.387 -1.0377  0.9543  1.0332
  662MPD2     N 9856   4.715   2.540  17.739 -0.3518  0.1407  0.2360
  662MPD2    H5 9857   4.678   2.635  17.738 -0.3722  0.1351  0.6505
  662MPD2    N1 9858   0.198   2.198  17.461  0.1883 -0.3241 -0.2382
  662MPD2    H7 9859   0.172   2.131  17.533  1.1409 -0.9239 -0.4411
  663TMC3    C1 9860   0.196   2.012  17.329  0.4818 -0.0268  0.9977
  663TMC3    C2 9861   0.221   1.943  17.442 -0.0712 -0.3987  1.1787
  663TMC3    C3 9862   0.183   1.812  17.446 -0.3014  0.1715  0.0359
  663TMC3    C4 9863   0.108   1.976  17.239 -0.6232  0.3342 -0.3853
  663TMC3    C5 9864   0.056   1.854  17.249  0.4719 -0.9288  0.3346
  663TMC3    C6 9865   0.092   1.774  17.355  0.7951 -0.2468 -0.0800
  663TMC3     C 9866   0.222   2.152  17.338  0.6465 -0.3921 -0.1487
  663TMC3     O 9867   0.212   2.211  17.229  0.2990 -0.0386  0.6565
  663TMC3     H 9868   0.302   1.967  17.511 -1.4394  3.0718  1.5835
  663TMC3    H1 9869   0.091   2.031  17.147  1.6861 -1.9176 -2.1475
  663TMC3    H2 9870   0.082   1.667  17.363 -1.3206 -0.1746 -1.6677
  663TMC3    C7 9871   0.018   1.787  17.125  0.0112  0.5783 -0.0673
  663TMC3    C8 9872   0.149   1.771  17.581 -0.2292 -0.4660  0.1331
  663TMC3    O1 9873   0.041   1.845  17.019 -0.0677  0.2717  0.6073
  663TMC3    O2 9874   0.245   1.727  17.645  0.1731  0.5183  0.1897
  664MPD2     C 9875   2.919   0.180  17.059 -0.1313  0.7620 -0.2552
  664MPD2    C1 9876   2.939   0.301  17.125  0.0799  0.0084  0.1322
  664MPD2    C2 9877   2.925   0.306  17.266 -0.1417 -0.1294  0.2049
  664MPD2    C3 9878   2.869   0.195  17.335 -0.3897  0.7323  0.0173
  664MPD2    C4 9879   2.834   0.086  17.265  0.2427  0.0341  0.3374
  664MPD2    C5 9880   2.870   0.075  17.131  0.2505 -0.2613 -0.4015
  664MPD2     H 9881   2.947   0.399  17.318  2.4829 -0.5936 -0.0566
  664MPD2    H1 9882   2.793   4.730  17.307  1.1832  0.1500  1.4913
  664MPD2    H2 9883   2.939   0.168  16.953  0.5084 -1.0110  0.0665
  664MPD2    H3 9884   2.861   4.714  17.082  0.9415 -2.2708  3.4484
  664MPD2     N 9885   2.844   0.200  17.475 -0.4717 -0.4847 -0.1558
  664MPD2    H5 9886   2.857   0.291  17.517 -2.6505 -0.8554  1.2981
  664MPD2    N1 9887   3.006   0.402  17.058  0.2264 -0.5034 -0.3647
  664MPD2    H7 9888   3.042   0.373  16.967 -1.1134  0.5973 -1.2582
  665TMC3    C1 9889   2.797   0.117  17.693 -0.1594  0.1375 -0.1764
  665TMC3    C2 9890   2.716   0.030   0.030  0.3090  0.6425  0.0725
  665TMC3    C3 9891   2.686   0.060   0.164  0.1385  0.0293  0.2471
  665TMC3    C4 9892   2.854   0.226   0.016 -0.0385 -0.7170  0.0930
  665TMC3    C5 9893   2.824   0.253   0.146  0.0254 -0.1616  0.1788
  665TMC3    C6 9894   2.738   0.176   0.219 -0.4453  0.2839 -0.6694
  665TMC3     C 9895   2.806   0.089  17.553 -0.9932  0.8932  0.7784
  665TMC3     O 9896   2.772   4.709  17.526  0.3925 -0.2397 -0.1200
  665TMC3     H 9897   2.663   4.689  17.714  0.4454  1.9855 -1.9094
  665TMC3    H1 9898   2.920   0.290  17.697  0.0597 -0.8056  0.1065
  665TMC3    H2 9899   2.701   0.204   0.316  1.2972  1.3904 -0.3217
  665TMC3    C7 9900   2.824   0.392   0.181  0.1620  0.3287 -0.2803
  665TMC3    C8 9901   2.585   4.727   0.249  0.4272 -0.1277  0.5183
  665TMC3    O1 9902   2.834   0.467   0.087 -0.0237  0.5793 -0.6222
  665TMC3    O2 9903   2.584   0.011   0.366 -0.0136  0.3484  0.2613
  666TMC3    C1 9904   1.757   1.395   9.589  0.1250 -0.1487 -0.3547
  666TMC3    C2 9905   1.819   1.299   9.663 -0.7061  0.0607  0.3856
  666TMC3    C3 9906   1.798   1.301   9.800  0.1618  0.2759 -0.6387
  666TMC3    C4 9907   1.683   1.500   9.637  0.9549  0.9423 -0.1180
  666TMC3    C5 9908   1.658   1.490   9.772 -0.1727 -0.6573  0.1528
  666TMC3    C6 9909   1.709   1.391   9.853  0.4598 -0.4380  0.0298
  666TMC3     C 9910   1.773   1.392   9.443 -0.3763 -0.3281  0.0306
  666TMC3     O 9911   1.702   1.466   9.377  0.4509  0.1546 -0.1179
  666TMC3     H 9912   1.875   1.216   9.621  0.0720 -0.9393  3.4570
  666TMC3    H1 9913   1.639   1.578   9.575 -1.8715 -0.6466 -0.1178
  666TMC3    H2 9914   1.675   1.376   9.955 -0.0981  1.3888  0.1070
  666TMC3    C7 9915   1.554   1.566   9.837 -0.0802 -0.2484  0.1080
  666TMC3    C8 9916   1.866   1.196   9.878 -0.1548  0.3365 -0.0200
  666TMC3    O1 9917   1.548   1.557   9.957  0.3633 -0.2619  0.5529
  666TMC3    O2 9918   1.936   1.114   9.822  0.2218 -0.0673 -0.1919
  667MPD2     C 9919   3.423   0.598  14.376  0.4258 -0.8595  0.8837
  667MPD2    C1 9920   3.406   0.615  14.505  0.4089 -0.6120 -0.5592
  667MPD2    C2 9921   3.318   0.531  14.572  0.5997 -0.0943  0.4330
  667MPD2    C3 9922   3.239   0.441  14.505  0.2371 -0.1676  0.0609
  667MPD2    C4 9923   3.264   0.428  14.370 -0.3932  0.8635 -0.4682
  667MPD2    C5 9924   3.352   0.503  14.308  0.2113 -0.0298 -0.6611
  667MPD2     H 9925   3.307   0.540  14.679  0.5991 -0.4450  0.4623
  667MPD2    H1 9926   3.213   0.353  14.311  0.9565  1.3682 -2.2871
  667MPD2    H2 9927   3.489   0.653  14.309 -2.3141  0.1778 -0.9403
  667MPD2    H3 9928   3.347   0.503  14.199 -2.1306 -1.2935 -0.5565
  667MPD2     N 9929   3.156   0.347  14.573 -0.5744 -1.0852 -0.0576
  667MPD2    H5 9930   3.126   0.267  14.518 -0.8191  0.4871 -2.2202
  667MPD2    N1 9931   3.469   0.716  14.577 -0.1359  0.5426  0.4777
  667MPD2    H7 9932   3.449   0.715  14.677 -1.6205 -2.5107  0.1661
  668TMC3    C1 9933   3.590   0.893  14.651 -0.2596 -0.2705 -1.2599
  668TMC3    C2 9934   3.618   1.028  14.643 -0.0334 -0.6303 -0.1472
  668TMC3    C3 9935   3.621   1.106  14.755  0.1390  0.4322 -0.1224
  668TMC3    C4 9936   3.584   0.835  14.781  0.0451 -0.4502 -0.2784
  668TMC3    C5 9937   3.600   0.916  14.891 -0.2155 -0.2003 -0.0593
  668TMC3    C6 9938   3.613   1.053  14.884 -0.3137 -0.1592  0.0100
  668TMC3     C 9939   3.546   0.822  14.537  0.0611 -0.0872  0.9991
  668TMC3     O 9940   3.608   0.826  14.431 -0.0206  0.4171 -0.1253
  668TMC3     H 9941   3.618   1.074  14.545 -1.5405 -0.7545 -0.2083
  668TMC3    H1 9942   3.605   0.729  14.788 -1.4016 -0.7514 -0.4005
  668TMC3    H2 9943   3.615   1.115  14.974 -0.1048 -2.1750  1.3886
  668TMC3    C7 9944   3.640   0.853  15.016  0.3168  0.8116 -0.1011
  668TMC3    C8 9945   3.678   1.235  14.741 -0.4935  0.0362 -0.8335
  668TMC3    O1 9946   3.712   0.917  15.089 -0.0113  0.0690 -0.2114
  668TMC3    O2 9947   3.674   1.309  14.843  0.0484  0.2287 -0.7011
  669TMC3    C1 9948   1.437   1.047  14.421 -0.0265  0.3586 -0.0421
  669TMC3    C2 9949   1.341   0.984  14.351 -0.0559  0.0849  0.4058
  669TMC3    C3 9950   1.332   1.007  14.220 -0.1038 -0.1956 -0.7066
  669TMC3    C4 9951   1.538   1.121  14.356 -0.4438  0.8165  0.3359
  669TMC3    C5 9952   1.523   1.137  14.221  0.0520 -0.5591 -0.4873
  669TMC3    C6 9953   1.421   1.080  14.148  0.3418  0.2597  0.3752
  669TMC3     C 9954   1.472   0.981  14.541 -0.2421  0.3653  0.0166
  669TMC3     O 9955   1.393   0.903  14.592  0.3988 -0.0634  0.4086
  669TMC3     H 9956   1.271   0.923  14.406  0.5583 -0.5462  0.4823
  669TMC3    H1 9957   1.609   1.180  14.412  0.3859 -0.9088  1.0802
  669TMC3    H2 9958   1.420   1.091  14.040 -1.3487  1.7929  0.5399
  669TMC3    C7 9959   1.653   1.170  14.167 -0.0601 -0.1482 -0.1712
  669TMC3    C8 9960   1.275   0.900  14.141 -0.2653  0.1002 -0.1066
  669TMC3    O1 9961   1.744   1.139  14.238  0.3128 -0.1120 -0.0370
  669TMC3    O2 9962   1.275   0.799  14.208  1.1630  0.2116  0.1497
  670MPD2     C 9963   4.272   3.370  13.217 -0.1168  0.3849 -0.0665
  670MPD2    C1 9964   4.402   3.357  13.253 -1.1724  0.2926  0.1045
  670MPD2    C2 9965   4.424   3.346  13.387 -0.0601 -0.4741 -0.2603
  670MPD2    C3 9966   4.335   3.373  13.483  0.2345  0.5775  0.2696
  670MPD2    C4 9967   4.208   3.400  13.442  0.6021  0.7899  0.5041
  670MPD2    C5 9968   4.170   3.395  13.309 -0.0759  0.3402  0.2626
  670MPD2     H 9969   4.525   3.314  13.411 -0.2098 -1.9854 -1.6864
  670MPD2    H1 9970   4.128   3.419  13.513 -0.1661  1.4105 -0.5148
  670MPD2    H2 9971   4.241   3.381  13.113 -0.0698 -0.4511 -0.1704
  670MPD2    H3 9972   4.070   3.425  13.281  0.1919  0.2627 -0.7875
  670MPD2     N 9973   4.381   3.373  13.617  0.0080  0.1656 -0.1872
  670MPD2    H5 9974   4.479   3.363  13.641 -0.3953 -1.3288  0.8857
  670MPD2    N1 9975   4.508   3.341  13.160  0.6533 -0.7270  0.3321
  670MPD2    H7 9976   4.601   3.317  13.194 -0.0144 -2.4606  0.9098
  671TMC3    C1 9977   4.341   3.350  13.837 -0.3753  0.7412  0.0334
  671TMC3    C2 9978   4.476   3.347  13.855 -0.6231 -0.4891  0.2460
  671TMC3    C3 9979   4.511   3.263  13.955  0.5623 -0.2432 -0.8428
  671TMC3    C4 9980   4.246   3.277  13.903  0.5757  0.2357 -0.6716
  671TMC3    C5 9981   4.287   3.190  14.001  0.8558  0.4179  0.1136
  671TMC3    C6 9982   4.423   3.181  14.018 -0.0448  0.3846  0.2417
  671TMC3     C 9983   4.289   3.401  13.716 -0.6011  0.3946 -0.7749
  671TMC3     O 9984   4.163   3.412  13.717  0.2611  0.2097  0.2045
  671TMC3     H 9985   4.552   3.418  13.826 -2.4655  1.3850  0.0142
  671TMC3    H1 9986   4.139   3.282  13.888  0.3810 -2.1641  0.0099
  671TMC3    H2 9987   4.458   3.105  14.087  1.3132 -1.8188 -2.9096
  671TMC3    C7 9988   4.218   3.066  14.008 -0.3222  0.0517  0.1823
  671TMC3    C8 9989   4.650   3.218  13.954  0.8219  0.9564  0.7947
  671TMC3    O1 9990   4.282   2.965  14.016 -0.3247  0.3425 -0.0235
  671TMC3    O2 9991   4.709   3.210  13.846  0.4041 -0.1362  0.0844
  672MPD2     C 9992   0.634   3.366   1.133  0.5414 -0.3671  0.2332
  672MPD2    C1 9993   0.743   3.355   1.050  0.6782 -0.3127  0.2272
  672MPD2    C2 9994   0.870   3.396   1.084 -0.3000 -0.1463  1.0080
  672MPD2    C3 9995   0.883   3.476   1.197  0.3660  0.1554  0.8433
  672MPD2    C4 9996   0.771   3.512   1.267 -0.7462  0.2226 -0.3283
  672MPD2    C5 9997   0.648   3.452   1.242 -0.5962 -0.3014  0.1893
  672MPD2     H 9998   0.959   3.365   1.031 -0.6153 -1.3970  1.2086
  672MPD2    H1 9999   0.787   3.588   1.343  0.1380 -1.5131  1.2151
  672MPD2    H210000   0.531   3.331   1.130 -0.2358  1.9461  0.1065
  672MPD2    H310001   0.564   3.468   1.309 -1.2987  0.3235 -0.8489
  672MPD2     N10002   0.997   3.537   1.233  0.0218  0.0843  0.1209
  672MPD2    H510003   0.993   3.606   1.307 -1.6717  0.1074  0.0182
  672MPD2    N110004   0.728   3.309   0.915 -0.3010 -0.2918 -0.3999
  672MPD2    H710005   0.814   3.296   0.862 -0.9963  0.6268 -1.7591
  673TMC3    C110006   0.618   3.213   0.725  0.1781 -0.5562 -0.6898
  673TMC3    C210007   0.738   3.192   0.659 -0.1528 -0.8919  0.0855
  673TMC3    C310008   0.735   3.151   0.529 -0.5910 -0.1398  0.0258
  673TMC3    C410009   0.498   3.179   0.671  0.9861 -0.6578 -0.0621
  673TMC3    C510010   0.498   3.111   0.550  0.2065  0.1631  0.3492
  673TMC3    C610011   0.614   3.110   0.475  0.0914  0.2192 -0.4379
  673TMC3     C10012   0.610   3.281   0.855  0.0226  0.1351  0.5446
  673TMC3     O10013   0.498   3.318   0.888 -0.0933 -0.5891 -0.1912
  673TMC3     H10014   0.836   3.226   0.692 -1.0931  2.1585 -0.2792
  673TMC3    H110015   0.407   3.221   0.713  1.3297  0.7485 -0.7577
  673TMC3    H210016   0.612   3.080   0.371  2.9958  2.2106 -1.0547
  673TMC3    C710017   0.389   3.149   0.462 -0.4263 -0.5719 -0.0903
  673TMC3    C810018   0.851   3.094   0.475  0.6518 -0.2073 -0.1061
  673TMC3    O110019   0.335   3.063   0.397  0.2441 -0.5233 -0.7337
  673TMC3    O210020   0.848   3.075   0.355 -1.5245 -1.0983  0.2082
  674MPD2     C10021   4.734   3.629  17.557 -0.5005  0.0473  0.0783
  674MPD2    C110022   4.696   3.519  17.625 -0.7366 -0.4551  0.3193
  674MPD2    C210023   4.576   3.525  17.693 -1.1341 -0.2787  0.3294
  674MPD2    C310024   4.498   3.641  17.699 -0.3209  0.3078 -0.3171
  674MPD2    C410025   4.545   3.755  17.634 -0.2949  0.1900 -0.0243
  674MPD2    C510026   4.664   3.745  17.567  0.1114 -0.1659  0.0256
  674MPD2     H10027   4.554   3.433   0.006 -1.3664  0.3823  1.3922
  674MPD2    H110028   4.498   3.850  17.656 -0.6962 -0.3090  1.2822
  674MPD2    H210029   0.085   3.635  17.491  1.3345 -0.9819  2.3821
  674MPD2    H310030   4.696   3.832  17.511 -2.7419  1.3577  0.7549
  674MPD2     N10031   4.393   3.622   0.048  0.5235  0.5471  0.2184
  674MPD2    H510032   4.385   3.535   0.100  0.8986  0.6219  0.4000
  674MPD2    N110033   0.046   3.400  17.623 -0.0372  0.5345  0.7576
  674MPD2    H710034   0.132   3.403  17.569  0.1648  0.0286  1.0529
  675TMC3    C110035   0.131   3.190  17.682  0.0452  0.4706 -0.4176
  675TMC3    C210036   0.095   3.061  17.721 -0.6228  0.4288 -0.4412
  675TMC3    C310037   0.197   2.972   0.022  0.7155  0.0003  0.2378
  675TMC3    C410038   0.256   3.235  17.697  0.3334  0.4272  0.1308
  675TMC3    C510039   0.343   3.153   0.022  0.4587  0.0437 -1.1667
  675TMC3    C610040   0.320   3.020   0.053 -0.0750  0.1972  0.4179
  675TMC3     C10041   0.015   3.284  17.686  0.3466 -0.0764 -0.2542
  675TMC3     O10042   4.655   3.237   0.008 -0.2759 -0.6118  0.5389
  675TMC3     H10043   4.727   3.027  17.716  0.0096 -1.9625  2.8141
  675TMC3    H110044   0.280   3.338  17.674  0.4815 -0.1553 -2.3317
  675TMC3    H210045   0.392   2.955   0.101  1.6402  2.3645  0.7589
  675TMC3    C710046   0.478   3.205   0.053 -0.6146  0.3989 -0.5335
  675TMC3    C810047   0.149   2.849   0.089 -0.2549 -0.7028 -0.4211
  675TMC3    O110048   0.566   3.119   0.046  0.0016  0.0107  0.4644
  675TMC3    O210049   0.028   2.836   0.112 -0.5950 -0.4494  0.2161
  676MPD2     C10050   3.030   1.701  11.159  0.4029 -0.3095  0.2345
  676MPD2    C110051   2.932   1.656  11.245  0.5059  0.2958  0.0454
  676MPD2    C210052   2.876   1.531  11.236 -0.1072 -0.1470 -0.6588
  676MPD2    C310053   2.919   1.452  11.127  0.1060 -0.4339  1.1080
  676MPD2    C410054   3.014   1.499  11.045  0.1888 -0.3779  0.3883
  676MPD2    C510055   3.067   1.623  11.062 -0.4840 -0.3485 -0.1520
  676MPD2     H10056   2.810   1.493  11.314  0.5375  2.2829  1.0668
  676MPD2    H110057   3.046   1.439  10.961 -0.3843  1.9919 -1.5123
  676MPD2    H210058   3.083   1.795  11.167  0.4591 -0.1876 -1.6482
  676MPD2    H310059   3.148   1.656  10.998 -0.3332  0.2954  0.3752
  676MPD2     N10060   2.871   1.320  11.107  0.3886  0.0198 -0.3548
  676MPD2    H510061   2.909   1.268  11.029  0.8198  0.2450 -0.2986
  676MPD2    N110062   2.880   1.742  11.347 -0.1551  0.0811  0.6859
  676MPD2    H710063   2.804   1.706  11.403 -1.3031  2.8921  0.9268
  677TMC3    C110064   2.826   1.923  11.481  0.5326  0.2361  0.1317
  677TMC3    C210065   2.689   1.894  11.476 -0.4365 -0.4161  0.1260
  677TMC3    C310066   2.607   1.957  11.561 -0.3680 -0.2551 -0.1056
  677TMC3    C410067   2.866   2.037  11.541 -0.0025  0.0064 -0.1467
  677TMC3    C510068   2.773   2.120  11.606  0.1466  0.1544  0.7028
  677TMC3    C610069   2.641   2.074  11.619 -0.4601 -0.0473  0.3140
  677TMC3     C10070   2.908   1.874  11.373  0.2113  0.2489  0.7381
  677TMC3     O10071   3.003   1.946  11.335  0.4464 -0.0566 -0.4205
  677TMC3     H10072   2.646   1.800  11.443 -0.2401 -0.0398 -1.2117
  677TMC3    H110073   2.970   2.062  11.558  0.0932  0.5696 -1.4875
  677TMC3    H210074   2.575   2.127  11.686 -1.0697  0.4572 -0.6850
  677TMC3    C710075   2.818   2.211  11.718  0.0399  0.4568 -0.1801
  677TMC3    C810076   2.464   1.906  11.578  1.0393 -0.3127 -0.4244
  677TMC3    O110077   2.738   2.239  11.806 -0.3864 -0.0969 -0.1159
  677TMC3    O210078   2.409   1.886  11.468 -0.1930  0.5244 -0.3645
  678MPD2     C10079   3.544   1.126   1.387  0.0879 -0.4009 -0.2695
  678MPD2    C110080   3.522   1.101   1.256 -0.2595  0.3273 -0.3207
  678MPD2    C210081   3.393   1.118   1.206  0.5181  0.7804 -0.8262
  678MPD2    C310082   3.287   1.161   1.282 -0.5834  0.0314 -0.2882
  678MPD2    C410083   3.312   1.193   1.415  0.8975  0.2140 -0.2685
  678MPD2    C510084   3.444   1.176   1.464  1.0886 -0.7707 -0.4342
  678MPD2     H10085   3.379   1.106   1.100 -0.3243 -0.2941 -0.6010
  678MPD2    H110086   3.239   1.227   1.487 -0.1590 -2.2825 -0.1663
  678MPD2    H210087   3.643   1.126   1.433 -0.3839  1.2236  0.7343
  678MPD2    H310088   3.463   1.223   1.560 -0.1011  2.3223 -1.7366
  678MPD2     N10089   3.170   1.183   1.208  0.0948 -0.4468 -0.2238
  678MPD2    H510090   3.166   1.143   1.115 -1.3202  0.7955 -0.6955
  678MPD2    N110091   3.615   1.064   1.165 -0.3900  0.0089 -0.3640
  678MPD2    H710092   3.583   1.061   1.068  0.7283  4.4470 -0.8633
  679TMC3    C110093   4.068   1.020   1.029  0.7975  0.3049  0.6960
  679TMC3    C210094   3.958   0.969   1.098  0.5054  0.1132  0.1718
  679TMC3    C310095   3.835   1.031   1.073  0.0224 -0.1975  0.7122
  679TMC3    C410096   4.059   1.131   0.940  0.3395  0.0869  0.0156
  679TMC3    C510097   3.939   1.196   0.924  0.1394 -0.2657  0.3500
  679TMC3    C610098   3.830   1.144   0.992 -0.1934 -1.0633 -0.2126
  679TMC3     C10099   4.200   0.951   1.033 -0.0264 -0.2950 -0.2357
  679TMC3     O10100   4.288   0.992   0.964  0.0867  0.1567 -0.2403
  679TMC3     H10101   3.952   0.882   1.162  0.7177 -0.6072 -0.7837
  679TMC3    H110102   4.145   1.157   0.880 -0.6162  1.3589 -0.7990
  679TMC3    H210103   3.731   1.176   0.960 -0.3957 -2.6555 -1.1685
  679TMC3    C710104   3.931   1.326   0.849 -0.8726 -0.6388 -1.0933
  679TMC3    C810105   3.749   1.035   1.191  0.0151  0.3301  0.8327
  679TMC3    O110106   4.024   1.345   0.773  0.9333  0.2189 -0.1955
  679TMC3    O210107   3.789   1.012   1.302 -0.4295 -0.3703  0.1546
  680MPD2     C10108   4.583   0.501  13.322 -0.2569  0.2978 -0.3458
  680MPD2    C110109   4.483   0.422  13.380  0.1874 -0.0677  0.2158
  680MPD2    C210110   4.369   0.477  13.434  0.4997 -0.4006 -0.1189
  680MPD2    C310111   4.350   0.614  13.452 -0.4174  0.3496  0.2360
  680MPD2    C410112   4.452   0.689  13.393 -0.2355 -0.1487  0.3388
  680MPD2    C510113   4.555   0.635  13.327 -0.8570 -0.7068  0.3664
  680MPD2     H10114   4.299   0.406  13.475  0.7413  0.2205  1.3487
  680MPD2    H110115   4.453   0.795  13.411  1.9713 -0.2079  0.4713
  680MPD2    H210116   4.669   0.456  13.274  1.0175  1.1616  1.0833
  680MPD2    H310117   4.627   0.697  13.274  0.6707 -2.4020  0.4461
  680MPD2     N10118   4.260   0.671  13.546 -0.1858 -0.2737  0.0440
  680MPD2    H510119   4.268   0.770  13.567 -0.4321 -0.7143  2.2139
  680MPD2    N110120   4.480   0.282  13.376 -0.0736 -0.0046  0.2248
  680MPD2    H710121   4.395   0.226  13.382 -1.1199  1.6535  0.8553
  681TMC3    C110122   4.573   0.071  13.358  0.2130  0.3988  0.0033
  681TMC3    C210123   4.524   0.016  13.478  0.9328  0.1964  0.0935
  681TMC3    C310124   4.563   4.622  13.510 -0.0023 -0.1397 -0.4269
  681TMC3    C410125   4.671   0.002  13.293  0.2146  0.3907 -0.4513
  681TMC3    C510126   4.706   4.613  13.328 -0.0049 -0.6236  0.5946
  681TMC3    C610127   4.649   4.549  13.434  1.0064  0.9166  0.0805
  681TMC3     C10128   4.596   0.208  13.355  0.0382  0.0786  0.2625
  681TMC3     O10129   4.717   0.235  13.355 -0.3092 -0.8554  0.0302
  681TMC3     H10130   4.452   0.075  13.533 -0.3760 -1.2012 -0.1439
  681TMC3    H110131   4.710   0.060  13.210  2.8435  0.4196  0.7854
  681TMC3    H210132   4.664   4.442  13.445 -0.2994  0.8359  1.0076
  681TMC3    C710133   0.044   4.531  13.235  0.4835 -0.3520 -0.1438
  681TMC3    C810134   4.553   4.570  13.640 -0.3424  0.3610 -0.2839
  681TMC3    O110135   0.062   4.413  13.261  0.3312 -0.3825 -0.4556
  681TMC3    O210136   4.611   4.464  13.669  0.5233 -0.6503 -0.0652
  682MPD2     C10137   1.552   2.015  10.589 -0.4616  0.1782 -0.0503
  682MPD2    C110138   1.459   1.937  10.666  0.3944 -0.3767  0.2083
  682MPD2    C210139   1.468   1.933  10.806  0.5017  0.2509  0.9205
  682MPD2    C310140   1.565   1.996  10.871  0.0148 -0.0521 -0.2806
  682MPD2    C410141   1.659   2.071  10.797 -0.1917 -1.0258 -0.6847
  682MPD2    C510142   1.649   2.080  10.657  0.4008  0.3134 -0.6069
  682MPD2     H10143   1.388   1.881  10.859  0.2912 -0.7548 -0.3828
  682MPD2    H110144   1.739   2.127  10.843 -0.7959 -0.4958 -0.2708
  682MPD2    H210145   1.544   2.027  10.482  0.6213  3.0126  0.1943
  682MPD2    H310146   1.727   2.127  10.598  0.9409  1.3450  0.9322
  682MPD2     N10147   1.578   1.992  11.012  0.0652 -0.3768 -0.1849
  682MPD2    H510148   1.660   2.033  11.054 -0.6749  1.0404 -0.1302
  682MPD2    N110149   1.356   1.871  10.611  0.7285 -0.2603  0.2163
  682MPD2    H710150   1.287   1.830  10.672 -1.0378  1.5069 -0.5819
  683TMC3    C110151   1.699   1.954  11.367 -0.0086  0.2793  0.3929
  683TMC3    C210152   1.648   1.859  11.449 -0.0278  0.2925  0.2344
  683TMC3    C310153   1.529   1.810  11.413 -0.9002  0.1491 -0.7881
  683TMC3    C410154   1.642   1.999  11.254 -0.1102  0.4379 -0.4107
  683TMC3    C510155   1.523   1.942  11.224 -0.0670 -0.3507  0.1528
  683TMC3    C610156   1.454   1.855  11.302  0.2181  0.4597  0.1819
  683TMC3     C10157   1.831   2.004  11.387  0.1806 -0.1426  0.2029
  683TMC3     O10158   1.884   2.063  11.295  0.6005 -0.1254  0.2857
  683TMC3     H10159   1.709   1.817  11.528  0.0207 -0.6789 -0.3216
  683TMC3    H110160   1.682   2.080  11.194  2.5114 -0.9676 -0.5681
  683TMC3    H210161   1.350   1.833  11.279 -0.0348 -1.1940  2.9735
  683TMC3    C710162   1.474   1.964  11.095  0.0748  0.1625  0.1120
  683TMC3    C810163   1.499   1.678  11.458  0.0011 -0.3212  1.0711
  683TMC3    O110164   1.352   1.951  11.073  0.0019  0.6649  0.1774
  683TMC3    O210165   1.562   1.627  11.556  0.0103 -0.1550 -0.0692
  684MPD2     C10166   0.278   0.703  16.216 -0.1888 -0.6639 -0.2322
  684MPD2    C110167   0.222   0.765  16.110 -0.6529  0.3932 -0.0834
  684MPD2    C210168   0.128   0.863  16.121  0.9691  0.0465  0.2666
  684MPD2    C310169   0.104   0.913  16.252 -0.3765  0.5149  0.7692
  684MPD2    C410170   0.164   0.858  16.361 -0.1083 -0.2076 -0.5687
  684MPD2    C510171   0.235   0.746  16.343 -0.1424 -0.0069 -0.2628
  684MPD2     H10172   0.094   0.903  16.026 -0.0903 -0.1016  0.5781
  684MPD2    H110173   0.141   0.897  16.460  0.2421  1.2283 -1.0434
  684MPD2    H210174   0.348   0.623  16.195 -0.9626 -1.0722 -1.3182
  684MPD2    H310175   0.279   0.701  16.432  0.0772  1.0971  0.1958
  684MPD2     N10176   0.039   1.036  16.271  0.1282 -0.4806  0.4864
  684MPD2    H510177   0.075   1.091  16.348 -2.1231  1.2068  0.3619
  684MPD2    N110178   0.260   0.743  15.981  0.2162  0.6956 -0.1639
  684MPD2    H710179   0.217   0.799  15.908  1.2004  2.9556  1.0089
  685TMC3    C110180   0.377   0.668  15.795 -0.3764 -1.0346  0.4286
  685TMC3    C210181   0.264   0.711  15.731  0.5546  0.0007 -0.1969
  685TMC3    C310182   0.284   0.787  15.626 -0.7877  0.2528 -0.6747
  685TMC3    C410183   0.503   0.699  15.756 -0.2800  0.3101 -0.2657
  685TMC3    C510184   0.515   0.792  15.659  0.2246 -0.4101 -0.1746
  685TMC3    C610185   0.406   0.834  15.587 -0.7876  0.1198  0.3441
  685TMC3     C10186   0.358   0.652  15.937  1.0025  0.3317  0.3245
  685TMC3     O10187   0.447   0.592  16.000 -0.1653 -0.2528 -0.6820
  685TMC3     H10188   0.172   0.658  15.755  1.1888 -0.7621  0.5503
  685TMC3    H110189   0.582   0.655  15.814 -0.5167  2.2026  1.5045
  685TMC3    H210190   0.409   0.910  15.510  2.6521 -0.0020  0.3732
  685TMC3    C710191   0.579   0.916  15.701 -0.2471 -0.3863 -0.0531
  685TMC3    C810192   0.177   0.839  15.544  0.1405  0.4235 -0.2645
  685TMC3    O110193   0.561   1.016  15.633 -0.3164  0.2772  0.1654
  685TMC3    O210194   0.193   0.875  15.428  0.0041  0.1612 -0.1919
  686MPD2     C10195   1.200   1.616  15.738  0.2954 -0.5292  0.7393
  686MPD2    C110196   1.280   1.507  15.774 -0.4149  0.5345  0.2830
  686MPD2    C210197   1.405   1.496  15.717 -0.0140  0.0484  0.0644
  686MPD2    C310198   1.446   1.576  15.612 -0.2223 -0.4917  0.1767
  686MPD2    C410199   1.356   1.677  15.569 -0.0639  0.3004 -0.5012
  686MPD2    C510200   1.233   1.698  15.634  0.0981  0.1213  0.0532
  686MPD2     H10201   1.479   1.429  15.760 -0.1965  0.2390  0.6732
  686MPD2    H110202   1.367   1.740  15.481  0.3832  2.5068  1.1287
  686MPD2    H210203   1.116   1.646  15.800  0.0351  0.7392 -0.2370
  686MPD2    H310204   1.180   1.792  15.623  0.3290  0.4904  1.9524
  686MPD2     N10205   1.564   1.552  15.541  0.2519  0.0830 -0.0629
  686MPD2    H510206   1.607   1.633  15.497  2.5363 -0.1786  1.7028
  686MPD2    N110207   1.237   1.429  15.881  0.6589 -0.0248  0.2663
  686MPD2    H710208   1.145   1.453  15.916 -0.2894 -1.7009 -1.0803
  687TMC3    C110209   1.561   1.310  15.531  0.5810  0.0551 -0.1941
  687TMC3    C210210   1.438   1.306  15.480 -0.1719  0.8304  0.0640
  687TMC3    C310211   1.363   1.190  15.501 -0.6024  0.2904 -0.0798
  687TMC3    C410212   1.606   1.209  15.606 -0.4751  0.1761 -0.5496
  687TMC3    C510213   1.530   1.099  15.632  0.3034  0.2623  0.2481
  687TMC3    C610214   1.408   1.080  15.571 -0.6214 -0.0420 -0.7796
  687TMC3     C10215   1.637   1.431  15.542 -0.3507 -0.1445  0.0399
  687TMC3     O10216   1.757   1.415  15.521 -0.0490  0.1603  0.0873
  687TMC3     H10217   1.389   1.387  15.426 -0.4381  0.7934  0.2497
  687TMC3    H110218   1.699   1.226  15.659 -0.7395  0.8206 -0.2985
  687TMC3    H210219   1.341   1.000  15.601 -0.6880  0.2742 -0.0962
  687TMC3    C710220   1.577   1.023  15.742 -0.1348 -0.7576  0.2114
  687TMC3    C810221   1.215   1.201  15.498  0.2276  0.4724 -0.1489
  687TMC3    O110222   1.673   1.070  15.805 -0.1609 -0.0283  0.1933
  687TMC3    O210223   1.143   1.118  15.556  0.0382  0.5220 -0.0201
  688MPD2     C10224   0.840   0.006  17.366 -0.2995  0.0079  0.5648
  688MPD2    C110225   0.908   4.630  17.420 -0.2440  0.1902  0.4635
  688MPD2    C210226   1.036   4.604  17.373 -0.3153  0.2116  0.0041
  688MPD2    C310227   1.097   4.679  17.270  0.0448  0.2970  1.0516
  688MPD2    C410228   1.034   0.050  17.214 -0.4575  0.2389 -0.0714
  688MPD2    C510229   0.903   0.080  17.269  0.2094 -0.3291 -0.4988
  688MPD2     H10230   1.083   4.512  17.406 -0.9244  0.3240  1.1934
  688MPD2    H110231   1.076   0.114  17.138 -0.1334 -0.3675 -0.4033
  688MPD2    H210232   0.739   0.043  17.381 -0.6897 -0.5526 -0.7130
  688MPD2    H310233   0.848   0.166  17.233  2.0948  1.2166  0.3353
  688MPD2     N10234   1.214   4.647  17.206  0.0212  1.2408 -0.3885
  688MPD2    H510235   1.247   4.713  17.136  1.8253 -0.1460 -0.8418
  688MPD2    N110236   0.848   4.543  17.513  0.0616  0.0416  0.0526
  688MPD2    H710237   0.903   4.461  17.537  0.4724  1.1725  2.8876
  689TMC3    C110238   0.699   4.451  17.676  0.0339 -0.1572  0.2292
  689TMC3    C210239   0.650   4.503   0.053 -1.1471 -0.4081  0.1987
  689TMC3    C310240   0.616   4.420   0.156 -0.0113 -0.6020  0.1091
  689TMC3    C410241   0.718   4.321  17.656  0.4107  0.5333 -0.2664
  689TMC3    C510242   0.680   4.244   0.025 -0.0503 -0.2258 -0.3112
  689TMC3    C610243   0.630   4.287   0.141 -0.2489 -0.7576 -0.0280
  689TMC3     C10244   0.730   4.554  17.575  0.2395  0.3808 -0.1285
  689TMC3     O10245   0.657   4.654  17.576 -0.3038 -0.0065 -0.2639
  689TMC3     H10246   0.641   4.611   0.054  0.5559 -0.2446 -2.7992
  689TMC3    H110247   0.779   4.280  17.576  2.4109  0.2625  1.4114
  689TMC3    H210248   0.613   4.221   0.226  1.1507 -0.5674  0.3912
  689TMC3    C710249   0.690   4.099   0.010 -0.0373  0.2481  0.0472
  689TMC3    C810250   0.606   4.474   0.289  0.4773  0.5980  0.3905
  689TMC3    O110251   0.674   4.034   0.111  0.8220  0.1136  0.1094
  689TMC3    O210252   0.608   4.387   0.377 -0.0796 -0.2065  0.0971
  690MPD2     C10253   3.098   1.596  15.493 -0.1569 -0.7584 -0.7652
  690MPD2    C110254   3.033   1.605  15.375 -0.3970 -0.2686 -0.0060
  690MPD2    C210255   3.119   1.623  15.268  0.2716 -0.4555  0.3313
  690MPD2    C310256   3.250   1.670  15.282  0.4554 -0.3794 -0.0839
  690MPD2    C410257   3.310   1.661  15.401  0.2985  0.2603 -0.4662
  690MPD2    C510258   3.233   1.616  15.505 -0.5647 -0.2664  0.1049
  690MPD2     H10259   3.072   1.635  15.171 -0.2054  1.5104  0.8115
  690MPD2    H110260   3.416   1.680  15.410  0.3447  0.6630 -1.8518
  690MPD2    H210261   3.049   1.568  15.585  0.7088  0.6732  0.1357
  690MPD2    H310262   3.271   1.607  15.607 -0.1641  1.4178  0.1104
  690MPD2     N10263   3.333   1.697  15.172 -0.5613  0.0030  0.1597
  690MPD2    H510264   3.301   1.665  15.081  3.0290 -0.3136 -1.0009
  690MPD2    N110265   2.896   1.569  15.349 -0.1162 -0.4255  0.4294
  690MPD2    H710266   2.865   1.541  15.256  2.0182 -0.1439 -0.3834
  691TMC3    C110267   2.712   1.437  15.420 -1.0566  0.5298  0.0547
  691TMC3    C210268   2.623   1.442  15.318  0.1366 -0.2035 -0.2493
  691TMC3    C310269   2.523   1.346  15.313 -0.5703  0.1483  0.0625
  691TMC3    C410270   2.696   1.349  15.525  0.3450  0.2985  0.1667
  691TMC3    C510271   2.596   1.252  15.515 -0.5619 -0.3251  0.4692
  691TMC3    C610272   2.510   1.249  15.407  0.4543 -0.2442 -0.4454
  691TMC3     C10273   2.808   1.541  15.450  0.0602 -0.4243 -0.8744
  691TMC3     O10274   2.813   1.571  15.568 -0.1645  0.4268  0.5140
  691TMC3     H10275   2.630   1.525  15.248 -1.9007 -0.5367 -0.8622
  691TMC3    H110276   2.758   1.347  15.614  1.5414 -0.6455 -0.6866
  691TMC3    H210277   2.427   1.180  15.397  1.4706 -1.9279  2.7627
  691TMC3    C710278   2.563   1.177  15.626 -0.0129 -0.0334 -0.2880
  691TMC3    C810279   2.402   1.391  15.249  1.0830  0.8210 -0.4257
  691TMC3    O110280   2.660   1.153  15.694  0.2811 -0.2805 -0.0653
  691TMC3    O210281   2.346   1.307  15.180 -0.1712  0.1194  0.1472
  692TMC3    C110282   4.460   2.355  15.565  0.7254 -0.2434  0.1608
  692TMC3    C210283   4.581   2.377  15.627 -0.3115  0.1122 -0.1971
  692TMC3    C310284   4.643   2.258  15.673 -0.1884 -0.3789 -0.1423
  692TMC3    C410285   4.402   2.236  15.561  0.2582  0.0707  0.6011
  692TMC3    C510286   4.462   2.129  15.612  0.2984 -0.0944 -0.2184
  692TMC3    C610287   4.577   2.139  15.676 -0.8122  0.4366  0.6792
  692TMC3     C10288   4.367   2.463  15.557  0.7407  0.8103  0.2234
  692TMC3     O10289   4.256   2.429  15.528  0.2707  0.3549 -0.2147
  692TMC3     H10290   4.634   2.468  15.602 -1.6862  0.6584 -1.1672
  692TMC3    H110291   4.304   2.218  15.517 -0.9590 -3.0025  4.4839
  692TMC3    H210292   4.634   2.050  15.700 -0.1712  0.5687 -0.3500
  692TMC3    C710293   4.395   2.004  15.601 -0.6642 -0.1195  0.7878
  692TMC3    C810294   4.707   2.270  15.801  0.6410  0.4400  0.2224
  692TMC3    O110295   4.322   1.996  15.503 -0.1531  0.2558 -0.1920
  692TMC3    O210296   4.725   2.172  15.871  0.7157 -0.3372  0.1098
  693MPD2     C10297   4.097   0.696  10.565  0.0501  0.6175  0.0093
  693MPD2    C110298   4.075   0.724  10.699 -0.1562 -0.5198 -0.5239
  693MPD2    C210299   4.182   0.717  10.783 -0.6122  0.1865 -0.1061
  693MPD2    C310300   4.305   0.659  10.744 -0.3402 -0.4828  0.6812
  693MPD2    C410301   4.315   0.611  10.618  0.1104  0.7173  0.1379
  693MPD2    C510302   4.216   0.641  10.528  0.1467 -0.3165  0.8080
  693MPD2     H10303   4.171   0.744  10.888 -0.0325 -1.2875  0.3290
  693MPD2    H110304   4.412   0.576  10.585 -0.1109  1.3510 -1.1684
  693MPD2    H210305   4.028   0.728  10.487 -0.2689 -1.5138 -0.6074
  693MPD2    H310306   4.236   0.616  10.424  0.7798  2.6156  0.2365
  693MPD2     N10307   4.418   0.641  10.830  0.0105  0.0838  0.8401
  693MPD2    H510308   4.505   0.619  10.782  1.9230  2.1736  3.3727
  693MPD2    N110309   3.943   0.768  10.741 -0.0436  0.0281 -0.1505
  693MPD2    H710310   3.869   0.749  10.675  0.3054 -0.5693 -0.3683
  694TMC3    C110311   3.773   0.863  10.879 -0.4227  0.1338 -0.2476
  694TMC3    C210312   3.673   0.843  10.783 -0.0850  0.2432 -0.4792
  694TMC3    C310313   3.541   0.882  10.804 -0.4088 -0.3657  0.1049
  694TMC3    C410314   3.736   0.922  10.996  0.5923 -0.3653 -0.4760
  694TMC3    C510315   3.607   0.966  11.012  0.5320  0.1117 -0.2323
  694TMC3    C610316   3.511   0.934  10.923 -0.5708 -0.3158 -0.2183
  694TMC3     C10317   3.911   0.810  10.869 -0.6373  0.0426 -1.1976
  694TMC3     O10318   3.975   0.791  10.975 -0.3400  0.5209  0.0032
  694TMC3     H10319   3.689   0.788  10.691  0.5363 -0.1526 -0.1398
  694TMC3    H110320   3.806   0.937  11.076 -0.6438  0.1871  0.5028
  694TMC3    H210321   3.408   0.963  10.938 -0.0466 -0.2854  3.1530
  694TMC3    C710322   3.584   1.023  11.141  0.3289 -0.9111  0.2630
  694TMC3    C810323   3.426   0.855  10.714  0.7888  0.0977 -0.0963
  694TMC3    O110324   3.671   1.086  11.202  0.4543 -0.3311  0.0923
  694TMC3    O210325   3.316   0.839  10.765 -0.1356  0.0489  0.0318
  695MPD2     C10326   0.165   2.672  13.192 -0.0832 -0.5261 -0.5090
  695MPD2    C110327   0.113   2.666  13.323  0.2337 -0.4863 -0.7413
  695MPD2    C210328   4.715   2.697  13.344 -0.3858  0.3509 -0.2821
  695MPD2    C310329   4.635   2.741  13.240  0.1666  0.7980 -0.4718
  695MPD2    C410330   4.683   2.738  13.114  1.0211 -0.0366 -0.1099
  695MPD2    C510331   0.078   2.704  13.086 -0.4894  0.7208 -0.7469
  695MPD2     H10332   4.679   2.698  13.446 -0.4828  1.1736 -0.3267
  695MPD2    H110333   4.627   2.771  13.026  3.3242  0.8474 -1.2465
  695MPD2    H210334   0.266   2.646  13.163 -0.0457 -1.1538  0.1718
  695MPD2    H310335   0.119   2.704  12.986  0.0857 -1.0332 -0.5066
  695MPD2     N10336   4.500   2.776  13.272  0.2548  0.7564 -0.1041
  695MPD2    H510337   4.482   2.779  13.372  0.1478 -0.9095 -0.0659
  695MPD2    N110338   0.193   2.647  13.440 -0.4586  0.3706  0.2009
  695MPD2    H710339   0.152   2.665  13.531 -1.1778  1.0171 -0.2420
  696TMC3    C110340   4.279   2.854  13.254  0.2654 -0.2402 -0.1841
  696TMC3    C210341   4.247   2.780  13.364  0.5576  0.8912 -0.7417
  696TMC3    C310342   4.123   2.787  13.414 -0.0330 -0.4258 -0.6038
  696TMC3    C410343   4.188   2.942  13.193 -0.4952 -0.0667 -0.3978
  696TMC3    C510344   4.069   2.945  13.248  0.2603 -0.2186  0.2658
  696TMC3    C610345   4.028   2.865  13.352  0.3596  0.2081  0.0908
  696TMC3     C10346   4.411   2.838  13.188 -0.1819  0.2572  0.4954
  696TMC3     O10347   4.419   2.884  13.073 -0.0451  0.2609 -0.1189
  696TMC3     H10348   4.319   2.711  13.406  0.4812  1.3367  0.1311
  696TMC3    H110349   4.215   3.013  13.116 -1.9329 -0.1640 -1.0063
  696TMC3    H210350   3.935   2.870  13.407  0.5135 -0.5299  0.4248
  696TMC3    C710351   3.972   3.049  13.220  0.1001  0.2212  0.2798
  696TMC3    C810352   4.120   2.788  13.560  0.0464  0.4293  0.6437
  696TMC3    O110353   3.973   3.105  13.113  0.2127 -0.4984 -0.0056
  696TMC3    O210354   4.229   2.781  13.615  0.0061 -0.0937  0.6351
  697MPD2     C10355   4.158   4.261  15.643  0.3291  1.1818 -0.3323
  697MPD2    C110356   4.108   4.268  15.513 -1.1310 -0.2086 -0.4323
  697MPD2    C210357   4.161   4.365  15.433 -0.3167 -0.0664 -0.2466
  697MPD2    C310358   4.262   4.458  15.470  0.1685 -0.0902 -0.3928
  697MPD2    C410359   4.311   4.445  15.597  0.6970  0.8244 -0.2921
  697MPD2    C510360   4.261   4.349  15.681  0.3791  0.0160  0.0141
  697MPD2     H10361   4.138   4.370  15.327 -1.4031 -0.2249 -0.0191
  697MPD2    H110362   4.397   4.504  15.628  2.0583 -1.5285  0.3788
  697MPD2    H210363   4.127   4.193  15.721 -1.0119  2.8559  0.6137
  697MPD2    H310364   4.305   4.345  15.780  0.5082 -0.7832 -0.0763
  697MPD2     N10365   4.289   4.572  15.388  0.2983  0.0309  0.2651
  697MPD2    H510366   4.258   4.559  15.292 -2.1264 -0.4840  1.1254
  697MPD2    N110367   4.022   4.175  15.458 -0.0246 -1.0267  0.0790
  697MPD2    H710368   4.007   4.174  15.358 -2.5302  1.3331  0.4177
  698TMC3    C110369   4.420   0.015  15.298 -0.5104 -0.6405  0.2024
  698TMC3    C210370   4.550   0.065  15.280 -0.3083  0.6333  0.3718
  698TMC3    C310371   4.577   0.124  15.166 -0.7099 -0.6339  0.0023
  698TMC3    C410372   4.327   0.037  15.202 -1.1372  0.1581  0.5647
  698TMC3    C510373   4.364   0.102  15.085  0.3970  0.1907 -0.8651
  698TMC3    C610374   4.496   0.133  15.055 -0.1802 -0.9254 -0.6813
  698TMC3     C10375   4.394   4.661  15.408  0.2376  0.7482  0.3882
  698TMC3     O10376   4.466   4.682  15.504  0.4488  0.0084  0.2156
  698TMC3     H10377   4.631   0.049  15.351 -0.1098  0.5564  0.1259
  698TMC3    H110378   4.227   4.734  15.220 -1.6912  0.3866 -2.0434
  698TMC3    H210379   4.530   0.160  14.956  0.2277 -0.1760 -0.3358
  698TMC3    C710380   4.259   0.115  14.981 -0.1107 -0.3740 -0.5792
  698TMC3    C810381   4.718   0.163  15.164  0.4612 -0.1031 -0.0517
  698TMC3    O110382   4.161   0.044  14.967  0.2565 -0.0723  0.0899
  698TMC3    O210383   0.063   0.098  15.232 -0.0696  0.4962  0.1783
  699TMC3    C110384   4.104   2.890  12.852 -0.7323 -0.0744 -0.1323
  699TMC3    C210385   4.155   2.769  12.899 -0.2488 -0.1294  0.1482
  699TMC3    C310386   4.058   2.672  12.921 -0.3623 -0.4047 -0.0891
  699TMC3    C410387   3.967   2.917  12.851 -0.1380  0.2062  0.1692
  699TMC3    C510388   3.878   2.817  12.873 -0.1808  0.4492  0.0811
  699TMC3    C610389   3.919   2.691  12.896  0.1517  0.0318  0.6993
  699TMC3     C10390   4.191   2.998  12.786 -0.2461 -0.4116 -0.4200
  699TMC3     O10391   4.143   3.097  12.737 -0.5637  0.0967 -0.5666
  699TMC3     H10392   4.262   2.756  12.907  0.0577  1.6516 -1.1060
  699TMC3    H110393   3.942   3.017  12.818 -2.9715 -0.4477  0.2965
  699TMC3    H210394   3.851   2.609  12.917 -0.7479  0.5954  0.0079
  699TMC3    C710395   3.746   2.843  12.942 -0.0177  0.0600  0.1202
  699TMC3    C810396   4.072   2.588  13.039  0.2084 -0.0770 -0.3736
  699TMC3    O110397   3.689   2.748  12.995 -0.7728  0.2450  0.8918
  699TMC3    O210398   3.974   2.561  13.101 -0.1899 -0.5892 -0.4229
  700TMC3    C110399   3.166   4.595  17.298  0.4176 -0.5638 -0.1974
  700TMC3    C210400   3.228   4.477  17.329  0.0476  0.2224 -0.2157
  700TMC3    C310401   3.335   4.486  17.419 -0.2291 -0.3628  0.1706
  700TMC3    C410402   3.203   4.718  17.350  0.7117 -0.1960  0.5748
  700TMC3    C510403   3.313   4.717  17.429  0.0743 -0.2865  0.2509
  700TMC3    C610404   3.377   4.602  17.469 -0.8939  0.4134 -0.1769
  700TMC3     C10405   3.121   4.600  17.161  0.0736 -0.1362 -0.5112
  700TMC3     O10406   3.057   4.512  17.113  0.3395 -0.8930  0.1434
  700TMC3     H10407   3.204   4.385  17.278  2.5128  1.2814 -3.2379
  700TMC3    H110408   3.144   0.072  17.329 -2.0383 -2.0085  0.5321
  700TMC3    H210409   3.464   4.605  17.534 -0.6111 -0.2443 -0.5325
  700TMC3    C710410   3.392   0.104  17.422  0.8776  0.0908 -0.0564
  700TMC3    C810411   3.440   4.389  17.400 -0.0926 -0.3770  0.1007
  700TMC3    O110412   3.515   0.087  17.420  0.3238 -0.3387  0.0545
  700TMC3    O210413   3.552   4.429  17.416  0.7242  0.4057  0.1244
  701TMC3    C110414   3.351   3.730  15.544 -0.5688  0.4562  0.6100
  701TMC3    C210415   3.369   3.687  15.415  0.8196  0.2310  0.8256
  701TMC3    C310416   3.450   3.756  15.333  0.3232 -0.1631 -0.6524
  701TMC3    C410417   3.383   3.856  15.584 -0.0450 -0.1121 -0.0889
  701TMC3    C510418   3.455   3.929  15.491 -0.0922  0.7724 -0.1162
  701TMC3    C610419   3.492   3.883  15.362 -0.1561 -0.4813 -0.4672
  701TMC3     C10420   3.269   3.651  15.631  0.0905  0.0254 -0.9782
  701TMC3     O10421   3.229   3.543  15.589  0.4911 -0.5777 -0.1292
  701TMC3     H10422   3.329   3.591  15.387  3.0271 -0.2165 -0.7668
  701TMC3    H110423   3.375   3.899  15.684  1.5424 -0.6570  0.2807
  701TMC3    H210424   3.542   3.945  15.288  3.2372 -1.9201  0.5967
  701TMC3    C710425   3.540   4.043  15.531  0.4272  0.0572  0.1456
  701TMC3    C810426   3.472   3.718  15.194  0.6305 -0.0470 -0.1434
  701TMC3    O110427   3.586   4.111  15.439  0.1979  0.7615  0.1188
  701TMC3    O210428   3.553   3.783  15.131 -0.7831 -0.4563 -0.2969
  702MPD2     C10429   2.500   1.068  10.533 -0.1586 -0.1584  0.3250
  702MPD2    C110430   2.606   1.120  10.591  0.3179  0.3249  0.0764
  702MPD2    C210431   2.700   1.195  10.516 -0.2901  0.4244  0.3067
  702MPD2    C310432   2.665   1.225  10.386  0.1321 -0.0434 -0.1305
  702MPD2    C410433   2.554   1.164  10.329 -0.5431  0.7076  0.6284
  702MPD2    C510434   2.471   1.088  10.398 -0.4172  0.6756 -0.4034
  702MPD2     H10435   2.790   1.231  10.563  2.1062 -1.4135 -2.8337
  702MPD2    H110436   2.518   1.195  10.231  2.0840  1.8800  0.0286
  702MPD2    H210437   2.425   1.006  10.582 -0.2473  0.6107  1.1632
  702MPD2    H310438   2.383   1.044  10.353 -1.1544  1.7008  0.0164
  702MPD2     N10439   2.743   1.304  10.295 -0.0873  0.0159 -0.5290
  702MPD2    H510440   2.695   1.324  10.209  0.2068 -1.7874 -1.1163
  702MPD2    N110441   2.636   1.092  10.725 -0.6610 -0.1118  0.1891
  702MPD2    H710442   2.723   1.133  10.757  0.4095 -2.2510 -0.0065
  703TMC3    C110443   2.917   1.440  10.219 -0.4327 -0.3955 -0.7279
  703TMC3    C210444   2.824   1.538  10.181  0.2664  0.0829  0.3844
  703TMC3    C310445   2.868   1.650  10.116  0.3959  0.0171  0.6462
  703TMC3    C410446   3.051   1.452  10.187 -0.1653 -0.3683  0.5046
  703TMC3    C510447   3.093   1.567  10.126  1.5756  0.1652  0.6386
  703TMC3    C610448   3.001   1.660  10.088 -0.2910  0.0036 -0.9370
  703TMC3     C10449   2.872   1.344  10.323  0.1469 -0.2370 -1.0640
  703TMC3     O10450   2.949   1.303  10.403 -0.1278  0.4309 -0.1908
  703TMC3     H10451   2.719   1.528  10.207 -0.7254 -0.5950 -3.8450
  703TMC3    H110452   3.131   1.383  10.211  0.9060  0.3210 -1.1141
  703TMC3    H210453   3.041   1.751  10.044  0.6601  0.0186 -0.0446
  703TMC3    C710454   3.232   1.608  10.132 -0.5665  0.0327  0.5960
  703TMC3    C810455   2.804   1.786  10.133  0.1065  1.0185 -0.3566
  703TMC3    O110456   3.246   1.732  10.141 -0.9922  0.2178  0.2208
  703TMC3    O210457   2.843   1.877  10.065 -0.2427 -0.0366  0.0094
  704TMC3    C110458   0.949   4.445  12.140 -0.0999  0.1049  0.0166
  704TMC3    C210459   1.082   4.462  12.156 -0.0152 -0.2965 -0.4120
  704TMC3    C310460   1.152   4.415  12.263  0.5032  0.4798  0.1797
  704TMC3    C410461   0.878   4.394  12.242  1.0574 -0.2109 -0.1830
  704TMC3    C510462   0.949   4.348  12.355 -0.1003  0.0567  0.0270
  704TMC3    C610463   1.082   4.356  12.368 -0.0291  1.0932 -0.2742
  704TMC3     C10464   0.903   4.380  12.016 -0.3826 -0.6185  1.0439
  704TMC3     O10465   0.781   4.348  12.007  0.0151  0.1240 -0.2489
  704TMC3     H10466   1.146   4.492  12.073 -1.8302  0.7250 -1.4592
  704TMC3    H110467   0.774   4.368  12.225  0.5122  1.0068  1.3166
  704TMC3    H210468   1.142   4.310  12.446 -1.4457  1.9676  1.3159
  704TMC3    C710469   0.881   4.247  12.428 -0.3931 -0.3402  0.7389
  704TMC3    C810470   1.269   4.347  12.211 -0.5823  0.4072  0.8068
  704TMC3    O110471   0.787   4.195  12.368 -0.7556  0.2734  0.5073
  704TMC3    O210472   1.364   4.421  12.192 -0.2313  0.0367  0.0654
  705MPD2     C10473   0.064   1.852  16.147  0.0533 -0.3060 -0.1353
  705MPD2    C110474   0.091   1.992  16.157  0.0710  0.4177  0.6085
  705MPD2    C210475   4.729   2.073  16.223  0.3593  0.1654 -0.3949
  705MPD2    C310476   4.613   2.022  16.276 -0.1126  0.4273 -1.0314
  705MPD2    C410477   4.595   1.888  16.264 -0.2886 -0.4180 -0.2036
  705MPD2    C510478   4.681   1.807  16.201 -0.5033 -0.0586 -0.8398
  705MPD2     H10479   0.019   2.178  16.228  0.1263  0.1814  0.3102
  705MPD2    H110480   4.500   1.849  16.299  0.2191 -1.7090 -0.2853
  705MPD2    H210481   0.131   1.776  16.110  1.6652  1.0648 -0.0680
  705MPD2    H310482   4.663   1.700  16.209 -0.1640 -0.2590 -2.6471
  705MPD2     N10483   4.511   2.093  16.328  0.5471  0.1812  0.0250
  705MPD2    H510484   4.421   2.046  16.336  0.4909  0.5106  1.2871
  705MPD2    N110485   0.204   2.055  16.088  1.2613  0.7326 -0.4091
  705MPD2    H710486   0.212   2.154  16.105  2.7473  0.5157  0.1885
  706TMC3    C110487   0.420   2.123  15.688  0.5356  0.5683 -0.4619
  706TMC3    C210488   0.398   2.251  15.703 -0.7767  0.1587 -0.3009
  706TMC3    C310489   0.345   2.309  15.820  0.1924  0.7626 -0.1689
  706TMC3    C410490   0.404   2.043  15.793  0.5194  0.4487  0.5332
  706TMC3    C510491   0.354   2.095  15.911 -0.2550  0.4220 -0.1697
  706TMC3    C610492   0.326   2.227  15.931  0.4548 -0.0687  0.3337
  706TMC3     C10493   0.536   2.101  15.596  0.5910 -0.1883 -0.2778
  706TMC3     O10494   0.644   2.053  15.637  0.3500  0.2336  0.4070
  706TMC3     H10495   0.379   2.307  15.612 -0.5665 -0.8924 -0.9825
  706TMC3    H110496   0.428   1.937  15.782  0.1521  0.1165  2.8570
  706TMC3    H210497   0.300   2.267  16.029 -0.5060 -0.3565  0.2025
  706TMC3    C710498   0.278   1.997  15.988 -0.2820 -0.0178 -0.0213
  706TMC3    C810499   0.338   2.451  15.829  0.1756  0.1577  0.0807
  706TMC3    O110500   0.268   1.881  15.940 -0.0396  0.1096 -0.0927
  706TMC3    O210501   0.340   2.518  15.724  0.0789 -0.0612 -0.2480
  707TMC3    C110502   2.254   0.998   1.072 -0.3497  0.9105 -0.1147
  707TMC3    C210503   2.185   0.905   1.135  0.1055  0.4428  0.6593
  707TMC3    C310504   2.099   0.940   1.233  0.1211 -0.1790 -0.2421
  707TMC3    C410505   2.257   1.132   1.108  0.2712  0.3753  0.4582
  707TMC3    C510506   2.172   1.163   1.209 -0.2707  0.3481  0.6941
  707TMC3    C610507   2.092   1.071   1.277  0.5835 -0.1586  0.3173
  707TMC3     C10508   2.351   0.948   0.980  0.0935  0.5618  0.0738
  707TMC3     O10509   2.394   0.832   0.988  0.4760  0.4221  0.3474
  707TMC3     H10510   2.198   0.801   1.107 -1.2859  0.0195  1.5502
  707TMC3    H110511   2.332   1.196   1.063 -0.5773 -1.0323 -2.9676
  707TMC3    H210512   2.034   1.098   1.364 -0.3767  0.9601 -0.6763
  707TMC3    C710513   2.192   1.287   1.279 -0.2223 -0.0249 -0.2265
  707TMC3    C810514   2.004   0.837   1.288 -0.5051 -0.4131 -0.7166
  707TMC3    O110515   2.178   1.291   1.404 -0.2509 -0.3014 -0.5774
  707TMC3    O210516   1.934   0.859   1.382  0.1567  0.2893 -0.3349
  708MPD2     C10517   2.903   1.146  13.703  0.2085  0.5648  0.2844
  708MPD2    C110518   2.832   1.070  13.793 -0.6924  0.7152 -0.0859
  708MPD2    C210519   2.891   0.977  13.878  0.2025 -0.4681 -0.8065
  708MPD2    C310520   3.029   0.951  13.862  0.2904  0.6923 -0.1106
  708MPD2    C410521   3.103   1.024  13.769 -0.1375 -0.2829  0.2404
  708MPD2    C510522   3.043   1.122  13.695  0.1504  0.5644 -0.2207
  708MPD2     H10523   2.837   0.931  13.960 -0.7029  0.1875 -1.0322
  708MPD2    H110524   3.205   0.993  13.752 -0.6305 -0.5112 -2.2860
  708MPD2    H210525   2.862   1.232  13.652  0.3918 -0.4314 -1.5469
  708MPD2    H310526   3.103   1.177  13.624  2.2251 -4.2736 -2.2238
  708MPD2     N10527   3.109   0.858  13.939  0.5006  0.0246  0.3285
  708MPD2    H510528   3.208   0.847  13.919 -0.3115 -1.3996 -2.9609
  708MPD2    N110529   2.691   1.084  13.807 -0.1505  0.3408 -1.2267
  708MPD2    H710530   2.650   1.016  13.871 -1.4412  0.4836 -1.9016
  709TMC3    C110531   2.476   1.092  13.733  0.5728 -0.8389 -0.1599
  709TMC3    C210532   2.454   1.011  13.630  0.3885 -0.3663  0.3541
  709TMC3    C310533   2.400   0.885  13.662 -0.9069 -0.2400 -0.1847
  709TMC3    C410534   2.464   1.058  13.862 -0.2885  0.5705  0.2084
  709TMC3    C510535   2.426   0.927  13.892 -1.0649  0.3123 -0.0367
  709TMC3    C610536   2.383   0.847  13.790  0.6960  0.8553 -0.0664
  709TMC3     C10537   2.608   1.152  13.723 -0.2492 -0.0305  0.1161
  709TMC3     O10538   2.630   1.244  13.644 -0.2315  0.4786  0.0623
  709TMC3     H10539   2.463   1.051  13.530  0.9340  1.9721  1.3291
  709TMC3    H110540   2.461   1.135  13.938  0.8684  0.9318 -0.1126
  709TMC3    H210541   2.359   0.747  13.825  1.7670  0.9286  0.8960
  709TMC3    C710542   2.470   0.881  14.019 -0.2055 -0.1129 -0.1528
  709TMC3    C810543   2.386   0.782  13.561  0.3611 -0.4498 -0.5253
  709TMC3    O110544   2.566   0.939  14.067 -0.9094  0.2929  0.3184
  709TMC3    O210545   2.323   0.684  13.590 -0.0182 -0.3320  0.0415
  710TMC3    C110546   3.919   1.822   0.129 -0.8538 -0.2139 -0.2214
  710TMC3    C210547   4.046   1.832   0.079 -0.7365 -0.7144  0.8121
  710TMC3    C310548   4.149   1.808   0.170 -0.3866 -0.3955  0.4014
  710TMC3    C410549   3.889   1.796   0.259  0.1742 -0.1399 -0.0709
  710TMC3    C510550   4.000   1.776   0.340  0.3028  0.0354  0.1518
  710TMC3    C610551   4.130   1.780   0.301 -0.4057  0.2961 -0.1561
  710TMC3     C10552   3.817   1.890   0.046  0.0962 -0.1364 -0.0607
  710TMC3     O10553   3.816   1.885  17.665  0.2615  0.1819 -0.1784
  710TMC3     H10554   4.064   1.864  17.717  0.9861 -0.6222  1.1535
  710TMC3    H110555   3.784   1.786   0.284  0.4060  0.7263  1.2211
  710TMC3    H210556   4.209   1.744   0.367 -3.4094 -0.3826  3.0422
  710TMC3    C710557   3.981   1.709   0.474 -1.0065 -0.5174  0.0118
  710TMC3    C810558   4.278   1.804   0.105  0.4213  0.8614  0.7842
  710TMC3    O110559   4.069   1.635   0.515  0.4241 -0.0846 -0.2018
  710TMC3    O210560   4.278   1.851  17.731  0.1510  0.1820  0.1816
  711TMC3    C110561   4.043   3.426  14.890  0.5165 -0.3752 -0.1978
  711TMC3    C210562   4.065   3.489  15.008  0.3412  0.2192 -0.4310
  711TMC3    C310563   4.177   3.469  15.079 -0.6931 -0.6064  0.2112
  711TMC3    C410564   4.132   3.330  14.847  0.2936 -0.4486 -0.1573
  711TMC3    C510565   4.245   3.305  14.914 -0.6036 -0.0942  0.1094
  711TMC3    C610566   4.259   3.364  15.039 -0.0375 -1.0183 -0.3952
  711TMC3     C10567   3.912   3.373  14.891  0.4259  0.0930 -0.0007
  711TMC3     O10568   3.859   3.335  14.789  0.7010 -0.1762 -0.4628
  711TMC3     H10569   4.001   3.570  15.040  1.6448  1.1479 -0.1811
  711TMC3    H110570   4.106   3.272  14.760  0.6482  1.7899 -1.7490
  711TMC3    H210571   4.342   3.336  15.102  0.0389  1.7647  0.7392
  711TMC3    C710572   4.286   3.161  14.924 -0.0047 -0.3122  0.3160
  711TMC3    C810573   4.156   3.470  15.221 -0.6739 -0.2770  0.5135
  711TMC3    O110574   4.318   3.124  15.036  0.1073 -0.2090  0.3153
  711TMC3    O210575   4.044   3.488  15.264  0.2539 -0.5758  0.3163
  712MPD2     C10576   0.799   4.029  13.399 -0.1286  0.5374  0.1721
  712MPD2    C110577   0.673   4.089  13.373  0.0947 -0.4006 -0.0650
  712MPD2    C210578   0.633   4.196  13.457 -0.5153  0.5070  0.3998
  712MPD2    C310579   0.712   4.237  13.557  1.1347  0.4276 -0.8454
  712MPD2    C410580   0.832   4.170  13.579 -0.4030 -0.2891  0.0880
  712MPD2    C510581   0.882   4.068  13.498 -0.7844 -0.5593  0.0210
  712MPD2     H10582   0.535   4.234  13.433 -1.8620 -3.2801 -0.1258
  712MPD2    H110583   0.889   4.207  13.664  2.7356 -0.2876 -2.0332
  712MPD2    H210584   0.842   3.947  13.341 -2.7788  1.1766 -2.7272
  712MPD2    H310585   0.973   4.013  13.517  1.9436  2.5050 -4.1836
  712MPD2     N10586   0.684   4.334  13.656  0.8146 -0.8518  0.3206
  712MPD2    H510587   0.750   4.357  13.730  1.3174  1.9764 -1.0185
  712MPD2    N110588   0.579   4.052  13.268 -0.2395 -0.0516  0.5582
  712MPD2    H710589   0.490   4.100  13.262  0.0863  0.4386 -0.4397
  713TMC3    C110590   0.557   4.490  13.767 -0.7343 -0.3381 -0.8604
  713TMC3    C210591   0.638   4.446  13.869 -0.4912  0.6172 -0.6559
  713TMC3    C310592   0.708   4.531  13.946  0.1380  0.3034 -0.5960
  713TMC3    C410593   0.533   4.622  13.752 -0.3417  0.0381  1.0890
  713TMC3    C510594   0.603   4.710  13.833  0.3544  0.1226  0.3124
  713TMC3    C610595   0.699   4.667  13.923  0.2715 -0.5515  0.5974
  713TMC3     C10596   0.564   4.403  13.651 -0.1681 -0.3850  0.0454
  713TMC3     O10597   0.491   4.436  13.556 -0.4057  0.3425  0.0617
  713TMC3     H10598   0.650   4.340  13.892  0.7063  0.4203 -2.1581
  713TMC3    H110599   0.467   4.660  13.675 -0.0192  0.1801  0.8808
  713TMC3    H210600   0.745   0.003  13.991  1.1592  1.9001 -2.5543
  713TMC3    C710601   0.556   0.113  13.826 -0.3237 -0.2217  1.1100
  713TMC3    C810602   0.832   4.468  13.989 -0.2953  0.5911  0.5728
  713TMC3    O110603   0.572   0.175  13.931 -0.1002 -0.4323 -0.1304
  713TMC3    O210604   0.875   4.378  13.920 -0.2811 -0.1498  0.3042
  714MPD2     C10605   3.113   2.766   1.082  0.3333  0.2973  0.6512
  714MPD2    C110606   3.088   2.646   1.015  0.8516 -0.0578  0.3071
  714MPD2    C210607   2.989   2.648   0.920  0.2911 -0.2399 -0.2957
  714MPD2    C310608   2.930   2.765   0.881  0.0329  0.0982  0.2861
  714MPD2    C410609   2.970   2.883   0.937 -0.4220 -0.1949 -1.1077
  714MPD2    C510610   3.062   2.884   1.033 -0.2124 -0.4075 -0.6515
  714MPD2     H10611   2.955   2.552   0.881  0.4814 -0.1242 -0.7387
  714MPD2    H110612   2.925   2.979   0.912  0.2016  0.6069  0.8180
  714MPD2    H210613   3.187   2.771   1.161  0.7131 -0.7991  0.3552
  714MPD2    H310614   3.102   2.977   1.072 -0.8375 -1.0333  1.4482
  714MPD2     N10615   2.837   2.755   0.780 -0.7227 -0.5138 -0.7926
  714MPD2    H510616   2.831   2.664   0.735 -0.0716 -0.3761 -1.1637
  714MPD2    N110617   3.166   2.532   1.052  0.3202 -0.0931 -0.2334
  714MPD2    H710618   3.241   2.547   1.119  2.4849 -0.2469 -2.5909
  715TMC3    C110619   3.246   2.312   1.045  0.2351  0.0476  0.1014
  715TMC3    C210620   3.234   2.187   0.986 -0.5356  0.1165  0.1430
  715TMC3    C310621   3.325   2.092   1.029 -0.1366 -0.8251 -0.4651
  715TMC3    C410622   3.350   2.343   1.125 -0.2873 -0.5822  0.1100
  715TMC3    C510623   3.439   2.240   1.153  0.8023 -0.0875  0.4482
  715TMC3    C610624   3.435   2.111   1.104 -0.0624  0.1832  1.0220
  715TMC3     C10625   3.156   2.412   0.987 -1.1235  0.7666  0.5435
  715TMC3     O10626   3.071   2.370   0.908  0.3044 -0.3089 -0.2965
  715TMC3     H10627   3.152   2.151   0.926 -0.4175  0.0436  0.0259
  715TMC3    H110628   3.361   2.444   1.162 -3.8963 -0.1420  0.0391
  715TMC3    H210629   3.512   2.037   1.123 -1.6402 -0.9836  2.9231
  715TMC3    C710630   3.552   2.271   1.240  1.0643 -0.6243 -0.0033
  715TMC3    C810631   3.297   1.960   0.981 -0.0135 -0.2510 -0.1685
  715TMC3    O110632   3.555   2.384   1.285  0.1325  0.2723 -0.0664
  715TMC3    O210633   3.249   1.948   0.867 -0.1084  0.2799  0.4119
  716MPD2     C10634   2.140   1.438   9.162  0.1112  0.0618  0.1637
  716MPD2    C110635   2.116   1.543   9.071 -0.2765  0.2699 -0.6599
  716MPD2    C210636   2.194   1.549   8.957  0.3412 -0.6171  0.4839
  716MPD2    C310637   2.286   1.449   8.934  0.4442  0.3830  0.4391
  716MPD2    C410638   2.309   1.355   9.026 -0.3125 -0.1540  0.2354
  716MPD2    C510639   2.235   1.337   9.142  0.0301  0.3501 -0.4310
  716MPD2     H10640   2.179   1.630   8.886 -0.0348  0.4450  1.7807
  716MPD2    H110641   2.387   1.281   9.011  0.4875  0.9085 -0.8185
  716MPD2    H210642   2.090   1.433   9.257  1.6970 -0.2474  0.9818
  716MPD2    H310643   2.258   1.261   9.216 -1.9613  1.5972  1.4385
  716MPD2     N10644   2.344   1.455   8.806 -0.5152  0.4235 -0.9196
  716MPD2    H510645   2.313   1.539   8.758 -0.9038  0.1783 -1.1013
  716MPD2    N110646   2.021   1.636   9.101  0.4117 -0.0022  0.2719
  716MPD2    H710647   1.987   1.641   9.196 -0.8555  1.1865 -0.2283
  717TMC3    C110648   2.461   1.395   8.604  0.5616 -0.3002  0.4489
  717TMC3    C210649   2.383   1.489   8.538  0.1427 -0.5679  0.2738
  717TMC3    C310650   2.409   1.506   8.401 -0.3813  1.0000  0.5055
  717TMC3    C410651   2.552   1.318   8.544  0.2322 -0.3519  0.6439
  717TMC3    C510652   2.577   1.344   8.411  0.2300 -1.1629  0.2384
  717TMC3    C610653   2.507   1.443   8.337 -0.7915  0.1023 -0.0382
  717TMC3     C10654   2.441   1.371   8.748  0.1196  0.8252  0.0202
  717TMC3     O10655   2.502   1.281   8.802 -0.8095  0.7745  0.1313
  717TMC3     H10656   2.304   1.545   8.587 -0.9922 -0.6025 -1.5069
  717TMC3    H110657   2.600   1.236   8.596 -0.2293 -1.6365 -0.9406
  717TMC3    H210658   2.516   1.438   8.229 -0.4506  1.9193 -0.0978
  717TMC3    C710659   2.677   1.253   8.352 -0.4541  0.5124  0.5281
  717TMC3    C810660   2.327   1.601   8.333  0.1636  0.1122 -0.0523
  717TMC3    O110661   2.696   1.151   8.419  0.7483 -0.0755  0.1969
  717TMC3    O210662   2.223   1.640   8.384  0.5164  0.7947  0.0794
  718MPD2     C10663   1.907   4.646  12.439  0.6140  0.1377 -0.5673
  718MPD2    C110664   1.983   4.602  12.552 -1.0561 -0.0791  0.1490
  718MPD2    C210665   1.910   4.567  12.663  0.0044 -0.4729 -0.6392
  718MPD2    C310666   1.776   4.565  12.664 -0.4268  0.0526 -0.2434
  718MPD2    C410667   1.705   4.584  12.548 -0.3428  0.4315  0.5345
  718MPD2    C510668   1.772   4.640  12.440 -0.5319 -0.0090  0.0850
  718MPD2     H10669   1.957   4.564  12.761  2.8394 -2.6410 -2.0768
  718MPD2    H110670   1.597   4.580  12.544 -0.1537 -2.2012 -2.5032
  718MPD2    H210671   1.948   4.681  12.345  0.1666 -0.7147 -1.0737
  718MPD2    H310672   1.718   4.646  12.346  0.0661 -0.2509 -0.2792
  718MPD2     N10673   1.725   4.507  12.784  0.6677 -0.3697 -0.4939
  718MPD2    H510674   1.796   4.484  12.853 -0.0803  0.5137  0.5712
  718MPD2    N110675   2.125   4.593  12.553 -0.3638 -0.0803 -0.0622
  718MPD2    H710676   2.178   4.611  12.468 -1.6748 -1.7593 -1.2323
  719TMC3    C110677   2.342   4.562  12.639 -0.2416  1.2254 -0.1613
  719TMC3    C210678   2.371   4.427  12.650  0.3158 -0.5912  0.0167
  719TMC3    C310679   2.484   4.384  12.709 -0.4536  1.0289 -0.6938
  719TMC3    C410680   2.419   4.652  12.704  0.0692 -0.3895  0.2595
  719TMC3    C510681   2.541   4.612  12.751 -0.6721 -0.4416  0.1862
  719TMC3    C610682   2.572   4.477  12.751  0.1947  0.3783 -0.2041
  719TMC3     C10683   2.207   4.579  12.670  0.2305  1.0918  0.1226
  719TMC3     O10684   2.182   4.568  12.788 -0.6722 -0.3025  0.0969
  719TMC3     H10685   2.295   4.359  12.612  1.7466 -1.0427 -2.0469
  719TMC3    H110686   2.384   0.020  12.706 -1.4445 -0.9082  1.0790
  719TMC3    H210687   2.672   4.446  12.779 -0.6409  0.3279  2.7707
  719TMC3    C710688   2.645   4.713  12.765 -0.3406  0.4327  0.0092
  719TMC3    C810689   2.458   4.275  12.811 -0.3437  0.3851 -0.0329
  719TMC3    O110690   2.609   0.097  12.780  0.5998 -0.9842 -0.5392
  719TMC3    O210691   2.552   4.205  12.849  0.5154  0.1754  1.4158
  720MPD2     C10692   0.199   1.655  13.705 -0.0381  0.9221 -0.4817
  720MPD2    C110693   0.307   1.685  13.626  0.0398 -0.9360 -0.4485
  720MPD2    C210694   0.435   1.668  13.679 -1.1126 -0.8183  0.7505
  720MPD2    C310695   0.457   1.633  13.815 -0.0456  0.3992  0.4510
  720MPD2    C410696   0.342   1.616  13.891  0.6315  0.0330  0.4249
  720MPD2    C510697   0.218   1.628  13.839 -0.9290 -0.4232 -0.0740
  720MPD2     H10698   0.525   1.693  13.624  0.6879 -2.5154  2.9582
  720MPD2    H110699   0.349   1.603  13.998 -1.5328 -2.6739  0.2617
  720MPD2    H210700   0.095   1.655  13.674 -0.0915  0.6020 -0.3058
  720MPD2    H310701   0.133   1.611  13.903  1.2020 -1.8044  2.3941
  720MPD2     N10702   0.587   1.617  13.865 -0.4080  0.5253 -0.9476
  720MPD2    H510703   0.662   1.654  13.808  1.0785 -0.3656  0.4179
  720MPD2    N110704   0.301   1.702  13.485 -0.2859 -0.0755 -0.2702
  720MPD2    H710705   0.391   1.709  13.438 -1.0722  3.3369 -1.2640
  721TMC3    C110706   0.760   1.547  14.017 -0.6718  0.3059  0.2715
  721TMC3    C210707   0.795   1.545  14.149  0.3310  0.0562 -0.2576
  721TMC3    C310708   0.929   1.572  14.172 -0.4340 -0.5977 -0.1556
  721TMC3    C410709   0.847   1.554  13.912 -0.4378  0.6356  0.2575
  721TMC3    C510710   0.979   1.567  13.934 -0.0609  0.1445  0.7815
  721TMC3    C610711   1.016   1.576  14.062 -0.6575  0.4777 -0.7166
  721TMC3     C10712   0.616   1.565  13.993  0.5235  0.4387 -0.9796
  721TMC3     O10713   0.548   1.506  14.075  0.3028 -0.3170 -0.0589
  721TMC3     H10714   0.721   1.545  14.228  0.1392 -2.3364 -0.4525
  721TMC3    H110715   0.813   1.545  13.810 -0.0588  1.0457  0.0930
  721TMC3    H210716   1.120   1.575  14.094 -0.6939 -2.5974 -0.6889
  721TMC3    C710717   1.060   1.611  13.824 -0.4756  0.6240  0.3547
  721TMC3    C810718   0.994   1.564  14.304 -0.0401  0.1288 -0.6572
  721TMC3    O110719   1.018   1.598  13.713  0.3221 -0.4542  0.8923
  721TMC3    O210720   1.115   1.551  14.312  0.2486  0.0767  0.4855
  722MPD2     C10721   4.575   0.074  12.968  0.6513 -0.1315 -0.4934
  722MPD2    C110722   4.533   0.205  12.989  0.6322 -0.5367  0.6941
  722MPD2    C210723   4.397   0.231  13.001 -0.2435  0.2483  0.8193
  722MPD2    C310724   4.311   0.131  13.015  0.4939  0.0489 -0.2782
  722MPD2    C410725   4.355   0.001  13.001  0.0014 -0.0600  0.8612
  722MPD2    C510726   4.486   4.706  12.972 -0.2206  0.2463  0.0429
  722MPD2     H10727   4.363   0.334  13.010 -2.6888 -0.7894  3.6523
  722MPD2    H110728   4.288   4.651  13.015 -1.4589  0.7667 -1.0825
  722MPD2    H210729   4.678   0.044  12.957  0.2367 -1.1103 -1.6988
  722MPD2    H310730   4.522   4.604  12.960 -0.1512  0.3049 -0.2645
  722MPD2     N10731   4.173   0.173  13.041  0.0039 -0.1643 -0.4665
  722MPD2    H510732   4.160   0.273  13.046 -0.0804 -0.1582 -0.8215
  722MPD2    N110733   4.623   0.309  13.004 -0.0998 -0.0370  0.1251
  722MPD2    H710734   4.583   0.401  13.021  0.5181 -0.1433  2.1185
  723TMC3    C110735   3.937   0.147  13.080 -0.1915 -0.2494  0.0644
  723TMC3    C210736   3.831   0.061  13.071 -0.2097 -0.1710  0.3481
  723TMC3    C310737   3.710   0.118  13.076  0.2874  0.8930 -0.0329
  723TMC3    C410738   3.924   0.286  13.079 -0.8200  0.0117 -0.0380
  723TMC3    C510739   3.797   0.331  13.055  0.9476 -0.5434 -0.3330
  723TMC3    C610740   3.683   0.253  13.072 -0.4437 -0.7886 -0.5997
  723TMC3     C10741   4.068   0.082  13.070 -0.6399  0.6787 -0.2398
  723TMC3     O10742   4.074   4.697  13.097 -0.0356  0.2813 -0.5764
  723TMC3     H10743   3.841   4.688  13.077  0.7155 -0.1187 -0.3279
  723TMC3    H110744   4.010   0.351  13.069 -0.6678 -0.0551  0.8852
  723TMC3    H210745   3.582   0.288  13.053  0.3059  0.5938 -2.0472
  723TMC3    C710746   3.786   0.446  12.975  0.4604 -0.4457 -0.0767
  723TMC3    C810747   3.596   0.044  13.028  0.3613 -0.3188  0.2774
  723TMC3    O110748   3.856   0.457  12.873 -0.0649  0.1693  0.1898
  723TMC3    O210749   3.488   0.088  13.071  0.6597  0.3079 -0.8295
  724TMC3    C110750   0.075   2.988  10.188  0.1854 -0.2569 -0.0463
  724TMC3    C210751   4.715   3.053  10.116  0.4990  0.3803  0.4856
  724TMC3    C310752   0.032   3.151  10.035 -0.0200 -0.1623  0.0023
  724TMC3    C410753   0.204   3.015  10.182  0.1297 -0.1032 -0.6215
  724TMC3    C510754   0.253   3.098  10.083 -0.6936  0.1165  0.2362
  724TMC3    C610755   0.164   3.165  10.002 -0.1843 -0.2555 -0.1237
  724TMC3     C10756   0.026   2.893  10.282 -0.5398 -0.2750  0.8195
  724TMC3     O10757   0.097   2.855  10.376 -0.8783 -0.3770 -0.4138
  724TMC3     H10758   4.614   3.057  10.154  0.1426 -1.0078 -0.2965
  724TMC3    H110759   0.271   2.960  10.247 -0.5916 -0.1029  0.1167
  724TMC3    H210760   0.203   3.245   9.940 -0.7631  0.0451 -0.0959
  724TMC3    C710761   0.398   3.122  10.058 -0.3678  0.5768  0.0289
  724TMC3    C810762   4.675   3.245   9.977  0.0687 -0.7897 -0.3426
  724TMC3    O110763   0.421   3.203   9.968 -0.0158  0.2527 -0.3140
  724TMC3    O210764   4.557   3.220   9.969  0.3378  0.2635  0.1740
  725TMC3    C110765   1.312   1.555  12.623 -0.2760  0.3151 -0.3398
  725TMC3    C210766   1.225   1.618  12.538  0.0703  0.0513 -1.2480
  725TMC3    C310767   1.151   1.537  12.450  0.0419 -0.0371 -0.0573
  725TMC3    C410768   1.324   1.422  12.630 -0.2982 -0.6965 -0.2558
  725TMC3    C510769   1.246   1.341  12.549  0.1478  0.4538 -0.2779
  725TMC3    C610770   1.167   1.395  12.448 -0.3571  0.0083  0.0403
  725TMC3     C10771   1.381   1.641  12.711  0.6946 -0.3007 -0.2607
  725TMC3     O10772   1.315   1.736  12.744 -0.0405  0.0392 -0.5054
  725TMC3     H10773   1.238   1.724  12.519 -1.1407  0.6286  1.0555
  725TMC3    H110774   1.378   1.372  12.710  0.6372 -1.4218 -1.3408
  725TMC3    H210775   1.097   1.326  12.401 -2.5168 -0.5020  4.0492
  725TMC3    C710776   1.256   1.200  12.560  0.6726 -1.2989 -1.1599
  725TMC3    C810777   1.046   1.598  12.363  0.3246 -0.5890  0.4288
  725TMC3    O110778   1.153   1.135  12.536  0.0684  0.2973 -0.1830
  725TMC3    O210779   0.984   1.524  12.293  0.5641 -0.1249 -0.0546
  726MPD2     C10780   4.494   3.472  10.612 -0.3920 -0.4568 -0.3082
  726MPD2    C110781   4.387   3.536  10.565  0.3495  0.8414  0.0863
  726MPD2    C210782   4.268   3.475  10.553  0.0722 -0.7862 -0.0004
  726MPD2    C310783   4.250   3.348  10.608  1.0127  0.0076  0.4402
  726MPD2    C410784   4.362   3.284  10.653 -0.2254  0.5578  0.0701
  726MPD2    C510785   4.485   3.341  10.656  0.4054 -0.2307 -0.9229
  726MPD2     H10786   4.182   3.529  10.514  0.2470 -1.0590 -0.7692
  726MPD2    H110787   4.348   3.191  10.707 -1.2614  0.7101  0.0719
  726MPD2    H210788   4.589   3.520  10.631 -0.3233 -0.4597 -0.6355
  726MPD2    H310789   4.568   3.288  10.702  0.9403 -0.0938 -1.7267
  726MPD2     N10790   4.121   3.294  10.637 -0.7884 -0.1521  0.2693
  726MPD2    H510791   4.111   3.208  10.691  0.2068  0.8762  2.0924
  726MPD2    N110792   4.387   3.663  10.508  0.1030 -0.2176 -0.8460
  726MPD2    H710793   4.308   3.688  10.448 -1.0086  0.8626  1.0650
  727TMC3    C110794   4.475   3.870  10.433  0.3694 -0.3367  0.0353
  727TMC3    C210795   4.588   3.941  10.411  0.0253  0.8948 -0.0502
  727TMC3    C310796   4.584   4.076  10.374 -0.0369 -0.1916  0.0417
  727TMC3    C410797   4.357   3.933  10.423  0.0371 -0.3525 -0.9506
  727TMC3    C510798   4.350   4.068  10.380 -0.4820 -0.0535 -0.5314
  727TMC3    C610799   4.468   4.141  10.347  0.4973  0.3247  0.2171
  727TMC3     C10800   4.492   3.746  10.513  0.0014 -0.4271  0.4153
  727TMC3     O10801   4.596   3.742  10.579 -0.3280 -0.6724  0.8081
  727TMC3     H10802   4.681   3.885  10.409 -0.1065  0.6793 -0.1678
  727TMC3    H110803   4.264   3.884  10.450  1.9250 -3.0953  0.6181
  727TMC3    H210804   4.463   4.230  10.285 -1.8152 -0.7814 -1.1863
  727TMC3    C710805   4.217   4.130  10.374  0.1854  0.2950 -0.6164
  727TMC3    C810806   4.713   4.135  10.335  0.2790 -0.1092  0.3482
  727TMC3    O110807   4.120   4.064  10.410 -0.3589 -0.0219 -0.4934
  727TMC3    O210808   0.074   4.064  10.308  0.0831 -0.7598  0.1709
  728TMC3    C110809   3.515   1.827  15.064  0.5229 -0.8344 -0.4607
  728TMC3    C210810   3.649   1.842  15.075 -0.1282  0.1795  0.0610
  728TMC3    C310811   3.723   1.864  14.964 -0.6860 -0.0203 -0.4874
  728TMC3    C410812   3.457   1.808  14.942  0.1013  0.4971  0.5738
  728TMC3    C510813   3.535   1.805  14.827 -0.3890  0.0443 -0.2770
  728TMC3    C610814   3.667   1.846  14.841  0.1420  0.5505  0.1538
  728TMC3     C10815   3.443   1.787  15.185 -0.5690  0.3133  0.4768
  728TMC3     O10816   3.472   1.853  15.282  0.4461  0.2064 -0.2039
  728TMC3     H10817   3.700   1.831  15.170  0.1284  1.4732  0.0679
  728TMC3    H110818   3.350   1.801  14.926  0.0995 -0.2406  0.9209
  728TMC3    H210819   3.722   1.869  14.750 -1.3379  2.7544 -0.1848
  728TMC3    C710820   3.487   1.872  14.707 -0.1905 -0.8416  0.2413
  728TMC3    C810821   3.808   1.980  14.977 -0.5264  0.1030 -0.3917
  728TMC3    O110822   3.497   1.819  14.600  0.5410 -0.1427 -0.3164
  728TMC3    O210823   3.804   2.027  15.090 -0.0651 -0.2279 -0.1237
  729MPD2     C10824   0.828   3.511  17.054 -0.8633 -0.0622  0.2364
  729MPD2    C110825   0.911   3.398  17.062 -0.5343 -0.4789 -0.3612
  729MPD2    C210826   0.959   3.359  17.185 -0.6078 -0.2043  0.5828
  729MPD2    C310827   0.922   3.432  17.298 -1.1493  0.1618  0.1958
  729MPD2    C410828   0.836   3.539  17.292  0.0214  0.7823  0.9766
  729MPD2    C510829   0.795   3.578  17.169 -0.3253 -0.5167 -0.0673
  729MPD2     H10830   1.032   3.280  17.199  1.4521  1.5608 -0.2810
  729MPD2    H110831   0.803   3.592  17.380 -2.0764 -0.1642  0.7714
  729MPD2    H210832   0.808   3.567  16.963  0.2613  0.5052  0.3329
  729MPD2    H310833   0.744   3.674  17.170  0.2888 -0.2019  1.2899
  729MPD2     N10834   0.992   3.434  17.419 -0.3677 -0.1428 -0.9537
  729MPD2    H510835   0.948   3.496  17.486 -0.5117 -0.1339 -1.0579
  729MPD2    N110836   0.959   3.332  16.939  0.6111  0.0310 -0.6881
  729MPD2    H710837   0.944   3.386  16.854  0.2584  0.8798 -0.0961
  730TMC3    C110838   1.180   3.435  17.562  0.0369  0.0281  0.2627
  730TMC3    C210839   1.288   3.519  17.559  0.3116 -0.2376  0.1691
  730TMC3    C310840   1.319   3.604  17.667  0.7464  0.3108 -0.0033
  730TMC3    C410841   1.090   3.439  17.673 -0.0100  0.6854 -0.4222
  730TMC3    C510842   1.113   3.532   0.035  0.2101 -0.2106 -0.9284
  730TMC3    C610843   1.234   3.614   0.036 -0.3825  0.0112 -0.0160
  730TMC3     C10844   1.121   3.378  17.440 -0.0320  0.4569 -0.1159
  730TMC3     O10845   1.197   3.317  17.365  0.0091 -0.1241 -0.2184
  730TMC3     H10846   1.347   3.525  17.469 -0.9894 -2.3390 -0.8204
  730TMC3    H110847   0.995   3.387  17.674 -1.0549  2.5718 -1.8285
  730TMC3    H210848   1.247   3.680   0.121 -0.9917 -0.1273  0.1875
  730TMC3    C710849   1.012   3.633  17.739  0.3277  0.0138 -0.4227
  730TMC3    C810850   1.358   3.745  17.620  0.4204  0.5281  0.1575
  730TMC3    O110851   0.952   3.611  17.634 -1.1431  0.1338  0.0614
  730TMC3    O210852   1.339   3.777  17.504 -0.3875 -0.0479  0.2552
  731MPD2     C10853   1.403   0.635  12.340  0.1377  0.6782 -0.2234
  731MPD2    C110854   1.282   0.701  12.339 -0.2664 -0.1129  0.7503
  731MPD2    C210855   1.185   0.655  12.426  0.1108  0.5373  0.4561
  731MPD2    C310856   1.207   0.539  12.505  0.2195 -0.0552 -0.0687
  731MPD2    C410857   1.323   0.468  12.492 -0.1320  0.0230 -0.6225
  731MPD2    C510858   1.422   0.522  12.408  0.3705  0.1050 -0.3183
  731MPD2     H10859   1.087   0.701  12.429 -0.0408  0.2997 -1.1533
  731MPD2    H110860   1.332   0.374  12.544  1.3040  2.9726  4.4292
  731MPD2    H210861   1.490   0.668  12.285  1.0068 -3.0114 -1.0616
  731MPD2    H310862   1.523   0.483  12.398  0.8553  1.3541 -0.3892
  731MPD2     N10863   1.098   0.495  12.592  0.5160  0.4101  0.3009
  731MPD2    H510864   1.007   0.540  12.596 -0.1130 -0.9665  1.5413
  731MPD2    N110865   1.268   0.822  12.261  0.0687  0.2978 -0.1338
  731MPD2    H710866   1.348   0.868  12.219  0.4154  0.6022  0.8649
  732TMC3    C110867   1.150   1.010  12.169 -0.5772  0.5671  0.3005
  732TMC3    C210868   1.035   1.037  12.090  0.5968 -0.4368 -0.1560
  732TMC3    C310869   1.038   1.162  12.037 -0.6303 -0.4882 -0.4460
  732TMC3    C410870   1.254   1.092  12.195  0.7596 -0.2414 -0.7964
  732TMC3    C510871   1.244   1.216  12.135 -1.0373  0.5253  0.5119
  732TMC3    C610872   1.149   1.244  12.043  0.0712 -0.0027  0.1982
  732TMC3     C10873   1.145   0.889  12.249  0.0087  0.6519 -0.0023
  732TMC3     O10874   1.032   0.854  12.277  0.3157  0.2206 -0.1541
  732TMC3     H10875   0.960   0.959  12.079  0.7037 -0.3387 -1.5875
  732TMC3    H110876   1.327   1.076  12.274 -0.5937 -1.8457  0.1151
  732TMC3    H210877   1.147   1.340  11.992 -3.2178  0.7924  1.8755
  732TMC3    C710878   1.342   1.322  12.170  0.0304 -0.6935  0.8312
  732TMC3    C810879   0.935   1.204  11.941  0.2505 -0.9949 -1.0334
  732TMC3    O110880   1.312   1.440  12.168  0.2716 -0.3874 -0.1204
  732TMC3    O210881   0.955   1.293  11.862 -0.2566 -0.5090 -0.0831
  733TMC3    C110882   1.467   4.264  13.065 -0.1304 -0.1800  0.6357
  733TMC3    C210883   1.472   4.353  12.960  0.3722  0.7811 -0.1390
  733TMC3    C310884   1.593   4.386  12.915 -0.7943 -0.3566  0.7952
  733TMC3    C410885   1.573   4.192  13.119  0.1068 -0.7353  0.6226
  733TMC3    C510886   1.690   4.219  13.052  0.0644 -0.0714 -0.6874
  733TMC3    C610887   1.704   4.310  12.950  0.3061 -0.2876  0.5116
  733TMC3     C10888   1.331   4.226  13.114 -0.3319 -0.6436 -0.1362
  733TMC3     O10889   1.305   4.114  13.159  1.0420  0.2238 -0.1864
  733TMC3     H10890   1.382   4.383  12.907  0.6513  1.5772 -0.1631
  733TMC3    H110891   1.564   4.118  13.197  2.5312 -0.3324  1.2871
  733TMC3    H210892   1.796   4.315  12.892 -0.6062 -1.6434 -1.0472
  733TMC3    C710893   1.815   4.146  13.091 -0.9065 -0.1245 -0.2500
  733TMC3    C810894   1.595   4.475  12.808 -0.3546  1.1449 -0.7135
  733TMC3    O110895   1.802   4.026  13.131 -0.7551  0.0174 -0.4173
  733TMC3    O210896   1.496   4.529  12.763 -0.5553 -0.4193 -0.3524
  734MPD2     C10897   3.853   2.254  12.700  0.4949  0.2150 -0.2141
  734MPD2    C110898   3.780   2.166  12.621  0.2247  0.0247  0.3701
  734MPD2    C210899   3.791   2.173  12.486 -0.3495  0.4357  0.5137
  734MPD2    C310900   3.878   2.267  12.427  0.4463 -0.2744 -0.2015
  734MPD2    C410901   3.948   2.360  12.507 -0.4018 -0.1816  0.2723
  734MPD2    C510902   3.932   2.354  12.640 -0.4878  0.3886 -0.3921
  734MPD2     H10903   3.745   2.095  12.426  0.9336 -0.6296  0.9014
  734MPD2    H110904   4.014   2.438  12.470 -0.4025 -1.4326 -2.3574
  734MPD2    H210905   3.868   2.246  12.807  0.7997  0.8566 -0.2041
  734MPD2    H310906   3.984   2.426  12.702 -0.2071  1.3342 -1.7110
  734MPD2     N10907   3.901   2.239  12.291  0.3154 -0.2345 -0.3518
  734MPD2    H510908   3.830   2.181  12.247  1.2608 -1.9058  0.3331
  734MPD2    N110909   3.693   2.072  12.683  0.1060  0.1640 -0.0236
  734MPD2    H710910   3.700   2.067  12.784 -0.2811  0.9411  0.0383
  735TMC3    C110911   3.530   1.903  12.686  0.2752  0.5826  0.2948
  735TMC3    C210912   3.427   1.867  12.609 -0.9404  0.1961 -0.0446
  735TMC3    C310913   3.406   1.737  12.574  0.3146  0.1713  0.0900
  735TMC3    C410914   3.617   1.806  12.724 -0.0480  0.1794  0.1025
  735TMC3    C510915   3.603   1.676  12.678 -0.3622 -0.5119  0.4655
  735TMC3    C610916   3.488   1.640  12.607  0.0582 -0.3243  0.1943
  735TMC3     C10917   3.597   2.007  12.615  0.1054  0.8310  1.1608
  735TMC3     O10918   3.556   2.023  12.501 -0.6256  0.1187 -0.2332
  735TMC3     H10919   3.358   1.946  12.581 -0.7092  0.6457  0.6665
  735TMC3    H110920   3.708   1.838  12.775  0.4390  0.6364 -1.0598
  735TMC3    H210921   3.487   1.546  12.552 -2.6360  0.0762 -0.4323
  735TMC3    C710922   3.730   1.616  12.630 -0.2424  0.0195 -0.1157
  735TMC3    C810923   3.374   1.729  12.436  0.2414  0.3303 -0.2438
  735TMC3    O110924   3.819   1.693  12.596  0.3532  0.2462  0.5662
  735TMC3    O210925   3.313   1.630  12.397  0.2650  0.5299 -0.0133
  736MPD2     C10926   3.827   1.265  12.661  0.3844 -0.3161  0.0894
  736MPD2    C110927   3.817   1.385  12.595 -0.2724 -0.8748  0.7604
  736MPD2    C210928   3.913   1.422  12.501 -0.9809 -0.1529 -0.5466
  736MPD2    C310929   4.017   1.335  12.465  0.2163  0.2605 -0.1325
  736MPD2    C410930   4.021   1.213  12.533 -0.6238 -0.4696  0.5988
  736MPD2    C510931   3.927   1.176  12.626 -0.4009 -0.8974 -0.0513
  736MPD2     H10932   3.906   1.517  12.450 -1.4140 -0.6736 -1.4588
  736MPD2    H110933   4.100   1.142  12.509  0.5396  0.2878  2.2179
  736MPD2    H210934   3.747   1.243  12.731 -1.5737  1.5979 -1.5021
  736MPD2    H310935   3.925   1.074  12.663  2.6573 -0.2526  1.8736
  736MPD2     N10936   4.118   1.360  12.373 -0.3468  0.5517 -0.3557
  736MPD2    H510937   4.187   1.292  12.343 -1.4867 -0.4303 -0.7188
  736MPD2    N110938   3.714   1.477  12.630 -0.1982 -0.7063  0.0478
  736MPD2    H710939   3.642   1.440  12.691  0.1582  0.4394  1.1524
  737TMC3    C110940   4.218   1.473  12.185 -0.6355  0.2193 -0.1803
  737TMC3    C210941   4.255   1.598  12.141  0.3598 -0.2096 -0.3107
  737TMC3    C310942   4.322   1.602  12.018 -0.4611 -0.4251 -0.2548
  737TMC3    C410943   4.233   1.361  12.113  0.0443 -0.1543  0.0206
  737TMC3    C510944   4.298   1.370  11.992  0.2839  0.2413  0.3494
  737TMC3    C610945   4.347   1.487  11.949 -0.6667 -0.2537  0.1156
  737TMC3     C10946   4.128   1.478  12.303 -0.1049  0.0837  0.4063
  737TMC3     O10947   4.073   1.583  12.324 -0.1455 -0.3765  0.9779
  737TMC3     H10948   4.236   1.679  12.210 -1.7965 -1.5290  0.6325
  737TMC3    H110949   4.184   1.268  12.141 -0.0960  0.0316  0.3784
  737TMC3    H210950   4.393   1.505  11.852 -0.0983 -0.2536  0.3920
  737TMC3    C710951   4.323   1.246  11.915  0.0023 -0.0511 -0.3109
  737TMC3    C810952   4.335   1.724  11.959  0.5081  0.7606 -0.5207
  737TMC3    O110953   4.262   1.148  11.958 -0.6500  0.4468  0.5166
  737TMC3    O210954   4.361   1.823  12.031  0.2295 -0.3364  0.2674
  738MPD2     C10955   0.247   0.251  15.079 -0.3721 -0.2539  0.2749
  738MPD2    C110956   0.135   0.270  15.005 -0.4496 -0.6977  0.1811
  738MPD2    C210957   0.151   0.346  14.890  0.2972  0.1400  0.2285
  738MPD2    C310958   0.277   0.387  14.854 -0.4532  0.0699  0.0646
  738MPD2    C410959   0.390   0.375  14.933 -0.2005 -0.6739  0.2778
  738MPD2    C510960   0.362   0.310  15.052  0.2472  0.1602  0.7677
  738MPD2     H10961   0.061   0.373  14.835  0.9229 -0.8272 -1.2600
  738MPD2    H110962   0.489   0.407  14.900  0.2276 -0.9474  1.2950
  738MPD2    H210963   0.252   0.204  15.177 -0.3913  1.0903  0.9248
  738MPD2    H310964   0.445   0.300  15.121  0.6810  2.0529  0.5171
  738MPD2     N10965   0.299   0.453  14.736 -0.0012  0.4898 -0.0627
  738MPD2    H510966   0.387   0.495  14.709  0.8815 -1.2715  0.1022
  738MPD2    N110967   0.006   0.234  15.048 -0.3233 -0.0813  0.0249
  738MPD2    H710968   4.664   0.241  14.982  1.4008 -0.7832 -2.0788
  739TMC3    C110969   0.270   0.549  14.527 -0.6646 -0.1687 -0.3959
  739TMC3    C210970   0.208   0.537  14.401  0.3834  0.0182  0.0300
  739TMC3    C310971   0.261   0.627  14.304 -0.0986  0.1814  0.1958
  739TMC3    C410972   0.365   0.647  14.561  0.3206  0.6322  0.4177
  739TMC3    C510973   0.399   0.728  14.461  0.0530 -0.3291  0.1731
  739TMC3    C610974   0.357   0.715  14.333  0.0314  0.0638  0.0199
  739TMC3     C10975   0.212   0.468  14.637 -0.5646  0.5066 -0.3113
  739TMC3     O10976   0.099   0.428  14.619 -0.1755 -0.1940 -0.3442
  739TMC3     H10977   0.146   0.454  14.369  1.2942 -0.1872 -1.2081
  739TMC3    H110978   0.409   0.665  14.658  1.5573  1.5641 -0.3182
  739TMC3    H210979   0.392   0.781  14.254 -1.0539  0.3306 -0.2410
  739TMC3    C710980   0.495   0.831  14.497 -0.4187 -0.5285  0.9428
  739TMC3    C810981   0.165   0.655  14.198 -0.0945  0.7820 -0.1111
  739TMC3    O110982   0.548   0.821  14.608 -1.0702  0.7520 -0.7140
  739TMC3    O210983   0.049   0.621  14.218  0.1345 -0.2728 -0.4842
  740TMC3    C110984   0.299   1.849  14.231 -0.9516 -0.0528 -0.0243
  740TMC3    C210985   0.335   1.754  14.322  0.2517 -0.3193  0.0570
  740TMC3    C310986   0.473   1.741  14.340 -0.6896  0.9033  0.4437
  740TMC3    C410987   0.389   1.927  14.156  0.1561  1.0691 -0.4397
  740TMC3    C510988   0.525   1.903  14.174 -0.7232  0.4524  0.0122
  740TMC3    C610989   0.569   1.815  14.274 -0.6261 -0.6580  0.5349
  740TMC3     C10990   0.157   1.858  14.194 -0.1706  0.0060  0.0493
  740TMC3     O10991   0.125   1.903  14.084 -0.0357 -0.2766  0.8736
  740TMC3     H10992   0.262   1.695  14.377 -0.6329  1.3992  0.7435
  740TMC3    H110993   0.359   2.021  14.112  1.7275  0.8037 -2.0742
  740TMC3    H210994   0.675   1.803  14.295 -0.6128  1.3944  1.6484
  740TMC3    C710995   0.612   1.953  14.075  0.4728  0.2966 -0.8604
  740TMC3    C810996   0.518   1.658  14.446 -0.2510  1.1933 -0.8681
  740TMC3    O110997   0.732   1.936  14.101 -0.3397  0.4549  0.8115
  740TMC3    O210998   0.622   1.596  14.438  0.0741 -0.0481  0.6353
  741TMC3    C110999   4.726   1.115  13.987 -0.8900  0.4064  0.3432
  741TMC3    C211000   4.594   1.136  14.020  0.6656  0.1953  0.0297
  741TMC3    C311001   4.545   1.101  14.146 -0.0815 -0.4428 -0.2694
  741TMC3    C411002   0.081   1.063  14.082 -0.4092  0.4743 -0.1724
  741TMC3    C511003   0.029   1.032  14.202  0.5637 -0.7554  0.1678
  741TMC3    C611004   4.631   1.055  14.239 -0.2943  0.2408 -0.0722
  741TMC3     C11005   0.042   1.190  13.875  0.2851 -0.3583  0.1495
  741TMC3     O11006   4.697   1.276  13.831  0.0302 -0.1091  0.3646
  741TMC3     H11007   4.523   1.176  13.949  0.9862 -1.0823 -1.0125
  741TMC3    H111008   0.186   1.053  14.057 -0.3483  0.3595  0.1306
  741TMC3    H211009   4.598   1.043  14.341  0.7315  0.4637  0.2844
  741TMC3    C711010   0.119   1.000  14.307  1.1572 -0.7418  0.2704
  741TMC3    C811011   4.400   1.076  14.146 -0.4974  1.1597 -0.7736
  741TMC3    O111012   0.244   1.003  14.285  0.3440 -0.5262  0.9318
  741TMC3    O211013   4.335   1.138  14.065 -0.2320 -0.0709  0.1139
  742TMC3    C111014   4.594   4.382  15.297 -0.3780  0.4737  0.4954
  742TMC3    C211015   4.545   4.411  15.168  0.3003 -0.3688  0.4058
  742TMC3    C311016   4.621   4.494  15.100 -0.1934  0.5060  0.0368
  742TMC3    C411017   4.713   4.428  15.340  0.8129 -0.4415 -0.3767
  742TMC3    C511018   0.050   4.515  15.263  0.2058 -0.0637  0.5673
  742TMC3    C611019   0.007   4.549  15.140 -0.1961 -0.0565 -0.0647
  742TMC3     C11020   4.538   4.279  15.376  0.3125  0.1672 -0.7779
  742TMC3     O11021   4.591   4.251  15.482  0.2886  0.1288  0.9250
  742TMC3     H11022   4.441   4.387  15.148  0.6019 -0.3574 -1.2128
  742TMC3    H111023   0.011   4.410  15.442 -0.6380  4.4093  0.9589
  742TMC3    H211024   0.048   4.629  15.079  2.9269 -1.7775 -0.1860
  742TMC3    C711025   0.193   4.501  15.287  0.0979  0.2015 -0.5879
  742TMC3    C811026   4.572   4.541  14.966  0.3077  0.6126 -0.2975
  742TMC3    O111027   0.229   4.393  15.328 -0.1629  0.0665 -0.2786
  742TMC3    O211028   4.634   4.637  14.922  0.5182  0.2576 -0.0501
  743MPD2     C11029   2.273   4.172   0.995  0.2476  0.2189  0.1271
  743MPD2    C111030   2.289   4.301   1.047 -0.5179 -0.2960  0.4291
  743MPD2    C211031   2.390   4.313   1.144 -0.1433  0.3678  0.2093
  743MPD2    C311032   2.487   4.213   1.160 -0.1254 -0.2614 -1.2308
  743MPD2    C411033   2.474   4.090   1.095  0.7732 -0.1377  0.0848
  743MPD2    C511034   2.373   4.079   1.005 -0.1785  0.5587  0.0307
  743MPD2     H11035   2.408   4.405   1.199 -0.4345  1.6669 -1.8817
  743MPD2    H111036   2.548   4.012   1.101  1.9155  1.0829  1.6289
  743MPD2    H211037   2.201   4.146   0.919  1.0338 -1.2069 -0.1423
  743MPD2    H311038   2.367   4.001   0.930 -0.4573  2.0187 -1.4748
  743MPD2     N11039   2.603   4.240   1.245 -0.5247  0.3498  0.0463
  743MPD2    H511040   2.609   4.329   1.293 -2.9061  0.0255  0.9701
  743MPD2    N111041   2.197   4.399   0.999  0.0210  0.5997 -0.5926
  743MPD2    H711042   2.140   4.376   0.918  3.1812  1.3863 -3.0477
  744TMC3    C111043   2.122   4.616   0.945  0.5485 -0.0364  0.0363
  744TMC3    C211044   2.069   4.732   0.993 -0.2868  0.8966  0.4170
  744TMC3    C311045   2.079   0.109   0.913  0.7089  0.1239  0.2253
  744TMC3    C411046   2.154   4.602   0.816 -0.1169 -0.5180 -0.0541
  744TMC3    C511047   2.155   4.714   0.743 -0.2639  0.2514  0.0485
  744TMC3    C611048   2.125   0.106   0.787  0.3568 -0.0973 -0.0295
  744TMC3     C11049   2.193   4.527   1.039 -0.0548  0.9982 -0.9682
  744TMC3     O11050   2.243   4.590   1.130 -0.0793 -0.1697  0.0386
  744TMC3     H11051   2.046   4.734   1.098 -1.4101  3.7473  0.1032
  744TMC3    H111052   2.193   4.510   0.774 -1.5216 -2.0653  2.0938
  744TMC3    H211053   2.102   0.178   0.710 -0.9479  2.9664  3.2172
  744TMC3    C711054   2.182   4.704   0.601  0.4851 -0.2698  0.0968
  744TMC3    C811055   2.049   0.240   0.965 -0.3159 -0.5507 -0.2011
  744TMC3    O111056   2.207   0.071   0.536  0.3053  0.5517  0.9184
  744TMC3    O211057   2.084   0.341   0.909  0.1376  0.1278 -0.5285
  745TMC3    C111058   0.492   3.915  13.112 -0.8467  1.1828  0.5059
  745TMC3    C211059   0.371   3.886  13.172 -0.5059  0.3790 -0.3568
  745TMC3    C311060   0.259   3.846  13.095  0.6358 -0.2588 -0.6397
  745TMC3    C411061   0.501   3.911  12.978 -0.0976  1.2883  0.2320
  745TMC3    C511062   0.401   3.879  12.901  0.0924  0.4812 -0.1075
  745TMC3    C611063   0.279   3.846  12.957  0.7654  0.0269 -0.1809
  745TMC3     C11064   0.608   3.953  13.177  0.0249 -0.4249 -0.1366
  745TMC3     O11065   0.717   3.903  13.151  0.6534  0.1546  0.1929
  745TMC3     H11066   0.373   3.888  13.280  0.2935 -0.8688 -0.3483
  745TMC3    H111067   0.596   3.943  12.937 -0.2263  0.1676 -0.9244
  745TMC3    H211068   0.201   3.832  12.883 -0.5844 -0.8167  1.4270
  745TMC3    C711069   0.403   3.931  12.765 -0.2327 -0.1179 -0.1788
  745TMC3    C811070   0.133   3.897  13.142  0.3409 -0.1783 -0.5586
  745TMC3    O111071   0.318   3.899  12.688  0.7592 -0.0559  0.0369
  745TMC3    O211072   0.039   3.908  13.060 -0.0585  0.4146 -0.1857
  746TMC3    C111073   2.725   1.138  11.117  1.3881 -0.1222 -0.2309
  746TMC3    C211074   2.706   1.121  10.988  0.5365  0.0808 -0.0720
  746TMC3    C311075   2.617   1.023  10.949 -0.6538  0.0098  0.3029
  746TMC3    C411076   2.659   1.059  11.207  0.3450  0.4870 -0.5581
  746TMC3    C511077   2.571   0.963  11.166  0.2761  0.0926  0.0336
  746TMC3    C611078   2.554   0.939  11.033  0.6914 -0.0231 -0.1696
  746TMC3     C11079   2.755   1.272  11.166 -0.1506 -0.0613  0.3835
  746TMC3     O11080   2.676   1.332  11.233 -0.4250  0.1583 -0.0474
  746TMC3     H11081   2.740   1.200  10.922  0.8630 -2.4016 -2.8917
  746TMC3    H111082   2.677   1.064  11.313  0.3813 -0.2948 -0.5283
  746TMC3    H211083   2.475   0.873  10.998 -0.3514  0.2178  1.6867
  746TMC3    C711084   2.434   0.972  11.223 -0.3286  0.1514 -0.6003
  746TMC3    C811085   2.553   1.035  10.813  0.3512  0.1647  0.2720
  746TMC3    O111086   2.357   0.884  11.190  0.0480 -0.2462 -0.5547
  746TMC3    O211087   2.449   0.973  10.806 -0.1763 -0.4811 -0.2665
  747TMC3    C111088   0.130   1.155  10.984 -0.5555 -0.2349 -0.1893
  747TMC3    C211089   0.017   1.127  11.060 -0.8268  0.0644  0.2352
  747TMC3    C311090   0.021   1.144  11.199  0.9462  0.7110 -0.2105
  747TMC3    C411091   0.244   1.194  11.042  0.0917  0.2108 -0.1028
  747TMC3    C511092   0.246   1.219  11.177  0.6039  0.0960  0.4855
  747TMC3    C611093   0.140   1.198  11.260  0.5592  1.3119  0.0951
  747TMC3     C11094   0.115   1.198  10.843 -0.0207 -0.4753 -0.9035
  747TMC3     O11095   0.014   1.261  10.810  0.7482 -0.1637 -0.0312
  747TMC3     H11096   4.656   1.112  11.013 -0.5309 -0.2690 -0.2665
  747TMC3    H111097   0.328   1.230  10.983  0.2817  1.8133  1.1408
  747TMC3    H211098   0.154   1.210  11.367  1.1885  0.5316  0.0976
  747TMC3    C711099   0.365   1.287  11.239 -0.1338 -0.3236  0.8179
  747TMC3    C811100   4.649   1.090  11.274 -0.2677  0.1992  0.5578
  747TMC3    O111101   0.342   1.368  11.321  0.1021 -0.3713  0.4857
  747TMC3    O211102   4.584   1.005  11.222  0.5470  0.2705 -0.6187
  748MPD2     C11103   2.329   0.978   0.092 -0.2599  0.8545 -0.1494
  748MPD2    C111104   2.234   1.064   0.134 -0.2429  0.7006 -0.0956
  748MPD2    C211105   2.273   1.193   0.173 -0.0130 -0.0995  0.7990
  748MPD2    C311106   2.410   1.226   0.177  0.3873 -0.7798  0.6248
  748MPD2    C411107   2.501   1.128   0.132  0.4742 -0.1043 -0.5305
  748MPD2    C511108   2.461   1.004   0.089  0.2277 -0.0716 -0.0527
  748MPD2     H11109   2.200   1.266   0.205  1.0496  1.0248  0.6461
  748MPD2    H111110   2.605   1.158   0.134  0.4100  0.0139  1.2306
  748MPD2    H211111   2.301   0.882   0.051  0.2012  0.5657  0.2146
  748MPD2    H311112   2.528   0.935   0.039  1.3557  1.6245 -0.8744
  748MPD2     N11113   2.453   1.344   0.235  0.4065  0.3686 -0.5428
  748MPD2    H511114   2.386   1.402   0.285  0.3552 -0.5931  0.5137
  748MPD2    N111115   2.103   1.017   0.140  0.3567  0.3772 -0.0686
  748MPD2    H711116   2.094   0.917   0.124  2.0974  0.3947 -1.1735
  749TMC3    C111117   2.618   1.498   0.317  0.0111  0.0234  0.1336
  749TMC3    C211118   2.587   1.466   0.445  0.9695  0.2104  0.0990
  749TMC3    C311119   2.629   1.558   0.540 -0.4794 -0.6082  0.3028
  749TMC3    C411120   2.669   1.619   0.268 -0.4822 -0.4665  0.1235
  749TMC3    C511121   2.693   1.707   0.370  0.7195  0.4529  0.5194
  749TMC3    C611122   2.669   1.685   0.500  0.9128 -0.0522  0.0324
  749TMC3     C11123   2.573   1.405   0.212 -0.0630  0.1348  0.4367
  749TMC3     O11124   2.643   1.396   0.116  0.2232 -0.2879  0.6001
  749TMC3     H11125   2.545   1.370   0.473  1.1040  0.2882  0.5672
  749TMC3    H111126   2.695   1.630   0.164  0.6449 -2.6964  0.1586
  749TMC3    H211127   2.659   1.771   0.565  2.0569 -0.5176  0.8484
  749TMC3    C711128   2.714   1.844   0.340  0.3453  0.4733 -0.3921
  749TMC3    C811129   2.585   1.558   0.679  0.1528 -0.2552 -0.1024
  749TMC3    O111130   2.797   1.902   0.412  0.4886 -0.1005 -0.2602
  749TMC3    O211131   2.578   1.660   0.746  0.8531 -0.1609 -0.0468
  750MPD2     C11132   3.201   3.343  11.220 -0.1728  0.2635  0.0417
  750MPD2    C111133   3.097   3.270  11.265  0.4769  1.0868  0.0503
  750MPD2    C211134   3.097   3.128  11.265 -0.1516 -0.0077 -0.0584
  750MPD2    C311135   3.209   3.065  11.211  0.5271 -0.4781 -0.0818
  750MPD2    C411136   3.313   3.140  11.161  0.2382 -0.8990 -0.2381
  750MPD2    C511137   3.311   3.273  11.174 -0.6480 -0.0426 -0.3431
  750MPD2     H11138   3.022   3.064  11.309  0.9334  0.6008  2.6858
  750MPD2    H111139   3.399   3.099  11.109  1.0440  1.8127 -1.0665
  750MPD2    H211140   3.197   3.451  11.229  2.6450  0.2679  0.9692
  750MPD2    H311141   3.389   3.340  11.138  0.3897 -0.1204  1.8114
  750MPD2     N11142   3.223   2.926  11.201 -0.5963 -0.1996 -0.2647
  750MPD2    H511143   3.312   2.896  11.162 -1.4061  0.1683 -2.3392
  750MPD2    N111144   2.989   3.352  11.306  0.2578  0.0548  0.3772
  750MPD2    H711145   3.005   3.452  11.311  1.2661  0.0502 -2.3811
  751TMC3    C111146   3.179   2.700  11.247  0.0282 -0.9650 -0.5831
  751TMC3    C211147   3.125   2.616  11.338  0.4712 -0.1342  0.4809
  751TMC3    C311148   3.129   2.483  11.317 -0.3970 -0.2869 -0.6925
  751TMC3    C411149   3.235   2.654  11.131 -0.0576 -0.0332 -0.0697
  751TMC3    C511150   3.245   2.521  11.116  0.3976 -0.1933 -0.0489
  751TMC3    C611151   3.187   2.428  11.203 -0.0446  0.2106 -0.2156
  751TMC3     C11152   3.133   2.836  11.259 -0.3101  0.0155  0.1404
  751TMC3     O11153   3.028   2.849  11.324 -0.0417 -0.1206 -0.3666
  751TMC3     H11154   3.089   2.657  11.431 -1.3969  0.8374 -0.6805
  751TMC3    H111155   3.264   2.717  11.047  0.8370  0.4144  0.5769
  751TMC3    H211156   3.180   2.322  11.181 -2.3412  0.8605 -2.5125
  751TMC3    C711157   3.276   2.484  10.971 -0.7185  0.5430  0.1091
  751TMC3    C811158   3.025   2.403  11.379  0.2380  0.1994  0.5740
  751TMC3    O111159   3.330   2.562  10.894 -0.0424  0.1472 -0.1609
  751TMC3    O211160   3.032   2.283  11.364 -0.4134  0.3324  0.5495
  752TMC3    C111161   1.501   2.537  17.404 -0.1282 -0.2048 -0.3012
  752TMC3    C211162   1.545   2.423  17.465 -0.1224 -0.6609  0.3376
  752TMC3    C311163   1.481   2.380  17.579  0.5652  0.5110 -0.1467
  752TMC3    C411164   1.391   2.611  17.448 -0.2754  0.1749 -0.0015
  752TMC3    C511165   1.337   2.561  17.564 -0.4747  0.4467  0.0925
  752TMC3    C611166   1.383   2.455  17.636  0.3783  0.9098 -0.5273
  752TMC3     C11167   1.548   2.558  17.267 -0.3968 -0.1103  0.0771
  752TMC3     O11168   1.641   2.481  17.229 -0.4484 -0.5748  0.0227
  752TMC3     H11169   1.624   2.370  17.412 -0.7503  0.2256 -1.4718
  752TMC3    H111170   1.360   2.702  17.400  1.2638 -0.4640 -2.1947
  752TMC3    H211171   1.345   2.444  17.737 -2.4514  0.1067 -1.6769
  752TMC3    C711172   1.224   2.627  17.626  0.5068 -0.2462  0.4306
  752TMC3    C811173   1.521   2.247  17.623  0.3538  0.0466 -0.1328
  752TMC3    O111174   1.174   2.586  17.731 -0.5992  0.1061 -0.2601
  752TMC3    O211175   1.618   2.205  17.558 -0.1724 -0.5463  0.4516
  753TMC3    C111176   3.613   4.080  13.667  0.0626  0.7274  0.2146
  753TMC3    C211177   3.598   4.058  13.799 -0.2530  0.7281 -0.7226
  753TMC3    C311178   3.673   3.966  13.862 -0.0190 -0.9345  0.2563
  753TMC3    C411179   3.696   4.003  13.592  0.0632  0.1202  0.9977
  753TMC3    C511180   3.764   3.900  13.656  0.2537  0.1721 -0.2317
  753TMC3    C611181   3.760   3.886  13.792 -0.1393 -0.3135 -0.2308
  753TMC3     C11182   3.516   4.165  13.603  0.3561  0.9438  0.2719
  753TMC3     O11183   3.435   4.215  13.682 -0.1410  1.0164  0.5130
  753TMC3     H11184   3.542   4.131  13.857  1.1818  0.6255  0.7913
  753TMC3    H111185   3.706   4.026  13.487 -1.6286  0.3735  0.8883
  753TMC3    H211186   3.812   3.802  13.836  0.1595 -0.9674 -1.8301
  753TMC3    C711187   3.864   3.826  13.573 -0.1212 -0.2184 -0.1095
  753TMC3    C811188   3.679   3.946  14.007 -0.2394  0.0722 -0.3386
  753TMC3    O111189   3.972   3.788  13.622  0.0199  0.0877  0.2212
  753TMC3    O211190   3.707   3.845  14.074  0.2885  0.0754  0.2243
  754MPD2     C11191   2.271   2.732  13.295  0.4565 -0.4376  1.1781
  754MPD2    C111192   2.208   2.633  13.371  0.3991  0.4925 -0.0396
  754MPD2    C211193   2.118   2.542  13.309  0.1763  0.8013  0.4244
  754MPD2    C311194   2.099   2.554  13.167  0.3934 -0.5024  0.3044
  754MPD2    C411195   2.170   2.652  13.095  0.4822 -0.4200  0.1937
  754MPD2    C511196   2.252   2.740  13.159 -1.5068 -0.1017 -0.4866
  754MPD2     H11197   2.071   2.465  13.369 -0.1255  1.6109  1.2361
  754MPD2    H111198   2.170   2.665  12.987  0.4677  1.0322  0.3633
  754MPD2    H211199   2.323   2.818  13.335  1.3425  0.0742 -1.0659
  754MPD2    H311200   2.297   2.824  13.106 -1.3769  0.5213  0.6188
  754MPD2     N11201   2.006   2.480  13.092 -0.9075 -0.7595 -0.2944
  754MPD2    H511202   1.989   2.505  12.995  0.8301  0.7618 -0.2035
  754MPD2    N111203   2.227   2.631  13.508  0.6054  0.3464 -0.2520
  754MPD2    H711204   2.290   2.702  13.543 -0.5842  1.8124 -1.0878
  755MPD2     C11205   1.290   2.987  13.091  0.4200  0.1137 -0.2524
  755MPD2    C111206   1.233   2.861  13.106  0.4230  0.1349  0.0412
  755MPD2    C211207   1.313   2.751  13.081  0.8950 -0.7352 -0.0300
  755MPD2    C311208   1.440   2.769  13.036  0.2826 -0.2341 -0.4971
  755MPD2    C411209   1.497   2.897  13.028  0.7127 -0.2498 -0.3241
  755MPD2    C511210   1.425   3.005  13.066  0.5440  0.1201 -0.6131
  755MPD2     H11211   1.281   2.648  13.083 -0.4876 -0.2753  1.0447
  755MPD2    H111212   1.605   2.901  13.016  0.6519  1.4239 -0.3611
  755MPD2    H211213   1.239   3.082  13.082  0.3650  0.0423 -0.7023
  755MPD2    H311214   1.470   3.103  13.053 -0.1906  0.6479  0.8158
  755MPD2     N11215   1.528   2.660  13.017 -1.0245 -0.1528  0.7319
  755MPD2    H511216   1.625   2.683  13.000 -1.4760  1.2033  0.0702
  755MPD2    N111217   1.099   2.837  13.142 -0.2239 -0.2356  0.4887
  755MPD2    H711218   1.069   2.740  13.145  0.3967 -0.4835 -1.4415
  756MPD2     C11219   2.421   3.615   9.514  0.0213  0.6276 -0.0684
  756MPD2    C111220   2.367   3.626   9.640 -0.0590 -0.3270  0.4066
  756MPD2    C211221   2.236   3.639   9.659  0.8193 -0.3170 -0.1389
  756MPD2    C311222   2.146   3.644   9.558  0.6736 -0.0178  0.0823
  756MPD2    C411223   2.202   3.643   9.431  0.6025 -0.0951 -0.7160
  756MPD2    C511224   2.335   3.620   9.408 -0.5334 -1.4308 -0.4911
  756MPD2     H11225   2.197   3.640   9.760  0.2124 -0.8561 -0.3693
  756MPD2    H111226   2.135   3.625   9.347  2.5879 -4.4071 -1.3621
  756MPD2    H211227   2.521   3.579   9.495 -0.0105  1.7294 -2.2737
  756MPD2    H311228   2.375   3.609   9.307 -1.5822 -1.9309 -0.8457
  756MPD2     N11229   2.008   3.654   9.580  0.1032 -0.0843 -0.2079
  756MPD2    H511230   1.985   3.672   9.678  0.0122  2.2809 -0.6521
  756MPD2    N111231   2.451   3.632   9.750  1.0280 -0.2960  0.0843
  756MPD2    H711232   2.411   3.660   9.839  1.8978  2.3202 -0.3261
  757MPD2     C11233   1.814   3.405  10.289  0.6743  0.4440  0.0852
  757MPD2    C111234   1.806   3.315  10.190  0.2261  0.1948  0.7149
  757MPD2    C211235   1.748   3.363  10.070  0.4956  0.7420  0.0804
  757MPD2    C311236   1.715   3.496  10.051 -0.2228 -0.0311 -0.2307
  757MPD2    C411237   1.716   3.577  10.161 -0.4090  0.2891  0.5076
  757MPD2    C511238   1.768   3.534  10.276 -0.0269  0.0176  0.0376
  757MPD2     H11239   1.740   3.288   9.992  0.3733 -1.2489  2.0354
  757MPD2    H111240   1.683   3.680  10.152 -0.4098  0.2468  0.0296
  757MPD2    H211241   1.862   3.369  10.380  1.8448  0.0969 -0.6713
  757MPD2    H311242   1.788   3.588  10.368 -0.8156 -0.1782  0.3202
  757MPD2     N11243   1.673   3.537   9.922 -0.0258 -0.6459 -0.3565
  757MPD2    H511244   1.709   3.484   9.843 -0.8264  0.4051 -1.4430
  757MPD2    N111245   1.855   3.185  10.209  0.2283 -0.3240  0.1891
  757MPD2    H711246   1.892   3.156  10.299 -1.8557  1.3943  1.6307
  758MPD2     C11247   2.316   2.358  15.569  0.1276 -0.2641  0.2013
  758MPD2    C111248   2.386   2.275  15.658  0.6806  0.2594 -0.4284
  758MPD2    C211249   2.411   2.329  15.784  0.8413 -0.3518 -0.4538
  758MPD2    C311250   2.362   2.455  15.819  0.1214  0.2813 -0.5244
  758MPD2    C411251   2.296   2.529  15.727 -0.3294 -0.9923 -0.0528
  758MPD2    C511252   2.275   2.483  15.607  0.2657  0.5123 -0.2397
  758MPD2     H11253   2.478   2.284  15.856 -0.2305 -0.5563  0.4157
  758MPD2    H111254   2.265   2.627  15.761  2.1271  0.2179 -1.2669
  758MPD2    H211255   2.295   2.326  15.468  1.9330 -2.4641  0.5350
  758MPD2    H311256   2.205   2.535  15.543 -0.5318 -1.0501 -0.6381
  758MPD2     N11257   2.397   2.511  15.941  0.4072 -0.4413  0.6832
  758MPD2    H511258   2.352   2.599  15.961  0.9708  0.4754 -2.1041
  758MPD2    N111259   2.449   2.163  15.596 -0.9021  0.7663  0.0216
  758MPD2    H711260   2.446   2.159  15.494 -1.4617  1.8213 -0.0052
  759MPD2     C11261   1.440   1.092   9.887  0.1259  0.5615 -0.2817
  759MPD2    C111262   1.505   1.031   9.784  0.5382 -0.4589  0.3432
  759MPD2    C211263   1.512   1.088   9.660  0.0180 -0.5480 -0.0117
  759MPD2    C311264   1.450   1.205   9.628 -1.0224  0.0617 -0.7097
  759MPD2    C411265   1.368   1.262   9.733  0.1050 -0.1669  0.1090
  759MPD2    C511266   1.366   1.203   9.858  0.0313 -0.2758  0.0481
  759MPD2     H11267   1.591   1.052   9.596 -0.9642  1.7111 -2.4828
  759MPD2    H111268   1.296   1.341   9.718 -0.4772 -1.0149 -1.6666
  759MPD2    H211269   1.436   1.059   9.991  0.2587 -1.8640 -1.0545
  759MPD2    H311270   1.317   1.252   9.942  0.1884 -1.4957  0.8493
  759MPD2     N11271   1.457   1.250   9.498 -0.6442  0.3055  0.2848
  759MPD2    H511272   1.504   1.194   9.428 -1.0791  1.0947 -0.6449
  759MPD2    N111273   1.575   0.911   9.812 -0.2675  0.4724 -0.0371
  759MPD2    H711274   1.624   0.867   9.734  1.1580  1.7733  0.1220
  760MPD2     C11275   0.753   3.178  12.102  0.4311  0.2423 -0.1014
  760MPD2    C111276   0.836   3.115  12.020 -0.2752 -0.0429 -0.0097
  760MPD2    C211277   0.880   2.986  12.051 -0.2034  0.4926  0.2297
  760MPD2    C311278   0.835   2.920  12.165 -0.1603 -0.1058 -0.1370
  760MPD2    C411279   0.754   2.984  12.244  0.6750  0.7150  0.6589
  760MPD2    C511280   0.714   3.110  12.214 -0.5799 -0.4438  0.4386
  760MPD2     H11281   0.955   2.945  11.983  0.8583 -2.1520  3.0026
  760MPD2    H111282   0.744   2.950  12.346  0.4917  0.5399  0.5827
  760MPD2    H211283   0.718   3.281  12.091 -0.4519  0.0981  1.3823
  760MPD2    H311284   0.647   3.156  12.285  0.4536 -0.0329  1.1594
  760MPD2     N11285   0.888   2.795  12.207  0.6405 -0.4887 -0.2174
  760MPD2    H511286   0.831   2.747  12.276  0.9200 -0.7181 -0.1478
  760MPD2    N111287   0.890   3.179  11.908  0.0343  0.4742 -0.1954
  760MPD2    H711288   0.946   3.121  11.847  0.5828  1.0859 -0.2663
  761MPD2     C11289   2.515   2.377  11.425 -0.8640  0.9993  0.2427
  761MPD2    C111290   2.606   2.301  11.351 -0.2896 -0.2532 -0.5672
  761MPD2    C211291   2.741   2.329  11.370  0.1938 -0.2119  0.1258
  761MPD2    C311292   2.792   2.433  11.444  0.1657  0.5724 -0.0136
  761MPD2    C411293   2.701   2.523  11.506 -0.3958  0.1566  0.3870
  761MPD2    C511294   2.569   2.489  11.491  0.3338  0.5285  0.1369
  761MPD2     H11295   2.812   2.267  11.317  0.8084 -0.6584  1.4838
  761MPD2    H111296   2.735   2.599  11.576 -0.3910  1.5324 -1.1161
  761MPD2    H211297   2.408   2.370  11.416 -0.8217 -0.8806  1.3833
  761MPD2    H311298   2.499   2.558  11.538 -1.1125 -1.1730  0.4793
  761MPD2     N11299   2.929   2.471  11.450  0.2840 -0.2366 -0.3896
  761MPD2    H511300   2.958   2.564  11.475 -2.3485  0.3187  0.6078
  761MPD2    N111301   2.559   2.199  11.260  0.2818  0.4118  1.7257
  761MPD2    H711302   2.458   2.196  11.251  0.6276  0.7819 -2.2339
  762MPD2     C11303   2.697   2.131  10.497  0.0569 -0.3616  0.7602
  762MPD2    C111304   2.652   2.008  10.544 -0.6432  0.3195 -0.6401
  762MPD2    C211305   2.658   1.901  10.462  0.0560  0.3667 -0.0118
  762MPD2    C311306   2.708   1.912  10.329  0.0424  0.4727  0.3953
  762MPD2    C411307   2.729   2.040  10.275  0.3944 -0.2320  0.2058
  762MPD2    C511308   2.734   2.140  10.365 -0.3183 -0.6804  0.8490
  762MPD2     H11309   2.641   1.802  10.505  2.3057  0.8105  1.8653
  762MPD2    H111310   2.772   2.067  10.180 -0.0085  0.5112  0.2302
  762MPD2    H211311   2.708   2.213  10.567 -1.3126 -0.5106  1.1463
  762MPD2    H311312   2.779   2.235  10.338 -0.3699 -0.7343  0.5741
  762MPD2     N11313   2.743   1.792  10.258 -0.6227  0.1291 -0.4371
  762MPD2    H511314   2.744   1.712  10.320  2.3458  0.7992  0.3454
  762MPD2    N111315   2.621   2.002  10.681 -0.1234 -0.2849 -0.1882
  762MPD2    H711316   2.633   2.083  10.742  1.6337 -0.8213  0.1607
  763MPD2     C11317   4.333   2.258  15.944  0.4735 -0.8917  0.5675
  763MPD2    C111318   4.221   2.339  15.915  0.0869  0.3269 -0.5993
  763MPD2    C211319   4.206   2.466  15.963  0.8367  0.3445  0.3836
  763MPD2    C311320   4.319   2.527  16.024  0.1120 -0.0297 -0.7136
  763MPD2    C411321   4.429   2.441  16.060 -0.0563 -0.0210 -0.7808
  763MPD2    C511322   4.433   2.306  16.016 -0.0735  0.1201  0.6146
  763MPD2     H11323   4.113   2.520  15.949  1.5595  0.4598 -4.2285
  763MPD2    H111324   4.521   2.485  16.096  1.0133 -1.5117 -1.6968
  763MPD2    H211325   4.349   2.156  15.910 -0.3423 -1.0733  0.7166
  763MPD2    H311326   4.522   2.245  16.029 -0.3603 -0.4206 -0.0001
  763MPD2     N11327   4.330   2.667  16.038  0.5179  0.4931  0.1381
  763MPD2    H511328   4.426   2.697  16.054  0.6530  0.4501 -0.5846
  763MPD2    N111329   4.107   2.290  15.848  0.7682  0.0257 -0.2893
  763MPD2    H711330   4.044   2.360  15.811 -1.9606 -1.7078  1.0059
  764MPD2     C11331   1.484   3.273  17.671 -0.0616 -0.2647 -0.0579
  764MPD2    C111332   1.579   3.371  17.692  0.0090 -0.7640  0.3010
  764MPD2    C211333   1.625   3.394   0.079  0.5184  0.3899 -0.4655
  764MPD2    C311334   1.567   3.331   0.189 -0.0216 -0.5156  0.0336
  764MPD2    C411335   1.463   3.245   0.169  0.2120  0.2179  0.2785
  764MPD2    C511336   1.427   3.211   0.041 -0.7868  0.2348  0.1589
  764MPD2     H11337   1.712   3.454   0.102  0.1420  1.2555 -1.2828
  764MPD2    H111338   1.406   3.208   0.254  0.4571 -2.5840 -0.7986
  764MPD2    H211339   1.461   3.234  17.573 -0.4523 -1.2259  0.4194
  764MPD2    H311340   1.344   3.144   0.021  1.5967 -1.5994 -3.6367
  764MPD2     N11341   1.623   3.364   0.316 -0.6143  0.3881 -0.0401
  764MPD2    H511342   1.707   3.420   0.314 -0.3851  0.1496  3.2939
  764MPD2    N111343   1.640   3.445  17.583 -0.6452 -0.2682  0.0225
  764MPD2    H711344   1.699   3.524  17.606 -3.6774  1.0208  3.3398
  765MPD2     C11345   1.963   1.643  15.266  0.3401  0.7514 -0.2991
  765MPD2    C111346   2.044   1.707  15.356 -0.0556  0.6336  0.3363
  765MPD2    C211347   2.175   1.650  15.373  0.0887  0.2568 -0.1428
  765MPD2    C311348   2.209   1.543  15.288  0.1077  0.2866 -0.2298
  765MPD2    C411349   2.123   1.487  15.191 -0.4334  0.2615  0.1601
  765MPD2    C511350   1.995   1.536  15.184 -0.4187 -0.3969  0.2377
  765MPD2     H11351   2.245   1.698  15.440 -0.6610  2.1071 -0.6811
  765MPD2    H111352   2.144   1.398  15.132 -1.0803 -0.3596  0.8552
  765MPD2    H211353   1.865   1.690  15.266  1.4471  3.0549 -2.6934
  765MPD2    H311354   1.916   1.481  15.133 -0.4712  1.4187 -1.6358
  765MPD2     N11355   2.341   1.504  15.307 -0.0348  0.2702 -0.0855
  765MPD2    H511356   2.387   1.540  15.390 -2.3025  1.5219  0.6298
  765MPD2    N111357   1.987   1.803  15.442  0.1077 -0.2885  0.0349
  765MPD2    H711358   1.888   1.821  15.431 -0.1728 -1.5162  0.6162
  766MPD2     C11359   1.325   1.988  15.383  0.4191  0.5104 -0.2493
  766MPD2    C111360   1.455   1.942  15.378 -0.4933 -0.3068  0.5189
  766MPD2    C211361   1.503   1.872  15.263  0.4297  0.4987 -0.0737
  766MPD2    C311362   1.413   1.848  15.156  0.2733 -0.3224 -0.3888
  766MPD2    C411363   1.282   1.893  15.161  0.2676  0.0564 -1.2388
  766MPD2    C511364   1.244   1.962  15.276  0.3717  0.6048  0.5755
  766MPD2     H11365   1.607   1.840  15.259  0.7035  1.5285 -1.3931
  766MPD2    H111366   1.222   1.857  15.078 -1.6546  1.8157 -0.6149
  766MPD2    H211367   1.271   2.037  15.463 -2.4318  0.9798 -2.4861
  766MPD2    H311368   1.146   2.008  15.276 -0.9739 -2.2677 -2.9078
  766MPD2     N11369   1.451   1.784  15.033  0.3704  0.2664 -0.8819
  766MPD2    H511370   1.389   1.803  14.955  0.8638 -0.3558 -1.4227
  766MPD2    N111371   1.534   1.968  15.487 -0.0980  0.5200 -0.2607
  766MPD2    H711372   1.503   2.047  15.543  0.6997 -0.0873  1.0413
  767MPD2     C11373   1.077   2.175  14.935  0.2508  0.0868  0.0475
  767MPD2    C111374   1.199   2.151  14.896  0.0508 -0.8239  0.5332
  767MPD2    C211375   1.227   2.097  14.775  0.0790  1.1462  0.0641
  767MPD2    C311376   1.115   2.050  14.700 -0.2326  0.7973  0.0669
  767MPD2    C411377   0.983   2.064  14.747 -0.1816 -0.5063  0.2622
  767MPD2    C511378   0.965   2.126  14.867  0.4210 -0.3006 -0.2147
  767MPD2     H11379   1.327   2.100  14.731  0.5849  0.6444  1.1843
  767MPD2    H111380   0.896   2.015  14.706  0.4268 -1.6800  0.3585
  767MPD2    H211381   1.047   2.220  15.030 -0.6336  1.9163 -1.0876
  767MPD2    H311382   0.871   2.131  14.922  0.6189 -4.2799  0.5217
  767MPD2     N11383   1.135   1.988  14.577  0.0943 -0.0509  0.0734
  767MPD2    H511384   1.229   1.960  14.548 -1.0383 -2.7012 -1.0384
  767MPD2    N111385   1.296   2.186  14.989  0.1239  0.6030 -0.3388
  767MPD2    H711386   1.277   2.240  15.073 -1.6247 -0.1637 -0.2332
  768MPD2     C11387   1.863   0.560  10.974  0.0745 -0.3785  0.2723
  768MPD2    C111388   1.824   0.602  11.101 -0.1393  0.3578  1.0053
  768MPD2    C211389   1.898   0.562  11.210  0.4381 -0.1068 -0.6057
  768MPD2    C311390   2.013   0.493  11.196 -0.3024  0.9523 -1.1869
  768MPD2    C411391   2.045   0.452  11.071  0.0894 -0.1764  0.1760
  768MPD2    C511392   1.969   0.474  10.963  0.6173 -1.1444  0.0541
  768MPD2     H11393   1.867   0.601  11.307  0.7908  3.0851 -1.7973
  768MPD2    H111394   2.136   0.394  11.062  0.6196  0.5757  0.7072
  768MPD2    H211395   1.810   0.586  10.883 -1.3228 -1.5597  0.7464
  768MPD2    H311396   1.991   0.427  10.868 -1.5914 -0.5330 -0.7686
  768MPD2     N11397   2.098   0.485  11.313  0.1146 -0.6852  0.1931
  768MPD2    H511398   2.062   0.513  11.404  0.1909 -1.3232  0.4205
  768MPD2    N111399   1.727   0.698  11.125 -0.7090  0.3187  0.1517
  768MPD2    H711400   1.709   0.725  11.221 -1.7913 -1.4175  0.4442
  769MPD2     C11401   3.376   3.426  14.785  0.1653 -0.4528  0.4091
  769MPD2    C111402   3.319   3.365  14.903  0.3617  0.5944  0.2951
  769MPD2    C211403   3.349   3.411  15.027 -0.3344 -0.0356 -0.1720
  769MPD2    C311404   3.415   3.533  15.039  0.2076 -0.4907 -0.3558
  769MPD2    C411405   3.455   3.599  14.928  0.3498 -0.2665  0.0035
  769MPD2    C511406   3.447   3.542  14.805 -0.5282 -0.2167 -0.0307
  769MPD2     H11407   3.316   3.364  15.119 -0.7328 -0.5880 -0.5974
  769MPD2    H111408   3.486   3.703  14.932 -0.6243  0.0735 -1.0773
  769MPD2    H211409   3.353   3.396  14.684  0.6641 -2.8649  0.9878
  769MPD2    H311410   3.501   3.595  14.727  2.0074 -2.0167  0.5206
  769MPD2     N11411   3.408   3.604  15.160  0.4432 -0.6338  1.0815
  769MPD2    H511412   3.354   3.556  15.231  1.3253 -0.9892  1.5207
  769MPD2    N111413   3.220   3.262  14.886 -0.3993 -0.4815  0.1799
  769MPD2    H711414   3.177   3.251  14.794  0.9501  0.6044 -0.5654
  770MPD2     C11415   2.922   2.272  14.798  0.2792  0.3534 -0.2854
  770MPD2    C111416   2.829   2.352  14.740  0.0134 -0.0318  0.4731
  770MPD2    C211417   2.805   2.483  14.768  0.2039  0.1267  0.5340
  770MPD2    C311418   2.888   2.541  14.863 -0.5649 -0.3402  0.2306
  770MPD2    C411419   2.977   2.456  14.937  0.0370 -0.2763  0.4195
  770MPD2    C511420   2.992   2.327  14.907  0.6148  0.1538 -1.1159
  770MPD2     H11421   2.725   2.536  14.718  0.0732  0.3425  0.9708
  770MPD2    H111422   3.043   2.492  15.014  2.2841 -0.2457 -1.5310
  770MPD2    H211423   2.944   2.170  14.771 -0.0441  0.0441  0.5964
  770MPD2    H311424   3.076   2.277  14.953  1.5526  0.5752 -2.3909
  770MPD2     N11425   2.869   2.677  14.894  0.0385  0.1830 -0.1421
  770MPD2    H511426   2.820   2.730  14.823  0.3223 -1.9929 -1.9450
  770MPD2    N111427   2.761   2.277  14.652 -0.2015  0.6621 -0.7966
  770MPD2    H711428   2.805   2.193  14.616 -1.1878 -0.1996  0.0039
  771MPD2     C11429   3.813   1.643  13.834 -0.1481  0.9555  0.1063
  771MPD2    C111430   3.737   1.715  13.737 -0.2075  0.3002 -0.3920
  771MPD2    C211431   3.671   1.639  13.643 -0.1554 -0.2488 -0.0918
  771MPD2    C311432   3.681   1.501  13.630 -0.3780  0.0402  1.1194
  771MPD2    C411433   3.760   1.431  13.723  0.8599  0.7908 -0.6282
  771MPD2    C511434   3.815   1.503  13.824  0.3013  0.8385 -0.0001
  771MPD2     H11435   3.627   1.699  13.564 -0.7973 -0.0748  0.3940
  771MPD2    H111436   3.777   1.324  13.722 -2.2205  0.2924  2.3899
  771MPD2    H211437   3.872   1.694  13.908 -0.8655 -0.5089  1.6917
  771MPD2    H311438   3.881   1.449  13.891  2.0729  0.1669 -2.2781
  771MPD2     N11439   3.610   1.444  13.522  0.3052 -0.3907 -0.3309
  771MPD2    H511440   3.553   1.510  13.470  0.5143  0.5617  0.6501
  771MPD2    N111441   3.734   1.860  13.722  0.2464  0.3484  0.0092
  771MPD2    H711442   3.683   1.896  13.642 -1.4288 -1.3956  0.2841
  772MPD2     C11443   3.334   2.270  13.364  0.0021  0.3307  0.3485
  772MPD2    C111444   3.352   2.240  13.499 -0.2966  0.0486  0.0725
  772MPD2    C211445   3.246   2.251  13.589 -0.3276  0.1623  0.3496
  772MPD2    C311446   3.116   2.288  13.546  0.4021  0.4018  0.5621
  772MPD2    C411447   3.096   2.313  13.410  0.3273  0.3659 -0.3772
  772MPD2    C511448   3.206   2.296  13.327  0.7098 -0.1794  0.2864
  772MPD2     H11449   3.262   2.233  13.695  0.8856  1.0141  0.3054
  772MPD2    H111450   2.999   2.349  13.378  0.6735 -0.4128 -2.2872
  772MPD2    H211451   3.411   2.263  13.287 -1.2752 -2.6317 -0.6342
  772MPD2    H311452   3.196   2.330  13.224  0.5872  0.3841  0.4857
  772MPD2     N11453   3.014   2.318  13.638 -0.6305  0.2466  0.4530
  772MPD2    H511454   2.928   2.336  13.587  1.4024 -0.1916 -3.1524
  772MPD2    N111455   3.476   2.205  13.555 -0.5442  0.4125  0.0343
  772MPD2    H711456   3.474   2.190  13.655 -2.0956 -1.5193 -0.2746
  773MPD2     C11457   3.126   2.248   0.022 -0.5608 -0.5891 -0.6331
  773MPD2    C111458   3.133   2.183  17.637 -0.3237  0.2611  0.6952
  773MPD2    C211459   3.187   2.054  17.647 -0.0622  0.6075  0.6183
  773MPD2    C311460   3.251   2.007   0.024  0.3929 -0.5432  0.6480
  773MPD2    C411461   3.242   2.072   0.147 -0.4526 -0.0636  0.1735
  773MPD2    C511462   3.168   2.191   0.137 -0.6849 -0.4745  0.4259
  773MPD2     H11463   3.207   2.002  17.554  0.6917  1.8362  0.0961
  773MPD2    H111464   3.300   2.041   0.234  0.0800  1.7745  0.4609
  773MPD2    H211465   3.083   2.346   0.042  2.6665  0.8581 -0.8288
  773MPD2    H311466   3.152   2.245   0.230  0.8422 -0.2029  0.5394
  773MPD2     N11467   3.318   1.887   0.006 -0.5408 -0.0951  0.6786
  773MPD2    H511468   3.321   1.845  17.652 -2.5444 -0.2366  0.6856
  773MPD2    N111469   3.070   2.229  17.516  0.3954  0.9436 -0.4429
  773MPD2    H711470   3.083   2.178  17.430 -0.9437 -1.4611  0.7971
  774MPD2     C11471   2.181   1.948  14.197 -0.1132 -0.1888  0.1964
  774MPD2    C111472   2.099   1.982  14.091 -0.5427  0.3165 -0.4644
  774MPD2    C211473   2.089   2.110  14.039 -0.1936 -0.1589  0.3150
  774MPD2    C311474   2.166   2.209  14.099 -0.0887  0.3626 -0.1049
  774MPD2    C411475   2.257   2.179  14.194 -0.8316  0.3070 -0.8286
  774MPD2    C511476   2.257   2.050  14.255  0.6924  0.3429  0.5623
  774MPD2     H11477   2.028   2.125  13.951  0.0889  1.4683  0.3908
  774MPD2    H111478   2.318   2.254  14.243 -3.4562  1.8252  0.1378
  774MPD2    H211479   2.190   1.850  14.241 -2.2014 -0.5858 -0.2739
  774MPD2    H311480   2.320   2.031  14.342 -0.7625 -0.5905  1.4269
  774MPD2     N11481   2.151   2.341  14.049 -0.2549  0.8581 -0.2325
  774MPD2    H511482   2.076   2.347  13.980 -0.6897  1.5858  0.3046
  774MPD2    N111483   2.035   1.886  14.011 -0.3032 -0.0800  0.1534
  774MPD2    H711484   1.984   1.923  13.932  2.2786 -0.4870 -1.6951
  775MPD2     C11485   3.462   3.250  15.511 -0.1670 -0.0422 -0.1289
  775MPD2    C111486   3.496   3.346  15.605 -0.2603  0.1147 -0.2321
  775MPD2    C211487   3.586   3.449  15.568 -0.1100  0.4231  0.3734
  775MPD2    C311488   3.630   3.463  15.436 -0.3492  0.0348  0.0086
  775MPD2    C411489   3.578   3.377  15.341  0.4605 -0.3908 -1.0552
  775MPD2    C511490   3.492   3.277  15.381  0.6458 -0.0415  0.4358
  775MPD2     H11491   3.616   3.521  15.644  0.4068 -0.6033  1.1283
  775MPD2    H111492   3.596   3.391  15.235 -0.0736  1.5161 -0.8838
  775MPD2    H211493   3.412   3.156  15.531  0.3886 -0.8352 -2.4839
  775MPD2    H311494   3.456   3.200  15.314  1.1848  0.9561 -0.9924
  775MPD2     N11495   3.726   3.558  15.398  0.0893  0.1365 -0.4574
  775MPD2    H511496   3.743   3.583  15.301 -0.7862  1.4633 -0.2521
  775MPD2    N111497   3.453   3.330  15.734  0.8129  0.1236  0.0679
  775MPD2    H711498   3.391   3.251  15.744 -0.8103  1.2499 -1.2423
  776MPD2     C11499   3.040   3.871  11.545  0.1722 -0.8884  0.2547
  776MPD2    C111500   2.911   3.878  11.495 -0.2759  0.1388  0.0654
  776MPD2    C211501   2.866   3.998  11.440 -0.8747 -0.3209  0.5129
  776MPD2    C311502   2.951   4.103  11.411  0.0296 -0.3099  0.6793
  776MPD2    C411503   3.080   4.098  11.460  0.9794 -0.6894  0.2671
  776MPD2    C511504   3.125   3.986  11.528  0.1679 -0.1000  1.0655
  776MPD2     H11505   2.762   3.999  11.410  0.2006 -0.3084 -3.2189
  776MPD2    H111506   3.150   4.180  11.446  1.7474 -1.1886  1.2015
  776MPD2    H211507   3.091   3.792  11.599  0.9309 -0.3577  0.3283
  776MPD2    H311508   3.221   3.984  11.579  1.9772  0.9864 -2.3103
  776MPD2     N11509   2.912   4.223  11.338 -0.3562 -0.1804  0.3467
  776MPD2    H511510   2.975   4.302  11.343 -1.4966  0.8274 -1.2455
  776MPD2    N111511   2.835   3.762  11.499 -0.5143 -0.7625  0.3088
  776MPD2    H711512   2.875   3.675  11.531 -0.5134 -0.8067  0.1882
  777MPD2     C11513   2.780   0.791   0.487 -0.7145 -0.4605 -0.5268
  777MPD2    C111514   2.817   0.685   0.570 -0.4734  0.3341  0.4534
  777MPD2    C211515   2.843   0.564   0.509  0.5101 -0.0460  0.4418
  777MPD2    C311516   2.843   0.550   0.376 -0.6375 -0.0031 -0.7778
  777MPD2    C411517   2.844   0.665   0.295  0.1118 -0.3699 -0.7490
  777MPD2    C511518   2.801   0.782   0.353  0.3824 -0.5972  0.3381
  777MPD2     H11519   2.854   0.469   0.560 -1.1282  0.4529  1.7135
  777MPD2    H111520   2.847   0.672   0.187 -3.4700  2.0113 -0.6716
  777MPD2    H211521   2.752   0.887   0.528  0.6548 -0.4675  0.4026
  777MPD2    H311522   2.786   0.872   0.294 -1.3249 -0.1763  1.4165
  777MPD2     N11523   2.830   0.423   0.316  0.0001  0.2340 -0.2615
  777MPD2    H511524   2.848   0.343   0.377  0.4770 -1.4704 -2.6214
  777MPD2    N111525   2.818   0.710   0.707 -0.2058 -0.0366  0.8987
  777MPD2    H711526   2.781   0.802   0.728 -2.1907 -0.6585  0.0811
  778MPD2     C11527   3.770   1.493  14.636  0.2575  0.1605 -0.3418
  778MPD2    C111528   3.806   1.371  14.579  0.0007 -0.3285 -0.2820
  778MPD2    C211529   3.885   1.367  14.466 -0.2788  0.2497 -0.1669
  778MPD2    C311530   3.927   1.491  14.413 -0.5308 -0.8685  0.5216
  778MPD2    C411531   3.898   1.610  14.476 -0.0766  0.8492 -0.0446
  778MPD2    C511532   3.801   1.608  14.574 -0.0406 -0.2775  0.6679
  778MPD2     H11533   3.912   1.274  14.418 -0.6092 -1.3915  2.8285
  778MPD2    H111534   3.920   1.705  14.428 -1.0770  0.7561 -0.6843
  778MPD2    H211535   3.710   1.496  14.726  1.3391 -0.3895  0.4029
  778MPD2    H311536   3.763   1.702  14.614 -1.5779 -1.2449  1.5003
  778MPD2     N11537   4.006   1.484  14.294 -0.5060 -0.4351  0.0400
  778MPD2    H511538   4.024   1.395  14.248 -0.6381 -0.5351  0.1811
  778MPD2    N111539   3.754   1.251  14.627  0.1129  0.0337  0.1184
  778MPD2    H711540   3.773   1.169  14.570  0.7857 -0.3814  0.9289
  779MPD2     C11541   3.325   0.303  14.010 -0.5649 -0.5854  0.7731
  779MPD2    C111542   3.451   0.324  14.056 -0.5872 -0.7046 -0.0052
  779MPD2    C211543   3.512   0.451  14.027  0.2331 -0.2704 -0.3632
  779MPD2    C311544   3.448   0.540  13.945 -0.2236 -0.2946  1.0261
  779MPD2    C411545   3.319   0.512  13.901 -0.4380 -0.3095  0.4077
  779MPD2    C511546   3.253   0.398  13.940 -0.6612 -0.1860 -0.1497
  779MPD2     H11547   3.614   0.483  14.045 -0.0078  0.5629 -0.4815
  779MPD2    H111548   3.256   0.581  13.847 -0.4763 -0.6284  0.0445
  779MPD2    H211549   3.285   0.202  14.012  0.9094 -1.1872  0.1422
  779MPD2    H311550   3.152   0.388  13.901 -0.4220 -0.0415 -0.8120
  779MPD2     N11551   3.513   0.661  13.919 -0.4271  0.4590 -0.3459
  779MPD2    H511552   3.610   0.659  13.947 -0.4441 -0.0073 -0.3174
  779MPD2    N111553   3.527   0.237  14.135 -0.1357 -0.9810 -0.2006
  779MPD2    H711554   3.623   0.266  14.152 -1.1538  1.1375  1.9210
  780MPD2     C11555   3.589   4.625   0.990  0.4912  0.1836 -0.0659
  780MPD2    C111556   3.499   4.560   0.911 -0.2695  0.1689  0.2337
  780MPD2    C211557   3.484   4.590   0.775 -0.4844  0.0708 -0.1561
  780MPD2    C311558   3.565   4.688   0.711  0.6103 -0.7693 -0.2629
  780MPD2    C411559   3.649   0.023   0.793 -0.2008 -1.0047  1.3155
  780MPD2    C511560   3.665   4.723   0.923  0.5470  0.0836 -0.3109
  780MPD2     H11561   3.413   4.533   0.716 -1.3117 -2.1765  3.0204
  780MPD2    H111562   3.722   0.091   0.751 -1.9602  1.6393  2.5503
  780MPD2    H211563   3.622   4.594   1.089 -3.2119 -1.9337  0.4881
  780MPD2    H311564   3.742   0.041   0.978 -1.0099  1.9121  0.0729
  780MPD2     N11565   3.557   4.700   0.569  0.2402 -0.5607 -0.9593
  780MPD2    H511566   3.508   4.624   0.523 -0.1069 -1.1803  0.4371
  780MPD2    N111567   3.421   4.457   0.973  0.3216 -0.1504 -0.2421
  780MPD2    H711568   3.449   4.429   1.066  1.7142  2.7168  0.2081
  781MPD2     C11569   0.259   1.675  12.023  0.2244  0.0520  0.6163
  781MPD2    C111570   0.301   1.806  12.004  0.0407  0.5190 -0.1323
  781MPD2    C211571   0.422   1.820  11.948  0.5216  0.6936  0.8547
  781MPD2    C311572   0.494   1.706  11.902  0.6077  1.0572  0.5353
  781MPD2    C411573   0.450   1.582  11.928  0.7111  0.2857  0.7986
  781MPD2    C511574   0.332   1.566  11.992  0.3713 -1.0076  0.2730
  781MPD2     H11575   0.465   1.919  11.951  2.9405 -0.4099  3.1050
  781MPD2    H111576   0.496   1.489  11.896 -2.1051 -1.1562  0.9164
  781MPD2    H211577   0.172   1.662  12.086  1.3573  1.0523  2.3795
  781MPD2    H311578   0.284   1.469  12.005  2.7024 -2.2706 -0.4174
  781MPD2     N11579   0.628   1.713  11.847  0.9322  0.2607 -0.7490
  781MPD2    H511580   0.675   1.624  11.840 -1.3111 -0.9099 -0.8517
  781MPD2    N111581   0.227   1.917  12.041 -0.1515  0.2573  0.4201
  781MPD2    H711582   0.261   2.007  12.008  2.2446 -0.1446  1.7720
  782MPD2     C11583   3.478   2.909  10.021  0.6626  0.5979  0.2593
  782MPD2    C111584   3.529   2.832  10.122 -0.1264 -0.3908 -0.5754
  782MPD2    C211585   3.576   2.898  10.235  0.1601 -0.4133  0.7181
  782MPD2    C311586   3.586   3.034  10.246  0.2768 -0.7780  0.4375
  782MPD2    C411587   3.548   3.110  10.135  0.9514 -0.0104  0.7427
  782MPD2    C511588   3.488   3.040  10.030  0.4035 -0.1807 -0.5104
  782MPD2     H11589   3.598   2.838  10.323 -1.2332 -0.4038  1.0687
  782MPD2    H111590   3.563   3.217  10.137  2.6748 -0.2684  1.6177
  782MPD2    H211591   3.445   2.867   9.926  0.5707  1.2429  0.0071
  782MPD2    H311592   3.454   3.101   9.947 -1.6298  1.0420  1.2210
  782MPD2     N11593   3.636   3.105  10.365 -0.3590  0.0319 -0.5396
  782MPD2    H511594   3.652   3.205  10.366 -0.4013  0.0064  2.3907
  782MPD2    N111595   3.537   2.690  10.118  0.0245 -0.6738 -0.4097
  782MPD2    H711596   3.481   2.639  10.050  1.6613 -1.4230 -1.1957
  783MPD2     C11597   3.108   2.224  10.790  0.1270  0.0592 -0.1358
  783MPD2    C111598   3.211   2.305  10.812  0.1537 -0.7445 -0.6257
  783MPD2    C211599   3.305   2.324  10.709 -0.9629  0.0299 -0.1687
  783MPD2    C311600   3.294   2.267  10.587 -0.1361  0.2089 -0.6033
  783MPD2    C411601   3.190   2.180  10.568 -0.1071 -0.3835  0.1155
  783MPD2    C511602   3.102   2.157  10.672 -0.3984  0.3439  0.4595
  783MPD2     H11603   3.392   2.388  10.718  0.7611 -2.1450 -1.3870
  783MPD2    H111604   3.179   2.126  10.475  2.9551  1.5453 -1.3804
  783MPD2    H211605   3.026   2.216  10.861  1.3478  0.7655  1.3539
  783MPD2    H311606   3.021   2.089  10.650 -0.0091 -0.3218  1.0915
  783MPD2     N11607   3.398   2.293  10.495 -0.2764 -0.2267 -0.1764
  783MPD2    H511608   3.478   2.339  10.539 -1.9333  1.9151  0.5937
  783MPD2    N111609   3.209   2.367  10.943 -0.1398 -0.6559  0.2620
  783MPD2    H711610   3.141   2.328  11.007  0.3157  0.0951  1.2026
  784MPD2     C11611   1.261   2.784   0.469  0.4691 -0.2857 -0.3869
  784MPD2    C111612   1.269   2.879   0.572  0.2785  0.1117  0.2996
  784MPD2    C211613   1.174   2.980   0.594 -0.5677 -0.4121  0.1973
  784MPD2    C311614   1.063   2.982   0.515  0.0451  0.1771  0.8254
  784MPD2    C411615   1.057   2.892   0.411  0.3129 -0.1413  0.3585
  784MPD2    C511616   1.151   2.797   0.380  0.3066  0.0824  0.6330
  784MPD2     H11617   1.205   3.051   0.669  0.3692 -1.3698  0.7218
  784MPD2    H111618   0.970   2.892   0.347  1.0003 -0.3375 -0.5665
  784MPD2    H211619   1.339   2.710   0.453  2.5885  0.9429  4.1787
  784MPD2    H311620   1.134   2.728   0.298 -0.0119  1.6907 -0.6626
  784MPD2     N11621   0.955   3.064   0.558  0.0293  0.0267 -0.3694
  784MPD2    H511622   0.958   3.106   0.651 -0.6992 -1.1179  0.1796
  784MPD2    N111623   1.377   2.882   0.664 -0.3735  0.5613  0.3732
  784MPD2    H711624   1.389   2.961   0.728  2.5870  1.9365 -1.8627
  785MPD2     C11625   0.928   1.608  11.091  0.3630 -0.5412 -0.1183
  785MPD2    C111626   0.833   1.701  11.132 -0.5454 -0.5084  0.1901
  785MPD2    C211627   0.698   1.685  11.094 -0.0693 -0.9414 -0.0867
  785MPD2    C311628   0.667   1.581  11.023 -0.6202  0.0199  0.3130
  785MPD2    C411629   0.758   1.482  10.990 -0.7386  0.4715  0.0051
  785MPD2    C511630   0.886   1.498  11.025  0.9965  0.7000  0.2191
  785MPD2     H11631   0.623   1.754  11.131  0.5811  0.3167 -1.1302
  785MPD2    H111632   0.730   1.392  10.936  0.1278 -0.3331  0.9161
  785MPD2    H211633   1.032   1.611  11.123  1.0475 -0.1754 -2.3441
  785MPD2    H311634   0.961   1.424  11.000  2.9448  2.1799  1.7401
  785MPD2     N11635   0.537   1.589  10.971 -0.2848  0.6244 -0.0128
  785MPD2    H511636   0.471   1.663  10.994  0.4611 -0.0860  4.4053
  785MPD2    N111637   0.869   1.819  11.205  0.0790 -0.2242  0.1394
  785MPD2    H711638   0.801   1.888  11.234  3.5185  2.9898  0.6521
  786MPD2     C11639   4.234   4.592  14.580 -0.1803  0.7232  0.2979
  786MPD2    C111640   4.222   4.460  14.620  0.4376 -0.2090  0.0696
  786MPD2    C211641   4.293   4.426  14.732  0.2230  0.2628 -0.3155
  786MPD2    C311642   4.373   4.515  14.805  0.2329  0.0494  0.4600
  786MPD2    C411643   4.385   4.641  14.751  0.2007 -0.0234  0.3429
  786MPD2    C511644   4.325   4.675  14.639 -0.1016  0.3874  0.7881
  786MPD2     H11645   4.292   4.322  14.763 -0.0236  0.3623  0.0188
  786MPD2    H111646   4.453   4.717  14.788  0.4564 -1.4336  2.7741
  786MPD2    H211647   4.190   4.634  14.490  1.4084  1.6161 -0.0665
  786MPD2    H311648   4.336   0.039  14.595  1.5661 -1.0977 -2.1281
  786MPD2     N11649   4.461   4.477  14.913 -0.9401  0.2320  0.4928
  786MPD2    H511650   4.438   4.384  14.947 -2.6716  0.5218  0.1471
  786MPD2    N111651   4.161   4.355  14.542 -0.2274  0.0966  0.0008
  786MPD2    H711652   4.173   4.260  14.575 -0.1996 -0.6005 -1.9862
  787MPD2     C11653   4.317   3.759  14.650  0.0283  0.0145 -0.4164
  787MPD2    C111654   4.326   3.796  14.516  0.5608  0.0922  0.0845
  787MPD2    C211655   4.424   3.735  14.439 -0.2498  0.6877  0.2236
  787MPD2    C311656   4.519   3.649  14.497 -0.4039 -0.6659  0.1599
  787MPD2    C411657   4.509   3.617  14.630  0.5225  0.6302  0.2149
  787MPD2    C511658   4.406   3.674  14.703 -0.2391  0.0552  0.3872
  787MPD2     H11659   4.450   3.763  14.338  2.2590 -0.2806  0.5889
  787MPD2    H111660   4.577   3.551  14.681 -0.7915  0.1848  1.4048
  787MPD2    H211661   4.243   3.796  14.721 -0.1778 -0.0499 -0.5981
  787MPD2    H311662   4.397   3.658  14.810 -1.3272  0.2995  0.3357
  787MPD2     N11663   4.634   3.606  14.426  0.0456 -0.3521  0.0968
  787MPD2    H511664   4.658   3.658  14.342 -2.9684 -1.3046 -1.3329
  787MPD2    N111665   4.242   3.899  14.467 -0.0720 -0.0954 -0.2173
  787MPD2    H711666   4.186   3.956  14.530  1.1854 -0.3423  1.1183
  788MPD2     C11667   2.115   2.542   0.752 -0.0784 -0.2335  0.1827
  788MPD2    C111668   2.146   2.482   0.636  0.6482  0.1097 -0.4913
  788MPD2    C211669   2.173   2.564   0.532 -0.3171  0.1405  0.5634
  788MPD2    C311670   2.161   2.698   0.543  0.2524 -0.4470 -0.8228
  788MPD2    C411671   2.136   2.759   0.665  0.1796  0.1470 -0.1213
  788MPD2    C511672   2.118   2.680   0.778  0.2244 -0.2025 -0.5252
  788MPD2     H11673   2.195   2.526   0.433  0.2048  0.9948  0.3555
  788MPD2    H111674   2.138   2.866   0.685 -0.9426  0.1617 -0.1055
  788MPD2    H211675   2.090   2.478   0.836 -1.6670 -0.5823 -0.5671
  788MPD2    H311676   2.099   2.713   0.879  1.9596 -0.9590  0.0440
  788MPD2     N11677   2.162   2.784   0.433  0.3998 -0.0237 -0.4334
  788MPD2    H511678   2.124   2.877   0.448  0.4071  0.0738 -1.0141
  788MPD2    N111679   2.138   2.344   0.627 -0.0339 -0.0928  0.0294
  788MPD2    H711680   2.097   2.297   0.707 -0.8605 -0.4320 -0.5960
  789MPD2     C11681   1.963   2.496  16.144 -0.2294  0.1905  0.5879
  789MPD2    C111682   1.903   2.394  16.208  0.6631  0.2460 -0.0268
  789MPD2    C211683   1.827   2.420  16.319  0.2676  0.3635 -0.0073
  789MPD2    C311684   1.808   2.558  16.351  0.1283  1.2124 -0.0569
  789MPD2    C411685   1.857   2.657  16.279 -0.2813  0.3605  0.0591
  789MPD2    C511686   1.937   2.629  16.169 -0.3147 -0.8421  0.5885
  789MPD2     H11687   1.777   2.339  16.370  1.3945  0.9090  1.9521
  789MPD2    H111688   1.838   2.761  16.301  0.4451 -0.1906  3.2740
  789MPD2    H211689   2.034   2.471  16.065  0.4449 -2.1534  1.9321
  789MPD2    H311690   1.995   2.707  16.121  1.0951 -1.1626  1.7594
  789MPD2     N11691   1.721   2.587  16.461  0.4072 -0.1680  0.2203
  789MPD2    H511692   1.689   2.683  16.453  0.0847 -0.1130  2.3777
  789MPD2    N111693   1.902   2.258  16.162 -0.1172 -0.0591  0.6597
  789MPD2    H711694   1.859   2.189  16.223  2.1366 -1.9978  0.0396
  790MPD2     C11695   3.109   3.420  13.140  0.3640  0.2723  0.7312
  790MPD2    C111696   2.990   3.483  13.176 -0.1725 -0.3449 -0.0252
  790MPD2    C211697   2.909   3.523  13.068 -0.4932  0.0558  0.1152
  790MPD2    C311698   2.950   3.510  12.937 -0.4935 -0.0780 -0.1870
  790MPD2    C411699   3.074   3.454  12.915  0.4227  0.9304 -1.0820
  790MPD2    C511700   3.158   3.408  13.014 -0.0757 -0.6841  0.5272
  790MPD2     H11701   2.815   3.575  13.086  1.2509  2.6123  1.7546
  790MPD2    H111702   3.108   3.435  12.814 -0.1054  1.4732 -1.3616
  790MPD2    H211703   3.173   3.391  13.223  0.6127 -0.7998  0.1659
  790MPD2    H311704   3.254   3.363  12.990 -0.0551 -0.9553  1.0947
  790MPD2     N11705   2.859   3.542  12.829 -0.0314 -0.6476 -0.1535
  790MPD2    H511706   2.773   3.588  12.859 -0.1281 -3.0050  3.1582
  790MPD2    N111707   2.973   3.497  13.313 -0.2776 -0.3398 -0.6439
  790MPD2    H711708   3.050   3.464  13.370 -0.5851  0.4436  0.2188
  791MPD2     C11709   2.229   3.335  12.768  0.1983  0.4937 -0.0021
  791MPD2    C111710   2.251   3.441  12.677 -0.2475  0.2437 -0.0569
  791MPD2    C211711   2.130   3.497  12.625 -0.6369  0.0032  0.0416
  791MPD2    C311712   2.008   3.452  12.658 -0.1003  0.1986  0.5614
  791MPD2    C411713   1.996   3.343  12.744 -0.9854 -1.2619  0.2525
  791MPD2    C511714   2.102   3.286  12.798  0.0634 -0.3390 -0.6139
  791MPD2     H11715   2.140   3.579  12.555 -0.9942 -0.3259 -0.3943
  791MPD2    H111716   1.902   3.300  12.775 -2.3572  0.9973 -0.7795
  791MPD2    H211717   2.311   3.279  12.813  0.7973  1.9331  0.6890
  791MPD2    H311718   2.099   3.201  12.865  2.3870 -0.7260 -0.9728
  791MPD2     N11719   1.902   3.524  12.597  0.3016 -0.1435  0.1035
  791MPD2    H511720   1.929   3.614  12.560 -0.5058  0.3002  0.5636
  791MPD2    N111721   2.384   3.473  12.640 -0.1550 -0.0713  0.5140
  791MPD2    H711722   2.463   3.433  12.691  0.6573 -0.4566 -1.0455
  792MPD2     C11723   3.537   3.645  10.873  0.5616  0.2036  0.1318
  792MPD2    C111724   3.416   3.703  10.901 -0.2860 -0.3434 -0.0110
  792MPD2    C211725   3.300   3.622  10.900 -0.1812 -0.6101 -0.4216
  792MPD2    C311726   3.312   3.488  10.886  0.2250  0.1370 -0.0506
  792MPD2    C411727   3.439   3.434  10.873  0.4122  0.5670  0.0457
  792MPD2    C511728   3.548   3.512  10.858 -0.1143  0.0578 -0.4680
  792MPD2     H11729   3.198   3.659  10.895  0.3919  0.7393 -2.4681
  792MPD2    H111730   3.454   3.329  10.851 -1.6973  0.4799 -0.9002
  792MPD2    H211731   3.622   3.712  10.870  1.9714 -1.5875  0.1013
  792MPD2    H311732   3.647   3.475  10.833 -1.0611 -2.1940 -0.8364
  792MPD2     N11733   3.211   3.389  10.875  0.6949 -0.3005  0.2672
  792MPD2    H511734   3.244   3.297  10.847  0.1047 -0.9283  1.6397
  792MPD2    N111735   3.417   3.844  10.907 -0.3206  1.0291  0.4445
  792MPD2    H711736   3.511   3.882  10.907  1.1429 -2.5691 -1.2395
  793MPD2     C11737   2.404   3.207  10.381 -0.2207  0.2135  0.3493
  793MPD2    C111738   2.500   3.307  10.389  0.1629  0.2587  0.0786
  793MPD2    C211739   2.564   3.322  10.509  0.3500 -0.0814 -0.0133
  793MPD2    C311740   2.530   3.249  10.618 -0.3822  0.1137  0.1504
  793MPD2    C411741   2.439   3.148  10.614  0.5771  0.0272  0.0056
  793MPD2    C511742   2.373   3.139  10.493  0.2779 -0.1036 -0.4202
  793MPD2     H11743   2.643   3.395  10.521 -0.0195  0.3181 -0.0230
  793MPD2    H111744   2.416   3.091  10.703 -0.4921  2.1395  1.0864
  793MPD2    H211745   2.354   3.171  10.292  2.4090 -1.0743 -0.6252
  793MPD2    H311746   2.294   3.066  10.478  0.3551  0.0113 -1.3784
  793MPD2     N11747   2.612   3.274  10.728 -0.0704 -0.0693 -0.0289
  793MPD2    H511748   2.653   3.365  10.747 -0.3994  0.6694 -2.9204
  793MPD2    N111749   2.543   3.389  10.284  0.7474  0.0419 -0.3008
  793MPD2    H711750   2.611   3.463  10.299  0.9305 -0.0421 -0.7079
  794MPD2     C11751   2.705   2.931  17.162 -0.8831  0.1515  0.5543
  794MPD2    C111752   2.697   2.830  17.073 -0.1461  0.0426 -0.1484
  794MPD2    C211753   2.629   2.852  16.950  0.6435  0.3030 -0.5168
  794MPD2    C311754   2.577   2.984  16.919  0.1848 -0.2795 -0.3587
  794MPD2    C411755   2.597   3.083  17.020 -0.5193 -0.2500  0.5722
  794MPD2    C511756   2.652   3.057  17.140 -0.4028  0.9233  0.2761
  794MPD2     H11757   2.606   2.767  16.886  2.2646 -0.0845 -0.5836
  794MPD2    H111758   2.563   3.184  17.003  0.9015  0.1303  0.0194
  794MPD2    H211759   2.738   2.911  17.263  0.4006  0.2199  0.1467
  794MPD2    H311760   2.659   3.125  17.223  0.5182  1.0265  0.1079
  794MPD2     N11761   2.496   3.017  16.806  0.1075 -0.9881 -0.4837
  794MPD2    H511762   2.449   3.105  16.790 -0.0261 -1.0670 -0.5284
  794MPD2    N111763   2.747   2.697  17.102 -0.1765  0.6002  0.4303
  794MPD2    H711764   2.723   2.628  17.031  1.2916 -0.1639  0.6798
  795MPD2     C11765   0.291   0.489  13.632 -0.1474 -0.9601  0.5614
  795MPD2    C111766   0.335   0.411  13.528  0.3563  0.3248  0.5051
  795MPD2    C211767   0.398   0.296  13.554 -0.2652  0.1405 -0.2265
  795MPD2    C311768   0.424   0.255  13.681  0.0584  0.0347 -0.3588
  795MPD2    C411769   0.386   0.338  13.784  1.1679  0.5670  0.8697
  795MPD2    C511770   0.317   0.453  13.762  0.2405 -0.6884 -0.2193
  795MPD2     H11771   0.429   0.234  13.470 -0.9889 -0.1082 -0.3103
  795MPD2    H111772   0.399   0.311  13.888 -2.4152  1.2198  1.4974
  795MPD2    H211773   0.234   0.578  13.609  1.0985 -0.1102  0.7499
  795MPD2    H311774   0.287   0.513  13.848 -0.6485 -4.4507  2.0617
  795MPD2     N11775   0.501   0.142  13.703 -0.7399 -0.1405 -0.0003
  795MPD2    H511776   0.538   0.079  13.632  1.0226 -0.1616  0.9386
  795MPD2    N111777   0.300   0.441  13.396  0.0830  0.3240  0.1283
  795MPD2    H711778   0.332   0.372  13.328  0.0013  0.2439  0.1708
  796MPD2     C11779   4.352   1.509  15.750 -0.2531 -0.7603 -0.2442
  796MPD2    C111780   4.451   1.570  15.819  0.2842 -0.1230 -0.0023
  796MPD2    C211781   4.477   1.707  15.794  0.4665 -1.0456  0.0895
  796MPD2    C311782   4.402   1.780  15.710  0.1691 -0.2176 -0.4140
  796MPD2    C411783   4.298   1.719  15.649  0.6033 -0.0961 -0.5378
  796MPD2    C511784   4.271   1.587  15.665  0.3164 -0.4740 -0.1904
  796MPD2     H11785   4.554   1.755  15.854  0.2605  1.4995 -1.6999
  796MPD2    H111786   4.235   1.779  15.585 -0.0334 -0.6583 -0.4316
  796MPD2    H211787   4.345   1.401  15.740  0.4913 -0.9336  1.2002
  796MPD2    H311788   4.195   1.544  15.600 -0.2158  1.5648 -0.9069
  796MPD2     N11789   4.441   1.911  15.693  0.2559  0.8332  0.3651
  796MPD2    H511790   4.511   1.952  15.755  0.7592  3.1555 -1.7709
  796MPD2    N111791   4.531   1.488  15.894 -0.2874  0.6153 -0.4985
  796MPD2    H711792   4.506   1.390  15.900  2.7669 -0.1701 -0.7036
  797MPD2     C11793   0.997   1.291  17.340  1.0407 -0.2209  0.1202
  797MPD2    C111794   1.028   1.432  17.334  0.9644  0.1475  0.4145
  797MPD2    C211795   0.944   1.518  17.265 -0.1942  1.1409 -0.3712
  797MPD2    C311796   0.831   1.472  17.191 -0.4821 -0.5458  0.4321
  797MPD2    C411797   0.808   1.337  17.198 -0.1114  0.0083 -0.0309
  797MPD2    C511798   0.882   1.251  17.277  0.2221  0.0222 -0.0748
  797MPD2     H11799   0.966   1.624  17.258 -1.7890  1.2477 -3.9535
  797MPD2    H111800   0.723   1.299  17.142  0.9104 -0.2030 -1.4313
  797MPD2    H211801   1.050   1.217  17.399 -0.5532  0.2220  2.1092
  797MPD2    H311802   0.854   1.146  17.273  0.7714 -0.0626 -1.9321
  797MPD2     N11803   0.760   1.571  17.118 -0.0755  0.0154 -0.1000
  797MPD2    H511804   0.812   1.656  17.135  0.7062 -0.3042 -0.9287
  797MPD2    N111805   1.152   1.491  17.374 -0.1700  0.2169  0.2383
  797MPD2    H711806   1.157   1.591  17.353 -1.5547  0.1475 -0.4303
  798MPD2     C11807   1.150   2.009  16.949 -0.0034 -0.3304  0.2094
  798MPD2    C111808   1.061   1.974  17.050  0.4819 -0.0040  0.2651
  798MPD2    C211809   1.120   1.945  17.179  0.1499  0.5010 -0.0745
  798MPD2    C311810   1.259   1.945  17.190 -0.7613 -0.0093  0.0944
  798MPD2    C411811   1.342   1.996  17.095 -0.1867 -0.0237  0.2698
  798MPD2    C511812   1.280   2.032  16.974 -0.2908  0.3410  0.0490
  798MPD2     H11813   1.068   1.905  17.266 -4.0093 -0.2140 -2.8727
  798MPD2    H111814   1.449   2.009  17.102  0.1031 -2.0609 -0.4131
  798MPD2    H211815   1.109   2.034  16.852  0.4505  1.6708  0.5355
  798MPD2    H311816   1.343   2.069  16.894  2.1450  0.2372  1.9277
  798MPD2     N11817   1.314   1.878  17.308  0.1832  0.5631  0.0471
  798MPD2    H511818   1.249   1.859  17.384  0.9237 -0.3436  0.4405
  798MPD2    N111819   0.931   1.972  17.023  0.6407 -0.0382 -0.0598
  798MPD2    H711820   0.897   1.998  16.931  0.9904  0.2636 -0.1027
  799MPD2     C11821   4.347   3.203  14.549  0.5562 -0.2826  0.5619
  799MPD2    C111822   4.285   3.139  14.439  0.2379 -0.0525 -0.1221
  799MPD2    C211823   4.194   3.207  14.355  0.0507 -0.1591  0.2711
  799MPD2    C311824   4.167   3.341  14.378  0.2613  0.6241 -0.2411
  799MPD2    C411825   4.232   3.402  14.487 -0.1404  0.0022  0.2083
  799MPD2    C511826   4.319   3.335  14.571 -0.7107  0.1307 -0.4726
  799MPD2     H11827   4.139   3.142  14.288 -3.2104  1.4364  1.4139
  799MPD2    H111828   4.227   3.509  14.498  0.2919  0.0312  0.1320
  799MPD2    H211829   4.423   3.157  14.610  0.9137 -0.0806  0.2710
  799MPD2    H311830   4.382   3.392  14.638  1.0633 -2.3147 -0.0444
  799MPD2     N11831   4.096   3.418  14.282 -0.5245 -0.3168 -0.3139
  799MPD2    H511832   4.104   3.519  14.288  2.0344 -0.4756 -1.1651
  799MPD2    N111833   4.303   3.000  14.421 -0.2881  0.0840  0.5240
  799MPD2    H711834   4.238   2.958  14.356 -1.7153  0.1612  1.9014
  800MPD2     C11835   4.614   4.182  13.468 -0.3014  0.1691 -0.0988
  800MPD2    C111836   4.731   4.152  13.523 -0.0999  0.2064  0.6340
  800MPD2    C211837   0.084   4.061  13.470 -0.4417  0.5603 -0.5118
  800MPD2    C311838   0.049   4.008  13.341  1.1029  0.3024  0.0531
  800MPD2    C411839   4.658   4.034  13.291 -0.3129 -0.6734 -0.2656
  800MPD2    C511840   4.569   4.108  13.363 -0.6987  0.0666  0.4311
  800MPD2     H11841   0.178   4.035  13.516 -1.0490 -0.8555 -0.0763
  800MPD2    H111842   4.617   3.988  13.202  0.0918 -1.4240 -0.0601
  800MPD2    H211843   4.562   4.261  13.521 -1.8863 -0.6377 -0.4379
  800MPD2    H311844   4.474   4.123  13.312 -0.6852 -1.6913 -0.1161
  800MPD2     N11845   0.136   3.924  13.276  0.2305 -0.3587  0.2670
  800MPD2    H511846   0.228   3.903  13.312 -0.0761 -0.1367  1.1673
  800MPD2    N111847   0.023   4.230  13.634 -0.2999  0.8811  0.7026
  800MPD2    H711848   4.691   4.304  13.653 -0.3174  0.6641  1.4786
  801MPD2     C11849   0.057   0.223  13.665  0.9840  0.5524 -0.2305
  801MPD2    C111850   0.024   0.154  13.779  0.0633 -0.7123 -0.2183
  801MPD2    C211851   4.685   0.216  13.878  0.0063  0.2919 -0.1918
  801MPD2    C311852   4.647   0.347  13.872 -0.0044 -0.6040 -0.0320
  801MPD2    C411853   4.665   0.409  13.754 -0.7169 -0.3442  0.3509
  801MPD2    C511854   0.005   0.351  13.656  0.9029 -0.2647  0.5203
  801MPD2     H11855   4.681   0.155  13.967 -0.7005  0.7003  0.0552
  801MPD2    H111856   4.624   0.509  13.738  1.4383  0.3235 -1.0348
  801MPD2    H211857   0.124   0.188  13.588 -0.6395 -0.5234 -1.1419
  801MPD2    H311858   0.018   0.414  13.569 -2.8611  0.3296  0.3934
  801MPD2     N11859   4.577   0.404  13.977 -0.0508 -0.2467  0.4077
  801MPD2    H511860   4.524   0.489  13.956  0.8364  0.2343  0.1356
  801MPD2    N111861   0.083   0.026  13.811  0.6266  0.5685 -0.1228
  801MPD2    H711862   0.050   4.721  13.898  0.3568  2.4862  0.6570
  802MPD2     C11863   4.704   0.441   0.113  0.3996 -0.5964  0.6863
  802MPD2    C111864   4.583   0.430   0.041  0.4927  0.1514  0.1829
  802MPD2    C211865   4.567   0.325  17.698 -0.4013 -0.6871  0.3630
  802MPD2    C311866   4.661   0.227  17.671 -0.1154  0.0640  0.1104
  802MPD2    C411867   0.042   0.229   0.005  0.5587 -0.1249  0.1438
  802MPD2    C511868   0.054   0.336   0.094  0.2487  0.0963  0.3256
  802MPD2     H11869   4.470   0.312  17.651  0.1205 -1.5989 -0.4631
  802MPD2    H111870   0.120   0.154  17.737  0.2377 -0.2587 -1.9936
  802MPD2    H211871   4.713   0.509   0.198  1.5718 -0.6077  0.5755
  802MPD2    H311872   0.147   0.340   0.149  0.6502  2.0692 -0.5186
  802MPD2     N11873   4.632   0.138  17.569  0.0323  0.3056  0.0980
  802MPD2    H511874   4.544   0.151  17.519 -0.3098  0.3231  0.6963
  802MPD2    N111875   4.478   0.525   0.041 -0.1924  0.0682 -0.5818
  802MPD2    H711876   4.395   0.500  17.728  0.5782 -0.9128 -1.3535
  803MPD2     C11877   0.528   3.796  11.933 -0.0052  0.5639  0.3277
  803MPD2    C111878   0.620   3.691  11.959 -0.5209 -0.1808  0.9654
  803MPD2    C211879   0.605   3.611  12.076 -0.4834 -0.1949 -0.0318
  803MPD2    C311880   0.505   3.655  12.160  0.3672 -0.0880 -0.1841
  803MPD2    C411881   0.417   3.758  12.126  0.5503 -0.3176  0.7423
  803MPD2    C511882   0.432   3.838  12.020 -0.1098 -0.2631  1.1854
  803MPD2     H11883   0.673   3.531  12.105  1.1840  1.0564 -0.4285
  803MPD2    H111884   0.335   3.785  12.191 -1.2647  1.4931 -2.3408
  803MPD2    H211885   0.546   3.860  11.847  0.0156 -0.5811 -0.5249
  803MPD2    H311886   0.362   3.917  11.995  0.4320 -0.1699  0.0176
  803MPD2     N11887   0.469   3.591  12.277 -0.7071  0.5115 -0.4875
  803MPD2    H511888   0.406   3.639  12.340 -0.9950 -0.7714  0.2083
  803MPD2    N111889   0.728   3.661  11.877 -0.2760  0.2455  0.6895
  803MPD2    H711890   0.797   3.594  11.910 -0.9964 -0.4061  0.8706
  804MPD2     C11891   0.219   0.203  17.142 -0.5171 -1.1493  0.5104
  804MPD2    C111892   0.291   0.181  17.261 -0.3671  0.1990  0.1886
  804MPD2    C211893   0.316   0.290  17.344  0.2241 -0.5375  0.4024
  804MPD2    C311894   0.265   0.413  17.306  0.9093 -0.2109 -0.4533
  804MPD2    C411895   0.200   0.426  17.185 -0.3863 -0.1986  0.0275
  804MPD2    C511896   0.177   0.324  17.104 -0.7551  0.3034  0.5706
  804MPD2     H11897   0.382   0.276  17.429 -2.0739 -1.2020  2.0965
  804MPD2    H111898   0.175   0.523  17.144 -0.5798 -0.6856 -1.0273
  804MPD2    H211899   0.203   0.122  17.072 -0.7804  0.7276 -1.6232
  804MPD2    H311900   0.130   0.346  17.009  0.3860  3.7675  0.8005
  804MPD2     N11901   0.308   0.523  17.378  0.2783  0.0714  0.3528
  804MPD2    H511902   0.365   0.505  17.460 -1.1903 -2.8667  0.7190
  804MPD2    N111903   0.332   0.057  17.310  0.3248 -0.4621  0.0346
  804MPD2    H711904   0.367   0.052  17.405 -2.1074 -2.3171  0.8339
  805MPD2     C11905   4.170   3.396  15.506 -0.3298  0.5919  0.5554
  805MPD2    C111906   4.282   3.412  15.424  0.2224  1.4527  0.1311
  805MPD2    C211907   4.406   3.390  15.480 -0.1366 -0.6190 -0.0145
  805MPD2    C311908   4.425   3.334  15.602 -0.6050 -0.1164 -0.1450
  805MPD2    C411909   4.315   3.308  15.677 -0.0616 -0.0375  0.0512
  805MPD2    C511910   4.187   3.345  15.636  0.8718 -0.3014 -0.2413
  805MPD2     H11911   4.499   3.413  15.428 -1.2092 -0.3394 -1.8035
  805MPD2    H111912   4.324   3.262  15.774  0.1468  3.1950  1.5689
  805MPD2    H211913   4.072   3.416  15.464  0.2308 -0.5004 -1.2871
  805MPD2    H311914   4.096   3.329  15.694  0.7412 -0.1261 -0.3987
  805MPD2     N11915   4.563   3.320  15.643 -0.2397  0.0146  0.0283
  805MPD2    H511916   4.624   3.368  15.577  0.0030  1.1690  1.0798
  805MPD2    N111917   4.274   3.455  15.293  0.0766  0.2856 -0.3263
  805MPD2    H711918   4.362   3.462  15.243  1.4893 -1.1292  1.9667
  806MPD2     C11919   0.311   2.442   0.364  0.1030  0.5056  0.7886
  806MPD2    C111920   0.195   2.518   0.384  0.5870 -0.0291 -0.2514
  806MPD2    C211921   0.170   2.612   0.286  0.2794  0.2166 -1.0156
  806MPD2    C311922   0.257   2.644   0.183 -0.6300  0.4531 -0.5631
  806MPD2    C411923   0.372   2.570   0.170 -0.3139 -0.2707  0.0519
  806MPD2    C511924   0.399   2.471   0.259  0.8705  0.0653 -0.4788
  806MPD2     H11925   0.075   2.664   0.288  1.1873  1.8282  0.0429
  806MPD2    H111926   0.445   2.584   0.091 -0.9896 -1.7448 -0.8492
  806MPD2    H211927   0.332   2.352   0.422 -2.1236 -0.3700  0.2203
  806MPD2    H311928   0.488   2.410   0.252  0.4806 -0.6047  0.3925
  806MPD2     N11929   0.250   2.752   0.094 -0.2319  0.7535  0.1248
  806MPD2    H511930   0.326   2.767   0.029  1.0564  0.3351  1.5379
  806MPD2    N111931   0.116   2.482   0.493  0.2266 -0.3648 -0.2130
  806MPD2    H711932   0.154   2.409   0.553 -1.1851 -1.3676 -0.5371
  807MPD2     C11933   4.048   2.373   0.847 -0.5876  0.0678 -0.1293
  807MPD2    C111934   4.149   2.280   0.865 -0.0278  0.8367 -0.6763
  807MPD2    C211935   4.106   2.164   0.932  0.2545  0.5354  0.1738
  807MPD2    C311936   3.982   2.131   0.964  0.1226  0.0452  0.0565
  807MPD2    C411937   3.888   2.228   0.939 -0.1403 -0.0804  1.0006
  807MPD2    C511938   3.920   2.346   0.885 -0.0064 -0.7370 -0.3853
  807MPD2     H11939   4.185   2.093   0.955  0.7140  1.1438  0.4650
  807MPD2    H111940   3.786   2.210   0.971 -0.5522 -1.1948 -0.9586
  807MPD2    H211941   4.071   2.470   0.806  0.7205 -0.5155 -0.7476
  807MPD2    H311942   3.846   2.425   0.882  0.5589 -0.2528 -1.6785
  807MPD2     N11943   3.961   2.003   1.016 -0.5663 -0.5267  0.4513
  807MPD2    H511944   4.041   1.952   1.053  2.0359  3.0541 -0.2945
  807MPD2    N111945   4.288   2.307   0.856 -0.3760  0.6357 -0.4548
  807MPD2    H711946   4.350   2.230   0.881  1.8573  2.3444 -0.7694
  808MPD2     C11947   0.560   4.270   9.258  0.5541  0.0172 -0.1392
  808MPD2    C111948   0.581   4.304   9.393 -0.6496  0.2688  0.7674
  808MPD2    C211949   0.700   4.367   9.424 -0.0671 -0.4157 -0.0012
  808MPD2    C311950   0.786   4.410   9.324 -0.7710 -0.5167 -1.2233
  808MPD2    C411951   0.759   4.382   9.193  0.2809 -0.0120  0.0133
  808MPD2    C511952   0.646   4.313   9.159 -0.3689 -0.1473  0.0118
  808MPD2     H11953   0.729   4.385   9.527  0.3727  1.6016 -0.4953
  808MPD2    H111954   0.823   4.422   9.115 -0.3013 -0.6405 -0.7757
  808MPD2    H211955   0.475   4.218   9.216  1.3591 -1.5493  0.1661
  808MPD2    H311956   0.626   4.288   9.056  0.1398 -0.4796 -0.0046
  808MPD2     N11957   0.907   4.480   9.352  0.0246 -0.3136  0.2468
  808MPD2    H511958   0.973   4.485   9.275 -0.1178  4.0026  0.3964
  808MPD2    N111959   0.498   4.266   9.501 -0.0852  0.6231  0.1310
  808MPD2    H711960   0.552   4.284   9.585 -0.5513  0.2581  0.5130
  809MPD2     C11961   1.494   4.330   8.777  0.0386  0.0584 -0.5301
  809MPD2    C111962   1.584   4.384   8.869 -0.5037 -0.2006 -0.2024
  809MPD2    C211963   1.532   4.445   8.984 -0.0956 -0.4678  0.5472
  809MPD2    C311964   1.397   4.450   9.011  0.0117  0.2243 -0.0053
  809MPD2    C411965   1.309   4.407   8.919  0.2286 -0.1128 -0.3542
  809MPD2    C511966   1.358   4.357   8.805  0.1297  0.7123  0.0111
  809MPD2     H11967   1.594   4.487   9.062 -0.6095  1.5864 -0.1630
  809MPD2    H111968   1.201   4.413   8.924  0.4885  4.2814 -0.3396
  809MPD2    H211969   1.530   4.275   8.692 -0.2896 -2.5127  0.9811
  809MPD2    H311970   1.280   4.319   8.740  1.1619  0.9780 -1.3978
  809MPD2     N11971   1.343   4.478   9.140  0.0625  0.5604 -0.5139
  809MPD2    H511972   1.243   4.466   9.136 -0.0183  1.5609 -1.3390
  809MPD2    N111973   1.719   4.378   8.845 -0.1173  0.0495 -0.2619
  809MPD2    H711974   1.776   4.421   8.917 -0.1674  1.7429 -1.2294
  810MPD2     C11975   0.604   3.473  10.376  0.4617 -0.1677 -0.4161
  810MPD2    C111976   0.507   3.566  10.355 -0.0380 -0.6339 -0.0102
  810MPD2    C211977   0.551   3.698  10.352 -0.3493  0.0812 -0.0764
  810MPD2    C311978   0.690   3.728  10.353 -0.3097  0.5604 -0.0286
  810MPD2    C411979   0.781   3.633  10.373  0.3981 -0.0831  0.1240
  810MPD2    C511980   0.738   3.506  10.381  0.5349 -0.0171 -0.8441
  810MPD2     H11981   0.484   3.784  10.356  0.4762  0.7194  0.0338
  810MPD2    H111982   0.886   3.651  10.398  0.3396 -1.7918  1.6594
  810MPD2    H211983   0.584   3.367  10.388 -2.5201  0.3074 -1.1957
  810MPD2    H311984   0.804   3.421  10.397  0.1626  0.1391  1.4659
  810MPD2     N11985   0.727   3.864  10.361  0.1951 -0.0990 -0.1130
  810MPD2    H511986   0.826   3.883  10.378 -0.1748  1.0213  0.8137
  810MPD2    N111987   0.373   3.510  10.343 -0.0490  0.3143  1.0624
  810MPD2    H711988   0.361   3.410  10.357  0.0218 -0.0932 -1.7673
  811MPD2     C11989   4.189   3.530  10.244 -0.1270 -0.4799  0.2525
  811MPD2    C111990   4.298   3.590  10.185  0.3317  0.0728 -0.3903
  811MPD2    C211991   4.284   3.715  10.124 -0.3776  0.0095  0.0482
  811MPD2    C311992   4.164   3.780  10.126  0.2197 -0.5855  0.3533
  811MPD2    C411993   4.058   3.716  10.186  0.3431 -0.0987 -0.3633
  811MPD2    C511994   4.070   3.595  10.243 -0.3253 -0.2268 -0.0219
  811MPD2     H11995   4.361   3.774  10.075 -1.3542  1.2850  0.0454
  811MPD2    H111996   3.960   3.760  10.203 -0.1215 -0.8347 -1.1535
  811MPD2    H211997   4.192   3.429  10.284 -0.1141 -0.7064 -0.3285
  811MPD2    H311998   3.986   3.546  10.289 -0.8421 -0.2942 -1.0270
  811MPD2     N11999   4.164   3.908  10.063 -0.9092 -0.4661 -0.3534
  811MPD2    H512000   4.250   3.941  10.020 -2.3354  1.2748 -1.8367
  811MPD2    N112001   4.420   3.523  10.196 -0.0397  0.4139  0.3921
  811MPD2    H712002   4.411   3.423  10.212  0.3501  0.1782 -0.8895
  812MPD2     C12003   3.849   3.803  11.577 -0.6099  0.1642 -0.1676
  812MPD2    C112004   3.832   3.909  11.667 -1.0272 -0.4390 -0.2859
  812MPD2    C212005   3.828   3.874  11.801 -0.0034  0.2529 -1.0050
  812MPD2    C312006   3.841   3.741  11.845  0.3375 -0.0197  0.1944
  812MPD2    C412007   3.867   3.642  11.752  0.4499  0.0474 -0.1878
  812MPD2    C512008   3.880   3.675  11.619 -0.1664 -0.1273  0.0366
  812MPD2     H12009   3.815   3.958  11.868  2.6714  0.6905 -1.0539
  812MPD2    H112010   3.876   3.537  11.780  1.3093  0.3183  0.5438
  812MPD2    H212011   3.854   3.808  11.469 -0.9833  1.4346 -0.1251
  812MPD2    H312012   3.885   3.591  11.551 -1.2389 -0.0216 -0.1645
  812MPD2     N12013   3.803   3.716  11.975  0.1554  0.5054 -0.1703
  812MPD2    H512014   3.792   3.800  12.030  0.5786 -0.9643  2.1434
  812MPD2    N112015   3.818   4.035  11.609 -0.2342  0.3943 -0.5827
  812MPD2    H712016   3.820   4.027  11.508 -1.3927 -0.5583 -0.5349
  813MPD2     C12017   2.193   0.796  12.858  1.1149 -0.6450  0.2226
  813MPD2    C112018   2.262   0.912  12.894 -0.1125 -0.0933  0.2721
  813MPD2    C212019   2.237   0.964  13.020 -0.0970  0.4474 -0.1782
  813MPD2    C312020   2.153   0.899  13.108 -0.3091 -0.1417 -0.7144
  813MPD2    C412021   2.063   0.809  13.058 -0.4129 -0.4135  0.4353
  813MPD2    C512022   2.086   0.759  12.932  0.6663  0.2391  0.8813
  813MPD2     H12023   2.300   1.038  13.068  3.8883 -1.0166 -3.1455
  813MPD2    H112024   1.975   0.766  13.104 -0.5647 -0.1701  0.3735
  813MPD2    H212025   2.204   0.747  12.762 -0.9258  0.6663 -0.6783
  813MPD2    H312026   2.020   0.684  12.889 -1.2396  3.0644 -1.0959
  813MPD2     N12027   2.145   0.941  13.247 -0.0092 -0.0898 -0.1756
  813MPD2    H512028   2.214   1.014  13.263  0.2305 -0.2484 -0.4893
  813MPD2    N112029   2.357   0.960  12.803 -0.2358 -0.3400  0.5433
  813MPD2    H712030   2.374   0.915  12.713 -1.7889 -0.8663  0.5269
  814MPD2     C12031   3.251   2.185  12.439  0.0605 -0.0556  0.3803
  814MPD2    C112032   3.303   2.198  12.312  0.0590 -0.2946 -0.7954
  814MPD2    C212033   3.398   2.296  12.300 -0.4126  0.4271 -0.0395
  814MPD2    C312034   3.459   2.368  12.403 -0.3980 -0.1526  0.2787
  814MPD2    C412035   3.415   2.345  12.530  0.0536  0.1961  0.0325
  814MPD2    C512036   3.308   2.263  12.547 -0.0751 -0.5082 -0.1449
  814MPD2     H12037   3.439   2.323  12.203 -3.0584 -2.3745 -1.9123
  814MPD2    H112038   3.452   2.400  12.616  1.2748  0.6591 -0.8082
  814MPD2    H212039   3.164   2.125  12.461 -1.5871  1.4447 -2.1172
  814MPD2    H312040   3.249   2.268  12.638 -0.0914  0.5661 -0.2150
  814MPD2     N12041   3.553   2.464  12.385  0.7244 -0.2379 -0.2844
  814MPD2    H512042   3.568   2.528  12.461 -2.3923 -0.3598  0.4312
  814MPD2    N112043   3.251   2.142  12.197 -0.8284 -0.2122  0.6586
  814MPD2    H712044   3.293   2.166  12.107 -1.0772  0.5092  0.7365
  815MPD2     C12045   3.537   0.980  11.858  0.6269 -0.3248 -0.1327
  815MPD2    C112046   3.542   0.850  11.825  0.0447  0.2893 -0.1858
  815MPD2    C212047   3.458   0.769  11.904 -0.5258  0.5650  0.4697
  815MPD2    C312048   3.384   0.824  12.010  0.9489  0.4178 -0.1761
  815MPD2    C412049   3.389   0.956  12.043 -0.1912  0.0279  0.4701
  815MPD2    C512050   3.460   1.035  11.954  0.4129 -0.0761  0.4260
  815MPD2     H12051   3.456   0.661  11.889  0.8854  0.9329 -2.4712
  815MPD2    H112052   3.329   0.995  12.124 -0.1601 -0.2991  0.6515
  815MPD2    H212053   3.594   1.046  11.794  0.3985  0.3979  0.3998
  815MPD2    H312054   3.469   1.143  11.964 -3.6827  0.3857 -0.9078
  815MPD2     N12055   3.306   0.730  12.081  0.0106  0.2670 -0.0501
  815MPD2    H512056   3.302   0.632  12.054 -0.2717  0.4322 -0.6060
  815MPD2    N112057   3.635   0.807  11.730  0.1408 -0.0093 -0.4219
  815MPD2    H712058   3.677   0.878  11.671 -1.6198  1.9140  0.6450
  816MPD2     C12059   3.401   4.019  17.375 -0.0244 -0.0394 -0.3533
  816MPD2    C112060   3.464   4.142  17.363  0.1347  0.4162 -0.2548
  816MPD2    C212061   3.595   4.148  17.309 -0.2122  0.5715  0.7002
  816MPD2    C312062   3.661   4.029  17.282  0.4736  0.9434  0.6124
  816MPD2    C412063   3.599   3.904  17.294 -0.4263 -0.0398  0.3774
  816MPD2    C512064   3.468   3.904  17.345  0.5085 -0.1189 -1.1867
  816MPD2     H12065   3.653   4.240  17.307  1.4120 -0.3965  3.0228
  816MPD2    H112066   3.655   3.811  17.283  0.3009  0.4868 -0.3926
  816MPD2    H212067   3.306   4.012  17.427 -0.0790  1.2104 -0.2682
  816MPD2    H312068   3.422   3.810  17.373 -4.4924  2.2660 -1.4121
  816MPD2     N12069   3.793   4.042  17.225 -0.1263 -0.0420 -0.3169
  816MPD2    H512070   3.831   4.136  17.220 -2.9764  1.1857  1.2586
  816MPD2    N112071   3.391   4.258  17.393  0.0451  0.1635 -0.5649
  816MPD2    H712072   3.291   4.247  17.411 -0.1251  0.2305 -1.4783
  817MPD2     C12073   2.569   1.101   9.608 -1.2980 -0.5365  0.5589
  817MPD2    C112074   2.658   1.113   9.499 -0.2627 -0.6240  0.2190
  817MPD2    C212075   2.647   1.222   9.410 -0.3009 -0.1300 -0.5305
  817MPD2    C312076   2.544   1.313   9.432 -0.8384 -0.4245  0.4323
  817MPD2    C412077   2.460   1.302   9.540 -0.0955  0.4059 -0.3212
  817MPD2    C512078   2.472   1.199   9.633  1.6683 -0.4259 -0.2791
  817MPD2     H12079   2.711   1.217   9.322  0.6238 -1.2616  0.2070
  817MPD2    H112080   2.378   1.369   9.565 -0.1007  0.0510  0.6056
  817MPD2    H212081   2.588   1.016   9.672  2.2143 -0.7902 -0.8258
  817MPD2    H312082   2.400   1.183   9.713  2.1353 -2.8516 -0.3426
  817MPD2     N12083   2.526   1.412   9.340  1.0691 -0.1350 -0.1550
  817MPD2    H512084   2.583   1.411   9.256  1.8740 -0.7245  0.4012
  817MPD2    N112085   2.754   1.023   9.464 -0.1839  0.3238  0.7098
  817MPD2    H712086   2.796   1.029   9.372 -3.1728  0.5971 -0.6327
  818MPD2     C12087   1.082   1.738   9.843 -0.1032  0.1181  1.2645
  818MPD2    C112088   1.173   1.741   9.944 -0.6438  0.9263  0.4849
  818MPD2    C212089   1.304   1.714   9.917 -0.7670  1.0785  0.4856
  818MPD2    C312090   1.345   1.683   9.787  0.7349  0.2593 -0.2148
  818MPD2    C412091   1.255   1.705   9.682  0.1540  0.1476  0.3968
  818MPD2    C512092   1.128   1.736   9.711  0.0570  0.2546  0.3854
  818MPD2     H12093   1.374   1.718   9.999 -1.3727 -0.4482  1.0701
  818MPD2    H112094   1.281   1.700   9.577  1.7840  0.5778  0.7758
  818MPD2    H212095   0.978   1.761   9.862 -0.7521  0.1183 -2.1975
  818MPD2    H312096   1.051   1.742   9.635  0.6947  2.0329 -0.1273
  818MPD2     N12097   1.464   1.611   9.750  0.1709  0.0443  0.3900
  818MPD2    H512098   1.477   1.592   9.651  0.7038 -0.6881  0.6018
  818MPD2    N112099   1.141   1.763  10.083 -0.3839 -1.1291  0.6220
  818MPD2    H712100   1.213   1.769  10.154  0.8116  3.2005 -0.9613
  819MPD2     C12101   0.231   2.778  15.244  0.1873  0.0208  0.1858
  819MPD2    C112102   0.195   2.682  15.330  0.3914 -0.8268 -0.0993
  819MPD2    C212103   0.275   2.655  15.439  0.1069  0.5350  0.2409
  819MPD2    C312104   0.384   2.735  15.469 -0.1560 -0.3789  0.5359
  819MPD2    C412105   0.421   2.832  15.382 -0.6346  0.1317  0.6626
  819MPD2    C512106   0.346   2.847  15.271  0.2640  0.5284  0.5131
  819MPD2     H12107   0.250   2.589  15.521 -0.3263 -0.6969 -0.8909
  819MPD2    H112108   0.501   2.904  15.396 -0.2968  0.1463 -1.3180
  819MPD2    H212109   0.170   2.813  15.162  0.0778  1.7312  0.9957
  819MPD2    H312110   0.385   2.924  15.206 -1.5031 -0.5338 -1.8058
  819MPD2     N12111   0.461   2.715  15.591  0.0060  0.7805  0.2791
  819MPD2    H512112   0.439   2.629  15.640 -0.2678  0.7836  0.1596
  819MPD2    N112113   0.071   2.612  15.304  0.4407  0.5050 -0.3239
  819MPD2    H712114   0.013   2.644  15.227  0.1026  0.5653 -0.0402
  820MPD2     C12115   4.149   2.885  14.730 -0.2030  0.0505 -0.6331
  820MPD2    C112116   4.225   2.944  14.826  0.3204 -1.0827  0.5374
  820MPD2    C212117   4.280   2.865  14.929 -0.1015  0.5137 -0.0533
  820MPD2    C312118   4.266   2.729  14.924 -0.1620  1.0744  0.1866
  820MPD2    C412119   4.201   2.670  14.815 -0.5338 -0.2391  0.5186
  820MPD2    C512120   4.142   2.749  14.725  0.4038 -0.3534 -0.2413
  820MPD2     H12121   4.321   2.911  15.018 -0.4800 -0.5606  0.6689
  820MPD2    H112122   4.196   2.562  14.807  2.3697 -0.2893 -0.5517
  820MPD2    H212123   4.110   2.940  14.645 -0.8943 -0.4484 -0.6381
  820MPD2    H312124   4.086   2.705  14.644 -3.5197  1.5370  1.4531
  820MPD2     N12125   4.313   2.642  15.025 -0.3774  0.0058 -0.1349
  820MPD2    H512126   4.281   2.547  15.013  1.1004 -0.5819  0.5988
  820MPD2    N112127   4.229   3.082  14.829 -0.1152 -0.9429 -0.2174
  820MPD2    H712128   4.175   3.129  14.757 -0.9917 -0.5943  0.6760
  821MPD2     C12129   0.463   4.074  12.512  0.1244  0.6494 -0.0903
  821MPD2    C112130   0.481   4.127  12.638  0.1875 -0.3295 -0.2629
  821MPD2    C212131   0.529   4.256  12.647 -0.0949 -0.1225  0.6103
  821MPD2    C312132   0.542   4.335  12.536  0.4296 -0.0710 -0.2760
  821MPD2    C412133   0.503   4.292  12.413 -0.3230  0.1370  0.2488
  821MPD2    C512134   0.470   4.155  12.405 -0.5459  0.0917 -0.2729
  821MPD2     H12135   0.552   4.281  12.750 -0.8054 -2.2168  1.2836
  821MPD2    H112136   0.520   4.357  12.328 -1.7074 -1.0431 -0.9303
  821MPD2    H212137   0.433   3.971  12.500  2.9339 -0.1818  0.0667
  821MPD2    H312138   0.444   4.116  12.307  0.1590  0.0850 -0.4624
  821MPD2     N12139   0.597   4.462  12.539  0.1728 -0.0114  0.0222
  821MPD2    H512140   0.612   4.514  12.453  2.0570 -1.2652 -0.4081
  821MPD2    N112141   0.464   4.055  12.760 -0.0005  0.1424  0.4471
  821MPD2    H712142   0.492   4.104  12.844 -0.2908 -1.7159  1.6285
  822MPD2     C12143   1.249   4.329  15.820  0.0630 -0.1811 -0.3911
  822MPD2    C112144   1.219   4.284  15.943  0.8079 -1.4556  0.0718
  822MPD2    C212145   1.123   4.338  16.022  0.3028  0.1081  0.3385
  822MPD2    C312146   1.052   4.451  15.979  0.1780 -0.7872 -0.0835
  822MPD2    C412147   1.064   4.492  15.850 -0.0489  0.3501 -0.2674
  822MPD2    C512148   1.161   4.426  15.772 -0.3704  0.0005  0.2480
  822MPD2     H12149   1.112   4.297  16.122  0.7337  0.3471  0.4829
  822MPD2    H112150   1.011   4.579  15.812  0.3165  0.6528 -0.0894
  822MPD2    H212151   1.330   4.304  15.753  1.0678 -0.4732  0.9328
  822MPD2    H312152   1.179   4.463  15.672  0.3938  1.3904  0.9017
  822MPD2     N12153   0.958   4.507  16.068  0.4251 -0.1367  0.1241
  822MPD2    H512154   0.943   4.463  16.158 -0.0313 -0.9906 -0.3689
  822MPD2    N112155   1.297   4.179  15.993  0.2771  0.5603  0.2857
  822MPD2    H712156   1.280   4.153  16.089  0.8688 -0.1289  0.1971
  823MPD2     C12157   0.629   0.016  16.833  0.6315 -0.4188  0.1936
  823MPD2    C112158   0.717   4.678  16.751 -0.6162  0.0648  0.0872
  823MPD2    C212159   0.814   4.593  16.812 -0.6602 -0.4972 -0.6445
  823MPD2    C312160   0.824   4.577  16.951 -0.8376  0.1885 -0.6489
  823MPD2    C412161   0.735   4.657  17.024  0.2549  0.8204 -0.5738
  823MPD2    C512162   0.634   4.733  16.970 -0.3320 -0.4318 -0.1895
  823MPD2     H12163   0.894   4.553  16.750  0.1518 -0.8530  0.6274
  823MPD2    H112164   0.744   4.661  17.132  1.1688 -2.1806 -0.5531
  823MPD2    H212165   0.549   0.080  16.799  0.3518 -0.9992 -0.2401
  823MPD2    H312166   0.573   0.057  17.037  3.5759  0.9204  2.1978
  823MPD2     N12167   0.910   4.485  17.018 -0.0374  0.0328 -0.9035
  823MPD2    H512168   0.896   4.470  17.117  0.9905  0.5081 -0.6854
  823MPD2    N112169   0.708   4.705  16.611 -0.1040 -1.2777  0.4613
  823MPD2    H712170   0.645   0.043  16.578  0.7631 -1.2909 -1.2346
  824MPD2     C12171   1.509   3.396  15.945  0.7261 -0.7647  0.0672
  824MPD2    C112172   1.567   3.490  15.864  0.5403  0.6893  0.0741
  824MPD2    C212173   1.620   3.450  15.739 -0.5901  0.7280 -0.3626
  824MPD2    C312174   1.625   3.321  15.698 -0.3344  0.6871 -0.2994
  824MPD2    C412175   1.571   3.228  15.778  0.2227 -0.6714 -0.8759
  824MPD2    C512176   1.506   3.269  15.891  0.6227  0.1126  0.1460
  824MPD2     H12177   1.669   3.517  15.668  1.3525  1.2758  1.4829
  824MPD2    H112178   1.566   3.123  15.754  0.7814 -0.7177 -0.7718
  824MPD2    H212179   1.457   3.414  16.038  1.5344 -0.7529  0.5206
  824MPD2    H312180   1.470   3.184  15.947  0.3245 -0.0821 -0.3345
  824MPD2     N12181   1.695   3.283  15.583  0.3850 -0.5062  0.3196
  824MPD2    H512182   1.753   3.358  15.547  0.6218 -1.2535 -0.8691
  824MPD2    N112183   1.583   3.621  15.903 -0.2713  0.3938  0.2616
  824MPD2    H712184   1.625   3.686  15.836 -1.2901  2.9120  2.0762
  825MPD2     C12185   2.288   3.572  15.314  0.0664 -0.0302 -0.0378
  825MPD2    C112186   2.151   3.566  15.297  0.1337  0.2385  0.0462
  825MPD2    C212187   2.091   3.684  15.245 -0.0579 -0.6305  0.7132
  825MPD2    C312188   2.166   3.793  15.203  0.2747  0.5534 -0.6770
  825MPD2    C412189   2.304   3.792  15.227 -0.4476 -0.6129  0.1512
  825MPD2    C512190   2.360   3.686  15.287  0.3188 -0.0069  0.1048
  825MPD2     H12191   1.986   3.674  15.219  0.8582 -0.1489 -3.1714
  825MPD2    H112192   2.368   3.877  15.205 -2.0586  0.8759  1.2429
  825MPD2    H212193   2.341   3.490  15.361 -1.4722 -1.1396 -0.2291
  825MPD2    H312194   2.465   3.694  15.313  0.6176 -1.3351 -0.6736
  825MPD2     N12195   2.114   3.908  15.130 -0.4878  0.1376  0.5320
  825MPD2    H512196   2.177   3.976  15.088 -2.1560  0.4159 -1.5103
  825MPD2    N112197   2.074   3.453  15.327  0.2030 -1.2107  0.9710
  825MPD2    H712198   1.973   3.459  15.317  0.1903 -2.6723  0.2298
  826MPD2     C12199   1.888   3.311  13.136 -0.0872  0.3767  0.0363
  826MPD2    C112200   1.912   3.435  13.189 -0.0234 -0.3255  0.2926
  826MPD2    C212201   1.813   3.512  13.231  0.7479 -0.3072 -0.3278
  826MPD2    C312202   1.682   3.461  13.232 -0.1810 -0.3023  0.6679
  826MPD2    C412203   1.658   3.326  13.204 -1.2055 -0.5843 -0.3336
  826MPD2    C512204   1.763   3.251  13.143  0.0676  0.4662  0.0135
  826MPD2     H12205   1.828   3.615  13.262 -0.8458 -0.1662  0.0119
  826MPD2    H112206   1.565   3.270  13.209 -0.0854 -2.6045 -2.0890
  826MPD2    H212207   1.967   3.245  13.103  1.1839  1.6120  0.6263
  826MPD2    H312208   1.754   3.144  13.127  0.2622  0.3887  0.4443
  826MPD2     N12209   1.569   3.540  13.282 -0.6138  0.6827 -0.0725
  826MPD2    H512210   1.478   3.495  13.291  0.4810 -1.3144  1.0763
  826MPD2    N112211   2.054   3.470  13.190 -0.6197  0.1244 -0.2252
  826MPD2    H712212   2.114   3.394  13.159  1.8305  1.9224  0.2222
  827MPD2     C12213   2.622   0.414  10.031  0.1569  0.2573 -0.1518
  827MPD2    C112214   2.647   0.310  10.119  0.5187  0.0393  0.5921
  827MPD2    C212215   2.590   0.185  10.084 -0.0179  0.5099 -0.8020
  827MPD2    C312216   2.508   0.169   9.971  0.4806 -0.1292  0.3242
  827MPD2    C412217   2.482   0.276   9.892  0.7459  0.4190  0.2611
  827MPD2    C512218   2.543   0.398   9.920 -0.3559 -0.3131  0.4829
  827MPD2     H12219   2.624   0.098  10.139 -1.6543  1.3020  1.4435
  827MPD2    H112220   2.422   0.281   9.802  1.5219  1.3777 -0.2057
  827MPD2    H212221   2.659   0.513  10.055 -0.8034  0.2604  1.3278
  827MPD2    H312222   2.532   0.483   9.853  1.2784 -1.7607 -1.6331
  827MPD2     N12223   2.450   0.043   9.965  0.3056  0.1430  0.1849
  827MPD2    H512224   2.481   4.712  10.036 -0.6222  0.2642  0.6934
  827MPD2    N112225   2.707   0.332  10.245 -0.2120  0.2053 -0.3973
  827MPD2    H712226   2.738   0.428  10.258  0.0199  0.1166 -0.2965
  828MPD2     C12227   1.156   4.529  11.522 -0.1817 -0.6937 -0.1468
  828MPD2    C112228   1.089   4.643  11.485  0.5184 -0.1879 -0.1976
  828MPD2    C212229   1.132   4.712  11.374  0.3358  0.0700  0.2297
  828MPD2    C312230   1.245   4.672  11.303 -0.1626 -0.2273 -0.4891
  828MPD2    C412231   1.318   4.557  11.341  0.4420  0.1445 -0.5726
  828MPD2    C512232   1.272   4.488  11.455 -0.1787  0.1474  0.3193
  828MPD2     H12233   1.076   0.066  11.346 -0.2921  0.1876  1.8625
  828MPD2    H112234   1.413   4.533  11.294  0.2686  0.7833 -1.2395
  828MPD2    H212235   1.123   4.468  11.605 -0.4943  0.2125  0.3907
  828MPD2    H312236   1.313   4.392  11.483 -1.4527  0.1841  2.3159
  828MPD2     N12237   1.303   0.013  11.204  0.6687 -0.0313 -0.0120
  828MPD2    H512238   1.390   4.706  11.170  1.0543 -1.5102  2.8011
  828MPD2    N112239   0.980   4.692  11.557 -0.3469  0.1682 -0.0605
  828MPD2    H712240   0.942   0.047  11.530  2.6169  1.3672 -0.1967
  829MPD2     C12241   1.131   0.606  11.996  0.0928 -0.7866 -0.6379
  829MPD2    C112242   1.003   0.608  11.942  0.3843  0.0229  1.0050
  829MPD2    C212243   0.918   0.500  11.943 -0.0374 -0.4338 -0.0134
  829MPD2    C312244   0.973   0.382  11.979 -0.5130 -0.3057 -0.3086
  829MPD2    C412245   1.095   0.378  12.048  1.4871  0.3413  0.2311
  829MPD2    C512246   1.160   0.491  12.063 -0.2272 -0.7857 -0.1041
  829MPD2     H12247   0.824   0.500  11.890 -0.8498 -1.8138  1.4356
  829MPD2    H112248   1.131   0.287  12.095  0.3136 -1.2755 -1.9898
  829MPD2    H212249   1.203   0.687  12.006 -0.6231 -0.2622  0.2795
  829MPD2    H312250   1.251   0.498  12.121  0.1478  3.9141 -1.2181
  829MPD2     N12251   0.911   0.251  11.961 -0.9466  0.1013 -0.7102
  829MPD2    H512252   0.957   0.162  11.973 -0.4737  0.6717  1.8193
  829MPD2    N112253   0.975   0.730  11.874  0.6730  0.1747  0.4799
  829MPD2    H712254   1.053   0.795  11.873 -0.6146  1.7094 -0.0833
  830MPD2     C12255   1.146   2.513  15.916  0.0559  0.6997  0.3163
  830MPD2    C112256   1.022   2.530  15.852  0.6594  0.9480  0.3746
  830MPD2    C212257   1.007   2.641  15.770 -0.2017  0.5147  0.6046
  830MPD2    C312258   1.105   2.741  15.763  0.0059  0.1390 -0.3850
  830MPD2    C412259   1.229   2.714  15.818  0.0538 -0.0851 -0.0448
  830MPD2    C512260   1.244   2.602  15.896 -0.3710  0.6243 -0.2489
  830MPD2     H12261   0.918   2.649  15.709  1.0529  1.5251 -1.0854
  830MPD2    H112262   1.306   2.790  15.813  0.5069 -0.3028  3.7526
  830MPD2    H212263   1.167   2.427  15.979  0.6172 -0.3640 -1.3150
  830MPD2    H312264   1.343   2.582  15.936 -1.0681 -0.5031  0.9168
  830MPD2     N12265   1.081   2.861  15.690 -0.1889  0.5437  0.3652
  830MPD2    H512266   1.149   2.932  15.715 -0.1857 -0.6063  3.6439
  830MPD2    N112267   0.933   2.429  15.874  0.8109  0.0412  0.5659
  830MPD2    H712268   0.971   2.339  15.902  1.4985 -0.1795 -1.0672
  831MPD2     C12269   1.273   4.637  16.343  0.0482 -0.2424  0.6504
  831MPD2    C112270   1.303   4.533  16.270 -0.3113 -0.3019 -0.1464
  831MPD2    C212271   1.256   4.407  16.307 -0.4800  0.4642  0.5259
  831MPD2    C312272   1.156   4.401  16.396  0.5428 -0.3714  0.3345
  831MPD2    C412273   1.122   4.510  16.469 -1.1714  1.0100 -0.0414
  831MPD2    C512274   1.183   4.629  16.450  0.4867 -0.1237 -0.0385
  831MPD2     H12275   1.284   4.313  16.262  1.2175  0.2257  2.0421
  831MPD2    H112276   1.040   4.493  16.539 -0.4965 -1.7415  0.0810
  831MPD2    H212277   1.318   4.733  16.317 -2.2352  0.6209 -0.1607
  831MPD2    H312278   1.179   4.711  16.520 -0.4652 -0.3142  0.1245
  831MPD2     N12279   1.085   4.274  16.417  0.1466  0.2301  0.0657
  831MPD2    H512280   1.005   4.275  16.480 -0.1523 -1.5126 -0.2964
  831MPD2    N112281   1.394   4.554  16.163 -0.2040 -0.5225 -0.1143
  831MPD2    H712282   1.396   4.644  16.115  0.7394 -1.6775 -2.2607
  832MPD2     C12283   4.248   0.368  17.158  0.4990  0.1223  0.0624
  832MPD2    C112284   4.196   0.492  17.118 -0.1531 -0.4758 -0.9240
  832MPD2    C212285   4.102   0.497  17.022  0.3079  0.9716 -0.0798
  832MPD2    C312286   4.057   0.379  16.968 -0.0717 -1.3135  0.0241
  832MPD2    C412287   4.105   0.254  17.013 -0.2061  0.2726 -0.4869
  832MPD2    C512288   4.211   0.250  17.107 -0.3481 -0.6340  0.5302
  832MPD2     H12289   4.054   0.592  17.002  0.2847  0.5341 -2.1682
  832MPD2    H112290   4.062   0.157  16.989  2.1496 -0.5707 -1.3071
  832MPD2    H212291   4.316   0.349  17.239  0.3414  1.2861  0.4758
  832MPD2    H312292   4.239   0.154  17.147  1.9674 -0.7865 -1.5129
  832MPD2     N12293   3.946   0.372  16.883 -0.2337 -0.2843 -0.5326
  832MPD2    H512294   3.911   0.278  16.868  0.6915 -0.6659 -0.3049
  832MPD2    N112295   4.256   0.610  17.171  0.0966 -0.1502  0.6240
  832MPD2    H712296   4.323   0.595  17.246 -0.0707  1.7212  1.1562
  833MPD2     C12297   1.645   2.114  12.607 -0.2480  0.4049  0.0706
  833MPD2    C112298   1.693   2.238  12.596 -0.0645  1.1342  0.5582
  833MPD2    C212299   1.817   2.262  12.541 -0.6232 -0.4640  0.6199
  833MPD2    C312300   1.894   2.149  12.515 -0.0067 -0.1890  0.3491
  833MPD2    C412301   1.847   2.020  12.523 -0.7169 -0.8441 -0.5917
  833MPD2    C512302   1.723   2.007  12.577  0.1538  0.3257  0.4134
  833MPD2     H12303   1.841   2.364  12.514 -0.3895 -1.4415 -2.7762
  833MPD2    H112304   1.905   1.930  12.507  0.9065  0.0201  0.4034
  833MPD2    H212305   1.545   2.092  12.642 -1.8156  3.9531 -2.1482
  833MPD2    H312306   1.685   1.906  12.593  2.7753 -0.6016  0.7351
  833MPD2     N12307   2.014   2.162  12.443  0.3495  0.0526  1.2665
  833MPD2    H512308   2.050   2.079  12.397 -0.6184  1.0090 -1.1891
  833MPD2    N112309   1.605   2.347  12.626  0.0338  0.3576  0.0541
  833MPD2    H712310   1.513   2.327  12.664 -1.0466  0.4764 -2.5235
  834MPD2     C12311   2.108   2.081  11.458  0.0070 -0.2783 -0.3242
  834MPD2    C112312   1.997   2.067  11.549  0.2591 -0.6254 -0.3653
  834MPD2    C212313   2.022   2.095  11.679 -0.1226 -0.5226 -0.8825
  834MPD2    C312314   2.139   2.157  11.723 -0.6104  0.0966 -0.1685
  834MPD2    C412315   2.239   2.172  11.632  0.1805  0.0144 -0.2679
  834MPD2    C512316   2.230   2.140  11.501  0.1659 -0.0623 -0.2352
  834MPD2     H12317   1.944   2.083  11.754 -0.7488  0.8539 -1.3127
  834MPD2    H112318   2.332   2.206  11.676  0.2163 -1.0862  0.5252
  834MPD2    H212319   2.110   2.044  11.356 -0.9626 -1.6600  0.1732
  834MPD2    H312320   2.312   2.148  11.431  1.2522  0.4451  1.1007
  834MPD2     N12321   2.165   2.199  11.847  0.2071 -0.1336  0.1760
  834MPD2    H512322   2.251   2.253  11.853  0.2987 -0.4549  1.7588
  834MPD2    N112323   1.873   2.005  11.517  0.2153 -0.0499  0.3347
  834MPD2    H712324   1.805   1.992  11.591 -0.8191 -0.1632 -0.6261
  835MPD2     C12325   2.232   0.143  10.499  0.3186 -0.3782  0.0755
  835MPD2    C112326   2.116   0.080  10.526  0.6604 -0.2707  0.0329
  835MPD2    C212327   2.106   4.729  10.628 -0.3423 -0.0031  0.8710
  835MPD2    C312328   2.215   4.697  10.714 -0.1924 -0.5602 -0.3477
  835MPD2    C412329   2.339   0.013  10.673 -0.3546 -0.1404  0.1670
  835MPD2    C512330   2.344   0.101  10.567  0.2730 -0.2184 -0.6055
  835MPD2     H12331   2.008   4.691  10.655 -1.2019  0.9330 -0.9418
  835MPD2    H112332   2.433   4.726  10.722 -0.2720 -1.1955 -0.4659
  835MPD2    H212333   2.233   0.203  10.409 -0.1415  0.6337  0.7474
  835MPD2    H312334   2.438   0.145  10.537  0.1767 -1.4559 -2.7348
  835MPD2     N12335   2.207   4.620  10.835  0.1398 -0.3902  0.6086
  835MPD2    H512336   2.298   4.604  10.876  0.6273  0.3337 -0.1775
  835MPD2    N112337   1.999   0.120  10.460  0.1285  0.2256 -0.4212
  835MPD2    H712338   1.922   0.059  10.485 -0.9892  1.7544 -0.1555
  836MPD2     C12339   1.832   4.214  11.572  0.0943  0.2665 -0.6355
  836MPD2    C112340   1.826   4.317  11.483  0.4270  1.0568 -0.0072
  836MPD2    C212341   1.749   4.433  11.505  0.6391 -0.2548  0.2264
  836MPD2    C312342   1.666   4.434  11.620  0.1152 -0.2656 -0.1793
  836MPD2    C412343   1.665   4.330  11.714 -0.2857  0.1151  0.7792
  836MPD2    C512344   1.751   4.225  11.688  0.4436 -0.9109  0.1808
  836MPD2     H12345   1.749   4.515  11.434  0.0793 -0.6029 -0.1795
  836MPD2    H112346   1.615   4.327  11.810 -1.1863  1.1518  0.3417
  836MPD2    H212347   1.899   4.130  11.555 -1.3892 -1.1104  0.3524
  836MPD2    H312348   1.756   4.147  11.762 -0.9049  0.5864  1.8601
  836MPD2     N12349   1.573   4.537  11.652 -0.0438  0.2330 -0.0707
  836MPD2    H512350   1.507   4.520  11.727 -1.2465  1.6152 -0.8195
  836MPD2    N112351   1.909   4.308  11.371 -0.1589  0.0169  0.3004
  836MPD2    H712352   1.974   4.230  11.369 -0.2205  0.1246 -4.1214
  837MPD2     C12353   4.335   4.673  10.004  0.2866 -0.2653 -0.1070
  837MPD2    C112354   4.261   4.641   9.894  0.1691  0.9286 -0.3797
  837MPD2    C212355   4.214   0.008   9.820 -0.4471 -0.2706  0.6616
  837MPD2    C312356   4.223   0.145   9.854 -0.7909  0.0184 -0.3896
  837MPD2    C412357   4.303   0.173   9.959  1.1944 -0.2572 -0.3227
  837MPD2    C512358   4.356   0.071  10.033 -0.3826  0.1672  0.0143
  837MPD2     H12359   4.166   4.716   9.726  0.8294 -3.0977  0.8519
  837MPD2    H112360   4.305   0.275   9.996 -1.6009 -0.0654 -0.6688
  837MPD2    H212361   4.380   4.602  10.072  1.3801  0.6787  0.1555
  837MPD2    H312362   4.409   0.094  10.124 -0.1494  0.9136 -0.3063
  837MPD2     N12363   4.143   0.237   9.785  0.3002  0.4751  0.1498
  837MPD2    H512364   4.087   0.201   9.709 -2.0696 -1.7909  2.9437
  837MPD2    N112365   4.219   4.509   9.855 -0.2431  0.2399  0.1082
  837MPD2    H712366   4.168   4.497   9.768  0.5564 -1.4436 -0.1232
  838MPD2     C12367   3.329   3.124  12.159 -0.0034 -0.1446  0.0009
  838MPD2    C112368   3.233   3.072  12.080 -0.6527 -0.1908  0.3263
  838MPD2    C212369   3.114   3.024  12.128 -0.0899  0.5205  0.0546
  838MPD2    C312370   3.086   3.015  12.261 -0.3795 -0.2862 -0.2123
  838MPD2    C412371   3.185   3.069  12.350  0.1522 -0.0214 -0.9589
  838MPD2    C512372   3.311   3.116  12.297 -0.2923 -0.1544 -0.1071
  838MPD2     H12373   3.055   2.963  12.061  1.6456 -0.1615 -0.8583
  838MPD2    H112374   3.176   3.069  12.458 -1.1102  2.4876 -1.0542
  838MPD2    H212375   3.431   3.147  12.133 -0.4750 -1.6373 -3.1924
  838MPD2    H312376   3.397   3.145  12.356  0.2367  0.6597 -1.2858
  838MPD2     N12377   2.963   2.953  12.290 -0.6440 -0.1229 -0.1251
  838MPD2    H512378   2.902   2.945  12.209  0.7449 -1.7562 -1.0233
  838MPD2    N112379   3.259   3.024  11.946  0.0032  0.8027 -0.1486
  838MPD2    H712380   3.186   2.969  11.902  0.0276  1.0342 -0.4784
  839MPD2     C12381   2.992   2.313  11.927  0.1889 -0.6442  0.0066
  839MPD2    C112382   3.030   2.325  11.794 -0.0055 -0.2845  0.3851
  839MPD2    C212383   3.136   2.400  11.757  0.6687  0.1104 -0.6422
  839MPD2    C312384   3.204   2.477  11.848  0.0968 -0.3346  0.4834
  839MPD2    C412385   3.181   2.461  11.982 -1.1652  0.4179 -0.0263
  839MPD2    C512386   3.077   2.377  12.019  0.3573 -0.1749  0.1910
  839MPD2     H12387   3.165   2.406  11.652  0.9188  1.1136 -0.5140
  839MPD2    H112388   3.226   2.521  12.061 -0.5821  2.3937 -1.8443
  839MPD2    H212389   2.909   2.260  11.971  1.5010 -2.3112  0.4684
  839MPD2    H312390   3.041   2.375  12.121  0.1517 -2.5240  0.0795
  839MPD2     N12391   3.289   2.586  11.814 -0.3083  0.0536 -0.5504
  839MPD2    H512392   3.339   2.625  11.893  0.8871 -0.3950 -1.0848
  839MPD2    N112393   2.944   2.262  11.701  0.3997 -0.3325 -0.3418
  839MPD2    H712394   2.986   2.248  11.609  0.2784 -0.4706 -0.3771
  840MPD2     C12395   3.195   0.709  10.292 -0.8912  0.9097  0.5523
  840MPD2    C112396   3.182   0.658  10.420 -0.3302 -0.3069 -0.3230
  840MPD2    C212397   3.273   0.701  10.515 -0.2876 -0.4636 -0.4001
  840MPD2    C312398   3.374   0.796  10.486  0.9129  0.1795 -0.0493
  840MPD2    C412399   3.389   0.833  10.355 -0.2886  0.0797  0.3922
  840MPD2    C512400   3.296   0.793  10.269  0.1263  0.1288 -0.0594
  840MPD2     H12401   3.251   0.662  10.614 -0.6810  1.4044  0.2379
  840MPD2    H112402   3.467   0.901  10.324 -0.7127  0.0205 -0.7894
  840MPD2    H212403   3.128   0.684  10.211 -1.3049  1.7947  0.6236
  840MPD2    H312404   3.300   0.834  10.168  1.0786 -1.1164 -0.5360
  840MPD2     N12405   3.460   0.858  10.580 -0.2374 -0.5607  0.8956
  840MPD2    H512406   3.547   0.903  10.553  0.8854 -3.4866 -0.3790
  840MPD2    N112407   3.067   0.583  10.451  0.5476  0.0170  0.6120
  840MPD2    H712408   2.999   0.575  10.376 -0.7013 -0.2676  1.7694
  841MPD2     C12409   2.873   4.384  14.188  0.7837  0.1765 -0.4631
  841MPD2    C112410   2.794   4.497  14.182 -0.2679  0.0677 -0.7350
  841MPD2    C212411   2.807   4.585  14.290 -0.6940  0.8579  0.3722
  841MPD2    C312412   2.881   4.561  14.406  0.1421  0.0430  0.2326
  841MPD2    C412413   2.959   4.445  14.407 -0.0084  0.3203 -0.1464
  841MPD2    C512414   2.959   4.366  14.294  0.6087  0.1668 -0.4092
  841MPD2     H12415   2.741   4.671  14.290 -0.7152  0.8264 -2.4092
  841MPD2    H112416   3.024   4.412  14.487 -2.3688 -0.6687  1.3594
  841MPD2    H212417   2.871   4.316  14.104  0.2141  1.4093 -1.4498
  841MPD2    H312418   3.008   4.270  14.297  1.3370  0.5469 -0.1971
  841MPD2     N12419   2.872   4.653  14.510  0.2914 -0.2675 -0.3940
  841MPD2    H512420   2.819   0.003  14.495 -0.0533  0.0984  2.8623
  841MPD2    N112421   2.699   4.530  14.081  0.4116 -1.0128  0.2332
  841MPD2    H712422   2.643   4.614  14.094  0.4363 -0.8786 -0.5546
  842MPD2     C12423   3.294   0.918  16.360  0.3808  0.3881  0.7301
  842MPD2    C112424   3.219   0.805  16.399  0.3861  0.3702 -0.6508
  842MPD2    C212425   3.252   0.743  16.518 -0.1187 -0.0591  0.2515
  842MPD2    C312426   3.360   0.780  16.598  0.2704  0.1454 -0.6227
  842MPD2    C412427   3.424   0.894  16.559  0.0560  0.1425 -0.1757
  842MPD2    C512428   3.395   0.958  16.441 -0.0814  0.3712 -0.1883
  842MPD2     H12429   3.197   0.654  16.546  0.2857 -0.2262  0.5061
  842MPD2    H112430   3.496   0.938  16.627  1.2452 -1.0840 -0.6512
  842MPD2    H212431   3.273   0.979  16.274 -0.9747  0.0963  0.8598
  842MPD2    H312432   3.448   1.051  16.427 -0.2066  0.4819  0.0696
  842MPD2     N12433   3.399   0.716  16.722  0.2029 -0.0607 -0.5026
  842MPD2    H512434   3.479   0.751  16.774  1.1027  0.0710 -1.9844
  842MPD2    N112435   3.101   0.776  16.329  0.7971 -0.0640  0.1309
  842MPD2    H712436   3.080   0.828  16.245 -1.9790  1.2108  1.5764
  843MPD2     C12437   0.774   1.811   0.344  0.0040 -0.4681  0.0057
  843MPD2    C112438   0.859   1.790   0.450 -0.1475  0.3144 -0.4534
  843MPD2    C212439   0.983   1.857   0.458  0.2823  0.3500  0.0923
  843MPD2    C312440   1.015   1.947   0.357 -0.2969 -0.0178  0.1268
  843MPD2    C412441   0.928   1.967   0.250 -0.2941  0.5981  0.4780
  843MPD2    C512442   0.808   1.903   0.245 -0.0053  0.1449  0.3883
  843MPD2     H12443   1.042   1.845   0.549  0.6992 -2.0794 -0.4993
  843MPD2    H112444   0.951   2.046   0.180  0.2585  1.4959  1.6591
  843MPD2    H212445   0.674   1.769   0.335 -0.2420 -0.1602  1.3045
  843MPD2    H312446   0.749   1.917   0.155  1.2374  1.5818 -0.1836
  843MPD2     N12447   1.144   2.017   0.355 -0.2397  0.2777  0.7995
  843MPD2    H512448   1.155   2.096   0.292  0.5282 -1.1615 -0.8370
  843MPD2    N112449   0.804   1.712   0.554  0.4635 -0.4526  0.4705
  843MPD2    H712450   0.710   1.676   0.539 -0.4838  1.1213  2.6528
  844MPD2     C12451   3.569   4.592  16.200  0.2621  0.7463  0.1333
  844MPD2    C112452   3.689   4.560  16.260 -0.3672 -0.0578 -0.8671
  844MPD2    C212453   3.764   4.655  16.331  0.7286  0.1903  1.4435
  844MPD2    C312454   3.718   0.051  16.337  0.1909  0.1205 -0.6097
  844MPD2    C412455   3.601   0.082  16.267  0.3240 -0.3013 -0.0221
  844MPD2    C512456   3.528   4.721  16.204 -0.2959 -0.1216 -0.7711
  844MPD2     H12457   3.855   4.619  16.376  0.9342 -0.9843  0.0796
  844MPD2    H112458   3.575   0.187  16.262 -0.3170 -0.4630 -0.0475
  844MPD2    H212459   3.514   4.525  16.134  2.0742  0.6247 -1.2377
  844MPD2    H312460   3.446   0.020  16.141 -1.6152 -0.6697  0.6452
  844MPD2     N12461   3.788   0.148  16.404  0.0507  0.2899  0.5417
  844MPD2    H512462   3.757   0.242  16.381 -1.1556  0.0104  1.0191
  844MPD2    N112463   3.735   4.427  16.241 -0.8177 -0.3764  0.2134
  844MPD2    H712464   3.664   4.363  16.207 -0.2453 -0.1605 -1.4139
  845MPD2     C12465   4.098   1.107  16.368 -0.0042  0.3453  0.5086
  845MPD2    C112466   4.169   1.062  16.476 -0.2175  0.1597 -0.4065
  845MPD2    C212467   4.146   0.929  16.518 -0.0595 -0.4598  0.1602
  845MPD2    C312468   4.061   0.846  16.440  0.1780 -0.0499 -0.1992
  845MPD2    C412469   3.992   0.898  16.333  0.2764 -0.6555 -0.2446
  845MPD2    C512470   4.008   1.036  16.300  0.0431  0.9906  0.1452
  845MPD2     H12471   4.213   0.890  16.593 -0.4364  2.0357  1.7591
  845MPD2    H112472   3.936   0.835  16.265  0.0040  0.3171 -0.9271
  845MPD2    H212473   4.096   1.210  16.335  1.2803 -0.3260 -1.6858
  845MPD2    H312474   3.958   1.080  16.214 -0.6097 -1.1890 -0.6052
  845MPD2     N12475   4.055   0.707  16.470 -0.1594  0.8180  0.4569
  845MPD2    H512476   4.099   0.689  16.559 -0.3335  1.3853  0.6592
  845MPD2    N112477   4.229   1.160  16.560  1.0052  0.0111  0.2143
  845MPD2    H712478   4.233   1.253  16.520 -1.2531 -0.5419 -1.2879
  846MPD2     C12479   0.716   1.905  13.574  0.9925  0.5523  0.1535
  846MPD2    C112480   0.598   1.974  13.586  0.2383  0.3562  0.0086
  846MPD2    C212481   0.553   2.007  13.714  0.1504  0.1455 -0.0040
  846MPD2    C312482   0.615   1.961  13.828 -0.1569  0.4924 -0.1250
  846MPD2    C412483   0.727   1.886  13.810  0.3475  0.0452 -0.6437
  846MPD2    C512484   0.782   1.859  13.687 -0.5995  0.0697  0.6208
  846MPD2     H12485   0.460   2.063  13.726 -1.9435 -3.7665  2.0926
  846MPD2    H112486   0.785   1.854  13.897 -1.6006  0.3108  0.7484
  846MPD2    H212487   0.765   1.880  13.480  2.7093 -0.0834  1.2064
  846MPD2    H312488   0.874   1.804  13.673 -1.0913 -0.8865  1.1327
  846MPD2     N12489   0.550   1.980  13.953 -0.2512 -0.1974 -0.0046
  846MPD2    H512490   0.453   2.012  13.951 -0.2140 -0.1967 -1.6685
  846MPD2    N112491   0.528   2.034  13.477  0.4536 -0.0910 -0.0152
  846MPD2    H712492   0.450   2.094  13.502 -1.1510 -2.7922  1.3396
  847MPD2     C12493   0.639   3.002  14.896  0.3721 -0.1040  0.0405
  847MPD2    C112494   0.714   3.113  14.919  0.1588 -0.0530 -0.3159
  847MPD2    C212495   0.824   3.143  14.839 -0.3495  0.7008  1.0816
  847MPD2    C312496   0.835   3.081  14.718  0.3398  0.0853  0.0162
  847MPD2    C412497   0.752   2.975  14.681  0.0446 -0.1781  0.1223
  847MPD2    C512498   0.661   2.930  14.771 -0.0053  0.9036  0.2382
  847MPD2     H12499   0.895   3.218  14.872 -0.1257  0.2958  1.5230
  847MPD2    H112500   0.757   2.917  14.590 -0.7229 -0.3662  0.2030
  847MPD2    H212501   0.572   2.958  14.969 -1.7370  0.7433 -1.3779
  847MPD2    H312502   0.616   2.833  14.757  2.3961 -0.1700 -0.0784
  847MPD2     N12503   0.939   3.129  14.637 -0.5375  0.7740  0.2706
  847MPD2    H512504   0.982   3.216  14.666  4.9295 -1.6653 -0.5755
  847MPD2    N112505   0.686   3.202  15.024 -0.1820 -0.9286  0.4892
  847MPD2    H712506   0.733   3.292  15.034  1.7240 -1.9137  0.4074
  848MPD2     C12507   3.607   0.621  16.170  0.0453  0.0276 -0.4210
  848MPD2    C112508   3.633   0.708  16.275  0.4510 -0.1243  0.1167
  848MPD2    C212509   3.639   0.843  16.242 -0.3267 -0.5052 -0.2785
  848MPD2    C312510   3.624   0.891  16.116  0.1889  0.0084  0.2831
  848MPD2    C412511   3.590   0.800  16.020  0.3184  0.0699 -0.1562
  848MPD2    C512512   3.582   0.672  16.043 -0.0993 -0.1591  0.4885
  848MPD2     H12513   3.649   0.910  16.327 -0.7335 -1.6697  0.6953
  848MPD2    H112514   3.567   0.836  15.920  0.4180 -2.6754 -1.1683
  848MPD2    H212515   3.600   0.514  16.182  2.3676  0.0130  0.7531
  848MPD2    H312516   3.574   0.591  15.971  0.7513 -0.9071  1.2323
  848MPD2     N12517   3.619   1.029  16.076 -1.3487 -0.1874 -0.4475
  848MPD2    H512518   3.617   1.054  15.977 -1.0731  2.0483  0.1134
  848MPD2    N112519   3.648   0.662  16.403  0.0647 -0.7211 -0.0238
  848MPD2    H712520   3.689   0.727  16.469  0.7434 -0.7842 -0.3823
  849MPD2     C12521   2.437   0.528  14.147 -0.7764  0.3681 -0.0425
  849MPD2    C112522   2.496   0.654  14.133  0.6154 -0.2944  0.2729
  849MPD2    C212523   2.628   0.672  14.178  0.5300 -0.2983  0.0577
  849MPD2    C312524   2.690   0.572  14.252 -0.0232  0.3133  0.0780
  849MPD2    C412525   2.628   0.444  14.252 -0.1484 -0.8544  0.3305
  849MPD2    C512526   2.503   0.425  14.206  0.0569 -0.0378  0.3009
  849MPD2     H12527   2.669   0.771  14.167 -1.3741  0.5223  0.3201
  849MPD2    H112528   2.681   0.354  14.283 -2.0786 -1.4592  1.8776
  849MPD2    H212529   2.336   0.508  14.114 -0.5876 -0.8513  0.1350
  849MPD2    H312530   2.457   0.327  14.213  0.2156 -0.0698  0.8730
  849MPD2     N12531   2.818   0.583  14.301 -0.4504  0.0823 -0.3611
  849MPD2    H512532   2.862   0.497  14.331 -1.7025 -0.2667  0.4419
  849MPD2    N112533   2.426   0.753  14.050 -0.0817  0.2353  0.1531
  849MPD2    H712534   2.335   0.726  14.014 -0.4450  1.0514  0.4367
  850MPD2     C12535   0.767   3.747  14.781 -0.3735 -0.2517  0.0431
  850MPD2    C112536   0.790   3.855  14.863  0.2288  0.1472  0.3745
  850MPD2    C212537   0.921   3.890  14.889 -0.4990  0.5401 -0.8138
  850MPD2    C312538   1.027   3.816  14.840 -0.5414 -0.3923 -0.3747
  850MPD2    C412539   1.004   3.706  14.760 -0.1080  0.3611 -0.5123
  850MPD2    C512540   0.873   3.670  14.735  0.5637  0.0707 -0.3580
  850MPD2     H12541   0.941   3.981  14.946 -0.5931 -1.2254  2.0473
  850MPD2    H112542   1.087   3.641  14.732 -1.5678 -1.9011  0.4397
  850MPD2    H212543   0.674   3.728  14.730 -0.0965 -1.2915 -0.0865
  850MPD2    H312544   0.850   3.595  14.661 -0.4549  2.7442 -2.7314
  850MPD2     N12545   1.165   3.841  14.872  0.2739  0.0862 -0.1554
  850MPD2    H512546   1.231   3.768  14.850  0.3095  0.0056  0.2100
  850MPD2    N112547   0.672   3.924  14.904 -0.5541  0.2728  0.2678
  850MPD2    H712548   0.590   3.887  14.857 -0.1204  2.9921 -2.5585
  851MPD2     C12549   1.227   3.810  15.556  0.2121  0.3719 -0.3760
  851MPD2    C112550   1.094   3.785  15.515  0.0988 -0.2311  0.6694
  851MPD2    C212551   1.046   3.656  15.540 -0.4451 -0.0252  0.2860
  851MPD2    C312552   1.116   3.550  15.601 -1.0889 -0.2905 -0.2927
  851MPD2    C412553   1.246   3.579  15.629  0.3154 -0.2552 -0.0858
  851MPD2    C512554   1.302   3.705  15.605 -0.4646 -0.2343  0.4615
  851MPD2     H12555   0.942   3.641  15.514 -0.3679 -0.7638  0.3947
  851MPD2    H112556   1.311   3.504  15.672  0.1531  1.0281  2.4682
  851MPD2    H212557   1.281   3.901  15.533 -2.3404  2.1788  0.7462
  851MPD2    H312558   1.410   3.714  15.598 -0.6581 -0.2427 -2.5975
  851MPD2     N12559   1.059   3.426  15.633  0.0505  0.1869  0.4375
  851MPD2    H512560   0.972   3.400  15.589  0.7607 -0.3439 -0.6728
  851MPD2    N112561   1.033   3.889  15.442 -0.0417 -0.3524  0.1465
  851MPD2    H712562   1.080   3.978  15.425 -0.7256  0.3231  1.8098
  852MPD2     C12563   0.278   1.912  10.352  0.5990 -0.1400 -0.7119
  852MPD2    C112564   0.355   1.929  10.465  0.3940 -0.1628 -0.3257
  852MPD2    C212565   0.463   2.018  10.456 -0.9232 -0.4436 -0.4880
  852MPD2    C312566   0.490   2.091  10.343 -0.0728 -0.1838 -0.0010
  852MPD2    C412567   0.410   2.077  10.231  0.5215  0.0520 -0.1137
  852MPD2    C512568   0.309   1.988  10.242  0.4760  0.2595  0.4776
  852MPD2     H12569   0.525   2.025  10.544 -0.9742 -1.3031 -0.3840
  852MPD2    H112570   0.415   2.135  10.140  0.8448 -1.1716 -0.8829
  852MPD2    H212571   0.190   1.851  10.341  0.2708  0.4755 -1.5478
  852MPD2    H312572   0.238   1.975  10.160  0.3426  3.1854  0.1270
  852MPD2     N12573   0.612   2.169  10.344  0.4255  0.3026 -0.0180
  852MPD2    H512574   0.671   2.159  10.426  0.1260 -0.0156  0.1565
  852MPD2    N112575   0.329   1.862  10.585 -0.1754 -0.9926 -0.4029
  852MPD2    H712576   0.372   1.893  10.672  0.8854 -1.0326 -0.9177
  853MPD2     C12577   2.558   1.553  12.596 -0.1160  0.0465  0.3402
  853MPD2    C112578   2.445   1.626  12.582 -0.2221 -0.5205 -0.7340
  853MPD2    C212579   2.380   1.641  12.460  0.2390  0.4495 -0.3297
  853MPD2    C312580   2.438   1.574  12.353  0.7751 -0.8283 -0.3329
  853MPD2    C412581   2.556   1.506  12.367  0.3252  0.4624  0.2005
  853MPD2    C512582   2.617   1.504  12.489 -0.0747 -0.3064  0.0617
  853MPD2     H12583   2.284   1.690  12.455 -0.0502 -0.1396 -0.4497
  853MPD2    H112584   2.598   1.457  12.280  0.1649 -1.4155  1.1620
  853MPD2    H212585   2.605   1.535  12.692 -0.3158 -1.1475  0.2215
  853MPD2    H312586   2.706   1.445  12.508  0.4871  0.9860  1.3497
  853MPD2     N12587   2.389   1.569  12.223  0.3759  0.2510  0.0285
  853MPD2    H512588   2.439   1.514  12.154 -0.5156 -0.4817 -0.0366
  853MPD2    N112589   2.392   1.687  12.702  0.5226 -0.0687  0.3539
  853MPD2    H712590   2.447   1.671  12.785  0.6023 -2.0260 -0.0677
  854MPD2     C12591   4.089   1.494  12.815  0.1869  0.2664  0.4464
  854MPD2    C112592   4.157   1.613  12.807  0.3142  0.4960 -0.5443
  854MPD2    C212593   4.279   1.615  12.868  0.0841 -0.6437  0.1723
  854MPD2    C312594   4.338   1.508  12.936  0.2566 -0.2396 -0.0916
  854MPD2    C412595   4.267   1.395  12.952  0.4400  0.0283  0.1176
  854MPD2    C512596   4.141   1.394  12.893 -0.1041 -0.3223  0.1522
  854MPD2     H12597   4.336   1.705  12.851  0.9778 -1.8959 -3.4281
  854MPD2    H112598   4.283   1.318  13.026  1.6238 -0.2870 -0.4652
  854MPD2    H212599   3.995   1.491  12.762 -0.1557  1.5588  0.9718
  854MPD2    H312600   4.080   1.305  12.902  0.7551 -0.8432  0.6862
  854MPD2     N12601   4.452   1.519  13.010  0.6693  0.2323  0.1042
  854MPD2    H512602   4.472   1.453  13.084 -0.9223 -2.0738 -1.5474
  854MPD2    N112603   4.105   1.726  12.729 -1.0715 -0.7271 -0.6728
  854MPD2    H712604   4.029   1.705  12.665 -0.3449 -3.4806 -0.6381
  855MPD2     C12605   4.169   1.369  13.698 -0.0070  0.1246  0.0455
  855MPD2    C112606   4.276   1.292  13.673 -0.2113  0.2911 -0.3350
  855MPD2    C212607   4.395   1.348  13.631 -0.3874 -0.7669 -0.1447
  855MPD2    C312608   4.396   1.477  13.586 -0.0810  0.3279 -0.1038
  855MPD2    C412609   4.283   1.550  13.603 -0.0711 -0.1498  0.1900
  855MPD2    C512610   4.173   1.502  13.666 -0.0320 -0.3907 -0.4214
  855MPD2     H12611   4.472   1.274  13.612  2.5880  2.3544 -0.1625
  855MPD2    H112612   4.285   1.656  13.578 -0.2201  0.3099  2.1093
  855MPD2    H212613   4.077   1.328  13.739  0.3174 -0.5267  0.1222
  855MPD2    H312614   4.088   1.569  13.677  1.0275  0.7597  0.7379
  855MPD2     N12615   4.495   1.517  13.495 -0.3786 -0.3010 -0.5527
  855MPD2    H512616   4.482   1.613  13.464  0.0825 -0.5274 -1.4509
  855MPD2    N112617   4.281   1.151  13.697 -0.0852  0.5706  0.2038
  855MPD2    H712618   4.372   1.105  13.699  0.3763  1.5372  1.1839
  856MPD2     C12619   1.831   2.148  14.206  0.4206  0.4111 -0.2761
  856MPD2    C112620   1.819   2.281  14.233  0.4827  0.5228  0.2330
  856MPD2    C212621   1.714   2.354  14.169  0.1159  0.1131 -0.0043
  856MPD2    C312622   1.615   2.287  14.103  0.1344 -0.0758 -0.9793
  856MPD2    C412623   1.622   2.150  14.084  0.1544  0.4057  0.2271
  856MPD2    C512624   1.734   2.087  14.133  0.0775  0.8187 -0.1972
  856MPD2     H12625   1.713   2.463  14.172  0.5420  0.0746  1.9192
  856MPD2    H112626   1.541   2.095  14.039 -0.8881  1.7342  0.4652
  856MPD2    H212627   1.907   2.089  14.254  1.0610 -0.4610 -2.3531
  856MPD2    H312628   1.755   1.985  14.103 -0.1169  0.1930  1.8345
  856MPD2     N12629   1.503   2.356  14.052 -0.3896 -1.2018 -0.7985
  856MPD2    H512630   1.446   2.297  13.992  0.1865 -1.2388 -1.3152
  856MPD2    N112631   1.910   2.357  14.311  0.0100  0.4493 -0.5988
  856MPD2    H712632   1.908   2.459  14.314 -1.5999  0.4498 -1.7478
  857MPD2     C12633   3.358   4.398  12.785  0.1093 -0.3563 -0.1703
  857MPD2    C112634   3.486   4.401  12.731  0.4841 -0.6273  0.5031
  857MPD2    C212635   3.576   4.489  12.787 -0.0574 -0.6419 -0.1068
  857MPD2    C312636   3.540   4.579  12.893 -0.1052  0.6376 -0.2891
  857MPD2    C412637   3.414   4.568  12.936  0.3625 -0.1999 -0.2075
  857MPD2    C512638   3.320   4.487  12.879  0.6128  0.4731 -0.0581
  857MPD2     H12639   3.678   4.489  12.751  0.0644 -0.8192  0.2412
  857MPD2    H112640   3.382   4.627  13.021  3.1546 -0.1140  0.7974
  857MPD2    H212641   3.273   4.336  12.757  0.5699 -1.2601  0.4462
  857MPD2    H312642   3.219   4.490  12.919  0.0402 -1.3304 -1.3614
  857MPD2     N12643   3.630   4.674  12.943 -0.0571 -0.1471  0.1550
  857MPD2    H512644   3.724   4.686  12.907  1.3241  0.9669  4.2007
  857MPD2    N112645   3.506   4.316  12.621 -0.1469 -0.8599  0.1466
  857MPD2    H712646   3.433   4.261  12.578 -1.9151  0.2089  1.8180
  858MPD2     C12647   4.084   3.273  16.450  0.3737  0.4129  0.2343
  858MPD2    C112648   4.222   3.236  16.459 -0.1968 -0.2153  0.1823
  858MPD2    C212649   4.287   3.261  16.573 -0.2525 -0.0938  0.3673
  858MPD2    C312650   4.226   3.330  16.678  0.0231 -0.2062 -0.2746
  858MPD2    C412651   4.094   3.375  16.661  0.3549  0.8011  0.1910
  858MPD2    C512652   4.023   3.346  16.548 -0.5561  0.1615  0.2003
  858MPD2     H12653   4.388   3.222  16.588 -0.2328 -0.6250 -1.1752
  858MPD2    H112654   4.038   3.430  16.735 -2.1387 -2.6095  0.7849
  858MPD2    H212655   4.021   3.238  16.370 -0.4657  1.7949  0.2992
  858MPD2    H312656   3.919   3.374  16.536 -0.5264  0.7507  1.2717
  858MPD2     N12657   4.299   3.365  16.796 -0.5964  0.9292 -0.9373
  858MPD2    H512658   4.244   3.424  16.858 -2.2100  0.1132 -1.6053
  858MPD2    N112659   4.271   3.151  16.354 -0.5947  0.3129 -0.2713
  858MPD2    H712660   4.220   3.137  16.268  2.2134 -2.2750 -1.5225
  859MPD2     C12661   2.489   0.888  15.347  0.6545 -0.0577 -1.1919
  859MPD2    C112662   2.608   0.819  15.329  0.6172 -0.7040  0.0357
  859MPD2    C212663   2.623   0.706  15.406  1.1781 -0.2731 -0.0820
  859MPD2    C312664   2.535   0.663  15.503 -0.0397 -0.6116  0.6251
  859MPD2    C412665   2.427   0.741  15.522 -0.2356 -0.1703 -0.6673
  859MPD2    C512666   2.401   0.847  15.446 -0.2869 -0.6166  0.9488
  859MPD2     H12667   2.707   0.640  15.388  2.5471  1.2034  0.8911
  859MPD2    H112668   2.349   0.711  15.591 -0.7937  0.7274 -0.9090
  859MPD2    H212669   2.461   0.976  15.290  0.0716  0.5099 -0.0415
  859MPD2    H312670   2.306   0.894  15.468 -1.3239 -1.8780 -0.7359
  859MPD2     N12671   2.567   0.551  15.585  0.1841  0.4238  0.3928
  859MPD2    H512672   2.658   0.511  15.564 -0.5582  0.6338 -3.3058
  859MPD2    N112673   2.689   0.862  15.222  0.4516 -0.5807  0.5222
  859MPD2    H712674   2.653   0.925  15.152  1.2719  2.6456  2.9932
  860MPD2     C12675   0.687   1.218  11.779  0.3387  0.0814 -0.4230
  860MPD2    C112676   0.699   1.161  11.903  0.2668 -0.4341  0.3311
  860MPD2    C212677   0.585   1.119  11.965  0.2818  0.5573  0.2608
  860MPD2    C312678   0.458   1.144  11.916 -0.4707  1.0693 -0.2896
  860MPD2    C412679   0.450   1.208  11.794 -0.1850 -0.1933 -0.4044
  860MPD2    C512680   0.563   1.236  11.728 -0.6940 -0.2468 -0.9103
  860MPD2     H12681   0.601   1.072  12.062 -1.4352  0.3804  0.4491
  860MPD2    H112682   0.351   1.220  11.754 -1.2995 -0.1431  2.3262
  860MPD2    H212683   0.775   1.247  11.723  0.3462  0.9513  0.0369
  860MPD2    H312684   0.552   1.283  11.631  1.0390  0.0897 -0.9570
  860MPD2     N12685   0.352   1.112  12.001  0.5123 -0.3013 -0.1264
  860MPD2    H512686   0.376   1.093  12.098 -1.7185 -0.4650  0.4047
  860MPD2    N112687   0.818   1.140  11.970 -0.0617  0.0502 -0.4453
  860MPD2    H712688   0.811   1.085  12.056  0.2003  1.2289  0.3269
  861MPD2     C12689   4.163   4.185  11.004 -0.2110  0.2939 -0.3633
  861MPD2    C112690   4.172   4.326  10.994 -0.4079  0.2796  0.4431
  861MPD2    C212691   4.096   4.400  10.904  0.3245  0.0563 -0.2409
  861MPD2    C312692   3.999   4.335  10.828 -0.0858 -0.4061  0.2118
  861MPD2    C412693   3.983   4.197  10.844  0.0677  0.6355  0.0738
  861MPD2    C512694   4.067   4.128  10.927  0.8815  0.8979  0.3751
  861MPD2     H12695   4.108   4.508  10.903 -1.7635  0.2859  1.3496
  861MPD2    H112696   3.913   4.132  10.792  2.1770  1.1833 -3.4558
  861MPD2    H212697   4.215   4.119  11.072  0.2085  2.1237  1.0794
  861MPD2    H312698   4.051   4.021  10.939 -0.9338  1.4209  2.5036
  861MPD2     N12699   3.906   4.407  10.740  0.3717  0.5256  0.2555
  861MPD2    H512700   3.824   4.362  10.701  1.8897 -1.8396 -0.2140
  861MPD2    N112701   4.277   4.400  11.064  0.9109  0.4741 -0.0035
  861MPD2    H712702   4.308   4.491  11.032  2.1385  0.2819  0.6469
  862MPD2     C12703   3.265   4.374  10.417 -0.2252 -0.5653 -0.1296
  862MPD2    C112704   3.397   4.334  10.441 -0.5673 -0.1572  0.3580
  862MPD2    C212705   3.430   4.202  10.439 -0.3895 -0.0440  0.1363
  862MPD2    C312706   3.332   4.111  10.452 -0.2762  0.4162  0.0386
  862MPD2    C412707   3.198   4.143  10.429 -0.1742  0.5969  0.0659
  862MPD2    C512708   3.168   4.278  10.409 -0.2859  0.2436  0.3404
  862MPD2     H12709   3.535   4.178  10.450 -0.0407  1.2638 -0.2539
  862MPD2    H112710   3.111   4.084  10.453  0.9977 -1.8656 -1.8507
  862MPD2    H212711   3.231   4.476  10.431 -1.2938 -0.8930 -0.3503
  862MPD2    H312712   3.064   4.309  10.403 -0.7683 -1.0004  2.4929
  862MPD2     N12713   3.369   3.978  10.486 -0.0565  1.1660  0.2467
  862MPD2    H512714   3.304   3.903  10.467  1.4290  0.2095 -0.9742
  862MPD2    N112715   3.493   4.428  10.480  1.0788 -0.2797 -0.0986
  862MPD2    H712716   3.583   4.385  10.496  1.8498  1.3509 -0.0925
  863MPD2     C12717   2.475   2.116  16.654  0.2089 -0.1819  0.4485
  863MPD2    C112718   2.576   2.194  16.603  0.3507 -0.2011 -0.1444
  863MPD2    C212719   2.709   2.156  16.625  0.3368  0.0177  0.7529
  863MPD2    C312720   2.736   2.032  16.683 -0.3143 -0.2840  0.8499
  863MPD2    C412721   2.638   1.943  16.720 -0.0869 -0.6024 -0.0573
  863MPD2    C512722   2.505   1.986  16.696 -0.0674  0.5720  0.5367
  863MPD2     H12723   2.792   2.226  16.617  0.0832  0.2636  0.2524
  863MPD2    H112724   2.664   1.843  16.752 -0.0843 -0.3197  0.8195
  863MPD2    H212725   2.370   2.141  16.648  0.1627 -0.3152  0.6875
  863MPD2    H312726   2.426   1.918  16.725  0.8113  0.2393  2.1443
  863MPD2     N12727   2.868   1.979  16.707  0.6568  0.1561  0.1062
  863MPD2    H512728   2.878   1.896  16.765 -1.2511  0.2409  0.5560
  863MPD2    N112729   2.540   2.317  16.544 -0.2479 -0.5695 -0.1949
  863MPD2    H712730   2.446   2.351  16.560  0.0404  0.6083 -1.0013
  864MPD2     C12731   3.031   3.126  17.153  0.1718 -0.0156  0.3094
  864MPD2    C112732   3.075   3.068  17.043  0.4957 -0.3917  0.6854
  864MPD2    C212733   3.180   3.120  16.974 -0.6164  0.0112 -0.2707
  864MPD2    C312734   3.230   3.245  17.010 -0.1009  0.3585 -0.4653
  864MPD2    C412735   3.183   3.303  17.124 -0.1736  0.4865 -0.0530
  864MPD2    C512736   3.083   3.249  17.195  0.3017 -0.2215  0.5758
  864MPD2     H12737   3.223   3.061  16.895 -1.8749 -0.2055 -0.7918
  864MPD2    H112738   3.214   3.399  17.164  0.5599  1.3130 -2.6423
  864MPD2    H212739   2.958   3.084  17.222  0.4599 -0.5098  0.3139
  864MPD2    H312740   3.058   3.298  17.288  1.8278 -0.7616  1.2824
  864MPD2     N12741   3.333   3.303  16.937 -0.0923 -0.1096 -0.0058
  864MPD2    H512742   3.392   3.369  16.987  0.8928 -1.8831  1.2196
  864MPD2    N112743   3.012   2.947  17.009 -1.1253 -0.2675  0.1943
  864MPD2    H712744   2.934   2.916  17.066 -2.3070 -0.1336 -1.3592
  865MPD2     C12745   3.286   3.858  16.279 -0.0457  1.0502 -0.1325
  865MPD2    C112746   3.283   3.735  16.341 -0.6480 -0.1263  0.1995
  865MPD2    C212747   3.302   3.727  16.481 -0.6393  0.2311  0.1301
  865MPD2    C312748   3.341   3.837  16.555 -0.1686 -0.5465  0.0534
  865MPD2    C412749   3.325   3.961  16.497 -0.3332  0.1734 -0.2763
  865MPD2    C512750   3.300   3.972  16.358  0.4446  0.1578 -0.5522
  865MPD2     H12751   3.292   3.630  16.527  0.6236  0.9191  1.8715
  865MPD2    H112752   3.348   4.053  16.550  0.4447  0.4253 -1.0421
  865MPD2    H212753   3.251   3.872  16.177  2.5376  0.1891 -1.1365
  865MPD2    H312754   3.293   4.069  16.310  1.5744 -0.0563 -1.1598
  865MPD2     N12755   3.376   3.841  16.698 -0.0798  0.6957 -0.1438
  865MPD2    H512756   3.375   3.934  16.737  1.1080  0.5750  0.1730
  865MPD2    N112757   3.277   3.621  16.255 -0.0218  0.1010 -0.0574
  865MPD2    H712758   3.291   3.651  16.159  0.7178 -2.8720 -0.8697
  866MPD2     C12759   0.074   0.174  11.238  0.3861  0.3813 -0.9089
  866MPD2    C112760   0.047   0.187  11.103  0.0932  0.2431  0.0165
  866MPD2    C212761   4.658   0.219  11.054 -0.5513 -0.2847 -0.4815
  866MPD2    C312762   4.569   0.276  11.149  0.3573  0.7439 -0.4179
  866MPD2    C412763   4.600   0.278  11.281  0.1407  0.7131  0.3094
  866MPD2    C512764   4.716   0.222  11.322  0.3536  0.3643 -0.0581
  866MPD2     H12765   4.633   0.210  10.949  0.8331  2.5311 -1.0567
  866MPD2    H112766   4.529   0.324  11.349  1.6792  1.5440  1.3561
  866MPD2    H212767   0.169   0.162  11.288  0.4232  1.6874 -0.6468
  866MPD2    H312768   0.018   0.226  11.424  1.2969  0.3698 -0.4062
  866MPD2     N12769   4.442   0.317  11.115 -0.2267  0.4928 -0.0414
  866MPD2    H512770   4.398   0.379  11.182  1.1556  2.5286 -1.0017
  866MPD2    N112771   0.153   0.148  11.011  0.1724 -0.5517 -0.0365
  866MPD2    H712772   0.228   0.094  11.053  0.9729 -0.0263 -0.7853
  867MPD2     C12773   2.068   3.621  16.601  0.3203  0.8327 -0.0680
  867MPD2    C112774   2.064   3.509  16.679 -0.2716 -0.3063  0.8935
  867MPD2    C212775   1.995   3.518  16.805 -0.2740  0.3815 -0.4482
  867MPD2    C312776   1.940   3.640  16.849 -0.2820  0.4618  0.1221
  867MPD2    C412777   1.963   3.750  16.775  0.1312 -0.5299 -0.1605
  867MPD2    C512778   2.034   3.744  16.651 -0.8535 -0.0048 -0.1439
  867MPD2     H12779   1.993   3.440  16.880  1.1120 -1.3737 -2.2624
  867MPD2    H112780   1.924   3.846  16.808  0.5542 -1.5702  3.3978
  867MPD2    H212781   2.107   3.616  16.500  1.4628 -1.3998  0.4947
  867MPD2    H312782   2.039   3.834  16.591 -0.8986  0.1679  0.1075
  867MPD2     N12783   1.887   3.657  16.980  0.1647  0.2564 -0.4022
  867MPD2    H512784   1.876   3.753  17.011 -1.1258  0.0283 -0.1665
  867MPD2    N112785   2.131   3.394  16.640  0.6543  0.0588 -0.2385
  867MPD2    H712786   2.172   3.402  16.547 -2.9694  2.0754 -1.6937
  868MPD2     C12787   3.580   3.170  13.000 -0.4531 -0.0729 -0.7879
  868MPD2    C112788   3.603   3.035  13.014  0.3328  0.0337 -0.2432
  868MPD2    C212789   3.514   2.960  13.096  0.7737  0.9996 -0.3586
  868MPD2    C312790   3.406   3.020  13.161  0.5127  0.1409  0.2351
  868MPD2    C412791   3.375   3.154  13.127  0.1263  0.4855  0.3109
  868MPD2    C512792   3.471   3.225  13.053  0.5972  0.0140 -0.6078
  868MPD2     H12793   3.537   2.856  13.116 -3.8512 -0.0938 -0.8034
  868MPD2    H112794   3.294   3.215  13.164  0.3769  1.2691 -0.4379
  868MPD2    H212795   3.650   3.228  12.942  0.4190 -1.0303 -0.6956
  868MPD2    H312796   3.451   3.328  13.027  0.2129  0.6750  2.3554
  868MPD2     N12797   3.337   2.959  13.274 -0.5865  0.3277 -0.3207
  868MPD2    H512798   3.359   2.863  13.296 -2.8939  0.6373  3.3514
  868MPD2    N112799   3.713   2.977  12.946 -0.3634  0.6222 -0.3536
  868MPD2    H712800   3.778   3.040  12.900  0.0984 -0.5775 -1.3307
  869MPD2     C12801   4.395   0.196   0.258  0.0518  0.1623 -0.3081
  869MPD2    C112802   4.520   0.148   0.291  0.0545  0.7609  0.1865
  869MPD2    C212803   4.595   0.208   0.394  0.0574 -0.2742 -0.1643
  869MPD2    C312804   4.557   0.334   0.442 -1.0831 -0.3911  0.5604
  869MPD2    C412805   4.427   0.376   0.401 -0.0342 -0.3624  0.0623
  869MPD2    C512806   4.350   0.308   0.314 -0.1576 -0.0967  0.8562
  869MPD2     H12807   4.695   0.168   0.407 -0.8619 -2.0757  1.3363
  869MPD2    H112808   4.383   0.469   0.437  3.1562  0.6735  1.3045
  869MPD2    H212809   4.332   0.157   0.178  0.8174 -0.7060 -0.4886
  869MPD2    H312810   4.255   0.358   0.295  0.3021  1.1597  1.9143
  869MPD2     N12811   4.630   0.408   0.533 -0.1941  0.2383 -0.1661
  869MPD2    H512812   4.583   0.488   0.573 -0.1538 -0.9796  2.3274
  869MPD2    N112813   4.553   0.023   0.237  0.8122  0.4072 -0.0933
  869MPD2    H712814   4.487   4.727   0.166  1.2757 -2.3867  0.6966
  870MPD2     C12815   0.705   3.610   1.959  0.3145  0.5899  0.3526
  870MPD2    C112816   0.675   3.598   1.825 -0.3748 -0.0053  0.0360
  870MPD2    C212817   0.612   3.702   1.764 -0.2984 -0.5959 -0.1634
  870MPD2    C312818   0.558   3.805   1.834 -0.6370 -0.7716 -0.4137
  870MPD2    C412819   0.582   3.815   1.967  0.1426  0.1358 -0.4203
  870MPD2    C512820   0.660   3.722   2.028 -0.3188 -1.1096  0.3616
  870MPD2     H12821   0.581   3.692   1.661 -0.6982 -0.9898 -0.0043
  870MPD2    H112822   0.539   3.886   2.037 -0.0742  0.1604 -0.5778
  870MPD2    H212823   0.765   3.531   2.003  0.0332  0.6872  0.9193
  870MPD2    H312824   0.678   3.725   2.135 -1.0275 -0.1163  0.4448
  870MPD2     N12825   0.481   3.893   1.756  0.6271 -0.1527 -0.6470
  870MPD2    H512826   0.465   3.863   1.660 -0.2623 -2.0513  0.0969
  870MPD2    N112827   0.723   3.483   1.755  0.1443 -0.1766 -0.6691
  870MPD2    H712828   0.793   3.422   1.796  0.3788  1.3550  1.2069
  871MPD2     C12829   1.276   3.950  16.600  0.5054 -0.0375  0.2663
  871MPD2    C112830   1.259   3.907  16.726 -0.3272 -0.1733  0.1146
  871MPD2    C212831   1.250   3.774  16.745 -0.7037  0.2736 -0.4177
  871MPD2    C312832   1.280   3.681  16.644 -0.1952 -0.3549 -0.6354
  871MPD2    C412833   1.294   3.729  16.514 -0.6054 -0.7380  0.4449
  871MPD2    C512834   1.286   3.863  16.497 -0.5070 -0.2265 -0.6761
  871MPD2     H12835   1.232   3.729  16.842  0.4078  2.0364  0.5988
  871MPD2    H112836   1.304   3.656  16.435  0.4252  1.7585 -1.7508
  871MPD2    H212837   1.302   4.054  16.582  2.1484 -0.0113  2.6075
  871MPD2    H312838   1.294   3.899  16.395 -1.5805  0.2135 -0.6086
  871MPD2     N12839   1.277   3.546  16.674  0.1503 -0.1863 -0.2850
  871MPD2    H512840   1.275   3.529  16.774 -0.1462 -3.7590 -0.9101
  871MPD2    N112841   1.251   4.006  16.832 -0.6839 -0.2294 -0.0589
  871MPD2    H712842   1.266   4.102  16.803 -0.9517  0.0887  0.8337
  872MPD2     C12843   1.439   1.823  13.596 -0.0414 -0.2411  0.3247
  872MPD2    C112844   1.483   1.790  13.727 -0.5741  0.5029 -0.2086
  872MPD2    C212845   1.391   1.741  13.817 -0.2230 -0.4176  0.5361
  872MPD2    C312846   1.259   1.732  13.776  0.1686 -0.5716  0.6058
  872MPD2    C412847   1.212   1.779  13.650 -0.4136  0.2228  0.4289
  872MPD2    C512848   1.308   1.827  13.567 -0.0293  0.0185  0.2781
  872MPD2     H12849   1.427   1.702  13.911  1.5768  3.1203  1.3344
  872MPD2    H112850   1.114   1.786  13.604 -0.8996  2.1449  1.7640
  872MPD2    H212851   1.502   1.860  13.516  0.2201 -1.2806  0.0490
  872MPD2    H312852   1.279   1.869  13.471 -0.7165 -0.1146  0.4210
  872MPD2     N12853   1.184   1.652  13.858  0.6185 -0.0103  0.0239
  872MPD2    H512854   1.228   1.620  13.943  0.5238  0.1062  0.1151
  872MPD2    N112855   1.623   1.777  13.760 -0.3800  0.8438 -0.0149
  872MPD2    H712856   1.652   1.734  13.847 -0.6914  1.9624  0.6483
  873MPD2     C12857   3.081   1.051   0.507 -0.5301  0.5046 -0.5803
  873MPD2    C112858   3.087   1.022   0.644  0.0320 -0.1769  0.7437
  873MPD2    C212859   3.099   0.893   0.683  0.1033  0.2242  0.2257
  873MPD2    C312860   3.134   0.795   0.594 -0.0730 -0.4227  0.1117
  873MPD2    C412861   3.127   0.827   0.462 -0.6189 -0.2722 -0.0994
  873MPD2    C512862   3.098   0.952   0.419  0.2911  0.1309 -0.3771
  873MPD2     H12863   3.094   0.868   0.789  0.0779 -0.0786  0.1533
  873MPD2    H112864   3.139   0.755   0.382  1.6376  0.9829 -0.8969
  873MPD2    H212865   3.063   1.150   0.469  1.3326  1.6656  1.5579
  873MPD2    H312866   3.093   0.962   0.311 -2.5672 -1.4208 -0.3791
  873MPD2     N12867   3.174   0.665   0.623  0.1194 -0.0666 -0.3784
  873MPD2    H512868   3.210   0.613   0.544 -1.1798 -2.3993  0.5625
  873MPD2    N112869   3.064   1.125   0.728  1.1085 -0.1233 -0.1305
  873MPD2    H712870   3.034   1.213   0.688  0.5819  1.1671  3.0896
  874MPD2     C12871   2.923   1.297  15.862 -1.2445  0.1540 -0.2170
  874MPD2    C112872   2.983   1.222  15.965 -0.0596  0.2470 -0.6733
  874MPD2    C212873   3.122   1.228  15.979  0.4021  0.2532  0.6479
  874MPD2    C312874   3.194   1.322  15.907 -0.3085 -0.0990  0.1144
  874MPD2    C412875   3.128   1.405  15.823  0.1091 -0.2406 -0.5089
  874MPD2    C512876   2.997   1.389  15.791  0.1806 -0.1001 -0.3984
  874MPD2     H12877   3.178   1.173  16.053 -1.3109 -0.7905  1.1420
  874MPD2    H112878   3.174   1.483  15.764  0.7589 -0.9465 -0.9304
  874MPD2    H212879   2.818   1.288  15.838 -0.3818 -0.8478 -3.5649
  874MPD2    H312880   2.948   1.442  15.710  0.8519  0.2947 -0.5407
  874MPD2     N12881   3.328   1.328  15.916 -0.7665  0.1240 -0.2797
  874MPD2    H512882   3.366   1.265  15.986 -0.2525  0.2370 -0.4589
  874MPD2    N112883   2.912   1.112  16.024  0.1333 -0.5091  0.5591
  874MPD2    H712884   2.811   1.116  16.013  0.4454  1.2400 -1.7358
  875MPD2     C12885   4.091   0.374  14.571 -0.8267 -0.4720 -0.0218
  875MPD2    C112886   4.066   0.244  14.607 -0.0336 -0.5031 -0.3815
  875MPD2    C212887   4.130   0.198  14.712  0.2267 -0.4759 -0.3717
  875MPD2    C312888   4.226   0.264  14.785 -0.7872 -0.4087  0.3903
  875MPD2    C412889   4.258   0.389  14.736 -0.3550 -0.1234  0.6438
  875MPD2    C512890   4.177   0.451  14.646 -0.0396 -0.3214 -0.4193
  875MPD2     H12891   4.114   0.095  14.741 -0.4783 -0.2252  0.1268
  875MPD2    H112892   4.339   0.442  14.786 -0.0389  1.6726 -1.7706
  875MPD2    H212893   4.045   0.421  14.485  2.0199  2.1277 -0.1203
  875MPD2    H312894   4.213   0.545  14.607 -3.6264  1.6555  1.0660
  875MPD2     N12895   4.293   0.220  14.901 -0.5886 -0.2505  0.7783
  875MPD2    H512896   4.369   0.280  14.930  0.3280 -1.7337  1.4927
  875MPD2    N112897   3.981   0.152  14.537 -0.4153 -0.0421  0.3298
  875MPD2    H712898   3.965   0.065  14.587  0.4548 -0.1644  0.4089
  876MPD2     C12899   2.717   0.844  15.808 -0.0523 -0.5606  0.9753
  876MPD2    C112900   2.855   0.836  15.781  0.2188 -0.3586 -0.2876
  876MPD2    C212901   2.922   0.724  15.833 -0.3678 -0.8913  0.0807
  876MPD2    C312902   2.868   0.619  15.901 -0.1892  0.0008 -0.6965
  876MPD2    C412903   2.729   0.630  15.933 -0.4781 -0.8231  0.6209
  876MPD2    C512904   2.661   0.746  15.887  1.0604  0.7090 -0.4619
  876MPD2     H12905   3.029   0.718  15.816 -0.4395  0.6391 -0.9770
  876MPD2    H112906   2.675   0.565  16.002 -1.3466 -1.2558 -0.4666
  876MPD2    H212907   2.655   0.924  15.770 -1.6207 -1.7939  0.9529
  876MPD2    H312908   2.555   0.758  15.905  0.5318 -2.2718 -1.6863
  876MPD2     N12909   2.950   0.508  15.947  0.6697  0.4168  0.4235
  876MPD2    H512910   3.048   0.519  15.922  0.6709  1.8700  1.0976
  876MPD2    N112911   2.914   0.947  15.719  0.0975 -0.1121 -0.3473
  876MPD2    H712912   2.847   1.018  15.692  0.3175  0.7683  1.4674
  877MPD2     C12913   2.814   1.304  15.091 -0.1431 -0.6802  0.6461
  877MPD2    C112914   2.945   1.324  15.110 -0.2914  0.1353 -0.9955
  877MPD2    C212915   3.015   1.394  15.019  0.5650 -0.1132 -0.5691
  877MPD2    C312916   2.955   1.451  14.908  0.6286 -0.1393 -0.0714
  877MPD2    C412917   2.819   1.448  14.892 -0.3734 -0.0376 -0.7343
  877MPD2    C512918   2.751   1.367  14.978 -0.5358  1.0278  0.0100
  877MPD2     H12919   3.123   1.405  15.026  0.5156  0.8235 -1.2402
  877MPD2    H112920   2.769   1.505  14.815 -0.7082 -0.7913 -1.0758
  877MPD2    H212921   2.746   1.245  15.152  0.9752 -1.4639  1.1270
  877MPD2    H312922   2.645   1.350  14.965 -0.3210  0.2735 -0.7151
  877MPD2     N12923   3.029   1.517  14.809  0.1184  1.0797 -1.0745
  877MPD2    H512924   2.994   1.527  14.714 -0.6465 -1.2769 -1.0545
  877MPD2    N112925   3.016   1.280  15.227 -0.0277 -0.3740 -0.1328
  877MPD2    H712926   3.117   1.294  15.223 -0.0793 -0.0100 -0.1279
  878MPD2     C12927   2.452   0.604  13.082 -0.0144 -0.5496  0.3819
  878MPD2    C112928   2.530   0.711  13.102  0.5159 -0.1151  0.3938
  878MPD2    C212929   2.533   0.780  13.226  0.6593  0.7090 -0.3253
  878MPD2    C312930   2.451   0.742  13.327 -0.7457 -0.5704 -0.6366
  878MPD2    C412931   2.353   0.647  13.291 -0.2509  0.0721 -0.8198
  878MPD2    C512932   2.361   0.571  13.178 -0.0812 -0.0332  0.0145
  878MPD2     H12933   2.596   0.866  13.242 -0.1609  1.3323 -0.4153
  878MPD2    H112934   2.272   0.621  13.358 -0.7323 -0.9934 -1.8106
  878MPD2    H212935   2.448   0.548  12.990  0.8636  2.1246 -1.2875
  878MPD2    H312936   2.284   0.499  13.151 -1.0162  0.4046  1.5549
  878MPD2     N12937   2.455   0.813  13.446 -0.1177  0.3161  0.4645
  878MPD2    H512938   2.514   0.895  13.439 -0.0685  0.2323 -0.1195
  878MPD2    N112939   2.615   0.744  12.997 -0.2787 -0.0385 -0.4350
  878MPD2    H712940   2.589   0.698  12.910  0.6927 -0.5592 -0.4490
  879MPD2     C12941   3.600   2.129  16.725 -0.1557 -0.0200  0.0257
  879MPD2    C112942   3.644   1.998  16.751 -0.3011  0.2134  0.0481
  879MPD2    C212943   3.566   1.893  16.701  0.0296 -0.4985 -0.0287
  879MPD2    C312944   3.460   1.923  16.613  0.6924 -0.0101 -0.6840
  879MPD2    C412945   3.425   2.051  16.580 -1.2111 -0.6188 -0.1188
  879MPD2    C512946   3.499   2.153  16.632 -0.6155 -0.1304  0.4604
  879MPD2     H12947   3.597   1.790  16.716  0.9005 -0.0489  1.2332
  879MPD2    H112948   3.342   2.072  16.513  0.3434  2.9804 -0.8836
  879MPD2    H212949   3.663   2.209  16.762 -0.6503 -0.4056  1.6881
  879MPD2    H312950   3.461   2.254  16.620  0.5939  0.1911 -0.7138
  879MPD2     N12951   3.380   1.824  16.553  0.2728  0.1097 -0.2769
  879MPD2    H512952   3.312   1.864  16.489 -1.7615 -1.2285  1.0408
  879MPD2    N112953   3.763   1.982  16.824  0.0988 -0.3108 -0.0364
  879MPD2    H712954   3.805   2.069  16.856 -1.4368  0.0766  0.9449
  880MPD2     C12955   0.039   3.517   0.307 -0.2175  0.1042 -0.0945
  880MPD2    C112956   0.133   3.575   0.393 -0.1381  0.2033 -0.6149
  880MPD2    C212957   0.243   3.497   0.439  0.5415  0.2898  0.0798
  880MPD2    C312958   0.258   3.365   0.409  0.9831  0.5603  0.6849
  880MPD2    C412959   0.167   3.309   0.325  0.2035 -0.7978 -0.0108
  880MPD2    C512960   0.058   3.384   0.279  0.4770  0.3332 -0.2643
  880MPD2     H12961   0.310   3.551   0.505  0.3578 -1.8602  2.0247
  880MPD2    H112962   0.190   3.206   0.298 -1.5030 -0.8471 -1.2882
  880MPD2    H212963   4.686   3.566   0.267 -0.2915  1.8123  2.1799
  880MPD2    H312964   4.720   3.344   0.209  0.3211  4.3504 -2.4625
  880MPD2     N12965   0.363   3.289   0.473  0.3143  0.0244 -0.0464
  880MPD2    H512966   0.423   3.343   0.535 -0.8180 -1.6270  2.4841
  880MPD2    N112967   0.130   3.715   0.410 -0.2659  0.3117 -0.1604
  880MPD2    H712968   0.080   3.772   0.343  1.5055 -0.2608 -1.9921
  881MPD2     C12969   0.274   4.680   0.162 -0.3141  0.0420 -0.1518
  881MPD2    C112970   0.280   4.553   0.101 -0.5440  0.0956 -0.9223
  881MPD2    C212971   0.281   4.444   0.182  1.2433  0.5424 -0.6868
  881MPD2    C312972   0.254   4.464   0.315  0.2905 -0.0364 -0.1550
  881MPD2    C412973   0.244   4.590   0.365  0.0849  0.3715 -0.1921
  881MPD2    C512974   0.269   4.696   0.292  0.2944 -0.3516  0.3306
  881MPD2     H12975   0.317   4.348   0.146 -0.6933 -1.1832  1.9422
  881MPD2    H112976   0.228   4.611   0.471  1.9513 -2.7541  0.6976
  881MPD2    H212977   0.297   0.036   0.108 -1.2730  0.9833  1.0204
  881MPD2    H312978   0.292   0.058   0.334  1.5570  0.2059 -1.6238
  881MPD2     N12979   0.231   4.357   0.408  0.9683  0.2444  0.9638
  881MPD2    H512980   0.194   4.387   0.497  1.3264 -0.2513  1.2795
  881MPD2    N112981   0.311   4.540  17.704 -0.1018  0.7194 -0.0406
  881MPD2    H712982   0.322   4.627  17.654 -0.0405  1.0100  0.4748
  882MPD2     C12983   3.130   1.390  14.151  0.1966 -0.3731  0.1148
  882MPD2    C112984   3.069   1.491  14.216  0.1488 -0.1012  0.0331
  882MPD2    C212985   2.937   1.528  14.187 -0.5508 -0.2223  0.7860
  882MPD2    C312986   2.866   1.441  14.105  0.0319 -0.3320  0.3184
  882MPD2    C412987   2.933   1.331  14.045 -0.0997  0.4017 -0.5380
  882MPD2    C512988   3.064   1.314  14.064  0.0491 -0.2337  0.1000
  882MPD2     H12989   2.890   1.606  14.245 -2.1196 -1.1774  0.8014
  882MPD2    H112990   2.879   1.257  13.986  1.5878 -0.2371 -1.2958
  882MPD2    H212991   3.232   1.366  14.177  0.5747  0.8497 -0.2057
  882MPD2    H312992   3.120   1.234  14.018  1.6125  1.9239 -1.7111
  882MPD2     N12993   2.724   1.451  14.088  0.2953 -0.1008  0.5748
  882MPD2    H512994   2.677   1.367  14.055  0.7901 -0.1893  0.1052
  882MPD2    N112995   3.153   1.578  14.291 -0.3364 -0.3443  0.3219
  882MPD2    H712996   3.248   1.543  14.293  0.2930  1.3231 -0.2016
  883MPD2     C12997   0.380   1.109  16.136 -0.6883 -0.4049  0.0501
  883MPD2    C112998   0.387   1.233  16.068  1.0533  1.0363  0.1921
  883MPD2    C212999   0.461   1.337  16.128 -0.9429 -0.0634  0.0057
  883MPD2    C313000   0.516   1.327  16.255  0.1794  0.4249 -0.2456
  883MPD2    C413001   0.507   1.203  16.325  0.5165 -0.2412 -0.1998
  883MPD2    C513002   0.437   1.099  16.263 -0.2635  0.1645 -0.6031
  883MPD2     H13003   0.475   1.419  16.059 -2.0132  1.2483  1.3627
  883MPD2    H113004   0.528   1.188  16.430 -0.3337  0.8405  0.1271
  883MPD2    H213005   0.330   1.023  16.094 -1.2621  1.2146 -2.5978
  883MPD2    H313006   0.419   1.007  16.318  2.4016  0.0539  0.1126
  883MPD2     N13007   0.581   1.435  16.322  0.4658  0.0169 -0.0052
  883MPD2    H513008   0.596   1.519  16.266 -2.9326  1.2897  1.0189
  883MPD2    N113009   0.317   1.252  15.941  0.2123  0.8002  0.1265
  883MPD2    H713010   0.316   1.349  15.912  1.8427  0.9560  0.6037
  884MPD2     C13011   2.318   1.958  15.052  0.2105 -1.2514  0.2834
  884MPD2    C113012   2.262   2.019  14.941 -0.2242  1.7545 -0.3320
  884MPD2    C213013   2.128   2.053  14.954 -0.1358 -0.3902 -0.2667
  884MPD2    C313014   2.061   2.046  15.075 -0.3308  0.0741  0.2262
  884MPD2    C413015   2.132   1.989  15.186  0.4712  0.5269  0.0807
  884MPD2    C513016   2.253   1.930  15.162  0.2619 -0.4449  0.2482
  884MPD2     H13017   2.065   2.080  14.870 -1.2815  0.2363  0.7955
  884MPD2    H113018   2.093   1.972  15.285  0.8245 -0.6450  0.0177
  884MPD2    H213019   2.425   1.940  15.056  0.7177  1.4149 -1.0791
  884MPD2    H313020   2.306   1.889  15.247  0.9709  0.2082  0.1238
  884MPD2     N13021   1.932   2.098  15.087 -0.4089  0.4813 -0.0274
  884MPD2    H513022   1.901   2.146  15.003 -1.1178  0.0645  0.0005
  884MPD2    N113023   2.322   2.017  14.817  0.5314  0.3893  0.1272
  884MPD2    H713024   2.264   2.038  14.736 -0.4113 -1.1734  0.4015
  885MPD2     C13025   0.831   2.606   0.646 -0.0233  0.6425  0.5661
  885MPD2    C113026   0.879   2.506   0.567  0.6633  0.3146  0.2185
  885MPD2    C213027   0.876   2.514   0.425 -0.5482  0.0548  0.2492
  885MPD2    C313028   0.823   2.627   0.367  0.2342 -0.4841  0.2782
  885MPD2    C413029   0.780   2.730   0.442  0.1523 -0.0958 -0.0753
  885MPD2    C513030   0.780   2.714   0.579 -0.0498 -0.7233  0.2965
  885MPD2     H13031   0.922   2.437   0.365  1.7009  2.0291 -0.5491
  885MPD2    H113032   0.734   2.818   0.398  2.2751  1.5675  1.0430
  885MPD2    H213033   0.831   2.599   0.754 -1.0857 -0.8835  0.4672
  885MPD2    H313034   0.752   2.791   0.650  1.0198  0.7527 -0.8766
  885MPD2     N13035   0.820   2.643   0.226  0.1481  0.4579  0.1067
  885MPD2    H513036   0.776   2.732   0.204 -0.5916  0.0444 -0.1025
  885MPD2    N113037   0.912   2.391   0.638 -0.1502  0.1330  0.3886
  885MPD2    H713038   0.892   2.404   0.737 -0.7672  1.3954  0.0952
  886MPD2     C13039   1.517   0.894  15.333 -0.2109  0.5801 -0.3934
  886MPD2    C113040   1.654   0.903  15.347  0.3714  0.1888  0.4811
  886MPD2    C213041   1.723   0.992  15.266  0.3766  0.5555 -0.1421
  886MPD2    C313042   1.660   1.060  15.160  0.5734  0.5575 -0.7783
  886MPD2    C413043   1.522   1.067  15.164  0.1218 -0.3285  0.3008
  886MPD2    C513044   1.457   0.982  15.250  0.1208  0.1766  0.5840
  886MPD2     H13045   1.830   1.005  15.277  0.1612  0.0863  2.4148
  886MPD2    H113046   1.461   1.125  15.097  0.2766 -0.9265 -0.3554
  886MPD2    H213047   1.457   0.838  15.403  0.9867 -0.0909  0.0939
  886MPD2    H313048   1.350   0.989  15.239  0.4210  2.8664 -0.6822
  886MPD2     N13049   1.724   1.151  15.071  0.1940  0.3736 -0.0529
  886MPD2    H513050   1.671   1.199  14.999  0.5903  0.7462 -0.0987
  886MPD2    N113051   1.733   0.839  15.443  0.2206 -0.4413  0.1492
  886MPD2    H713052   1.829   0.871  15.456 -0.1789 -0.2188  2.6538
  887MPD2     C13053   2.232   0.971  15.961 -0.0821  0.6092  0.3299
  887MPD2    C113054   2.164   0.981  15.847  0.9723 -0.0217  0.7708
  887MPD2    C213055   2.236   1.031  15.741  0.5962 -0.4499  0.0041
  887MPD2    C313056   2.373   1.068  15.750  0.1154  0.0797  0.1236
  887MPD2    C413057   2.436   1.051  15.871 -1.0085  0.1543 -0.5895
  887MPD2    C513058   2.362   0.998  15.975 -0.0348  0.6005  0.2646
  887MPD2     H13059   2.195   1.037  15.641  1.0555 -2.2670 -0.2815
  887MPD2    H113060   2.540   1.078  15.890 -1.2060  1.1311 -0.8542
  887MPD2    H213061   2.179   0.943  16.051 -2.3785 -0.1730 -1.2560
  887MPD2    H313062   2.410   0.991  16.072 -1.1470 -1.0622  0.6961
  887MPD2     N13063   2.435   1.131  15.636 -0.8926 -0.3405 -0.2028
  887MPD2    H513064   2.363   1.170  15.576  0.0835  0.3998 -0.8906
  887MPD2    N113065   2.037   0.924  15.813  0.2674  0.0127 -0.1371
  887MPD2    H713066   2.013   0.910  15.715 -0.0253  3.6860 -0.5673
  888MPD2     C13067   3.927   0.808  14.575 -0.8110 -0.0342 -0.2040
  888MPD2    C113068   3.941   0.830  14.715 -0.5427 -0.3440 -0.3442
  888MPD2    C213069   3.991   0.953  14.752 -0.5953  0.7884  0.5924
  888MPD2    C313070   4.022   1.050  14.665 -0.1441  0.0058  0.2615
  888MPD2    C413071   4.010   1.021  14.533 -0.0028  0.0229  0.4962
  888MPD2    C513072   3.958   0.905  14.487 -0.0075 -0.8485 -0.9597
  888MPD2     H13073   4.002   0.970  14.858  0.2931  1.0358  0.4604
  888MPD2    H113074   4.034   1.086  14.450  0.8128 -0.9726 -0.0458
  888MPD2    H213075   3.889   0.720  14.524  0.0157 -0.5610  0.0815
  888MPD2    H313076   3.946   0.877  14.383  1.9970 -2.0794 -0.8614
  888MPD2     N13077   4.073   1.170  14.710  0.4532 -0.5076  0.5164
  888MPD2    H513078   4.053   1.196  14.806  2.1981  1.1537  0.4170
  888MPD2    N113079   3.912   0.733  14.812 -0.0669 -0.1303 -0.9850
  888MPD2    H713080   3.943   0.750  14.908 -1.4430 -0.3692 -0.4977
  889MPD2     C13081   3.675   0.699  12.831 -0.8549  0.6934  0.2090
  889MPD2    C113082   3.631   0.648  12.959  0.4661 -0.8894  0.1410
  889MPD2    C213083   3.574   0.745  13.039  0.1710  0.9102 -0.9609
  889MPD2    C313084   3.547   0.875  12.999  0.2947  1.2057  0.1070
  889MPD2    C413085   3.562   0.901  12.871 -0.2513  0.3361 -0.4342
  889MPD2    C513086   3.631   0.814  12.784 -0.0531  0.7254 -0.1229
  889MPD2     H13087   3.561   0.721  13.144 -3.0358  0.2427 -1.5026
  889MPD2    H113088   3.542   0.996  12.822 -2.2430 -0.9065 -2.0466
  889MPD2    H213089   3.721   0.626  12.765 -1.1493  1.1578 -0.5112
  889MPD2    H313090   3.642   0.836  12.679  0.8655  0.7720 -0.0139
  889MPD2     N13091   3.501   0.966  13.101  0.1736  0.4036 -0.0484
  889MPD2    H513092   3.499   0.937  13.199 -2.2548  0.9837  0.0708
  889MPD2    N113093   3.680   0.524  13.015  0.2446  0.3315  0.7028
  889MPD2    H713094   3.639   0.508  13.107 -0.6963 -0.9084  0.0673
  890MPD2     C13095   3.300   2.290  14.469 -0.1085 -0.3540  0.4355
  890MPD2    C113096   3.313   2.318  14.604  0.0547 -0.0634  0.2813
  890MPD2    C213097   3.344   2.213  14.688  0.2669  0.4313 -0.1346
  890MPD2    C313098   3.370   2.088  14.641 -0.0079  0.4893 -0.0637
  890MPD2    C413099   3.377   2.070  14.506  0.6977  0.3488 -0.3503
  890MPD2    C513100   3.331   2.165  14.418 -0.3354  0.1624 -0.0158
  890MPD2     H13101   3.354   2.225  14.795 -1.1581  1.7767 -0.1512
  890MPD2    H113102   3.395   1.970  14.467 -0.3252 -0.9739  2.5838
  890MPD2    H213103   3.261   2.364  14.400  1.2653 -0.6681 -0.6826
  890MPD2    H313104   3.317   2.140  14.314 -1.2743  0.4633  0.0447
  890MPD2     N13105   3.422   1.994  14.735 -0.1839 -0.2053  0.5607
  890MPD2    H513106   3.435   2.023  14.831  0.7652 -0.5043  0.5180
  890MPD2    N113107   3.290   2.457  14.640 -0.1304 -0.0736  0.1202
  890MPD2    H713108   3.276   2.526  14.567  0.4823 -0.4465 -0.3529
  891MPD2     C13109   0.941   0.381  16.660  0.5784 -0.0460 -0.0920
  891MPD2    C113110   1.004   0.496  16.700 -0.3581  0.0638  0.1479
  891MPD2    C213111   1.112   0.491  16.786  0.1503  0.1061 -0.0840
  891MPD2    C313112   1.147   0.369  16.842  0.5057  0.7997  0.1986
  891MPD2    C413113   1.059   0.254  16.819  0.2110 -0.0507 -0.1479
  891MPD2    C513114   0.966   0.261  16.722 -0.5103  0.4935 -0.3833
  891MPD2     H13115   1.160   0.579  16.826 -1.6492  1.0047  0.0935
  891MPD2    H113116   1.073   0.157  16.864  3.0538 -0.1633 -1.3124
  891MPD2    H213117   0.867   0.382  16.580  0.3998 -1.1570  0.0584
  891MPD2    H313118   0.906   0.173  16.702 -1.3280  0.9026  0.2520
  891MPD2     N13119   1.249   0.374  16.937  0.1251  0.1725  0.6498
  891MPD2    H513120   1.294   0.463  16.957  0.2818 -0.1213  1.6167
  891MPD2    N113121   0.960   0.618  16.637  0.2177  0.0600  0.1573
  891MPD2    H713122   0.886   0.603  16.569 -0.0975  0.1920  0.4700
  892MPD2     C13123   2.256   1.647  14.929 -0.2256  0.2440 -0.8762
  892MPD2    C113124   2.167   1.674  14.827  0.5253 -0.1686 -0.0597
  892MPD2    C213125   2.202   1.635  14.698 -0.0298  0.0210  0.0085
  892MPD2    C313126   2.326   1.572  14.672 -0.2051  0.4850  0.8110
  892MPD2    C413127   2.415   1.554  14.774 -0.2029 -0.2504 -0.3850
  892MPD2    C513128   2.381   1.582  14.905  0.5313  0.1853 -0.4389
  892MPD2     H13129   2.138   1.649  14.612 -2.0899  0.3425  1.5800
  892MPD2    H113130   2.514   1.511  14.759 -0.2883 -0.5516 -0.0957
  892MPD2    H213131   2.244   1.676  15.033 -1.0921 -2.3344 -0.2600
  892MPD2    H313132   2.446   1.560  14.989 -0.6739 -0.4075  0.3498
  892MPD2     N13133   2.362   1.533  14.535 -0.8597 -0.5453 -0.0784
  892MPD2    H513134   2.459   1.506  14.523 -0.9499 -0.3864 -1.1370
  892MPD2    N113135   2.040   1.737  14.842 -0.6162 -0.0148 -0.1242
  892MPD2    H713136   1.999   1.740  14.935 -2.0053 -0.6861 -0.7134
  893MPD2     C13137   0.075   3.566   1.196 -0.2580  0.5268 -0.4147
  893MPD2    C113138   0.039   3.666   1.280  0.3909  0.7196  0.4959
  893MPD2    C213139   0.092   3.665   1.407  0.3990  0.7159  0.0178
  893MPD2    C313140   0.191   3.567   1.435 -0.0678 -0.3871  0.4056
  893MPD2    C413141   0.231   3.471   1.340 -1.3476  0.5787 -0.3387
  893MPD2    C513142   0.173   3.475   1.219  0.0142  0.6550 -0.2613
  893MPD2     H13143   0.061   3.746   1.472  1.2757  1.5933 -0.6469
  893MPD2    H113144   0.286   3.384   1.373 -0.1581  0.4132 -2.7469
  893MPD2    H213145   0.041   3.570   1.093  1.5374 -1.0401 -1.0715
  893MPD2    H313146   0.206   3.413   1.136 -0.6394 -0.1503  0.0806
  893MPD2     N13147   0.251   3.553   1.564 -0.7136 -0.0097  0.0611
  893MPD2    H513148   0.318   3.477   1.566  0.7160  1.2280 -0.7553
  893MPD2    N113149   4.690   3.766   1.229  0.1837  0.8261  1.2315
  893MPD2    H713150   4.664   3.759   1.132  1.3854 -0.2897  0.9816
  894MPD2     C13151   2.441   2.059   0.690 -0.3913 -0.1846 -0.0177
  894MPD2    C113152   2.392   2.148   0.781  0.2525  0.3924 -0.1336
  894MPD2    C213153   2.435   2.280   0.759  0.4268 -0.3872  0.2854
  894MPD2    C313154   2.503   2.321   0.641  0.0498 -0.8269 -0.2086
  894MPD2    C413155   2.552   2.226   0.558 -0.1408 -0.9229  0.0922
  894MPD2    C513156   2.516   2.097   0.581  0.5093 -0.0618  0.1882
  894MPD2     H13157   2.388   2.356   0.820  2.6627  1.7433 -0.6583
  894MPD2    H113158   2.615   2.251   0.474 -0.1459  0.4760  0.5011
  894MPD2    H213159   2.422   1.953   0.702  0.9056 -0.3292  0.6955
  894MPD2    H313160   2.564   2.028   0.512  0.7091  1.8394 -1.5901
  894MPD2     N13161   2.513   2.451   0.615 -0.0731 -0.1163 -0.2911
  894MPD2    H513162   2.501   2.510   0.696 -2.4812 -1.4492  0.3024
  894MPD2    N113163   2.303   2.112   0.892 -0.0771  0.0525  0.5041
  894MPD2    H713164   2.266   2.194   0.940 -1.4674 -0.4725  0.3163
  895MPD2     C13165   1.825   0.216  13.917 -0.5632  0.2434 -0.7170
  895MPD2    C113166   1.701   0.191  13.884  0.1599 -0.7478 -0.2978
  895MPD2    C213167   1.661   0.059  13.899  0.1523 -0.1870  0.2777
  895MPD2    C313168   1.748   4.696  13.945  0.3824 -0.2026  0.6776
  895MPD2    C413169   1.879   4.725  13.979 -0.0493  0.1834 -0.6572
  895MPD2    C513170   1.913   0.125  13.958  0.1833  0.3433  0.0568
  895MPD2     H13171   1.574   0.030  13.841  1.0876 -1.5181 -0.4532
  895MPD2    H113172   1.953   4.664  14.031 -0.6134  0.0403 -0.0237
  895MPD2    H213173   1.865   0.316  13.919 -0.4882  0.2076 -0.3874
  895MPD2    H313174   2.009   0.152  14.000  0.8694  2.8048 -3.1461
  895MPD2     N13175   1.694   4.563  13.938  0.2552  0.2307 -0.7482
  895MPD2    H513176   1.617   4.545  13.873 -1.9467  3.9787  0.8605
  895MPD2    N113177   1.599   0.280  13.833 -0.7601  0.1300 -0.1945
  895MPD2    H713178   1.508   0.237  13.819  0.1404 -1.7925 -0.2737
  896MPD2     C13179   4.298   2.791   1.498  0.3175 -0.4418 -0.5408
  896MPD2    C113180   4.248   2.902   1.445 -0.1722 -0.2610 -0.1744
  896MPD2    C213181   4.138   2.891   1.361  0.0854 -0.0758  0.0858
  896MPD2    C313182   4.064   2.775   1.355  0.0294 -0.1123  0.4379
  896MPD2    C413183   4.109   2.659   1.424  0.0312  1.0392 -0.1912
  896MPD2    C513184   4.228   2.679   1.489  0.2176  0.2203 -0.1737
  896MPD2     H13185   4.112   2.974   1.296 -1.3193 -0.6193 -0.0519
  896MPD2    H113186   4.056   2.566   1.408  0.8398  1.1521 -3.6327
  896MPD2    H213187   4.396   2.793   1.544  0.0689 -0.9227  0.0081
  896MPD2    H313188   4.281   2.598   1.538 -0.1803  1.0364  1.6126
  896MPD2     N13189   3.945   2.781   1.277 -0.3531 -0.1481  0.8401
  896MPD2    H513190   3.919   2.869   1.234  1.5998  0.7725  1.5491
  896MPD2    N113191   4.335   3.012   1.452 -0.0078 -0.2102 -0.3552
  896MPD2    H713192   4.422   2.996   1.502  0.5152  0.0625 -1.1819
  897MPD2     C13193   0.493   0.484  10.593 -0.3974 -0.1648 -0.5316
  897MPD2    C113194   0.365   0.502  10.540  0.7628  0.7655  0.8103
  897MPD2    C213195   0.253   0.506  10.622 -0.4993  0.1434 -0.3132
  897MPD2    C313196   0.280   0.505  10.754  0.6614 -0.3962 -0.1642
  897MPD2    C413197   0.404   0.481  10.811  0.4557 -0.1404  0.1321
  897MPD2    C513198   0.509   0.468  10.722 -0.1186 -0.5101  0.0139
  897MPD2     H13199   0.157   0.524  10.577 -0.6207  2.8082  1.0140
  897MPD2    H113200   0.418   0.475  10.919  0.3600 -1.2119  0.0856
  897MPD2    H213201   0.583   0.491  10.533  0.2327 -2.2872  0.1822
  897MPD2    H313202   0.607   0.456  10.767 -0.0210  0.5403  0.0745
  897MPD2     N13203   0.165   0.524  10.838  0.3082 -0.1687  0.0951
  897MPD2    H513204   0.079   0.552  10.791 -1.0560 -0.5218  2.4069
  897MPD2    N113205   0.366   0.533  10.396 -0.3207 -0.2323  0.1919
  897MPD2    H713206   0.457   0.542  10.352 -0.4608 -2.8684 -0.6599
  898MPD2     C13207   1.722   0.830  17.233 -0.7865  0.1678 -0.5041
  898MPD2    C113208   1.858   0.836  17.209  0.4563  0.4220  0.2641
  898MPD2    C213209   1.915   0.969  17.183  0.0726  0.5774 -0.0051
  898MPD2    C313210   1.835   1.080  17.184 -0.3283 -0.4324 -0.1678
  898MPD2    C413211   1.704   1.067  17.213  0.0615  0.4393  0.4399
  898MPD2    C513212   1.646   0.950  17.234 -0.0935 -0.1324 -0.8089
  898MPD2     H13213   2.021   0.986  17.173  0.2037 -0.6105 -0.6548
  898MPD2    H113214   1.637   1.152  17.207 -0.8971 -0.3057  0.5003
  898MPD2    H213215   1.674   0.734  17.243 -1.3973  0.7810  2.3263
  898MPD2    H313216   1.543   0.941  17.265 -0.3991  1.1123 -1.4501
  898MPD2     N13217   1.896   1.210  17.162 -0.1300 -0.2579  0.7197
  898MPD2    H513218   1.995   1.206  17.141 -0.7105 -0.6198 -1.9666
  898MPD2    N113219   1.940   0.719  17.209 -0.0069  0.1959 -0.1634
  898MPD2    H713220   2.036   0.742  17.187 -0.3779  1.5501 -0.3779
  899MPD2     C13221   2.948   1.379  16.765 -0.0251  0.0953  0.2244
  899MPD2    C113222   3.001   1.449  16.867  0.2560 -0.6293  0.2906
  899MPD2    C213223   2.988   1.407  16.996  0.6010 -0.0017 -0.8195
  899MPD2    C313224   2.909   1.287  17.013  0.5999  0.2872 -0.8949
  899MPD2    C413225   2.869   1.208  16.906 -0.6033  0.5378 -0.6619
  899MPD2    C513226   2.894   1.258  16.781 -0.2147 -0.0919  0.1628
  899MPD2     H13227   3.030   1.456  17.083 -0.2707 -1.6101  0.5043
  899MPD2    H113228   2.810   1.117  16.914  2.2850 -1.3220 -0.3352
  899MPD2    H213229   2.953   1.408  16.660 -0.1062  1.3635  0.5664
  899MPD2    H313230   2.855   1.209  16.692 -0.8175 -0.0094  0.3813
  899MPD2     N13231   2.871   1.234  17.142 -0.7713  0.5186 -0.9262
  899MPD2    H513232   2.809   1.154  17.133  1.1036 -1.1672  1.2027
  899MPD2    N113233   3.057   1.577  16.829  0.7010  0.1664 -0.4005
  899MPD2    H713234   3.054   1.603  16.731 -0.9224  1.9272  0.1028
  900MPD2     C13235   2.830   3.321  12.359 -0.3666  0.4937 -0.1666
  900MPD2    C113236   2.771   3.260  12.473  0.0395  0.5215  0.4478
  900MPD2    C213237   2.633   3.241  12.472  0.5439 -0.5169  0.4644
  900MPD2    C313238   2.553   3.261  12.359  0.1826 -0.5905 -0.2530
  900MPD2    C413239   2.619   3.310  12.245 -0.0824 -0.4504 -0.0525
  900MPD2    C513240   2.751   3.333  12.248 -0.0030 -0.2087  0.0064
  900MPD2     H13241   2.593   3.203  12.565 -1.9740  1.0767  0.0447
  900MPD2    H113242   2.562   3.334  12.156  2.6760  0.3887 -1.5742
  900MPD2    H213243   2.934   3.349  12.349 -0.9337  2.3196 -0.9721
  900MPD2    H313244   2.795   3.387  12.165 -1.3083 -0.4006 -0.8084
  900MPD2     N13245   2.409   3.262  12.368  0.4035 -0.6577 -0.1013
  900MPD2    H513246   2.371   3.223  12.454 -1.2163  0.7217 -0.2050
  900MPD2    N113247   2.853   3.232  12.583 -0.0994 -0.3285 -0.2117
  900MPD2    H713248   2.952   3.250  12.573 -0.0002 -0.2820  0.8720
  901MPD2     C13249   2.698   2.530  13.291 -0.3523 -0.8193 -0.2766
  901MPD2    C113250   2.797   2.503  13.198 -0.1279 -0.8457 -0.6287
  901MPD2    C213251   2.880   2.602  13.163 -0.8366 -0.4758  0.3521
  901MPD2    C313252   2.839   2.732  13.187  0.0251  0.2873  0.1487
  901MPD2    C413253   2.732   2.754  13.279  0.0089 -0.3213 -0.0192
  901MPD2    C513254   2.669   2.653  13.339  0.9588 -0.9491 -0.0633
  901MPD2     H13255   2.962   2.586  13.093  0.6084  2.1566  1.4395
  901MPD2    H113256   2.693   2.853  13.297 -1.1163 -0.7628 -0.0607
  901MPD2    H213257   2.650   2.445  13.339 -0.5749 -1.0724 -0.9469
  901MPD2    H313258   2.595   2.661  13.418  3.4531  1.7134  2.0190
  901MPD2     N13259   2.900   2.840  13.119  0.0810 -0.5848  0.6724
  901MPD2    H513260   2.976   2.803  13.063 -0.7628  0.2536 -1.0280
  901MPD2    N113261   2.822   2.365  13.159  0.3500  0.5063  0.0533
  901MPD2    H713262   2.759   2.293  13.193 -0.6115  1.4334  0.2134
  902MPD2     C13263   1.325   0.928  12.651  0.3511  0.1573 -0.4984
  902MPD2    C113264   1.414   1.025  12.616 -0.9542 -0.0752  0.2513
  902MPD2    C213265   1.544   0.990  12.632  0.1060 -0.5585 -0.1173
  902MPD2    C313266   1.580   0.865  12.663 -0.3358  0.6799 -0.4913
  902MPD2    C413267   1.492   0.761  12.680  0.5028  0.3112  0.1448
  902MPD2    C513268   1.362   0.797  12.681  0.0180  1.3401 -0.2802
  902MPD2     H13269   1.619   1.054  12.587 -0.2967 -0.0740 -0.0977
  902MPD2    H113270   1.525   0.661  12.705  0.5243  0.1620 -0.4951
  902MPD2    H213271   1.217   0.940  12.647  0.6014  1.9326 -2.1488
  902MPD2    H313272   1.292   0.717  12.702  0.1851  1.3194  0.2167
  902MPD2     N13273   1.717   0.842  12.697  0.5658  0.6638 -0.7288
  902MPD2    H513274   1.736   0.744  12.717 -3.3886  0.0501 -0.0305
  902MPD2    N113275   1.379   1.158  12.591  0.2332 -0.3605 -0.1357
  902MPD2    H713276   1.451   1.230  12.587  0.9432 -1.0805 -0.4670
  903MPD2     C13277   1.774   1.417  12.414  0.0885  0.2665 -0.5110
  903MPD2    C113278   1.776   1.287  12.369 -0.4268  0.6195 -0.2113
  903MPD2    C213279   1.663   1.241  12.317 -0.3559  0.2759 -0.3187
  903MPD2    C313280   1.558   1.325  12.290  0.5377 -0.5477  0.7554
  903MPD2    C413281   1.552   1.457  12.331 -0.5377  0.7410  0.7894
  903MPD2    C513282   1.667   1.501  12.391 -0.3240 -0.0023 -0.2302
  903MPD2     H13283   1.655   1.139  12.283 -1.0709  0.0279  0.6061
  903MPD2    H113284   1.472   1.527  12.314  0.5069  1.6114 -0.5035
  903MPD2    H213285   1.857   1.456  12.473 -0.5659  0.1134  0.5097
  903MPD2    H313286   1.666   1.605  12.419  1.5387 -0.0088 -0.1214
  903MPD2     N13287   1.457   1.259  12.215  0.3259  0.0589  0.1887
  903MPD2    H513288   1.476   1.159  12.214 -3.0376 -0.5641  0.0830
  903MPD2    N113289   1.881   1.202  12.415  0.5950  0.6790 -0.3546
  903MPD2    H713290   1.961   1.245  12.461 -0.7073 -1.5011  3.9184
  904MPD2     C13291   1.253   0.075  14.591  0.3826 -0.0625  0.2723
  904MPD2    C113292   1.235   0.186  14.513 -0.4662  0.7195  0.2888
  904MPD2    C213293   1.331   0.284  14.516  0.0052  0.1098 -0.5760
  904MPD2    C313294   1.450   0.274  14.585  0.1786  0.5952 -0.3918
  904MPD2    C413295   1.456   0.172  14.674  0.8624  0.1173 -0.4689
  904MPD2    C513296   1.358   0.074  14.677 -0.5502  0.4080 -0.4170
  904MPD2     H13297   1.320   0.372  14.454  0.0910  0.3156 -0.3006
  904MPD2    H113298   1.542   0.159  14.739 -0.6389  0.8725  1.6766
  904MPD2    H213299   1.181   4.729  14.585  1.7007 -1.3525  1.7035
  904MPD2    H313300   1.367   4.726  14.745 -2.7947  0.0353 -0.5887
  904MPD2     N13301   1.548   0.375  14.567  0.1604 -0.0227  0.5170
  904MPD2    H513302   1.513   0.457  14.519  0.7034 -0.0032  0.1583
  904MPD2    N113303   1.121   0.181  14.428  0.0307  0.1476  0.5254
  904MPD2    H713304   1.072   0.092  14.423  0.9411 -0.4169  1.3919
  905MPD2     C13305   0.954   4.620  13.622  0.4474  0.2571  0.1412
  905MPD2    C113306   1.038   4.649  13.725 -0.2107 -0.1772 -0.8790
  905MPD2    C213307   1.138   4.569  13.759  0.0497  0.1576 -0.8825
  905MPD2    C313308   1.162   4.455  13.687  0.1009  0.7458  0.2010
  905MPD2    C413309   1.073   4.420  13.592  0.2909 -0.0110  0.9046
  905MPD2    C513310   0.967   4.501  13.557  0.3637  0.7302 -0.4736
  905MPD2     H13311   1.210   4.584  13.839  0.3638 -2.1379 -0.7332
  905MPD2    H113312   1.091   4.333  13.531  0.0939 -0.0685  0.9274
  905MPD2    H213313   0.870   4.679  13.588 -0.3455  0.2858  2.1795
  905MPD2    H313314   0.904   4.476  13.473 -2.6384  3.1771  1.0639
  905MPD2     N13315   1.270   4.366  13.719  0.3729  0.0038  0.0500
  905MPD2    H513316   1.265   4.275  13.675 -1.0489  1.0809 -2.0331
  905MPD2    N113317   1.010   0.031  13.809 -0.3362 -0.0292  0.3218
  905MPD2    H713318   0.924   0.080  13.784 -1.8855 -2.5026  0.8224
  906MPD2     C13319   3.474   1.074  11.411  0.3084  0.1855 -0.7672
  906MPD2    C113320   3.426   0.984  11.325  1.1018 -0.4309  0.0357
  906MPD2    C213321   3.339   0.890  11.370  0.0907  0.3324  0.2425
  906MPD2    C313322   3.293   0.887  11.501 -0.5170 -0.6448  0.1153
  906MPD2    C413323   3.346   0.988  11.583 -0.1242 -0.6507 -0.0286
  906MPD2    C513324   3.433   1.077  11.538  0.7775 -0.3423  0.2880
  906MPD2     H13325   3.307   0.818  11.296  0.6195  1.5696 -1.1887
  906MPD2    H113326   3.342   0.983  11.692 -0.7388 -2.1198 -0.1197
  906MPD2    H213327   3.556   1.136  11.378 -0.2051  0.7259 -1.0305
  906MPD2    H313328   3.484   1.152  11.597 -1.2575  0.4866  0.9577
  906MPD2     N13329   3.212   0.782  11.558  0.3958  0.1133 -0.1040
  906MPD2    H513330   3.180   0.786  11.654  1.2645 -0.6517  0.2233
  906MPD2    N113331   3.468   0.978  11.192 -0.0608 -0.6353 -0.1183
  906MPD2    H713332   3.417   0.908  11.139  0.5343 -0.7894 -0.5016
  907MPD2     C13333   2.323   3.909  14.429 -0.4621 -0.0100 -0.7677
  907MPD2    C113334   2.321   3.859  14.556  1.0264  0.0323  0.9083
  907MPD2    C213335   2.437   3.800  14.608  0.1317  0.5080  0.5733
  907MPD2    C313336   2.548   3.793  14.533 -0.3568  0.1082  0.4151
  907MPD2    C413337   2.550   3.844  14.402  0.4616 -0.4772  0.1429
  907MPD2    C513338   2.434   3.908  14.357 -1.1995  0.4319 -0.0427
  907MPD2     H13339   2.435   3.769  14.712  1.2422 -0.2513  0.3676
  907MPD2    H113340   2.642   3.853  14.346  0.1317  0.8395 -0.1992
  907MPD2    H213341   2.237   3.960  14.387 -1.5346 -1.0757  0.1417
  907MPD2    H313342   2.422   3.954  14.260  3.2007  0.0949 -0.7375
  907MPD2     N13343   2.667   3.746  14.601 -0.1431  0.3992 -0.2754
  907MPD2    H513344   2.659   3.730  14.701  0.0867  0.1962 -0.2881
  907MPD2    N113345   2.218   3.888  14.650 -0.3495 -0.2679 -0.2128
  907MPD2    H713346   2.214   3.837  14.737  0.2053  0.1315  0.0500
  908MPD2     C13347   4.465   0.548   9.617  0.2023 -0.3268 -0.1133
  908MPD2    C113348   4.529   0.450   9.688 -0.8182  0.4265 -0.2922
  908MPD2    C213349   4.638   0.478   9.768  0.7305 -0.1209 -0.3834
  908MPD2    C313350   4.670   0.611   9.798  0.0103 -0.0552  0.1352
  908MPD2    C413351   4.604   0.713   9.723 -0.2186 -0.3049  0.3028
  908MPD2    C513352   4.507   0.676   9.633  0.5290 -0.0301  0.1912
  908MPD2     H13353   4.691   0.397   9.816  1.9350  0.3265 -0.9766
  908MPD2    H113354   4.633   0.817   9.740 -0.0745 -0.5998  1.9377
  908MPD2    H213355   4.387   0.521   9.547  0.5050 -1.5177  0.0165
  908MPD2    H313356   4.458   0.744   9.564 -2.3070 -1.8993  0.3530
  908MPD2     N13357   0.048   0.636   9.884  0.2116 -0.4078  0.1388
  908MPD2    H513358   0.092   0.550   9.915 -0.4696 -1.4164 -1.6975
  908MPD2    N113359   4.499   0.317   9.646 -0.1353 -0.1979  0.7026
  908MPD2    H713360   4.428   0.305   9.575 -0.2967 -0.7711  0.9635
  909MPD2     C13361   0.542   3.236  11.775  0.3627  0.2578  0.6782
  909MPD2    C113362   0.505   3.346  11.693 -0.1061 -0.3750  0.4635
  909MPD2    C213363   0.423   3.443  11.747 -1.0690 -0.0536  0.2278
  909MPD2    C313364   0.367   3.431  11.868 -0.3474 -0.9646 -0.0433
  909MPD2    C413365   0.398   3.322  11.944  0.5340 -0.1299 -0.5034
  909MPD2    C513366   0.487   3.230  11.900  0.5720  0.0701  0.2669
  909MPD2     H13367   0.399   3.534  11.694 -0.1524 -1.2048 -2.1932
  909MPD2    H113368   0.347   3.303  12.038  0.4855 -1.5273 -0.8178
  909MPD2    H213369   0.606   3.154  11.746  0.6112  0.0810  1.7266
  909MPD2    H313370   0.513   3.146  11.962 -1.4808 -0.5930  0.2406
  909MPD2     N13371   0.261   3.517  11.915 -0.0008  0.0180  0.3607
  909MPD2    H513372   0.243   3.597  11.854  0.4591 -1.2836 -1.4817
  909MPD2    N113373   0.563   3.357  11.564 -0.5144  0.5836  0.2413
  909MPD2    H713374   0.539   3.439  11.509  2.0587  0.0776 -1.6532
  910MPD2     C13375   1.582   0.186  15.926  0.6674  0.4257 -0.0783
  910MPD2    C113376   1.657   0.143  15.816 -0.0532 -0.0622  0.4861
  910MPD2    C213377   1.631   0.196  15.692  0.2989 -0.6420 -0.3221
  910MPD2    C313378   1.532   0.294  15.670 -0.5699  0.3318 -0.3193
  910MPD2    C413379   1.451   0.322  15.779  0.4617  0.2187  0.1772
  910MPD2    C513380   1.485   0.282  15.904 -0.5794  0.1367  1.0829
  910MPD2     H13381   1.688   0.169  15.603  1.3857  0.3312  0.0727
  910MPD2    H113382   1.374   0.399  15.781 -2.2304 -2.5065  0.4484
  910MPD2    H213383   1.604   0.163  16.030  2.7318  0.0240 -0.5893
  910MPD2    H313384   1.436   0.328  15.989 -1.9699  2.3986 -0.9328
  910MPD2     N13385   1.502   0.359  15.548  0.2822  0.3323 -0.3279
  910MPD2    H513386   1.423   0.423  15.548 -2.2753 -2.8352 -0.0296
  910MPD2    N113387   1.768   0.057  15.830  0.3639  0.4852 -0.0384
  910MPD2    H713388   1.822   0.038  15.747  1.2942  2.0900  0.1896
  911MPD2     C13389   4.371   0.302  16.322 -0.3452 -0.8547 -0.0704
  911MPD2    C113390   4.409   0.428  16.338  0.7808 -0.6848 -0.9697
  911MPD2    C213391   4.352   0.537  16.282 -0.4674  0.9927  0.1266
  911MPD2    C313392   4.248   0.507  16.189 -0.4243  0.0799  0.1643
  911MPD2    C413393   4.208   0.378  16.161 -0.3103 -0.5433  1.0174
  911MPD2    C513394   4.271   0.280  16.230 -0.5974  0.0782  0.4585
  911MPD2     H13395   4.380   0.640  16.301  1.8941  0.1046  1.3727
  911MPD2    H113396   4.148   0.347  16.076  2.4284 -0.1514 -1.0904
  911MPD2    H213397   4.429   0.221  16.365 -0.7145 -0.8827  0.3706
  911MPD2    H313398   4.239   0.178  16.212 -1.0267  0.2419  0.3098
  911MPD2     N13399   4.170   0.597  16.112  0.1237 -0.5334  0.4893
  911MPD2    H513400   4.087   0.557  16.070  0.4399 -0.4130 -0.2431
  911MPD2    N113401   4.520   0.444  16.423 -0.2087 -0.5092  0.3684
  911MPD2    H713402   4.556   0.358  16.464  0.8337 -0.3506 -0.2164
  912MPD2     C13403   4.259   0.354  15.688  0.1721 -0.1445  0.6933
  912MPD2    C113404   4.156   0.365  15.777 -0.5969 -0.2815 -0.0892
  912MPD2    C213405   4.123   0.250  15.849 -0.5524  0.1627  0.2821
  912MPD2    C313406   4.207   0.138  15.855  0.3559  0.7233 -0.1486
  912MPD2    C413407   4.321   0.134  15.770 -0.0661 -0.2391  0.1310
  912MPD2    C513408   4.337   0.239  15.686 -0.0589  0.2759 -0.5140
  912MPD2     H13409   4.034   0.251  15.912  0.3575 -0.8113  1.5797
  912MPD2    H113410   4.383   0.046  15.771 -0.3588 -0.4822 -2.1322
  912MPD2    H213411   4.284   0.444  15.633  1.9189 -1.0194  0.0594
  912MPD2    H313412   4.414   0.229  15.611 -0.0489 -0.7046 -0.3702
  912MPD2     N13413   4.189   0.026  15.940  0.4213  0.0852  0.4195
  912MPD2    H513414   4.252   4.681  15.938 -0.8098 -0.9259  1.8366
  912MPD2    N113415   4.070   0.483  15.766 -0.2004 -0.4899 -0.2585
  912MPD2    H713416   4.103   0.550  15.697  0.6895 -0.2222  0.4294
  913MPD2     C13417   0.398   2.286  10.811 -0.2495  0.1305  0.1698
  913MPD2    C113418   0.270   2.235  10.800 -0.2796 -0.0016 -0.0664
  913MPD2    C213419   0.212   2.243  10.673  0.6731  0.1729  0.4179
  913MPD2    C313420   0.272   2.297  10.561 -0.0945  0.0653  0.9219
  913MPD2    C413421   0.400   2.343  10.573  0.3023 -0.3768  0.4759
  913MPD2    C513422   0.460   2.331  10.698 -0.3924  0.9135 -0.3644
  913MPD2     H13423   0.109   2.211  10.666 -0.2558  2.8671  2.0811
  913MPD2    H113424   0.442   2.393  10.486  0.1586 -1.8429 -0.4299
  913MPD2    H213425   0.458   2.285  10.901 -0.6417 -0.1970  0.4256
  913MPD2    H313426   0.564   2.361  10.704 -0.2848  0.7346 -1.3487
  913MPD2     N13427   0.217   2.300  10.427  0.2570  0.1020  0.3852
  913MPD2    H513428   0.269   2.350  10.356  0.1185  0.6140  0.6442
  913MPD2    N113429   0.200   2.184  10.913  0.3230  0.3253  0.0903
  913MPD2    H713430   0.242   2.201  11.004 -0.0292 -1.4261  0.5937
  914MPD2     C13431   2.502   2.220  12.400  0.2548  0.1292 -0.5000
  914MPD2    C113432   2.540   2.316  12.487  0.5997  0.3217  0.4578
  914MPD2    C213433   2.556   2.281  12.619 -0.5277 -0.5560 -0.1502
  914MPD2    C313434   2.560   2.151  12.670 -0.4645 -0.0312  0.6155
  914MPD2    C413435   2.518   2.053  12.578 -0.5034  0.4586 -0.1383
  914MPD2    C513436   2.484   2.093  12.449 -0.2135 -0.2073 -0.4033
  914MPD2     H13437   2.570   2.351  12.701 -0.2102  0.6986 -1.2667
  914MPD2    H113438   2.516   1.947  12.600  0.1336  0.3059 -0.7895
  914MPD2    H213439   2.487   2.231  12.293  0.7892 -0.7530 -0.6642
  914MPD2    H313440   2.459   2.012  12.381 -3.2745  0.2973  0.1148
  914MPD2     N13441   2.616   2.131  12.797 -1.1509  0.8275  0.0770
  914MPD2    H513442   2.649   2.216  12.842  0.7959  0.2122 -0.2033
  914MPD2    N113443   2.564   2.446  12.436 -0.3363 -0.1114  0.2346
  914MPD2    H713444   2.549   2.464  12.337  0.4558  1.2572  0.3596
  915MPD2     C13445   0.756   2.294  15.180  0.8720 -0.8493 -0.9392
  915MPD2    C113446   0.633   2.242  15.141 -0.9651 -0.4121  0.2013
  915MPD2    C213447   0.550   2.189  15.235 -0.0791  0.0579  0.1028
  915MPD2    C313448   0.596   2.183  15.367  0.1566 -0.4789  0.0589
  915MPD2    C413449   0.724   2.222  15.401  0.1836  0.0684 -0.3985
  915MPD2    C513450   0.799   2.287  15.307  0.4055 -0.1092 -0.4066
  915MPD2     H13451   0.449   2.161  15.208  0.4217  1.4541 -3.2539
  915MPD2    H113452   0.761   2.229  15.502  1.0109 -0.7247 -0.6542
  915MPD2    H213453   0.817   2.341  15.105 -0.8728 -1.2689 -2.6417
  915MPD2    H313454   0.894   2.335  15.328  0.7058 -0.7243 -0.3791
  915MPD2     N13455   0.502   2.149  15.467  0.4317 -0.6760 -0.6559
  915MPD2    H513456   0.402   2.155  15.451  0.2315 -0.5223  0.6497
  915MPD2    N113457   0.593   2.250  15.006  0.0332  0.1269 -0.2507
  915MPD2    H713458   0.650   2.293  14.934  1.1919  0.1106  0.6656
  916MPD2     C13459   3.495   0.500  15.752  0.4685 -0.3252  0.2755
  916MPD2    C113460   3.480   0.370  15.794  0.2730  0.8094  0.3452
  916MPD2    C213461   3.586   0.283  15.768 -0.2398 -0.3862 -0.5587
  916MPD2    C313462   3.702   0.329  15.698 -0.0360 -0.0377 -0.3945
  916MPD2    C413463   3.709   0.456  15.654 -0.5814 -0.4321 -0.0964
  916MPD2    C513464   3.604   0.543  15.674 -0.2176 -0.1603  0.2909
  916MPD2     H13465   3.572   0.179  15.796  0.9257 -0.7546 -1.3117
  916MPD2    H113466   3.789   0.503  15.598 -0.4094  0.1235  0.6050
  916MPD2    H213467   3.416   0.572  15.772  0.2763 -0.1828 -0.9757
  916MPD2    H313468   3.612   0.643  15.632  1.1788 -0.3837  0.0405
  916MPD2     N13469   3.803   0.232  15.671  0.0369 -0.6894  0.5916
  916MPD2    H513470   3.793   0.142  15.717 -0.4822 -0.6938  0.4715
  916MPD2    N113471   3.359   0.331  15.862 -0.2914  0.0407  0.2798
  916MPD2    H713472   3.290   0.404  15.876  1.8068  2.1222 -0.3355
  917MPD2     C13473   3.877   2.713  11.119  0.0396 -0.4106 -1.0314
  917MPD2    C113474   3.926   2.783  11.228  0.0316  0.1031 -0.5410
  917MPD2    C213475   4.032   2.867  11.202  0.6801  0.6580 -0.4063
  917MPD2    C313476   4.075   2.889  11.074 -0.3320 -0.8991 -0.8028
  917MPD2    C413477   4.011   2.828  10.969  0.2307  0.0958  0.3247
  917MPD2    C513478   3.909   2.741  10.990  0.3620 -0.4641 -0.2482
  917MPD2     H13479   4.067   2.934  11.280 -0.5612  0.0321  0.6730
  917MPD2    H113480   4.047   2.853  10.869 -1.6207  0.6384 -0.2098
  917MPD2    H213481   3.806   2.633  11.138 -0.8032  0.4982 -0.3799
  917MPD2    H313482   3.854   2.706  10.904 -0.2967 -0.5603  0.2144
  917MPD2     N13483   4.160   2.994  11.041 -0.1703 -0.1929  0.4912
  917MPD2    H513484   4.169   3.026  10.945 -0.9204  1.2107  0.8801
  917MPD2    N113485   3.885   2.758  11.364  0.2785  0.0699  0.1442
  917MPD2    H713486   3.818   2.682  11.360  0.6014 -0.2271  0.4853
  918MPD2     C13487   3.789   3.244  12.266 -0.4405  0.4246  0.2327
  918MPD2    C113488   3.877   3.268  12.161 -0.2909 -0.1372  0.0234
  918MPD2    C213489   3.886   3.169  12.063 -0.7193 -0.5938  0.4162
  918MPD2    C313490   3.792   3.067  12.059  0.6911 -0.0023  0.2888
  918MPD2    C413491   3.695   3.062  12.154  0.1400  0.5245 -0.5157
  918MPD2    C513492   3.693   3.147  12.262  0.6139  0.2512 -0.1229
  918MPD2     H13493   3.966   3.167  11.990 -1.2856 -1.7367 -0.1722
  918MPD2    H113494   3.626   2.979  12.151 -0.6040  1.0819  1.2551
  918MPD2    H213495   3.795   3.307  12.354 -0.0434  1.8628 -0.8120
  918MPD2    H313496   3.623   3.135  12.344 -1.5602  0.1768 -1.9804
  918MPD2     N13497   3.813   2.968  11.963  0.2453  0.0495  0.4436
  918MPD2    H513498   3.894   2.985  11.905  0.8078  0.4961  1.3540
  918MPD2    N113499   3.974   3.372  12.180 -0.1789  1.0388 -0.4638
  918MPD2    H713500   3.996   3.399  12.275  1.4962 -1.4030 -0.1614
  919MPD2     C13501   4.406   1.928  11.758  0.4826  0.3530 -0.3116
  919MPD2    C113502   4.330   1.820  11.726 -0.2796  0.3687  0.6441
  919MPD2    C213503   4.284   1.795  11.596  1.0257 -0.3479 -0.4738
  919MPD2    C313504   4.306   1.886  11.498  0.7470 -0.9327 -0.6955
  919MPD2    C413505   4.370   2.008  11.534 -0.3783  0.2844  0.0930
  919MPD2    C513506   4.430   2.024  11.658 -0.1815 -0.5403 -0.6642
  919MPD2     H13507   4.243   1.698  11.573 -2.6987  1.0193  0.3904
  919MPD2    H113508   4.380   2.090  11.464  2.1416  1.0076  1.2890
  919MPD2    H213509   4.439   1.946  11.860  0.9247  0.7628 -0.5284
  919MPD2    H313510   4.466   2.125  11.675 -0.3014 -0.4667 -0.8434
  919MPD2     N13511   4.261   1.863  11.364  0.0072 -0.2438  0.2102
  919MPD2    H513512   4.282   1.936  11.297  0.6057 -0.0385  0.6189
  919MPD2    N113513   4.317   1.717  11.825  0.1957 -0.4854 -0.8186
  919MPD2    H713514   4.274   1.629  11.798  0.4192 -0.8399 -0.0429
  920MPD2     C13515   4.366   2.121  10.435 -0.1196  0.2857  0.4830
  920MPD2    C113516   4.259   2.031  10.422  0.3394  0.2872 -0.2162
  920MPD2    C213517   4.234   1.948  10.528 -0.1974 -0.1801  0.3287
  920MPD2    C313518   4.308   1.943  10.644  0.3696 -0.0521 -0.1305
  920MPD2    C413519   4.410   2.034  10.655 -0.1751  0.3342  0.0237
  920MPD2    C513520   4.436   2.118  10.553 -0.3373  0.9303 -0.3910
  920MPD2     H13521   4.151   1.878  10.525 -0.4710  0.1572 -0.0325
  920MPD2    H113522   4.475   2.037  10.742 -0.5840 -0.2995  0.3498
  920MPD2    H213523   4.383   2.205  10.369 -0.6528  2.0753  2.6135
  920MPD2    H313524   4.512   2.194  10.565 -1.1418  1.5694  0.5682
  920MPD2     N13525   4.263   1.859  10.750 -0.6884 -0.1999  0.4106
  920MPD2    H513526   4.176   1.807  10.736 -1.8155  1.6207  0.6049
  920MPD2    N113527   4.166   2.036  10.313 -0.8891  0.1980  0.0577
  920MPD2    H713528   4.096   1.963  10.318 -1.6156  1.1129  3.2245
  921MPD2     C13529   0.332   1.229  16.669  0.6326 -0.6713  0.0238
  921MPD2    C113530   0.415   1.116  16.690 -0.3128  0.3217 -0.7093
  921MPD2    C213531   0.356   0.990  16.705 -0.6654  0.0167 -0.5066
  921MPD2    C313532   0.213   0.976  16.692  0.2485  0.2292 -0.4968
  921MPD2    C413533   0.138   1.092  16.685  0.7204 -0.2708 -1.2346
  921MPD2    C513534   0.196   1.213  16.666 -0.2606  0.7505 -0.3628
  921MPD2     H13535   0.427   0.908  16.711  1.2784  1.5434 -2.7612
  921MPD2    H113536   0.030   1.085  16.690  0.7947 -1.5465 -1.4390
  921MPD2    H213537   0.373   1.328  16.653 -0.4729 -0.2906 -0.4894
  921MPD2    H313538   0.135   1.302  16.652  0.3916  1.3466  0.5982
  921MPD2     N13539   0.148   0.858  16.714  0.6202  0.4189  0.1316
  921MPD2    H513540   0.047   0.870  16.710  0.5983 -0.5900 -2.6447
  921MPD2    N113541   0.551   1.123  16.678 -0.3293 -0.0983 -0.1728
  921MPD2    H713542   0.585   1.205  16.629 -0.3607 -1.5743 -2.6316
  922MPD2     C13543   1.480   4.241   0.006  0.4711  0.0066 -0.2039
  922MPD2    C113544   1.498   4.161   0.117 -0.3286  0.1066  0.4260
  922MPD2    C213545   1.472   4.025   0.102  0.2970  0.2880 -0.0455
  922MPD2    C313546   1.429   3.966  17.723  0.1502 -0.2076 -0.1011
  922MPD2    C413547   1.415   4.052  17.612  0.0955 -0.4299  0.1669
  922MPD2    C513548   1.445   4.188  17.621  0.8965 -0.1204  0.5418
  922MPD2     H13549   1.473   3.964   0.191  0.2471  1.0807  0.5059
  922MPD2    H113550   1.374   4.019  17.517 -1.2185  0.3994  0.4337
  922MPD2    H213551   1.498   4.348   0.005  1.5958 -0.1882 -1.0942
  922MPD2    H313552   1.444   4.246  17.529  1.2682  0.4115  0.8651
  922MPD2     N13553   1.408   3.823  17.722  0.4656 -0.0630  1.1182
  922MPD2    H513554   1.435   3.780   0.071 -2.0155 -2.5410  0.6712
  922MPD2    N113555   1.546   4.203   0.236  0.5812  0.6658  0.1941
  922MPD2    H713556   1.575   4.134   0.303 -1.6965  0.4308  0.9424
  923MPD2     C13557   2.256   1.991   8.028 -0.4297  0.4090 -0.2315
  923MPD2    C113558   2.163   1.931   8.107  0.8386  0.4008  0.0779
  923MPD2    C213559   2.200   1.809   8.163  0.1265  0.1460  0.7932
  923MPD2    C313560   2.326   1.756   8.145 -0.4402 -0.1747 -0.1367
  923MPD2    C413561   2.407   1.814   8.058 -0.0724 -0.2139 -0.3645
  923MPD2    C513562   2.374   1.929   7.994 -0.7390 -1.2255 -0.2084
  923MPD2     H13563   2.128   1.766   8.232 -2.3607  0.3546 -1.6475
  923MPD2    H113564   2.506   1.777   8.034 -0.6947 -1.1756 -1.4545
  923MPD2    H213565   2.235   2.086   7.980 -1.0718  0.6803  0.5780
  923MPD2    H313566   2.444   1.979   7.928  0.0229 -2.8128 -0.5997
  923MPD2     N13567   2.385   1.647   8.216 -0.1699 -0.4940 -0.0669
  923MPD2    H513568   2.471   1.604   8.185  0.9779  1.9882 -0.2616
  923MPD2    N113569   2.037   1.994   8.138  0.0929 -0.4467 -0.9788
  923MPD2    H713570   2.033   2.093   8.115  1.3922 -0.0310  0.5483
  924MPD2     C13571   2.625   3.414  15.339 -0.5340 -0.4796 -0.0392
  924MPD2    C113572   2.736   3.494  15.335 -0.6733 -0.1053 -0.1654
  924MPD2    C213573   2.797   3.513  15.216  0.2799 -0.3618  0.0424
  924MPD2    C313574   2.747   3.447  15.099 -0.2985 -1.0410 -0.1722
  924MPD2    C413575   2.622   3.380  15.106  0.6326 -0.6501  0.5899
  924MPD2    C513576   2.561   3.366  15.226  0.3626  0.1604  0.4202
  924MPD2     H13577   2.881   3.578  15.198  1.1929 -1.3595  0.7284
  924MPD2    H113578   2.563   3.343  15.023 -1.1065  1.1375  1.0232
  924MPD2    H213579   2.586   3.390  15.437  0.7976 -2.7761 -0.0761
  924MPD2    H313580   2.470   3.307  15.229 -0.2347  1.1228  1.4385
  924MPD2     N13581   2.803   3.464  14.967  0.1740  0.1270  0.0312
  924MPD2    H513582   2.755   3.430  14.885 -1.6882  2.2823  0.2340
  924MPD2    N113583   2.771   3.558  15.454 -0.3389 -0.5838 -0.0359
  924MPD2    H713584   2.707   3.555  15.532 -1.6177 -1.9349 -1.1603
  925MPD2     C13585   1.043   1.465  14.579 -0.3814 -0.4081 -0.4269
  925MPD2    C113586   0.945   1.559  14.546 -0.0680  0.0230 -0.0237
  925MPD2    C213587   0.886   1.626  14.649  0.5466 -0.0817 -0.2385
  925MPD2    C313588   0.923   1.613  14.779  0.8094 -0.1355  0.3584
  925MPD2    C413589   1.014   1.516  14.809 -0.1278 -0.2603 -0.1342
  925MPD2    C513590   1.072   1.439  14.713 -0.0970 -0.8540 -1.0745
  925MPD2     H13591   0.808   1.699  14.630  1.9792  0.5852 -3.5637
  925MPD2    H113592   1.041   1.478  14.907  0.5316  0.0419 -0.2003
  925MPD2    H213593   1.090   1.407  14.500 -0.8996 -3.2637  1.3418
  925MPD2    H313594   1.135   1.354  14.737 -0.8214 -0.5887  1.8615
  925MPD2     N13595   0.868   1.690  14.881 -0.4458  0.1581  0.1383
  925MPD2    H513596   0.886   1.658  14.976 -1.8095 -0.1944  0.2802
  925MPD2    N113597   0.907   1.583  14.410 -0.0765 -0.3708 -0.0396
  925MPD2    H713598   0.810   1.607  14.397 -0.5769 -1.9741  0.7780
  926MPD2     C13599   0.169   4.386  13.009  0.4533 -0.0893 -0.1010
  926MPD2    C113600   0.137   4.526  13.008  0.1602 -0.3907  0.7851
  926MPD2    C213601   0.145   4.599  12.894  0.2128 -0.2291 -0.1274
  926MPD2    C313602   0.200   4.541  12.780 -0.1194  0.2741 -0.2028
  926MPD2    C413603   0.231   4.403  12.777 -0.0867 -0.3655 -0.3360
  926MPD2    C513604   0.222   4.330  12.894  0.4759 -0.1460 -0.6369
  926MPD2     H13605   0.125   4.704  12.912 -0.9008 -0.6047  0.8264
  926MPD2    H113606   0.270   4.349  12.691 -1.3084 -0.6176 -0.7273
  926MPD2    H213607   0.159   4.319  13.093 -1.3500  0.8713  0.4651
  926MPD2    H313608   0.237   4.223  12.884 -1.9937 -0.6339  1.0353
  926MPD2     N13609   0.229   4.621  12.667  0.2069 -0.0307  0.6639
  926MPD2    H513610   0.283   4.568  12.599 -1.0307 -1.3162  0.6668
  926MPD2    N113611   0.089   4.597  13.121  0.3202  0.2681 -0.1974
  926MPD2    H713612   0.059   4.694  13.110  1.6004  0.7198  0.3011
  927MPD2     C13613   4.579   1.628   0.221 -0.3072 -0.2038 -0.2142
  927MPD2    C113614   4.502   1.708   0.135 -0.8589  0.0466  0.5069
  927MPD2    C213615   4.554   1.755   0.018  1.0114 -0.1702 -0.3865
  927MPD2    C313616   4.692   1.722  17.732 -0.7543  0.8404  0.4420
  927MPD2    C413617   0.028   1.640   0.080 -0.0637 -0.0217  0.1034
  927MPD2    C513618   4.703   1.593   0.196  0.0940  0.2752  1.2700
  927MPD2     H13619   4.498   1.824  17.694  1.4007 -0.2089 -0.7697
  927MPD2    H113620   0.133   1.620   0.066  0.0343  0.5994 -0.0456
  927MPD2    H213621   4.541   1.580   0.311 -1.5516  0.5290 -0.3508
  927MPD2    H313622   0.025   1.528   0.262  1.5724  1.2662  0.9612
  927MPD2     N13623   0.016   1.768  17.610  1.0198 -0.3802 -0.3263
  927MPD2    H513624   4.690   1.791  17.532  2.9997  0.2677 -1.6668
  927MPD2    N113625   4.378   1.743   0.180 -0.3157 -0.3808  0.0105
  927MPD2    H713626   4.339   1.717   0.270 -1.3046  0.9928 -0.0182
  928MPD2     C13627   2.188   4.422   0.361 -0.2666 -0.0959 -0.0933
  928MPD2    C113628   2.226   4.544   0.418  0.1752  0.2387  0.1446
  928MPD2    C213629   2.323   4.618   0.349  0.3436 -0.1938 -0.0969
  928MPD2    C313630   2.392   4.573   0.243  0.3935 -1.0084 -0.0839
  928MPD2    C413631   2.338   4.471   0.179  1.2374 -0.1634 -0.6647
  928MPD2    C513632   2.246   4.389   0.240 -0.0244 -0.0975  0.7067
  928MPD2     H13633   2.351   4.716   0.386 -1.4055  1.1305 -2.2971
  928MPD2    H113634   2.367   4.438   0.080  0.2910  0.9710 -1.3175
  928MPD2    H213635   2.121   4.355   0.413  2.2796 -2.6153 -0.0632
  928MPD2    H313636   2.221   4.293   0.195 -0.6162  0.2437  0.3062
  928MPD2     N13637   2.503   4.642   0.179  0.0072  0.5732  0.5815
  928MPD2    H513638   2.530   4.623   0.083 -0.5048  0.1364  0.5202
  928MPD2    N113639   2.177   4.576   0.547  0.2584  0.2828  0.4142
  928MPD2    H713640   2.119   4.512   0.601 -1.3611  1.0678 -0.3723
  929MPD2     C13641   2.088   1.029  10.329 -0.6742 -0.4320  0.2136
  929MPD2    C113642   2.079   0.973  10.202  0.1356  0.3176  0.2907
  929MPD2    C213643   2.006   1.037  10.099  0.2975  0.0034 -0.4364
  929MPD2    C313644   1.943   1.157  10.116  1.0091 -1.1846  0.1674
  929MPD2    C413645   1.949   1.210  10.245 -0.5794 -0.0417  0.6487
  929MPD2    C513646   2.020   1.145  10.348  0.3718  0.4177 -0.0064
  929MPD2     H13647   2.005   0.994  10.000  1.5035  0.5661 -0.6888
  929MPD2    H113648   1.902   1.303  10.274 -4.2628 -1.2130 -1.5751
  929MPD2    H213649   2.141   0.987  10.414 -0.9308  1.0887  1.1365
  929MPD2    H313650   2.011   1.198  10.442 -0.4875 -0.7588  0.5782
  929MPD2     N13651   1.880   1.236  10.015 -0.1072  0.2240  0.4511
  929MPD2    H513652   1.853   1.325  10.054  1.7305  0.8509  0.2875
  929MPD2    N113653   2.138   0.852  10.177 -0.9347  0.0265 -0.0460
  929MPD2    H713654   2.177   0.803  10.256 -0.7165  1.1662  0.5536
  930MPD2     C13655   3.861   2.993  13.955 -0.0339  0.5579  0.5836
  930MPD2    C113656   4.001   2.984  13.933 -1.3979 -0.4474  0.2714
  930MPD2    C213657   4.053   2.910  13.830  0.1425  0.5587  0.0909
  930MPD2    C313658   3.964   2.846  13.742  0.5332 -0.3183  0.4480
  930MPD2    C413659   3.834   2.839  13.780 -0.2855  1.1139  0.1860
  930MPD2    C513660   3.786   2.908  13.888 -0.0682  0.7298  0.5736
  930MPD2     H13661   4.159   2.916  13.806  0.4097  1.8849  1.5641
  930MPD2    H113662   3.767   2.784  13.715  2.8129 -0.9544 -1.3065
  930MPD2    H213663   3.816   3.055  14.031 -1.2995  0.8067 -0.3753
  930MPD2    H313664   3.685   2.888  13.921 -0.1594 -0.3636 -0.3487
  930MPD2     N13665   3.998   2.790  13.621 -0.4443 -0.0110  0.1454
  930MPD2    H513666   3.923   2.737  13.577 -0.2592  0.2523 -0.4930
  930MPD2    N113667   4.082   3.082  13.998 -0.0824  0.6874  0.2642
  930MPD2    H713668   4.034   3.163  14.037  0.2081  1.8381 -1.7312
  931MPD2     C13669   3.703   1.752   0.718  0.3762 -0.0289 -0.7778
  931MPD2    C113670   3.817   1.696   0.661 -0.9359  0.2936 -0.3571
  931MPD2    C213671   3.852   1.572   0.711  0.1568 -0.0152  0.7488
  931MPD2    C313672   3.783   1.520   0.821 -0.0029  0.3871  0.6398
  931MPD2    C413673   3.678   1.594   0.878 -0.0076 -0.6684 -0.0374
  931MPD2    C513674   3.637   1.709   0.824  0.0814  0.0707 -0.4760
  931MPD2     H13675   3.930   1.518   0.658  1.7915  1.6394  1.4901
  931MPD2    H113676   3.625   1.561   0.966 -0.8338 -0.0102 -0.2882
  931MPD2    H213677   3.676   1.850   0.679  0.3140 -0.8045 -2.6811
  931MPD2    H313678   3.555   1.764   0.869 -0.0494 -2.4726  2.4809
  931MPD2     N13679   3.822   1.401   0.885 -0.3257  0.2121 -0.1858
  931MPD2    H513680   3.761   1.363   0.957  1.2088 -1.2396  0.3478
  931MPD2    N113681   3.865   1.759   0.543  0.1085  0.2659  0.0826
  931MPD2    H713682   3.808   1.834   0.504  0.9149  0.4092 -0.7931
  932MPD2     C13683   1.299   1.454  11.246  0.0267  0.1711  0.4095
  932MPD2    C113684   1.382   1.485  11.353 -0.4563 -0.4227  0.3551
  932MPD2    C213685   1.427   1.387  11.440  0.1554 -0.3788  0.0391
  932MPD2    C313686   1.387   1.261  11.401 -0.1016 -0.4023 -0.3129
  932MPD2    C413687   1.301   1.230  11.299 -0.0478 -0.1549 -0.4402
  932MPD2    C513688   1.256   1.333  11.216 -0.7171 -0.0761  0.2913
  932MPD2     H13689   1.485   1.408  11.529 -1.5257  1.5383  0.6795
  932MPD2    H113690   1.280   1.126  11.277 -0.3157 -0.2925  0.4981
  932MPD2    H213691   1.278   1.536  11.179 -3.8765 -1.2691 -0.1215
  932MPD2    H313692   1.201   1.324  11.124  1.9819  0.6562 -1.4115
  932MPD2     N13693   1.438   1.149  11.469 -0.4448 -0.1231  1.3538
  932MPD2    H513694   1.378   1.067  11.471  1.3111 -1.4740 -1.2793
  932MPD2    N113695   1.424   1.616  11.362  0.1936  0.2732 -0.3570
  932MPD2    H713696   1.397   1.679  11.287  0.8317  0.8441 -0.1064
  933MPD2     C13697   1.885   0.331   1.280 -0.3491  0.3976 -0.1448
  933MPD2    C113698   1.961   0.359   1.167  0.2232 -0.6529 -0.9264
  933MPD2    C213699   1.992   0.492   1.141  0.5172 -0.2244  0.0266
  933MPD2    C313700   1.958   0.596   1.231  0.3331  0.3054  0.2778
  933MPD2    C413701   1.885   0.565   1.344 -0.6044  1.0045 -0.5062
  933MPD2    C513702   1.848   0.429   1.364  0.8985 -0.4137 -0.1034
  933MPD2     H13703   2.050   0.510   1.052  0.3224 -1.4613 -0.3565
  933MPD2    H113704   1.868   0.643   1.418 -0.0878 -0.5931  1.2767
  933MPD2    H213705   1.850   0.233   1.309  1.0494 -0.3347 -0.9099
  933MPD2    H313706   1.789   0.406   1.451 -1.2148  0.0678 -1.3894
  933MPD2     N13707   2.007   0.725   1.204 -0.0764 -0.3600 -0.3364
  933MPD2    H513708   2.049   0.750   1.115 -1.7032  0.4620 -0.8655
  933MPD2    N113709   1.994   0.244   1.093 -0.0908 -0.5318 -0.0059
  933MPD2    H713710   1.959   0.160   1.139 -2.0962  1.7155  2.5013
  934MPD2     C13711   4.008   2.100   1.383 -0.2500  0.3733 -0.2327
  934MPD2    C113712   3.975   2.215   1.318 -0.3598  0.0740 -0.3884
  934MPD2    C213713   3.846   2.243   1.294  0.1200 -0.1653  0.6859
  934MPD2    C313714   3.747   2.152   1.335 -0.3966 -0.7075 -0.4140
  934MPD2    C413715   3.779   2.045   1.413  0.0137  0.9391 -0.9178
  934MPD2    C513716   3.912   2.020   1.433 -0.1983  0.9579 -0.1373
  934MPD2     H13717   3.816   2.330   1.237 -0.4983 -0.0023  1.2561
  934MPD2    H113718   3.705   1.975   1.450 -0.1990  1.6504 -0.0193
  934MPD2    H213719   4.110   2.064   1.390 -0.5654 -0.8477 -2.1577
  934MPD2    H313720   3.934   1.933   1.494 -2.1990  0.2399 -0.4187
  934MPD2     N13721   3.609   2.159   1.297  0.4034 -0.1729 -0.1443
  934MPD2    H513722   3.554   2.080   1.328  0.1444 -0.3134 -0.9452
  934MPD2    N113723   4.068   2.312   1.275  0.3767  0.0814 -0.5243
  934MPD2    H713724   4.035   2.390   1.219 -0.6586 -1.9024 -2.6588
  935MPD2     C13725   3.327   1.450   1.073  0.3629 -0.0777 -0.8830
  935MPD2    C113726   3.329   1.517   0.949  1.8537 -0.4377 -0.1655
  935MPD2    C213727   3.322   1.660   0.953  0.2175  0.4685  0.0909
  935MPD2    C313728   3.320   1.727   1.071 -0.3179 -0.2629  0.9629
  935MPD2    C413729   3.318   1.662   1.195 -0.1257  0.1550 -0.6260
  935MPD2    C513730   3.313   1.520   1.194  0.1628  0.3808 -0.1234
  935MPD2     H13731   3.317   1.712   0.857  2.5504  0.9989  0.2607
  935MPD2    H113732   3.302   1.711   1.290 -1.1421 -0.2508 -0.5794
  935MPD2    H213733   3.335   1.342   1.084  2.3565  0.0021 -1.5254
  935MPD2    H313734   3.287   1.471   1.287  0.3116 -0.1234 -0.3487
  935MPD2     N13735   3.324   1.869   1.084 -0.1219  0.3905  0.7745
  935MPD2    H513736   3.340   1.909   1.177  1.9971  0.1561  0.5065
  935MPD2    N113737   3.342   1.457   0.822  0.1955  0.4937 -0.1167
  935MPD2    H713738   3.345   1.511   0.737  0.6426  0.3283 -0.2071
  936MPD2     C13739   2.089   4.036  13.079 -0.3842 -0.1804 -0.6431
  936MPD2    C113740   2.052   4.161  13.047 -0.4065  0.5669 -0.2317
  936MPD2    C213741   2.139   4.245  12.983 -0.3786 -0.1915 -0.0434
  936MPD2    C313742   2.267   4.207  12.955  0.1887  0.6668 -0.0884
  936MPD2    C413743   2.318   4.089  13.006 -0.0726  0.0546 -0.6144
  936MPD2    C513744   2.223   4.005  13.058  0.0023  0.5925  0.2860
  936MPD2     H13745   2.106   4.343  12.950  0.3986  0.1400  0.1746
  936MPD2    H113746   2.416   4.048  12.990 -0.0870 -0.2463  0.0541
  936MPD2    H213747   2.023   3.960  13.121  1.9993 -1.9214 -0.0648
  936MPD2    H313748   2.254   3.904  13.083 -1.2174  0.6245  1.8961
  936MPD2     N13749   2.332   4.288  12.861 -0.2714  0.1088  0.1148
  936MPD2    H513750   2.288   4.376  12.834 -3.0741 -1.2594  0.1779
  936MPD2    N113751   1.929   4.220  13.073 -0.0225 -0.5918  0.3218
  936MPD2    H713752   1.910   4.314  13.039  0.0500 -0.5388  0.4283
  937MPD2     C13753   4.388   1.042  11.711  0.1914  0.2819 -0.0173
  937MPD2    C113754   4.442   1.170  11.717 -0.3306 -0.7105  0.1517
  937MPD2    C213755   4.514   1.214  11.606  0.9380  0.4167 -0.3528
  937MPD2    C313756   4.547   1.122  11.500 -0.2777 -0.5794  0.5406
  937MPD2    C413757   4.502   0.992  11.504 -0.1516 -0.3264  0.7299
  937MPD2    C513758   4.416   0.960  11.607  0.0446  0.5960 -0.2799
  937MPD2     H13759   4.557   1.313  11.609  0.7562  0.4420  1.3741
  937MPD2    H113760   4.524   0.923  11.423  0.3317  1.1514 -0.3923
  937MPD2    H213761   4.338   0.999  11.797  0.3768 -3.6901 -1.9170
  937MPD2    H313762   4.373   0.861  11.602 -2.6259  1.6143  2.6185
  937MPD2     N13763   4.626   1.163  11.390 -0.4033 -0.0049  0.6408
  937MPD2    H513764   4.673   1.252  11.398 -0.9603  0.2587  0.9277
  937MPD2    N113765   4.405   1.270  11.811  0.3770  0.0043 -0.0684
  937MPD2    H713766   4.448   1.358  11.783  2.6095 -1.1941 -0.4685
  938MPD2     C13767   2.670   2.226  17.727 -0.6852  0.5991  0.4757
  938MPD2    C113768   2.737   2.230   0.111 -0.5847  0.6215 -0.3944
  938MPD2    C213769   2.731   2.116   0.193  0.0217  0.2919 -0.1693
  938MPD2    C313770   2.654   1.996   0.153 -0.1395 -0.0591 -0.5061
  938MPD2    C413771   2.595   1.990   0.028  0.2364  0.0821 -0.2178
  938MPD2    C513772   2.601   2.109  17.694 -0.2369  0.1591  0.7231
  938MPD2     H13773   2.790   2.119   0.284 -1.5057 -2.2014  0.8992
  938MPD2    H113774   2.526   1.914  17.734  1.8172 -1.4254 -0.0455
  938MPD2    H213775   2.662   2.306  17.654 -1.1684  0.4569  0.3722
  938MPD2    H313776   2.540   2.101  17.605  0.6892 -2.8130  0.3663
  938MPD2     N13777   2.653   1.870   0.226 -0.1267  0.1927  0.3901
  938MPD2    H513778   2.614   1.793   0.172 -0.6353  0.2341  0.6981
  938MPD2    N113779   2.802   2.344   0.160  0.7901  0.5700  0.1090
  938MPD2    H713780   2.850   2.338   0.250  0.3143  1.4934  0.4252
  939MPD2     C13781   3.864   3.646   0.327 -0.2703 -0.2615 -1.1041
  939MPD2    C113782   3.866   3.539   0.415  0.2308 -0.0828 -0.3679
  939MPD2    C213783   3.859   3.415   0.361  0.1484  0.8288 -0.0178
  939MPD2    C313784   3.867   3.394   0.222 -0.3406 -0.5240  0.3606
  939MPD2    C413785   3.867   3.502   0.132  0.4557  0.0111  0.2127
  939MPD2    C513786   3.861   3.629   0.190  0.4570 -0.6383  0.5704
  939MPD2     H13787   3.863   3.324   0.420 -1.0644  1.2014  0.6194
  939MPD2    H113788   3.875   3.494   0.024 -3.4048  2.0931 -0.2468
  939MPD2    H213789   3.857   3.750   0.356  1.5611 -0.6355  0.6130
  939MPD2    H313790   3.859   3.718   0.127  0.4754 -0.3171  1.0257
  939MPD2     N13791   3.887   3.263   0.170  0.2335  0.1801 -0.3532
  939MPD2    H513792   3.879   3.182   0.232  0.9680  0.9092  0.6994
  939MPD2    N113793   3.880   3.568   0.549 -0.5233 -0.2103  0.3007
  939MPD2    H713794   3.858   3.659   0.587 -0.4950 -0.0105 -0.1669
  940MPD2     C13795   3.601   0.250  12.744 -0.0507  0.9440  0.0493
  940MPD2    C113796   3.494   0.170  12.720 -0.3251  0.4435 -0.4659
  940MPD2    C213797   3.501   0.069  12.623  0.1088  0.5348  0.6312
  940MPD2    C313798   3.614   0.059  12.546  0.0007  0.2982 -0.2964
  940MPD2    C413799   3.714   0.151  12.563 -0.1754 -0.4655  0.1998
  940MPD2    C513800   3.714   0.240  12.665  0.1277 -0.2872  0.2509
  940MPD2     H13801   3.413   0.008  12.606  1.4611 -2.1420  3.2231
  940MPD2    H113802   3.807   0.138  12.510 -0.3131  2.3217 -0.7180
  940MPD2    H213803   3.593   0.326  12.822 -0.2487  1.2209 -0.2390
  940MPD2    H313804   3.800   0.303  12.680  1.3972 -1.4986 -1.8838
  940MPD2     N13805   3.626   4.701  12.438  0.0639  0.1563 -0.7384
  940MPD2    H513806   3.710   4.698  12.381 -0.1579 -2.7701 -0.8898
  940MPD2    N113807   3.373   0.188  12.784  0.0081  0.0806  0.3760
  940MPD2    H713808   3.305   0.115  12.765 -0.0909  0.2889 -0.0633
  941MPD2     C13809   2.234   3.597  10.177  0.4119 -0.8707  0.6827
  941MPD2    C113810   2.324   3.670  10.263  0.3410  0.5593  0.2869
  941MPD2    C213811   2.322   3.644  10.398 -0.3169 -0.3171  0.2420
  941MPD2    C313812   2.243   3.540  10.452  0.2301 -0.1939 -0.3213
  941MPD2    C413813   2.149   3.480  10.372  0.4413  0.4183 -0.5114
  941MPD2    C513814   2.154   3.502  10.237 -0.6354  0.3747  0.4344
  941MPD2     H13815   2.385   3.706  10.462  0.5505  0.1405 -1.0377
  941MPD2    H113816   2.076   3.410  10.410  3.0011 -2.0480 -0.1398
  941MPD2    H213817   2.230   3.609  10.069 -1.6948  0.1334  0.8773
  941MPD2    H313818   2.079   3.450  10.179 -0.8337  0.8455  0.2644
  941MPD2     N13819   2.241   3.498  10.586 -0.4621 -0.2174 -0.0140
  941MPD2    H513820   2.167   3.434  10.613 -1.9897  1.5135 -0.0790
  941MPD2    N113821   2.422   3.758  10.207  0.2037 -0.5738  0.0880
  941MPD2    H713822   2.487   3.803  10.271 -1.7503  0.4725  1.3380
  942MPD2     C13823   1.963   1.441   8.560 -0.7494  0.6644  0.3801
  942MPD2    C113824   2.029   1.375   8.455 -0.4143  0.1690  0.1678
  942MPD2    C213825   2.119   1.273   8.480 -0.2152 -0.1672  0.3837
  942MPD2    C313826   2.136   1.224   8.608 -0.5827 -0.5985 -0.3240
  942MPD2    C413827   2.058   1.283   8.709 -0.0550  0.0464 -0.0291
  942MPD2    C513828   1.975   1.387   8.687 -0.3516 -0.2995  0.3274
  942MPD2     H13829   2.157   1.218   8.395  1.0448  0.5418  0.4948
  942MPD2    H113830   2.079   1.255   8.812 -0.3727  0.9055  0.2699
  942MPD2    H213831   1.911   1.535   8.543 -1.1035  0.1842 -1.1571
  942MPD2    H313832   1.933   1.425   8.779  0.9097  0.6615  0.5102
  942MPD2     N13833   2.218   1.120   8.635  0.7312 -0.2622  0.8677
  942MPD2    H513834   2.226   1.084   8.730  1.1060 -0.6959  0.6703
  942MPD2    N113835   1.988   1.405   8.320  0.2341  0.4313 -0.2055
  942MPD2    H713836   2.052   1.367   8.251  0.4277 -0.7571  0.6263
  943MPD2     C13837   0.342   3.762   9.466  0.3009  0.1480 -0.2049
  943MPD2    C113838   0.354   3.665   9.556 -0.2935  0.3381  0.1451
  943MPD2    C213839   0.446   3.674   9.658 -0.5612 -0.2942 -0.8233
  943MPD2    C313840   0.528   3.782   9.666 -0.3931  0.0001  0.0598
  943MPD2    C413841   0.515   3.877   9.571 -0.1570 -0.5773 -0.4240
  943MPD2    C513842   0.414   3.867   9.476 -0.3866 -0.3632  1.1151
  943MPD2     H13843   0.463   3.595   9.731 -1.3888  0.5934  0.3251
  943MPD2    H113844   0.573   3.969   9.571 -1.7053  0.3888  1.0990
  943MPD2    H213845   0.262   3.761   9.393  0.5932  2.2752 -0.5578
  943MPD2    H313846   0.407   3.940   9.395 -0.3765 -1.7068 -0.0998
  943MPD2     N13847   0.630   3.799   9.763  0.1516  0.0547 -0.4241
  943MPD2    H513848   0.695   3.873   9.736  0.1889  0.1527 -0.0679
  943MPD2    N113849   0.263   3.553   9.546  0.0778 -0.2299 -0.4171
  943MPD2    H713850   0.195   3.555   9.470  0.8666 -1.5595 -1.1585
  944MPD2     C13851   0.581   2.890  11.009 -0.1535  0.5567  0.3015
  944MPD2    C113852   0.584   2.898  11.146 -0.2638  0.2613 -0.1676
  944MPD2    C213853   0.522   3.006  11.206 -0.0353  0.0924 -0.3279
  944MPD2    C313854   0.473   3.111  11.134  0.0778  0.0815 -0.5834
  944MPD2    C413855   0.486   3.105  10.999  1.0820 -0.1622  0.6171
  944MPD2    C513856   0.533   2.991  10.938 -0.1920 -0.3078 -0.4387
  944MPD2     H13857   0.505   3.013  11.312  1.2329 -1.3136 -0.0289
  944MPD2    H113858   0.454   3.179  10.927 -0.4280 -1.5186 -0.1257
  944MPD2    H213859   0.643   2.813  10.965  3.5913  2.7703  1.6600
  944MPD2    H313860   0.534   2.979  10.830 -0.5678  0.1597 -0.4962
  944MPD2     N13861   0.397   3.212  11.199  0.2580 -0.2730 -0.0088
  944MPD2    H513862   0.385   3.204  11.299  1.4941 -0.5793  0.1156
  944MPD2    N113863   0.645   2.793  11.220 -0.5915  0.1478  0.4095
  944MPD2    H713864   0.683   2.721  11.159  0.4299  2.9071 -2.1820
    1TMC1    C113865   3.211   3.216  14.155 -0.2846  0.5445  0.4861
    1TMC1    C213866   3.158   3.241  14.032 -0.0729  0.9711  0.0689
    1TMC1    C313867   3.172   3.150  13.933  0.2486 -0.4005  0.5694
    1TMC1    C413868   3.283   3.104  14.185 -0.4333  0.3734  0.6943
    1TMC1    C513869   3.305   3.022  14.082  0.2988  0.1487  1.2638
    1TMC1    C613870   3.245   3.030  13.956  0.2919 -0.3365 -0.3856
    1TMC1     C13871   3.209   3.314  14.263  0.4547 -0.1796  0.6866
    1TMC1     O13872   3.249   3.282  14.375  0.3638  0.1956  0.3134
    1TMC1     H13873   3.121   3.341  14.012 -1.0529  0.7398  0.7184
    1TMC1    H113874   3.328   3.090  14.282  1.5969  1.1426 -0.1311
    1TMC1    H213875   3.246   2.965  13.869 -1.8652  0.1504 -0.7681
    1TMC1    C713876   3.383   2.911  14.121  0.0943 -0.6118  0.3880
    1TMC1    C813877   3.095   3.150  13.803 -0.1712 -0.3090  0.1343
    1TMC1    O113878   3.402   2.881  14.241 -0.2771 -0.1617 -0.2344
    1TMC1    O213879   3.126   3.081  13.707  0.2205  0.0000  0.1907
    1TMC1    O313880   3.447   2.857  14.020  0.4646  0.2809  0.3300
    1TMC1    H313881   3.448   2.907  13.935 -1.6238 -0.5648 -0.2006
    1TMC1    O513882   2.988   3.230  13.819  0.0083 -0.3382 -0.2035
    1TMC1    H513883   2.967   3.255  13.912  1.7819  0.2489  0.0328
    2MPD2     C13884   3.310   3.813  14.376  0.8035  0.7727 -0.4484
    2MPD2    C113885   3.238   3.810  14.258 -0.0115 -0.3154 -0.8588
    2MPD2    C213886   3.202   3.686  14.204 -0.2172 -0.1069 -0.0887
    2MPD2    C313887   3.236   3.567  14.269 -0.4393  0.1221  0.5301
    2MPD2    C413888   3.300   3.571  14.385  0.0145 -0.8585 -0.2994
    2MPD2    C513889   3.338   3.691  14.431  0.1351 -0.3908  0.0140
    2MPD2     H13890   3.150   3.679  14.109  1.4466  0.3460 -1.0397
    2MPD2    H113891   3.313   3.481  14.443 -2.5938 -0.6610  0.5833
    2MPD2    H213892   3.321   3.912  14.420 -0.2920  1.4222 -1.6345
    2MPD2    H313893   3.383   3.684  14.530  1.2236  0.9361 -0.3901
    2MPD2     N13894   3.197   3.442  14.211  0.2041 -0.2334  0.3031
    2MPD2    H513895   3.151   3.449  14.121  0.4791  0.1489  0.1945
    2MPD2    N113896   3.202   3.933  14.199  0.9076 -1.2393  0.5418
    2MPD2    H713897   3.249   4.017  14.230 -1.5519  1.2534 -2.5266
    3TMC2    C113898   3.105   4.072  14.040  0.4065 -0.0943 -1.0441
    3TMC2    C213899   2.997   4.103  13.968 -0.2312  0.6871 -0.5950
    3TMC2    C313900   3.003   4.209  13.880  0.2337 -0.5970  0.4873
    3TMC2    C413901   3.221   4.139  14.028 -0.3846 -0.2463 -0.0872
    3TMC2    C513902   3.230   4.243  13.934  0.8285 -0.0667  0.8427
    3TMC2    C613903   3.117   4.280  13.860 -0.6721  0.5486 -0.1043
    3TMC2     C13904   3.101   3.950  14.112  0.4163 -0.1199 -0.3258
    3TMC2     O13905   3.013   3.870  14.083  0.6474 -0.3919  0.4627
    3TMC2     H13906   2.905   4.051  13.994 -1.0515  1.3129 -2.2620
    3TMC2    H113907   3.312   4.088  14.057  0.4944  1.7103  0.5710
    3TMC2    H213908   3.112   4.368  13.797 -0.9461 -0.8217 -1.9920
    3TMC2    C713909   3.347   4.327  13.953 -0.1004  0.0668 -0.5872
    3TMC2    C813910   2.899   4.224  13.783  0.4423 -0.3666 -0.0041
    3TMC2    O113911   3.439   4.279  14.022 -0.8920  0.4850 -0.1170
    3TMC2    O213912   2.916   4.312  13.698 -0.3149 -0.4959 -0.4738
    3TMC2    O513913   2.867   4.096  13.740  0.6684  0.2405 -0.0490
    3TMC2    H513914   2.929   4.035  13.787 -1.8394 -1.3837  1.1606
    4TMC2    C113915   3.246   0.500  13.512  0.5678  0.0757  0.0044
    4TMC2    C213916   3.362   0.537  13.455  0.2079  0.0904 -0.1762
    4TMC2    C313917   3.469   0.452  13.458  0.2348 -0.0187  0.7869
    4TMC2    C413918   3.235   0.374  13.574  1.1569 -0.4787 -0.4623
    4TMC2    C513919   3.349   0.296  13.580 -0.6773 -0.1008 -0.1861
    4TMC2    C613920   3.469   0.330  13.526  0.4410 -0.0094  0.0812
    4TMC2     C13921   3.141   0.593  13.545  0.6348  0.0827 -0.0778
    4TMC2     O13922   3.162   0.678  13.630  0.1986  0.8423 -0.1161
    4TMC2     H13923   3.365   0.632  13.404  0.8128 -0.4341 -1.1285
    4TMC2    H113924   3.144   0.334  13.616  1.6200  0.1289  1.1348
    4TMC2    H213925   3.558   0.269  13.528 -0.1169 -0.8628 -1.8519
    4TMC2    C713926   3.347   0.190  13.677  0.0198  0.1356  0.3374
    4TMC2    C813927   3.577   0.484  13.373 -0.4374  0.1185  0.3745
    4TMC2    O113928   3.237   0.140  13.707  0.4639  0.4312 -0.3247
    4TMC2    O213929   3.691   0.447  13.398 -0.0762 -1.0403 -0.4793
    4TMC2    O513930   3.526   0.506  13.249  0.0738 -0.5356  0.3273
    4TMC2    H513931   3.431   0.488  13.231  0.0609  0.1715 -0.3146
    5MPD2     C13932   2.654   0.614  13.695 -0.2868  0.6336 -0.3916
    5MPD2    C113933   2.658   0.515  13.603  0.5294  0.2861  0.2071
    5MPD2    C213934   2.789   0.494  13.547  0.5159 -0.0980  0.3403
    5MPD2    C313935   2.896   0.577  13.576  0.2748  0.2380  0.4295
    5MPD2    C413936   2.870   0.686  13.660 -0.5155 -0.2861 -0.2524
    5MPD2    C513937   2.750   0.706  13.718 -0.5752 -0.3587 -0.3609
    5MPD2     H13938   2.807   0.418  13.471  1.7565 -0.6995  1.2368
    5MPD2    H113939   2.951   0.752  13.689  0.1346 -0.8627 -0.7403
    5MPD2    H213940   2.567   0.634  13.757  0.2005  0.1040  0.4632
    5MPD2    H313941   2.737   0.790  13.785  1.5493 -0.2973 -0.0249
    5MPD2     N13942   3.018   0.536  13.514  0.0507  0.7782 -0.0508
    5MPD2    H513943   3.018   0.465  13.441 -1.1368 -0.1423  0.8390
    5MPD2    N113944   2.546   0.439  13.573  0.2041 -0.1892 -0.2383
    5MPD2    H713945   2.455   0.468  13.608  0.3893 -0.0539  0.1370
    6MPD1     C13946   1.644   1.314  13.431 -0.8163 -1.0622 -0.4101
    6MPD1    C113947   1.618   1.298  13.298  0.6593  0.3458 -0.2661
    6MPD1    C213948   1.555   1.181  13.254 -0.1998 -0.6507  0.0209
    6MPD1    C313949   1.557   1.072  13.334 -0.1957  0.5669 -0.2330
    6MPD1    C413950   1.603   1.088  13.465 -0.2631 -0.5476  0.1065
    6MPD1    C513951   1.643   1.213  13.515  0.4511  0.2606 -0.1980
    6MPD1     H13952   1.520   1.190  13.152  1.0727 -1.8932 -0.5276
    6MPD1    H113953   1.595   1.007  13.537 -0.5692 -1.5835 -1.0815
    6MPD1    H213954   1.673   1.410  13.471  2.4661 -0.9278 -3.1505
    6MPD1    H313955   1.678   1.231  13.616  0.3767 -1.2577  0.1034
    6MPD1     N13956   1.527   0.941  13.286 -0.3996 -0.3921  0.1055
    6MPD1    H513957   1.537   0.869  13.356 -0.1141 -0.9815 -0.5532
    6MPD1    N113958   1.625   1.406  13.215 -0.2722  0.3270  0.0168
    6MPD1    H613959   1.693   1.481  13.232 -0.3443  0.4922 -0.4313
    6MPD1    H713960   1.640   1.381  13.118 -3.0553 -0.6860 -0.1426
    7MPD2     C13961   1.583   0.197  13.466 -0.0773  0.6818  0.1783
    7MPD2    C113962   1.667   0.309  13.453  0.0472 -1.0006 -0.5165
    7MPD2    C213963   1.795   0.284  13.500  0.0960  0.5041  0.1248
    7MPD2    C313964   1.852   0.169  13.556  0.9009 -0.6710  0.0040
    7MPD2    C413965   1.766   0.064  13.556  0.2019  0.3205  0.6427
    7MPD2    C513966   1.634   0.081  13.517  1.1138 -0.5382 -0.2462
    7MPD2     H13967   1.858   0.372  13.490  2.0258 -0.7767  0.9146
    7MPD2    H113968   1.792   4.698  13.584 -0.2103  0.3838  1.2702
    7MPD2    H213969   1.480   0.201  13.435  0.2597 -0.7275 -1.1232
    7MPD2    H313970   1.568   4.731  13.525  0.9804 -0.5472 -1.3431
    7MPD2     N13971   1.987   0.158  13.589 -0.1849 -0.3503  0.3341
    7MPD2    H513972   2.021   0.064  13.607 -4.6508 -2.6313 -3.2193
    7MPD2    N113973   1.641   0.432  13.401  0.4199 -0.2691  0.0112
    7MPD2    H713974   1.718   0.498  13.394 -0.3090  0.6327  0.5726
    8TMC3    C113975   2.209   0.191  13.539 -0.2324 -0.0700 -0.4191
    8TMC3    C213976   2.308   0.278  13.551  0.3618 -1.0904  0.3297
    8TMC3    C313977   2.408   0.277  13.455  0.2043  0.0056 -0.2494
    8TMC3    C413978   2.215   0.098  13.437 -0.1717 -0.0894  0.9336
    8TMC3    C513979   2.285   0.136  13.323  0.3255  0.0363  0.7342
    8TMC3    C613980   2.394   0.222  13.330  0.4240 -0.9929  0.3896
    8TMC3     C13981   2.075   0.251  13.556 -0.7512 -0.3046  0.2535
    8TMC3     O13982   2.071   0.372  13.530 -0.4019 -0.2651  0.1217
    8TMC3     H13983   2.306   0.351  13.631 -2.2727  0.3229 -1.0154
    8TMC3    H113984   2.125   0.037  13.433  0.0792 -0.2592 -1.9352
    8TMC3    H213985   2.455   0.250  13.245  0.7117 -3.3667 -0.1962
    8TMC3    C713986   2.192   0.142  13.214 -0.1599 -0.3337  0.6385
    8TMC3    C813987   2.542   0.337  13.479 -0.3575 -0.2392 -0.0361
    8TMC3    O113988   2.073   0.117  13.231  0.6543  0.4318  0.2925
    8TMC3    O213989   2.641   0.282  13.429 -0.1103  0.7558  0.4479
    9TMC3    C113990   1.521   0.768  13.137  0.6797  0.4600  0.4767
    9TMC3    C213991   1.590   0.723  13.029 -0.1867  0.2796 -0.9958
    9TMC3    C313992   1.646   0.598  13.035 -0.4751  0.5543  0.4567
    9TMC3    C413993   1.496   0.691  13.248 -0.6633 -0.1503 -0.4105
    9TMC3    C513994   1.547   0.562  13.239 -0.1396 -0.1374  0.5932
    9TMC3    C613995   1.616   0.508  13.132 -0.3047  0.1487  0.0520
    9TMC3     C13996   1.503   0.909  13.154 -0.2371 -0.1358  0.2947
    9TMC3     O13997   1.509   0.976  13.056 -0.0145  0.3185 -0.6707
    9TMC3     H13998   1.618   0.784  12.944 -0.0649  0.4252 -0.8531
    9TMC3    H113999   1.435   0.727  13.330 -1.1263  1.0795 -1.3086
    9TMC3    H214000   1.646   0.404  13.129  1.3076  0.6332 -0.4723
    9TMC3    C714001   1.520   0.467  13.340 -0.5230 -0.2550 -0.4404
    9TMC3    C814002   1.754   0.557  12.949 -0.0638 -0.1654 -0.4415
    9TMC3    O114003   1.424   0.397  13.316 -0.1380  0.5225  0.1745
    9TMC3    O214004   1.773   0.625  12.852 -0.2295 -0.4498  0.6532
   10MPD2     C14005   2.207   0.324  12.889  0.2514  0.2298  0.3529
   10MPD2    C114006   2.157   0.289  13.021 -0.3425  0.3757 -0.4577
   10MPD2    C214007   2.031   0.339  13.051 -0.1286 -0.4629  0.3371
   10MPD2    C314008   1.955   0.412  12.960 -0.0058 -0.3931  0.4956
   10MPD2    C414009   1.997   0.424  12.832  0.4063  0.8192 -0.4594
   10MPD2    C514010   2.125   0.387  12.796 -0.2467 -0.0928  0.5104
   10MPD2     H14011   1.993   0.322  13.151  0.2375  1.2530  0.7517
   10MPD2    H114012   1.926   0.455  12.757 -0.9267 -2.0154 -0.3720
   10MPD2    H214013   2.309   0.303  12.862  0.7458  0.4725  2.0382
   10MPD2    H314014   2.155   0.408  12.694 -0.9174 -0.7118  0.1774
   10MPD2     N14015   1.841   0.473  13.012  0.6640 -0.2134 -0.4544
   10MPD2    H514016   1.825   0.437  13.105 -0.6340  1.5249 -0.0113
   10MPD2    N114017   2.239   0.218  13.110  0.0536 -0.4269  0.2752
   10MPD2    H714018   2.339   0.219  13.093  0.3211  2.7525  2.1228
   11MPD2     C14019   3.528   4.566  13.972 -0.1143 -0.2635  0.1143
   11MPD2    C114020   3.418   4.562  13.887 -0.2015  0.1891 -0.2343
   11MPD2    C214021   3.399   4.673  13.809  0.3634  0.3910 -0.1708
   11MPD2    C314022   3.494   0.043  13.808 -0.2995  0.1697 -0.1839
   11MPD2    C414023   3.613   0.035  13.881  0.4156  0.4527  0.5037
   11MPD2    C514024   3.626   4.666  13.969  0.8341  0.5215  0.8294
   11MPD2     H14025   3.312   4.676  13.745  0.9825 -2.2598 -1.1204
   11MPD2    H114026   3.691   0.109  13.873  1.2652 -0.5933 -0.8503
   11MPD2    H214027   3.549   4.492  14.049  3.5513  1.5692  0.8915
   11MPD2    H314028   3.715   4.662  14.030 -0.0026 -3.9009  1.7831
   11MPD2     N14029   3.469   0.158  13.726 -0.1912 -0.3904 -0.3665
   11MPD2    H514030   3.546   0.222  13.713  0.1603 -0.4534  1.3175
   11MPD2    N114031   3.322   4.453  13.889 -0.1758 -0.6697 -0.4719
   11MPD2    H714032   3.240   4.460  13.830 -0.0473  1.6308 -0.3719
    1MPD1     C14033   0.586   0.366  16.992  0.5888 -0.3976 -0.3941
    1MPD1    C114034   0.550   0.492  17.043 -0.3140 -0.8604  0.0168
    1MPD1    C214035   0.651   0.584  17.072  0.8793 -0.3630 -0.7816
    1MPD1    C314036   0.779   0.544  17.063  0.8477  0.0795  0.1230
    1MPD1    C414037   0.816   0.417  17.023  0.7017  0.1181 -0.3756
    1MPD1    C514038   0.716   0.329  16.987  0.4965 -0.2739  0.2911
    1MPD1     H14039   0.627   0.689  17.078  2.8866  0.0814 -0.4839
    1MPD1    H114040   0.918   0.397  16.992  1.1192  0.7758  0.5527
    1MPD1    H214041   0.504   0.306  16.954 -0.2125  1.1292 -1.0665
    1MPD1    H314042   0.744   0.233  16.946  3.3365  1.3535 -1.5749
    1MPD1     N14043   0.889   0.631  17.073 -0.3558 -0.3140  0.3311
    1MPD1    H514044   0.980   0.588  17.063 -0.8266 -1.3902  0.6843
    1MPD1    N114045   0.419   0.533  17.013  0.3656  0.6142 -0.1865
    1MPD1    H614046   0.352   0.464  17.046  1.8696 -0.4550  0.6158
    1MPD1    H714047   0.389   0.628  17.033  1.4058  1.4620 -2.6281
    2MPD1     C14048   1.331   1.652  17.034 -0.4445 -0.1826 -0.0961
    2MPD1    C114049   1.426   1.558  17.078 -0.7840 -0.1082 -0.0513
    2MPD1    C214050   1.390   1.424  17.085 -0.3669 -0.2541 -0.5628
    2MPD1    C314051   1.263   1.388  17.049  0.9971  0.4965 -0.2267
    2MPD1    C414052   1.167   1.482  17.019 -0.2575  0.0423 -0.5102
    2MPD1    C514053   1.203   1.617  17.011  0.7768 -0.1908 -0.1541
    2MPD1     H14054   1.469   1.356  17.114 -3.3783 -4.1963 -1.5242
    2MPD1    H114055   1.066   1.449  16.996  0.0180 -1.0444 -0.1557
    2MPD1    H214056   1.343   1.758  17.015 -0.6431 -0.0479  0.5172
    2MPD1    H314057   1.133   1.693  16.981  0.4711  1.2743  4.1889
    2MPD1     N14058   1.232   1.250  17.051 -0.2722 -0.0537 -0.1516
    2MPD1    H514059   1.306   1.194  17.093  0.7619  0.4354 -1.3353
    2MPD1    N114060   1.564   1.590  17.094 -0.2540 -0.5117 -0.4821
    2MPD1    H614061   1.617   1.529  17.156 -2.3119 -1.4400  0.3788
    2MPD1    H714062   1.563   1.682  17.137 -2.4383 -0.7573  0.0138
    3TMC3    C114063   1.123   1.044  17.057  0.2341  0.2444  0.2374
    3TMC3    C214064   1.242   0.982  17.031  0.0210  0.0566  0.0522
    3TMC3    C314065   1.242   0.844  17.043 -0.2933  0.9090  0.6400
    3TMC3    C414066   1.011   0.971  17.077 -0.0681 -0.4140  0.3119
    3TMC3    C514067   1.011   0.837  17.076  0.5922 -0.0817 -0.2199
    3TMC3    C614068   1.129   0.771  17.061 -0.0410  0.1685 -0.2608
    3TMC3     C14069   1.118   1.182  17.016  0.2038  0.6324  0.0086
    3TMC3     O14070   1.018   1.230  16.965 -0.4288  0.6181  0.1318
    3TMC3     H14071   1.326   1.040  16.994  0.8125 -0.8558  0.4404
    3TMC3    H114072   0.915   1.023  17.073 -0.5216 -1.3406 -0.8401
    3TMC3    H214073   1.133   0.662  17.061  2.2512  0.2678  0.1735
    3TMC3    C714074   0.881   0.769  17.072  0.2766  0.2710 -0.4685
    3TMC3    C814075   1.353   0.775  16.980 -0.0685  0.1020  0.1191
    3TMC3    O114076   0.782   0.843  17.071 -0.0982  0.1012  0.1071
    3TMC3    O214077   1.331   0.658  16.951 -0.0054 -0.4132 -0.0939
    4MPD1     C14078   1.816   0.727  16.792  0.0062 -0.0358 -0.7208
    4MPD1    C114079   1.814   0.845  16.860  0.3908 -0.0337  0.0074
    4MPD1    C214080   1.695   0.879  16.910  0.7416  0.9021 -0.3775
    4MPD1    C314081   1.578   0.800  16.895  0.2338  0.0229 -0.3916
    4MPD1    C414082   1.585   0.688  16.826 -0.5542 -0.7289  0.1942
    4MPD1    C514083   1.704   0.653  16.771  0.0958  0.5241  0.4886
    4MPD1     H14084   1.691   0.980  16.949  1.6522  0.2455  1.4369
    4MPD1    H114085   1.510   0.612  16.812 -0.5809 -0.9534  1.5175
    4MPD1    H214086   1.916   0.695  16.766  0.1614  0.6303 -0.9511
    4MPD1    H314087   1.715   0.552  16.732 -1.0389 -0.3041  2.2999
    4MPD1     N14088   1.459   0.854  16.948  0.3815 -0.3612 -0.1380
    4MPD1    H514089   1.454   0.949  16.981  0.2278  0.1115 -1.5243
    4MPD1    N114090   1.921   0.931  16.851 -0.2492  0.2171 -0.2292
    4MPD1    H614091   1.932   0.990  16.934  0.4537  0.3288 -0.4049
    4MPD1    H714092   2.002   0.874  16.829 -1.0891 -0.5947 -1.2146
    1TCq1    O114093   2.141   0.429  12.051 -0.0261 -0.4410 -0.1944
    1TCq1    C114094   2.228   0.532  12.029 -0.4318 -0.5355 -0.5833
    1TCq1    O214095   2.298   0.577  12.120  0.3187  0.5362  0.1064
    1TCq1    C214096   2.151   0.611  11.947 -0.1328  0.4588  0.6262
    1TCq1    C314097   2.097   0.554  11.832  0.3626 -0.3926  0.3938
    1TCq1    C414098   2.027   0.643  11.755 -0.2741  0.2787 -0.8428
    1TCq1    C514099   1.985   0.763  11.808 -0.2038  0.8922 -0.0034
    1TCq1    C614100   2.038   0.808  11.925  0.5619 -1.1851  0.3224
    1TCq1    C714101   2.112   0.732  12.003  0.1884  0.2157 -0.7357
    1TCq1    C814102   2.012   0.942  11.973 -0.1190  0.1488 -0.6967
    1TCq1    O414103   2.028   0.957  12.092  0.6918 -0.2909 -0.3330
    1TCq1    C914104   1.952   0.601  11.632  0.5709 -0.1339 -0.4498
    1TCq1    O514105   1.880   0.686  11.577 -0.1373 -0.4666  0.0721
    1TCq1    O614106   2.001   0.497  11.580 -0.3504 -0.3579 -0.2060
    1TCq1    H114107   2.075   0.420  11.978 -0.7710  0.9140  0.3117
    1TCq1    H214108   2.121   0.455  11.795  0.3059 -0.0717 -0.5171
    1TCq1    H314109   1.923   0.828  11.747 -1.7044 -1.3617 -0.8986
    1TCq1    H414110   2.160   0.772  12.092 -0.1038  1.5029 -1.1592
    2MPD1     C14111   1.865   1.421  11.941 -0.2554 -0.1681  0.3203
    2MPD1    C114112   1.839   1.365  11.818 -0.3057  0.0030 -0.2046
    2MPD1    C214113   1.884   1.237  11.794 -0.0984 -0.7382  0.0543
    2MPD1    C314114   1.927   1.163  11.899  0.7232  0.2745 -0.1820
    2MPD1    C414115   1.933   1.214  12.024  0.8413  0.4032 -0.4107
    2MPD1    C514116   1.907   1.345  12.041  0.5149 -0.0696  0.3753
    2MPD1     H14117   1.892   1.191  11.696 -0.8980 -0.2964 -0.2222
    2MPD1    H114118   1.965   1.159  12.111  0.2906  3.2812  1.6326
    2MPD1    H214119   1.854   1.522  11.980  0.0633  0.6975 -1.8670
    2MPD1    H314120   1.913   1.387  12.141  1.0945 -0.9134  0.6903
    2MPD1     N14121   1.966   1.027  11.874 -0.0351  0.0142  0.1118
    2MPD1    H514122   1.983   0.988  11.782  1.4281 -1.0156  0.8284
    2MPD1    N114123   1.787   1.439  11.711 -0.0574  0.1023 -0.0543
    2MPD1    H614124   1.733   1.520  11.740 -0.7105 -0.1422 -0.5911
    2MPD1    H714125   1.724   1.376  11.662  1.3263 -1.9185  0.7570
    1TMC1    C114126   3.421   0.327   1.399 -0.2014 -0.1778  0.1746
    1TMC1    C214127   3.409   0.243   1.506  0.0947  0.3331  0.0387
    1TMC1    C314128   3.281   0.215   1.537  0.0616 -0.2515 -0.0233
    1TMC1    C414129   3.317   0.376   1.320 -0.2951 -0.3056  1.1907
    1TMC1    C514130   3.193   0.348   1.367  0.9011  0.4792  0.5626
    1TMC1    C614131   3.172   0.273   1.474  0.0009 -0.2239 -0.8462
    1TMC1     C14132   3.552   0.383   1.374  0.6669  0.3615 -0.9472
    1TMC1     O14133   3.629   0.376   1.467 -0.1469  0.9717  0.0066
    1TMC1     H14134   3.490   0.190   1.555 -1.5469 -0.7041  1.6009
    1TMC1    H114135   3.327   0.451   1.243  1.9400 -1.4046  0.4179
    1TMC1    H214136   3.068   0.259   1.501 -0.0512 -0.3872 -1.1326
    1TMC1    C714137   3.080   0.375   1.273 -0.3672 -0.0129  0.2622
    1TMC1    C814138   3.250   0.109   1.634 -0.3404 -0.2123  0.5738
    1TMC1    O114139   3.088   0.378   1.149 -0.1924  0.7583 -0.0212
    1TMC1    O214140   3.318   0.071   1.723  0.8820  0.5346  0.6287
    1TMC1    O314141   3.000   0.452   1.350  0.5205 -0.0736 -0.1637
    1TMC1    H314142   3.045   0.476   1.434  0.7920 -0.7822 -0.1071
    1TMC1    O514143   3.129   0.053   1.601  0.5196 -1.2719  0.3522
    1TMC1    H514144   3.088   0.070   1.514 -1.2860 -0.0799  1.4462
    2MPD1     C14145   3.910   0.612   1.084  0.1334 -0.1433  0.0699
    2MPD1    C114146   3.829   0.539   1.002  0.2031  0.5133 -0.5963
    2MPD1    C214147   3.725   0.464   1.054  0.3445 -0.2483  0.1658
    2MPD1    C314148   3.711   0.453   1.193  0.7647  0.2026 -0.2138
    2MPD1    C414149   3.796   0.521   1.275 -0.1261  0.0485  0.0762
    2MPD1    C514150   3.886   0.607   1.216  0.2386 -0.5721 -0.0950
    2MPD1     H14151   3.642   0.432   0.993  0.1674  0.6772 -0.0778
    2MPD1    H114152   3.782   0.522   1.382 -1.6852  1.4899 -0.1441
    2MPD1    H214153   3.990   0.679   1.052 -0.8574 -0.0703 -2.2272
    2MPD1    H314154   3.956   0.661   1.279 -0.2300  0.4055 -0.4020
    2MPD1     N14155   3.585   0.399   1.240  0.6395  0.0371  0.3648
    2MPD1    H514156   3.515   0.375   1.171  0.5131  0.8214  0.2182
    2MPD1    N114157   3.852   0.555   0.863 -0.1701 -0.3184  0.7473
    2MPD1    H614158   3.952   0.565   0.846 -0.3532 -1.0894 -0.7120
    2MPD1    H714159   3.814   0.478   0.810  0.4688 -0.2118  0.1288
    1MPD1     C14160   3.715   0.453  12.250  0.4413  0.3919  0.1694
    1MPD1    C114161   3.709   0.522  12.129 -0.3127 -0.3713  0.1744
    1MPD1    C214162   3.692   0.663  12.141  0.1343  0.3022  0.7083
    1MPD1    C314163   3.647   0.717  12.264  0.6640  0.6247 -0.3188
    1MPD1    C414164   3.621   0.635  12.370  0.0621  0.1488 -0.5688
    1MPD1    C514165   3.672   0.507  12.367  0.8511  0.2584  1.1546
    1MPD1     H14166   3.708   0.720  12.050 -0.7827 -0.8129 -0.1511
    1MPD1    H114167   3.577   0.672  12.462  3.0244  0.7254  0.5961
    1MPD1    H214168   3.747   0.350  12.251  0.9326  0.5518  0.7906
    1MPD1    H314169   3.652   0.445  12.454 -0.8279 -1.2591 -0.2985
    1MPD1     N14170   3.641   0.860  12.269  0.3252 -0.0491  0.5363
    1MPD1    H514171   3.673   0.905  12.184  0.2844 -0.3457  0.3628
    1MPD1    N114172   3.753   0.467  12.007  0.0521  0.4149  0.5526
    1MPD1    H614173   3.728   0.506  11.916 -0.1212 -2.7576 -0.7507
    1MPD1    H714174   3.737   0.367  11.995 -0.5800  0.6109 -0.2520
    2MPD1     C14175   2.641   0.487  11.154 -0.5189  0.1653  0.1974
    2MPD1    C114176   2.570   0.506  11.042 -0.0880  0.2465 -0.7650
    2MPD1    C214177   2.628   0.570  10.944  0.4637 -0.7185  0.5816
    2MPD1    C314178   2.754   0.623  10.963 -0.8922  0.6828  0.4133
    2MPD1    C414179   2.818   0.622  11.088  0.3076  0.1976 -0.0260
    2MPD1    C514180   2.762   0.544  11.176  0.6244 -0.1566  0.0214
    2MPD1     H14181   2.572   0.581  10.852 -0.0941 -3.0535  0.6382
    2MPD1    H114182   2.911   0.672  11.113 -0.2576  0.1254  2.2888
    2MPD1    H214183   2.599   0.434  11.239  0.7613 -0.4899  0.4347
    2MPD1    H314184   2.789   0.547  11.281 -0.2927 -0.2129  0.2640
    2MPD1     N14185   2.831   0.690  10.864 -0.0817  0.0833 -0.0521
    2MPD1    H514186   2.922   0.727  10.890 -0.3934  1.1386 -0.4452
    2MPD1    N114187   2.451   0.433  11.023  0.3726 -0.6151  0.5913
    2MPD1    H614188   2.394   0.412  11.104 -0.2392 -1.5942 -0.0908
    2MPD1    H714189   2.393   0.480  10.954  0.5623  0.1655  0.9639
    3MPD1     C14190   3.034   1.207   9.911  0.1037 -0.4104  0.3522
    3MPD1    C114191   3.149   1.176   9.978 -0.4438  0.2066  0.2169
    3MPD1    C214192   3.140   1.113  10.101  0.8532 -0.7005  0.5152
    3MPD1    C314193   3.020   1.060  10.150  0.3069 -0.0724  0.0961
    3MPD1    C414194   2.908   1.083  10.075  0.0106  0.2612 -0.0937
    3MPD1    C514195   2.914   1.145   9.949  0.7277 -0.4704 -1.0234
    3MPD1     H14196   3.234   1.101  10.154  0.3784 -3.1180  0.8254
    3MPD1    H114197   2.808   1.054  10.105  0.1621  0.3048  0.4682
    3MPD1    H214198   3.028   1.280   9.831 -0.9260 -1.3234 -0.3997
    3MPD1    H314199   2.826   1.183   9.898 -0.1571 -1.2341 -0.0667
    3MPD1     N14200   3.016   1.018  10.283  0.3335 -0.4565 -0.5119
    3MPD1    H514201   3.104   1.022  10.333 -1.0267 -2.5501  2.0618
    3MPD1    N114202   3.268   1.239   9.938 -0.5975 -0.8064  0.6525
    3MPD1    H614203   3.349   1.181   9.960  1.1342  1.5715  0.5991
    3MPD1    H714204   3.259   1.247   9.837  0.5058  0.8395  0.6678
    4MPD2     C14205   3.096   1.440  12.084  0.3538  0.6036 -0.5924
    4MPD2    C114206   3.230   1.421  12.052 -0.2015 -0.4427  0.0432
    4MPD2    C214207   3.267   1.446  11.923 -0.6893 -0.0463 -0.3274
    4MPD2    C314208   3.174   1.472  11.825 -0.1230  0.4316 -0.1727
    4MPD2    C414209   3.045   1.484  11.858  0.0344  0.1699 -0.7845
    4MPD2    C514210   3.006   1.479  11.986 -0.3138 -0.3623 -1.0167
    4MPD2     H14211   3.370   1.442  11.891 -0.9933 -2.6790 -0.9380
    4MPD2    H114212   2.967   1.518  11.791 -0.6957  0.0670  0.0024
    4MPD2    H214213   3.074   1.430  12.190 -2.1934 -0.1237 -1.2097
    4MPD2    H314214   2.905   1.495  12.020  0.1269  1.0604 -0.3851
    4MPD2     N14215   3.227   1.508  11.699  0.1197  0.2374 -0.1432
    4MPD2    H514216   3.327   1.500  11.685 -0.1277 -2.2756 -0.5031
    4MPD2    N114217   3.326   1.377  12.141  0.6667 -0.0143  0.1117
    4MPD2    H714218   3.419   1.365  12.101  0.9493  0.6309  0.5792
    5TMC3    C114219   3.440   1.272  12.316  0.1725 -0.2073  0.1304
    5TMC3    C214220   3.451   1.144  12.355  0.1065  1.0590 -0.2599
    5TMC3    C314221   3.561   1.074  12.310 -0.2855  0.5991 -0.1355
    5TMC3    C414222   3.540   1.330  12.248  0.5471  0.1585 -0.0575
    5TMC3    C514223   3.650   1.265  12.198  0.3725  0.3283 -0.4675
    5TMC3    C614224   3.663   1.123  12.223  0.3694  0.1774 -0.0899
    5TMC3     C14225   3.310   1.319  12.265  0.1557  0.4254 -0.1584
    5TMC3     O14226   3.202   1.277  12.309  0.0035 -0.1873 -0.2897
    5TMC3     H14227   3.379   1.084  12.407 -0.0392  0.7360 -0.8298
    5TMC3    H114228   3.525   1.434  12.225  1.9374  0.8610  2.2185
    5TMC3    H214229   3.747   1.065  12.186  1.2521  1.3333  0.1037
    5TMC3    C714230   3.669   1.291  12.059  0.1303  0.5106 -0.2852
    5TMC3    C814231   3.577   0.937  12.360  0.7482  0.0724 -0.0070
    5TMC3    O114232   3.573   1.348  12.014  0.2913 -0.5641  0.8891
    5TMC3    O214233   3.518   0.905  12.463  0.5908 -0.2253 -0.4782
    6TMC3    C114234   2.855   0.827  10.679 -0.5618 -1.0474 -0.2866
    6TMC3    C214235   2.852   0.832  10.541  0.1617  0.5479  0.5059
    6TMC3    C314236   2.925   0.930  10.482 -0.1010 -0.5328 -0.1070
    6TMC3    C414237   2.924   0.914  10.757  0.7758  0.4538  0.6972
    6TMC3    C514238   2.985   1.009  10.687 -0.4012 -0.2719 -0.4816
    6TMC3    C614239   2.996   1.021  10.552  0.2071  0.0631 -0.1571
    6TMC3     C14240   2.779   0.725  10.743 -0.2178  0.9312  0.3842
    6TMC3     O14241   2.683   0.695  10.683  0.1328 -0.2700 -0.3326
    6TMC3     H14242   2.777   0.777  10.485 -0.0330  1.2757  0.0586
    6TMC3    H114243   2.931   0.902  10.865 -0.9901 -2.0339  0.5509
    6TMC3    H214244   3.059   1.096  10.506  1.6153 -1.6135 -0.9396
    6TMC3    C714245   3.068   1.089  10.774 -0.0758 -0.4332 -0.0223
    6TMC3    C814246   2.903   0.961  10.340 -0.3864  0.1997 -0.1949
    6TMC3    O114247   3.013   1.111  10.880  0.3759  0.5580 -0.4940
    6TMC3    O214248   2.806   0.910  10.278  0.4348 -0.6434  0.4079
    7MPD2     C14249   3.907   1.280  11.604  0.1434 -0.1931 -1.0115
    7MPD2    C114250   3.772   1.319  11.637 -0.0101 -0.8547  0.3688
    7MPD2    C214251   3.736   1.315  11.770 -0.2496 -0.8168  1.1120
    7MPD2    C314252   3.826   1.269  11.869  0.0740  0.3498  0.2677
    7MPD2    C414253   3.949   1.218  11.834 -0.2374  0.1446 -0.2547
    7MPD2    C514254   3.993   1.235  11.703  0.2711  0.1720 -0.0404
    7MPD2     H14255   3.636   1.340  11.803 -0.2648  2.1941 -1.3075
    7MPD2    H114256   4.024   1.184  11.905 -0.0744  1.2179  0.0909
    7MPD2    H214257   3.951   1.295  11.506 -1.8335  0.9425 -1.7076
    7MPD2    H314258   4.094   1.205  11.677 -0.2336 -1.9027  0.4041
    7MPD2     N14259   3.787   1.251  12.006  0.0121  0.0474 -1.0050
    7MPD2    H514260   3.853   1.204  12.067 -0.3330 -0.4070 -0.9816
    7MPD2    N114261   3.694   1.382  11.532 -0.5641  0.1083 -0.2799
    7MPD2    H714262   3.730   1.373  11.437 -1.7348  0.0502 -0.7179
    8TMC3    C114263   3.503   1.492  11.445  0.0801  0.0385  0.1865
    8TMC3    C214264   3.493   1.412  11.338 -0.1216  0.2192  0.9703
    8TMC3    C314265   3.364   1.383  11.306 -0.1523  0.1336  0.8520
    8TMC3    C414266   3.394   1.558  11.503 -0.0026 -0.4806  0.1832
    8TMC3    C514267   3.269   1.512  11.468  0.2797 -0.3384 -0.0765
    8TMC3    C614268   3.252   1.416  11.372  0.4156 -0.5725  0.1554
    8TMC3     C14269   3.569   1.432  11.557  0.2820 -0.0627 -0.1221
    8TMC3     O14270   3.500   1.430  11.655  0.0813  0.9245  0.3991
    8TMC3     H14271   3.574   1.362  11.286 -0.2118 -1.0106  2.0200
    8TMC3    H114272   3.401   1.637  11.577  2.2748 -0.8435  0.3473
    8TMC3    H214273   3.150   1.396  11.342 -0.2611  1.7312  0.9158
    8TMC3    C714274   3.169   1.507  11.579  0.1660 -0.1732  0.5430
    8TMC3    C814275   3.339   1.311  11.188  0.8908 -0.3160  1.0015
    8TMC3    O114276   3.051   1.499  11.548 -0.0560 -0.3054  0.3917
    8TMC3    O214277   3.245   1.231  11.188 -0.9772  0.4324  0.4438
    9MPD2     C14278   3.514   1.337  10.880 -0.2916  0.6141 -0.2785
    9MPD2    C114279   3.401   1.307  10.955 -0.2417  0.4851  0.1670
    9MPD2    C214280   3.289   1.249  10.906 -1.2369 -0.1222  0.7867
    9MPD2    C314281   3.299   1.190  10.779 -0.6021  0.0995 -0.4333
    9MPD2    C414282   3.414   1.211  10.709  0.3832 -0.3200  0.2812
    9MPD2    C514283   3.510   1.303  10.749 -0.3746  0.3701  0.2348
    9MPD2     H14284   3.198   1.251  10.964 -1.0412  1.7886  1.0257
    9MPD2    H114285   3.425   1.168  10.610  3.3063 -0.2581  0.5879
    9MPD2    H214286   3.594   1.394  10.925  0.6322 -0.3401 -0.7030
    9MPD2    H314287   3.605   1.321  10.699 -0.4928  0.3716  0.0085
    9MPD2     N14288   3.188   1.122  10.716 -0.5208  0.0413  0.2985
    9MPD2    H514289   3.217   1.089  10.624 -0.4585  2.2986 -0.4911
    9MPD2    N114290   3.422   1.345  11.085  0.2095 -0.5433  0.1459
    9MPD2    H714291   3.497   1.411  11.102 -0.0575 -0.2967  0.3788
    1MPD1     C14292   2.930   4.358  16.119  0.2296  0.5885  0.6681
    1MPD1    C114293   3.020   4.301  16.032  0.2890 -0.3493  0.1273
    1MPD1    C214294   3.080   4.375  15.930 -0.2679  0.5018 -0.5382
    1MPD1    C314295   3.050   4.509  15.906  0.4425  0.1554  0.2010
    1MPD1    C414296   2.959   4.566  15.991 -0.4060  0.1468 -0.2823
    1MPD1    C514297   2.897   4.490  16.092  0.9323  0.5518  0.5644
    1MPD1     H14298   3.148   4.325  15.861 -2.2173 -1.3047 -1.1624
    1MPD1    H114299   2.921   4.667  15.979 -0.5644  0.0911 -0.2447
    1MPD1    H214300   2.885   4.311  16.207 -0.2194  0.0919  0.1758
    1MPD1    H314301   2.814   4.538  16.141 -1.1201 -0.9527 -1.4206
    1MPD1     N14302   3.099   4.588  15.798  0.0989  0.6928  0.1840
    1MPD1    H514303   3.051   4.677  15.791  1.2027  0.9306 -4.5342
    1MPD1    N114304   3.047   4.166  16.053 -0.6769  0.4386 -0.4448
    1MPD1    H614305   3.020   4.116  15.968  2.9095  0.6452 -1.7188
    1MPD1    H714306   2.972   4.136  16.115 -0.1218  0.4039  0.2077
    2TMC2    C114307   3.239   0.142  15.573 -0.2370  0.6666  0.2062
    2TMC2    C214308   3.368   0.139  15.528 -0.9400 -0.1843  1.0443
    2TMC2    C314309   3.437   0.019  15.543  0.1047  0.4181 -0.3203
    2TMC2    C414310   3.180   0.035  15.630 -0.4984 -0.6544 -0.3612
    2TMC2    C514311   3.251   4.655  15.635  0.4633 -0.4456 -0.2658
    2TMC2    C614312   3.376   4.643  15.590 -0.6126 -0.5901  0.7043
    2TMC2     C14313   3.166   0.271  15.589 -0.9501  0.5538 -0.2815
    2TMC2     O14314   3.059   0.281  15.652  0.1045 -0.1901 -0.1682
    2TMC2     H14315   3.424   0.222  15.487  3.5499 -4.0010 -0.5007
    2TMC2    H114316   3.073   0.041  15.648 -0.4086  1.1495 -0.3980
    2TMC2    H214317   3.440   4.556  15.589 -0.9008 -0.7651 -1.5456
    2TMC2    C714318   3.197   4.545  15.713  0.1862 -0.5810 -0.0950
    2TMC2    C814319   3.572   0.019  15.496 -0.7436  0.0737  0.0965
    2TMC2    O114320   3.246   4.435  15.693  0.1019  0.2024 -0.3863
    2TMC2    O214321   3.611   0.101  15.414 -0.1909 -0.3045 -0.5518
    2TMC2    O514322   3.643   4.686  15.584 -0.0897  0.0485  0.4324
    2TMC2    H514323   3.615   4.641  15.666  0.2307 -1.5105 -0.3282
    3MPD1     C14324   3.183   0.769  15.446 -0.3664 -0.0114  0.8600
    3MPD1    C114325   3.300   0.706  15.403 -0.0151 -0.0186 -0.6420
    3MPD1    C214326   3.315   0.580  15.433 -0.0517  0.4285 -0.2573
    3MPD1    C314327   3.213   0.501  15.488  0.3934 -0.8780  0.3463
    3MPD1    C414328   3.101   0.561  15.535 -1.6514  0.1050  0.0695
    3MPD1    C514329   3.084   0.693  15.505 -0.0237 -0.5291 -1.1537
    3MPD1     H14330   3.413   0.537  15.414 -1.7218 -2.4466 -2.4917
    3MPD1    H114331   3.013   0.507  15.569  0.3616 -2.8424  0.5245
    3MPD1    H214332   3.153   0.871  15.424 -1.2815 -0.2124  1.1508
    3MPD1    H314333   2.986   0.734  15.527 -0.9746 -2.9471 -0.9275
    3MPD1     N14334   3.235   0.365  15.515  0.0424  0.4927  0.0942
    3MPD1    H514335   3.321   0.324  15.481  0.3612  1.2883 -0.0416
    3MPD1    N114336   3.389   0.782  15.337  0.2860 -0.3510  0.0953
    3MPD1    H614337   3.342   0.847  15.275  1.0356  2.7491  2.7537
    3MPD1    H714338   3.462   0.734  15.285  2.9525  0.7081  2.8826
    1TMC1    C114339   1.529   3.885  12.906 -0.2599 -0.0728  0.3084
    1TMC1    C214340   1.401   3.907  12.945  0.2773  0.0628 -0.2773
    1TMC1    C314341   1.327   3.796  12.982 -0.0193  0.5790 -0.4899
    1TMC1    C414342   1.578   3.757  12.903  0.1131 -0.1947 -0.5369
    1TMC1    C514343   1.510   3.654  12.952  0.3473 -0.1671 -0.1484
    1TMC1    C614344   1.380   3.669  12.993  0.0672  0.8382  0.2809
    1TMC1     C14345   1.585   3.986  12.818  0.4044  0.1642 -0.2957
    1TMC1     O14346   1.507   4.073  12.779  0.2859  0.0540  0.1945
    1TMC1     H14347   1.349   4.002  12.941 -1.3987 -0.8908 -1.1447
    1TMC1    H114348   1.661   3.730  12.838  1.4925  0.3579  1.0045
    1TMC1    H214349   1.322   3.580  13.014  0.2660  0.4463 -0.8373
    1TMC1    C714350   1.567   3.524  12.929 -0.4644  0.7390  0.0065
    1TMC1    C814351   1.180   3.814  12.982 -0.9852 -0.0588 -0.0996
    1TMC1    O114352   1.497   3.430  12.929 -0.0831  0.7549 -0.2840
    1TMC1    O214353   1.105   3.723  12.957 -0.9613 -0.0439 -0.1041
    1TMC1    O314354   1.706   3.520  12.927 -0.6092  0.2604 -0.0992
    1TMC1    H314355   1.753   3.600  12.960 -1.1420  0.4316  0.2412
    1TMC1    O514356   1.146   3.922  13.062 -0.7364 -0.4034 -0.0198
    1TMC1    H514357   1.217   3.984  13.087 -3.0266  1.2720  2.3622
    2MPD2     C14358   1.765   4.135  12.636 -0.1355  0.5754  0.1914
    2MPD2    C114359   1.801   4.030  12.711  0.1500  0.2767  0.6010
    2MPD2    C214360   1.934   3.999  12.725 -0.0100 -0.2764 -0.0910
    2MPD2    C314361   2.033   4.061  12.644 -0.7661  0.2829  0.5744
    2MPD2    C414362   1.996   4.165  12.558  0.2466 -0.1515  0.3972
    2MPD2    C514363   1.863   4.202  12.564 -0.3872 -0.3035 -0.5028
    2MPD2     H14364   1.968   3.918  12.788  0.0336 -0.3619 -0.2253
    2MPD2    H114365   2.065   4.224  12.498 -0.5120  0.6905  0.3685
    2MPD2    H214366   1.665   4.170  12.615  0.1017  1.2645  0.2350
    2MPD2    H314367   1.821   4.281  12.503  0.7274  0.7315  0.0801
    2MPD2     N14368   2.167   4.018  12.658  0.0586  0.2691  0.1457
    2MPD2    H514369   2.197   3.957  12.733  0.2415 -1.4019 -1.2707
    2MPD2    N114370   1.715   3.953  12.797 -0.7760  0.1292  0.0431
    2MPD2    H714371   1.768   3.883  12.848 -0.5931  1.8560  2.2282
    3TCq1    O114372   2.737   4.145  12.509  0.2602 -1.0036  0.0382
    3TCq1    C114373   2.757   4.041  12.589 -0.1307 -0.0562  0.1707
    3TCq1    O214374   2.868   3.991  12.615 -0.2054  0.3667  0.0208
    3TCq1    C214375   2.628   3.973  12.611 -0.3616 -0.4077 -1.0276
    3TCq1    C314376   2.632   3.888  12.718  0.1403 -0.2242 -0.2529
    3TCq1    C414377   2.515   3.846  12.777 -0.0999 -0.0397  0.3681
    3TCq1    C514378   2.401   3.880  12.719 -0.0998  0.1651  0.0416
    3TCq1    C614379   2.396   3.977  12.620  0.0988 -0.3611  0.5524
    3TCq1    C714380   2.511   4.022  12.566 -0.9513  0.1927 -0.0110
    3TCq1    C814381   2.270   4.046  12.572  0.1716 -0.3847  1.1228
    3TCq1    O414382   2.269   4.104  12.467 -0.0881 -0.1933  0.0373
    3TCq1    C914383   2.519   3.757  12.893 -0.1591 -0.1962  0.2917
    3TCq1    O514384   2.622   3.703  12.926  0.4328 -0.0043 -0.5089
    3TCq1    O614385   2.411   3.693  12.914  0.6190 -0.1398  0.0436
    3TCq1    H114386   2.640   4.153  12.494  0.0714 -1.8259  0.7898
    3TCq1    H214387   2.722   3.840  12.754  0.8176  0.6186 -0.8232
    3TCq1    H314388   2.310   3.839  12.761  0.5332 -2.3346 -1.0464
    3TCq1    H414389   2.504   4.096  12.488  1.1858  0.5928  0.1530
    1MPD2     C14390   1.229   0.377  14.937 -0.2461 -0.0562  0.2960
    1MPD2    C114391   1.141   0.273  14.955 -0.0286  0.4296  0.7004
    1MPD2    C214392   1.192   0.156  15.007 -0.0718  0.6206 -0.0893
    1MPD2    C314393   1.326   0.143  15.038 -0.3754 -0.3757 -0.4336
    1MPD2    C414394   1.417   0.243  15.013 -0.2807 -0.4963  0.1017
    1MPD2    C514395   1.361   0.360  14.970  0.5216  0.4617 -0.1698
    1MPD2     H14396   1.135   0.066  15.026 -0.1965  0.7370  0.0891
    1MPD2    H114397   1.523   0.242  15.038  0.8179 -0.0324 -4.5858
    1MPD2    H214398   1.199   0.470  14.890 -1.7205 -0.4818  0.3902
    1MPD2    H314399   1.427   0.444  14.952 -1.3248  2.0526  0.4986
    1MPD2     N14400   1.375   0.019  15.074 -0.6772  0.6604  0.5827
    1MPD2    H514401   1.312   4.679  15.047  0.4752  0.0023 -0.3011
    1MPD2    N114402   1.001   0.287  14.923  0.2095  0.7843 -0.2111
    1MPD2    H714403   0.969   0.371  14.875  1.0097  0.2035 -1.7792
    2TMC3    C114404   0.775   0.214  14.897  0.1053 -0.0810  0.3684
    2TMC3    C214405   0.686   0.121  14.947 -0.2343 -0.3370  0.5268
    2TMC3    C314406   0.598   0.058  14.863 -0.5075  0.0715 -0.3042
    2TMC3    C414407   0.774   0.238  14.761 -0.7094  0.6120  0.5649
    2TMC3    C514408   0.669   0.187  14.686 -0.1851  0.5824 -0.8163
    2TMC3    C614409   0.573   0.108  14.741 -0.0317  0.8163 -0.0575
    2TMC3     C14410   0.917   0.182  14.937 -0.1552 -0.6572 -0.0742
    2TMC3     O14411   0.921   0.078  15.005 -0.2897  0.1110  0.0211
    2TMC3     H14412   0.704   0.081  15.047  2.5346 -0.8742 -0.1662
    2TMC3    H114413   0.852   0.292  14.708 -1.3308  0.4063 -0.5770
    2TMC3    H214414   0.499   0.057  14.679 -1.0865  2.1364  0.1018
    2TMC3    C714415   0.638   0.223  14.550 -0.1437  0.9212 -0.6319
    2TMC3    C814416   0.622   4.651  14.859 -0.4330 -0.5798  0.0567
    2TMC3    O114417   0.601   0.137  14.471 -0.2738 -0.2435  0.2943
    2TMC3    O214418   0.556   4.591  14.776 -0.6837 -0.0317 -0.2183
    3TCq1    O114419   1.049   1.194  13.967 -0.5258  0.2695 -0.2784
    3TCq1    C114420   1.078   1.240  14.090  0.5608 -0.3431  0.7748
    3TCq1    O214421   1.182   1.300  14.117  0.1131  0.5746 -0.5179
    3TCq1    C214422   1.020   1.154  14.185 -1.0017 -0.1542  0.5279
    3TCq1    C314423   1.067   1.151  14.313 -0.4350 -0.0832 -0.1910
    3TCq1    C414424   1.019   1.061  14.398  0.2276 -0.0373 -0.5146
    3TCq1    C514425   0.932   0.963  14.360 -0.0842 -0.1763  0.0811
    3TCq1    C614426   0.882   0.961  14.233  0.4622  0.0845  0.0659
    3TCq1    C714427   0.921   1.062  14.143 -0.5139 -0.0283  0.3271
    3TCq1    C814428   0.788   0.851  14.188 -1.1177 -0.0828 -0.0077
    3TCq1    O414429   0.714   0.867  14.092 -0.3539 -0.3523  0.2466
    3TCq1    C914430   1.059   1.065  14.539  0.6670 -0.4534  0.0457
    3TCq1    O514431   1.006   0.991  14.624 -0.3570  0.1567 -0.6076
    3TCq1    O614432   1.158   1.141  14.567 -0.1227  0.1849 -0.3527
    3TCq1    H114433   0.953   1.178  13.954 -0.8170  1.1840  0.8160
    3TCq1    H214434   1.131   1.232  14.346  0.6888 -1.1997  0.3563
    3TCq1    H314435   0.899   0.892  14.436 -1.0594 -2.1461 -2.2038
    3TCq1    H414436   0.884   1.046  14.043 -1.2017  1.6121  0.3289
    4MPD2     C14437   0.630   0.596  14.200 -0.9632 -0.0764 -0.2852
    4MPD2    C114438   0.716   0.633  14.300  0.0025  0.6689  0.7707
    4MPD2    C214439   0.734   0.549  14.411  0.1666  0.3684  0.4215
    4MPD2    C314440   0.673   0.427  14.415 -0.2924  0.1176  0.5795
    4MPD2    C414441   0.588   0.392  14.313 -0.4903  0.5933  0.2608
    4MPD2    C514442   0.570   0.474  14.209  0.4170 -0.2283  0.2040
    4MPD2     H14443   0.793   0.575  14.498 -1.9179 -1.5859  2.4414
    4MPD2    H114444   0.530   0.301  14.306 -0.1541  0.6571 -3.1252
    4MPD2    H214445   0.613   0.650  14.108  1.9211  0.8406 -0.3067
    4MPD2    H314446   0.526   0.436  14.117 -2.8027 -1.9861  2.4425
    4MPD2     N14447   0.683   0.352  14.532 -0.2177  0.2104  0.4176
    4MPD2    H514448   0.725   0.404  14.609 -1.1030  0.0746  0.9947
    4MPD2    N114449   0.799   0.743  14.281  0.0816 -0.0769  0.4351
    4MPD2    H714450   0.880   0.745  14.341  1.4054  0.0349 -1.3407
    5TMC2    C114451   1.357   4.402  15.048  0.1690  0.3839  0.1062
    5TMC2    C214452   1.354   4.337  15.166  0.4162 -0.7722  0.3425
    5TMC2    C314453   1.425   4.392  15.270 -0.5685 -0.5947  0.7033
    5TMC2    C414454   1.441   4.507  15.027 -0.2328 -0.7919 -0.9986
    5TMC2    C514455   1.505   4.569  15.129 -0.1412 -0.6899  0.2490
    5TMC2    C614456   1.495   4.508  15.250  0.2849 -0.2022 -0.4596
    5TMC2     C14457   1.228   4.443  14.998  0.2212 -0.1580  0.2063
    5TMC2     O14458   1.212   4.561  14.970 -0.2887  0.1880 -0.6867
    5TMC2     H14459   1.279   4.260  15.182 -0.9739  0.7591  1.1876
    5TMC2    H114460   1.442   4.555  14.930  0.8652 -0.6692 -0.9244
    5TMC2    H214461   1.538   4.559  15.335  0.5632 -0.4505 -0.4498
    5TMC2    C714462   1.501   4.717  15.113  0.1274  0.0332 -0.5759
    5TMC2    C814463   1.425   4.346  15.408 -0.5368  0.3669  0.9331
    5TMC2    O114464   1.591   0.053  15.164  0.3591 -0.3884  0.6566
    5TMC2    O214465   1.519   4.330  15.487 -0.4131  0.4556  0.5883
    5TMC2    O514466   1.308   4.393  15.458 -0.1771  0.1202  0.2057
    5TMC2    H514467   1.254   4.425  15.383 -1.3519  1.3442  1.5712
    6MPD2     C14468   0.741   4.373  14.869  0.1479 -0.5976  0.3484
    6MPD2    C114469   0.803   4.486  14.922  0.0869  0.6853  0.6525
    6MPD2    C214470   0.935   4.470  14.959 -0.8588  0.8500 -0.2257
    6MPD2    C314471   1.009   4.361  14.924  0.1688 -0.0959  0.0019
    6MPD2    C414472   0.947   4.254  14.860  0.3966  0.1102 -0.4412
    6MPD2    C514473   0.816   4.262  14.833  0.1686 -0.4480  0.1881
    6MPD2     H14474   0.979   4.555  15.008 -1.0749 -0.0517  1.5280
    6MPD2    H114475   1.007   4.172  14.821  0.9593 -0.6297  2.0058
    6MPD2    H214476   0.636   4.374  14.840  0.0309  0.3309  0.7956
    6MPD2    H314477   0.759   4.184  14.785  0.1435  0.1236 -0.6948
    6MPD2     N14478   1.141   4.343  14.966 -0.3722  0.5691  0.0693
    6MPD2    H514479   1.180   4.249  14.972 -0.0963  0.9183  3.6555
    6MPD2    N114480   0.735   4.611  14.932 -0.6559 -0.4288 -0.4275
    6MPD2    H714481   0.784   4.689  14.974 -1.5397 -0.1322  0.0511
  945NH4     N114482   3.246   0.505   8.913  0.2678  0.1255 -0.3534
  945NH4     H214483   3.233   0.579   8.985  0.1728 -1.9807  1.7914
  945NH4     H314484   3.320   0.438   8.941  0.5319  1.3935  2.0567
  945NH4     H414485   3.264   0.542   8.818  0.5834  3.1479  0.8837
  945NH4     H514486   3.161   0.445   8.911  0.7934 -0.6760  1.5233
  946SOD     NA14487   2.006   0.289   5.002 -0.0785  0.0917  0.0303
  947SOD     NA14488   2.957   2.267  16.426 -0.2992 -0.0631 -0.2449
  948SOD     NA14489   3.296   2.594  15.339 -0.6630 -0.0561  0.1541
  949SOD     NA14490   3.889   3.725  16.443 -0.0244 -0.5193  0.0293
  950SOD     NA14491   2.088   0.427  15.406 -0.1944 -0.1730 -0.6020
  951SOD     NA14492   0.174   1.736   3.727  0.1490  0.3197 -0.2764
  952SOD     NA14493   2.468   0.249  10.876 -0.1748  0.4578 -0.0824
  953SOL     OW14494   3.802   2.791   5.114 -0.2879  0.0564 -0.7566
  953SOL    HW114495   3.877   2.780   5.056 -1.8136  1.5025 -2.9610
  953SOL    HW214496   3.800   2.886   5.127  0.2612 -0.0581  0.2439
  954SOL     OW14497   3.317   0.429  10.131  0.3093  0.0433 -0.0773
  954SOL    HW114498   3.307   0.359  10.068  0.6548  0.7005 -0.8612
  954SOL    HW214499   3.255   0.493  10.097  0.2636  0.4579  0.7713
  955SOL     OW14500   2.093   3.852   1.558  0.2793 -0.1717  0.5594
  955SOL    HW114501   2.025   3.918   1.571  1.1108  0.7486  0.2824
  955SOL    HW214502   2.142   3.900   1.490 -1.0353 -0.4815 -0.6194
  956SOL     OW14503   3.174   4.240  11.164 -0.2424 -0.1825 -0.3070
  956SOL    HW114504   3.121   4.197  11.097  0.8028 -1.6581 -0.1838
  956SOL    HW214505   3.227   4.168  11.200 -1.3638 -1.5926 -1.4910
  957SOL     OW14506   1.317   1.278   6.231 -0.4951 -0.0690  0.1710
  957SOL    HW114507   1.412   1.271   6.239 -0.2909  2.8756  0.3344
  957SOL    HW214508   1.287   1.214   6.295 -1.2108 -0.3918 -0.4749
  958SOL     OW14509   2.969   2.322  12.365  0.3944 -0.2861 -0.8167
  958SOL    HW114510   3.052   2.277  12.381 -0.8575 -1.5253  2.0765
  958SOL    HW214511   2.999   2.411  12.343  0.9248 -0.1875  0.3346
  959SOL     OW14512   4.458   0.129   6.914  0.1175 -0.0032 -0.4040
  959SOL    HW114513   4.476   0.035   6.917 -0.0880 -0.0898 -1.6636
  959SOL    HW214514   4.537   0.155   6.866  1.2108  1.9738  2.5048
  960SOL     OW14515   1.660   4.073   4.683 -0.1295  0.0228  0.2151
  960SOL    HW114516   1.727   4.141   4.689 -0.7022  0.6766 -1.0213
  960SOL    HW214517   1.701   4.007   4.741 -0.2433  1.7677  2.2813
  961SOL     OW14518   0.089   1.565  11.260  0.1734  0.1883 -0.3322
  961SOL    HW114519   0.009   1.615  11.278 -0.1351  0.3564 -2.1342
  961SOL    HW214520   0.089   1.497  11.326 -0.2926 -1.1006 -1.6709
  962SOL     OW14521   4.373   3.888  16.315  0.4715 -0.3920 -0.4789
  962SOL    HW114522   4.431   3.812  16.323  0.3436 -0.5253 -0.8238
  962SOL    HW214523   4.411   3.936  16.388  3.0882 -0.0313 -2.0692
  963SOL     OW14524   0.469   2.019   2.451  0.5257 -0.0883 -0.0142
  963SOL    HW114525   0.538   2.082   2.432 -0.4467  0.9730  0.0110
  963SOL    HW214526   0.422   2.011   2.368  0.6992  1.5331 -0.2538
  964SOL     OW14527   1.703   4.536   9.648  0.4126 -0.2629 -0.5855
  964SOL    HW114528   1.689   4.606   9.712  1.7802  0.0220 -0.5975
  964SOL    HW214529   1.727   4.462   9.703  1.7661 -1.5567 -2.8795
  965SOL     OW14530   4.482   2.792  13.542  0.0696 -0.2720  0.1217
  965SOL    HW114531   4.542   2.807  13.615  0.0397 -0.5675  0.2089
  965SOL    HW214532   4.396   2.791  13.586  0.0167  0.2576  0.0219
  966SOL     OW14533   0.488   2.188   5.399 -0.1627 -0.2371  0.1709
  966SOL    HW114534   0.424   2.131   5.443 -1.4475  0.8784 -0.2552
  966SOL    HW214535   0.458   2.275   5.426 -0.2124 -0.6470  1.4601
  967SOL     OW14536   2.068   0.917   0.718 -0.1332  0.0701  0.1153
  967SOL    HW114537   2.024   0.987   0.767 -1.5825  0.2453 -1.4570
  967SOL    HW214538   2.152   0.960   0.704  0.1261 -0.3493  0.3750
  968SOL     OW14539   4.512   4.289   6.514  0.2592  0.3751  0.1075
  968SOL    HW114540   4.567   4.250   6.582 -0.6895 -4.2099 -1.7616
  968SOL    HW214541   4.452   4.340   6.568  1.0917  2.1692 -0.6768
  969SOL     OW14542   2.256   1.804  16.112  0.8311 -0.3475  0.0169
  969SOL    HW114543   2.196   1.808  16.187  0.7683 -2.2295  0.0636
  969SOL    HW214544   2.196   1.842  16.049  1.1261  0.1724  0.0528
  970SOL     OW14545   2.277   3.950   1.338 -0.2984 -0.0765 -0.1408
  970SOL    HW114546   2.314   4.033   1.309 -0.5386  0.3894  0.9124
  970SOL    HW214547   2.219   3.932   1.263  1.1404 -1.8001 -0.8388
  971SOL     OW14548   3.245   4.179  12.572 -0.2879  0.2059 -0.1798
  971SOL    HW114549   3.174   4.202  12.512 -1.7050  0.2284  1.5064
  971SOL    HW214550   3.225   4.090  12.602  1.3092 -0.5263 -1.2743
  972SOL     OW14551   2.396   3.894   4.186 -0.1675 -0.1841  0.1257
  972SOL    HW114552   2.455   3.929   4.120  0.4851 -1.6932 -0.0859
  972SOL    HW214553   2.449   3.820   4.216 -0.1586 -0.1394  0.2221
  973SOL     OW14554   2.312   4.187   5.995  0.1705  0.0581 -0.0753
  973SOL    HW114555   2.352   4.107   6.030  1.6139  0.3934 -0.9278
  973SOL    HW214556   2.223   4.183   6.030  0.0966  0.0379 -0.2654
  974SOL     OW14557   3.207   3.856   1.775 -0.5813  0.2034 -0.7844
  974SOL    HW114558   3.152   3.926   1.738  0.1477  0.1841 -1.9044
  974SOL    HW214559   3.295   3.881   1.747 -0.8649 -0.5388 -2.3383
  975SOL     OW14560   1.891   3.958  17.042 -0.8321 -0.0823 -0.1280
  975SOL    HW114561   1.986   3.951  17.053 -0.8445 -0.9704 -0.5927
  975SOL    HW214562   1.866   4.042  17.003 -1.8623  0.0454  0.8025
  976SOL     OW14563   0.721   1.284   8.385  0.3972 -0.1667 -0.0106
  976SOL    HW114564   0.672   1.202   8.380  0.4839 -0.2613  0.7004
  976SOL    HW214565   0.805   1.252   8.419 -0.3288 -3.9800 -1.8163
  977SOL     OW14566   4.704   2.209   9.673 -0.4153  0.8490  0.1704
  977SOL    HW114567   0.047   2.257   9.644 -0.7569  0.7910 -0.8256
  977SOL    HW214568   4.634   2.267   9.644 -0.4298  1.2178  0.9443
  978SOL     OW14569   0.917   3.073   4.545  0.0597 -0.3830  0.0779
  978SOL    HW114570   0.929   2.983   4.514 -0.0930 -0.0574 -0.9385
  978SOL    HW214571   0.823   3.084   4.553  0.1658  1.0183 -0.7358
  979SOL     OW14572   1.604   3.884   8.436 -0.4141  0.7887 -0.0408
  979SOL    HW114573   1.668   3.876   8.506 -1.5031  2.7412  1.1640
  979SOL    HW214574   1.640   3.826   8.369  1.2320  2.2906 -0.4303
  980SOL     OW14575   3.639   0.972  15.363  0.0203 -0.2295  0.3752
  980SOL    HW114576   3.551   0.934  15.364  0.9955 -2.3602  2.5215
  980SOL    HW214577   3.654   0.965  15.268  0.7117 -0.2297  0.4814
  981SOL     OW14578   4.545   1.263   2.724 -0.2656  1.1212 -0.3487
  981SOL    HW114579   4.521   1.258   2.631  0.2652 -0.2236 -0.4215
  981SOL    HW214580   4.627   1.310   2.714 -0.8937  2.1777 -0.5872
  982SOL     OW14581   1.044   3.857   4.793  0.1921  0.2965 -0.2583
  982SOL    HW114582   1.014   3.933   4.743 -1.9723 -0.2445  0.2411
  982SOL    HW214583   1.138   3.876   4.787 -0.1655  1.2826 -2.7112
  983SOL     OW14584   2.565   3.152   9.867 -0.2244 -0.0164 -0.5069
  983SOL    HW114585   2.634   3.167   9.932 -0.7692  0.5870 -0.0695
  983SOL    HW214586   2.490   3.128   9.920  0.3112  1.1507  0.7626
  984SOL     OW14587   1.470   2.955   4.895  0.3730  0.1403  0.0928
  984SOL    HW114588   1.516   2.997   4.967  0.5381 -1.8752  1.1459
  984SOL    HW214589   1.412   3.029   4.871  1.4751  1.0915  0.3659
  985SOL     OW14590   3.365   0.336  14.918 -0.0656 -0.5149  0.3059
  985SOL    HW114591   3.404   0.260  14.875 -1.4664 -1.1804  0.2054
  985SOL    HW214592   3.299   0.366  14.856  0.6392 -1.1990 -0.7682
  986SOL     OW14593   3.218   4.562   4.048  1.1315 -0.0448 -0.1155
  986SOL    HW114594   3.301   4.532   4.086 -0.3618 -0.2562  2.9640
  986SOL    HW214595   3.195   4.484   3.998  2.2520 -1.0198  0.8637
  987SOL     OW14596   4.489   3.777   5.435  0.8125 -0.5042 -0.1349
  987SOL    HW114597   4.548   3.712   5.397  0.6119 -0.4891 -0.4697
  987SOL    HW214598   4.486   3.840   5.363  0.1472 -0.7587 -0.3308
  988SOL     OW14599   2.128   0.863   9.365  0.7638 -0.3136  0.0086
  988SOL    HW114600   2.164   0.847   9.452  0.5051  4.9348  1.0647
  988SOL    HW214601   2.038   0.885   9.391 -0.1028  0.1860 -3.3286
  989SOL     OW14602   0.887   1.563   6.053 -0.3858 -0.4110 -0.0892
  989SOL    HW114603   0.945   1.488   6.066 -1.2430 -1.4758 -2.4817
  989SOL    HW214604   0.850   1.567   6.141  0.0853  2.1191 -0.0085
  990SOL     OW14605   0.865   0.405   0.186  0.0284 -0.2663 -0.2746
  990SOL    HW114606   0.836   0.318   0.157  0.5901 -1.4658  2.7599
  990SOL    HW214607   0.844   0.452   0.105  0.6761 -0.2769 -0.4475
  991SOL     OW14608   0.455   0.583   7.776 -0.4786 -0.3417 -0.2952
  991SOL    HW114609   0.361   0.585   7.758 -0.2768 -0.0537 -1.3061
  991SOL    HW214610   0.469   0.676   7.793  2.3132 -0.7007 -0.5902
  992SOL     OW14611   1.403   1.099   7.217 -0.2796  0.7292 -0.4035
  992SOL    HW114612   1.338   1.125   7.282  1.2300  2.5152  0.4218
  992SOL    HW214613   1.423   1.183   7.175  0.1468  0.1243 -1.4284
  993SOL     OW14614   1.105   1.792   8.183  0.0055  0.1157 -0.3935
  993SOL    HW114615   1.182   1.743   8.210  0.6615  0.9848 -0.6693
  993SOL    HW214616   1.093   1.861   8.248 -2.2228 -1.1928  0.6022
  994SOL     OW14617   1.980   3.872   1.183  0.5716  0.2003 -0.3307
  994SOL    HW114618   1.924   3.908   1.252 -0.8441 -0.6120 -1.0406
  994SOL    HW214619   1.925   3.866   1.104 -0.4257 -0.3623  0.3995
  995SOL     OW14620   4.231   0.552  10.132 -0.2792  0.0102  0.2280
  995SOL    HW114621   4.231   0.489  10.060  0.1204 -1.2804  1.3600
  995SOL    HW214622   4.136   0.559  10.142 -0.3221 -0.3818  0.0783
  996SOL     OW14623   3.465   1.065   7.201  0.7382 -0.3354  0.1577
  996SOL    HW114624   3.462   0.981   7.246 -0.7557  0.7923  2.1838
  996SOL    HW214625   3.550   1.103   7.224 -0.1308  1.6787  0.0363
  997SOL     OW14626   0.635   2.810   6.961 -0.4239 -0.1232  0.1818
  997SOL    HW114627   0.633   2.902   6.938 -0.9735  0.0194  0.7997
  997SOL    HW214628   0.722   2.808   7.002 -0.4630  0.5608  0.2968
  998SOL     OW14629   4.374   2.087   0.123 -0.3138 -0.1023 -0.0420
  998SOL    HW114630   4.400   2.011   0.072  0.3655  0.9613 -1.2704
  998SOL    HW214631   4.336   2.136   0.051 -0.8250  0.8917  0.8974
  999SOL     OW14632   0.304   3.804  11.643 -0.2745  0.2156 -0.0991
  999SOL    HW114633   0.332   3.889  11.678 -1.7737  0.2915  0.9402
  999SOL    HW214634   0.209   3.818  11.650 -0.0911  1.5282 -0.2329
 1000SOL     OW14635   3.474   2.725   2.120 -0.7977 -0.3836  0.3060
 1000SOL    HW114636   3.403   2.750   2.060 -0.0538 -1.0725 -0.8505
 1000SOL    HW214637   3.553   2.756   2.076  0.0882 -0.5932  1.7683
 1001SOL     OW14638   2.072   3.813  17.524 -0.4359  0.0815 -0.0853
 1001SOL    HW114639   2.081   3.762  17.604  2.9159 -0.1885 -0.6572
 1001SOL    HW214640   2.006   3.876  17.552 -0.3405 -0.2016  0.7821
 1002SOL     OW14641   2.157   2.737   2.292  0.0678 -0.2890  0.4568
 1002SOL    HW114642   2.240   2.738   2.340  0.3807  3.4607 -0.2197
 1002SOL    HW214643   2.161   2.821   2.248  1.8085 -0.9890 -0.7123
 1003SOL     OW14644   3.837   1.319   1.335  0.1817  0.4682  0.0082
 1003SOL    HW114645   3.910   1.348   1.279 -0.1506 -0.5315 -0.9481
 1003SOL    HW214646   3.853   1.227   1.356  0.7878  1.1769  2.6280
 1004SOL     OW14647   4.460   2.600  14.644  0.2699 -0.1049  0.0075
 1004SOL    HW114648   4.506   2.553  14.574 -2.0983  0.7940 -2.1467
 1004SOL    HW214649   4.371   2.573  14.624 -0.1154  2.2144 -1.4805
 1005SOL     OW14650   1.291   2.897   1.458  0.1374  0.3764 -0.0024
 1005SOL    HW114651   1.284   2.856   1.545 -0.2997  1.3466  0.4124
 1005SOL    HW214652   1.248   2.982   1.467 -1.8216 -0.6543  0.3663
 1006SOL     OW14653   0.415   1.590   4.413 -0.2445 -0.3074 -0.3241
 1006SOL    HW114654   0.420   1.520   4.478  3.6019 -0.4803 -0.7711
 1006SOL    HW214655   0.426   1.541   4.332  1.0061  0.3952 -0.5827
 1007SOL     OW14656   2.342   3.096   2.590  0.0592  0.1830 -0.0402
 1007SOL    HW114657   2.412   3.148   2.629  1.3421 -1.9225  0.4428
 1007SOL    HW214658   2.356   3.006   2.620  0.0278  0.3190  0.3931
 1008SOL     OW14659   1.566   2.439   5.541 -0.2882 -0.2352 -0.3278
 1008SOL    HW114660   1.532   2.448   5.452 -2.8562 -0.9774  0.5763
 1008SOL    HW214661   1.501   2.482   5.597  0.0247 -0.0936 -0.0763
 1009SOL     OW14662   2.158   3.639   7.694 -0.5866  0.2522 -0.1155
 1009SOL    HW114663   2.064   3.628   7.675 -0.9944  1.1314  1.3822
 1009SOL    HW214664   2.172   3.576   7.765  2.5207  0.8831 -0.1764
 1010SOL     OW14665   3.196   0.498   7.615  0.2359 -0.3113  0.6974
 1010SOL    HW114666   3.233   0.455   7.538 -0.0907  2.6669 -1.1092
 1010SOL    HW214667   3.109   0.513   7.579  0.7875  1.1323 -0.0435
 1011SOL     OW14668   2.815   0.112   6.844 -0.0814 -0.0598  0.2209
 1011SOL    HW114669   2.832   0.207   6.847 -0.8103  0.0949 -0.3543
 1011SOL    HW214670   2.807   0.085   6.935 -0.1538 -2.0202 -0.3728
 1012SOL     OW14671   4.209   2.225   7.878  0.0140 -0.4965 -0.2508
 1012SOL    HW114672   4.129   2.176   7.861 -0.4793 -0.1567  1.0791
 1012SOL    HW214673   4.237   2.182   7.959  3.2558 -1.4050 -1.8620
 1013SOL     OW14674   4.306   3.625  15.683  0.2165 -0.1529  0.0051
 1013SOL    HW114675   4.240   3.576  15.731 -0.1623  1.2658  0.9341
 1013SOL    HW214676   4.328   3.571  15.607 -1.5034 -1.2424  0.2698
 1014SOL     OW14677   2.631   2.530  16.908 -0.5554 -0.3846  0.0153
 1014SOL    HW114678   2.538   2.512  16.894 -0.7755  2.2357 -1.8627
 1014SOL    HW214679   2.672   2.444  16.907  0.5926  0.1485  0.4907
 1015SOL     OW14680   1.123   0.293   8.894 -0.6715 -0.2226 -0.0018
 1015SOL    HW114681   1.180   0.370   8.888 -0.4501 -0.3708  0.1793
 1015SOL    HW214682   1.127   0.270   8.801  0.1186 -2.0036  0.4862
 1016SOL     OW14683   0.833   2.194   4.054 -0.2802  0.4072  0.3097
 1016SOL    HW114684   0.809   2.104   4.077 -2.6359  0.8168 -0.5366
 1016SOL    HW214685   0.770   2.203   3.983 -0.6653 -0.5416  0.5355
 1017SOL     OW14686   4.011   4.470   8.810 -0.4247  0.3039  0.7315
 1017SOL    HW114687   3.923   4.440   8.786 -0.2162  0.2453  0.0121
 1017SOL    HW214688   4.068   4.393   8.809  0.4359  0.9569 -0.8418
 1018SOL     OW14689   0.224   3.733   7.908 -0.4759  0.1766  0.0014
 1018SOL    HW114690   0.145   3.730   7.962  0.8195  0.2336  1.8798
 1018SOL    HW214691   0.201   3.670   7.839  0.8124  0.6228 -0.8251
 1019SOL     OW14692   1.381   1.287  14.570  0.0413  0.0303 -0.3317
 1019SOL    HW114693   1.301   1.234  14.570  0.0175  0.0547  1.4575
 1019SOL    HW214694   1.393   1.329  14.485  0.8094  2.8457  1.1945
 1020SOL     OW14695   2.351   1.023   6.287 -0.1302  0.7821 -0.0587
 1020SOL    HW114696   2.410   1.023   6.363 -0.5306  0.2347  0.2549
 1020SOL    HW214697   2.335   1.117   6.285 -1.3628  0.5872  0.8026
 1021SOL     OW14698   2.321   0.185   1.297  0.4043 -0.5830  0.0306
 1021SOL    HW114699   2.365   0.191   1.212  0.9133  2.1819  0.5021
 1021SOL    HW214700   2.345   0.093   1.315  1.3134 -0.2017  0.7872
 1022SOL     OW14701   3.523   0.976   3.292 -0.2697 -0.0585 -0.0482
 1022SOL    HW114702   3.575   1.002   3.368  0.0547  0.2929 -0.3869
 1022SOL    HW214703   3.592   0.922   3.255 -1.0820 -2.9238  2.6227
 1023SOL     OW14704   3.038   3.436  12.066 -0.2258 -0.4038 -0.5362
 1023SOL    HW114705   3.087   3.511  12.033 -0.1908 -0.9516 -1.7211
 1023SOL    HW214706   3.108   3.374  12.047 -0.0900  0.1603 -1.8651
 1024SOL     OW14707   4.028   4.553   9.056 -0.2491  0.3540 -0.1332
 1024SOL    HW114708   4.016   4.535   8.963 -1.8183 -1.5137  0.4379
 1024SOL    HW214709   4.034   4.461   9.081  2.0045  0.9445  1.4542
 1025SOL     OW14710   3.353   1.383   7.634 -0.0425  0.4097  0.4318
 1025SOL    HW114711   3.416   1.312   7.647 -0.1235 -0.4191 -4.0464
 1025SOL    HW214712   3.302   1.356   7.558 -0.6394 -0.3415  1.1028
 1026SOL     OW14713   0.864   2.990  11.640 -0.2252 -0.5350 -0.5600
 1026SOL    HW114714   0.899   3.032  11.561  0.1960  0.4138  0.1310
 1026SOL    HW214715   0.770   2.992  11.623 -0.0663 -0.0956 -1.3942
 1027SOL     OW14716   3.581   1.892   3.965 -0.0277 -0.1878  0.4670
 1027SOL    HW114717   3.527   1.872   4.041  0.2960  0.4746  0.8620
 1027SOL    HW214718   3.669   1.862   3.989  0.4168 -0.4939 -1.4812
 1028SOL     OW14719   4.557   1.937   7.544  0.8162 -0.3483 -0.1675
 1028SOL    HW114720   4.465   1.962   7.541  0.1938 -2.3611  2.5514
 1028SOL    HW214721   4.602   2.010   7.502 -2.4081  1.8598  0.2386
 1029SOL     OW14722   1.648   1.623   7.145 -0.2958 -0.6989 -0.3849
 1029SOL    HW114723   1.630   1.707   7.188 -0.5352 -0.6281 -0.6215
 1029SOL    HW214724   1.565   1.621   7.097 -0.0368  0.6485 -0.9114
 1030SOL     OW14725   3.953   0.530   4.932  0.0629 -0.3814 -0.1722
 1030SOL    HW114726   3.954   0.434   4.932 -1.0886 -0.3970 -2.0912
 1030SOL    HW214727   4.035   0.544   4.978 -0.3029  0.6620  0.1641
 1031SOL     OW14728   4.194   3.187   4.030  0.2102 -0.0264  0.1169
 1031SOL    HW114729   4.183   3.241   4.108  0.1318  0.7531 -0.4345
 1031SOL    HW214730   4.112   3.207   3.986  0.5497 -1.7125 -1.2514
 1032SOL     OW14731   1.740   2.705   3.189 -0.2644  0.2821  0.7692
 1032SOL    HW114732   1.649   2.713   3.158 -0.2506 -1.4869  0.2323
 1032SOL    HW214733   1.744   2.611   3.210 -0.7663  0.3907  1.3796
 1033SOL     OW14734   2.057   4.414   4.698 -0.1054  0.0548  1.0777
 1033SOL    HW114735   2.145   4.425   4.734  0.1265  2.4465 -0.2077
 1033SOL    HW214736   2.088   4.400   4.609  2.7232  0.3214  1.9984
 1034SOL     OW14737   0.284   0.626   6.355  0.0251  0.4661 -0.6497
 1034SOL    HW114738   0.224   0.551   6.351 -1.8251  1.8988  0.0821
 1034SOL    HW214739   0.302   0.615   6.261 -0.3578 -1.9115 -0.4384
 1035SOL     OW14740   4.639   1.314   7.295 -0.0558 -0.2229  0.1576
 1035SOL    HW114741   4.696   1.245   7.262  0.2911  0.6953 -1.1333
 1035SOL    HW214742   4.661   1.313   7.388 -0.4191  1.0492  0.2596
 1036SOL     OW14743   2.190   1.042  10.884 -0.3325 -0.2471 -0.3086
 1036SOL    HW114744   2.195   0.959  10.932 -3.2558 -0.5750 -0.6046
 1036SOL    HW214745   2.281   1.035  10.854 -0.8903 -1.4320 -1.7271
 1037SOL     OW14746   1.559   0.599   2.476  0.0170  0.4217  0.6889
 1037SOL    HW114747   1.522   0.525   2.428  1.9024  0.6152 -1.0750
 1037SOL    HW214748   1.645   0.569   2.507 -0.3844 -0.5354  0.8780
 1038SOL     OW14749   2.230   4.268  17.353 -0.5269  0.2594  0.6618
 1038SOL    HW114750   2.242   4.178  17.384 -0.0895 -0.3568 -1.2873
 1038SOL    HW214751   2.200   4.251  17.263 -3.2243  0.7091  1.4907
 1039SOL     OW14752   3.629   2.832  15.405 -0.0098 -0.1959  0.1572
 1039SOL    HW114753   3.552   2.859  15.455 -0.0882  0.2947 -0.2238
 1039SOL    HW214754   3.601   2.744  15.383  1.3732 -0.8235  0.9021
 1040SOL     OW14755   3.911   2.813   2.867 -0.8764  0.7716  0.4243
 1040SOL    HW114756   3.874   2.858   2.791  0.6777  1.4377  0.0754
 1040SOL    HW214757   3.925   2.728   2.825  1.2997  0.2772  2.1917
 1041SOL     OW14758   3.661   0.351  14.556  1.0154 -0.1958 -0.6483
 1041SOL    HW114759   3.579   0.325  14.600 -0.1557 -1.6439 -3.7141
 1041SOL    HW214760   3.694   0.424  14.609 -2.5916  0.2783  0.9709
 1042SOL     OW14761   2.793   4.317   2.532  0.0254 -0.6191 -0.3175
 1042SOL    HW114762   2.759   4.228   2.518 -1.3019  0.3984 -3.5944
 1042SOL    HW214763   2.723   4.354   2.585 -0.5547 -2.9175  0.5423
 1043SOL     OW14764   3.670   3.434   2.774  0.2139 -0.3584  0.1119
 1043SOL    HW114765   3.723   3.380   2.833 -0.5066  1.7199  2.6580
 1043SOL    HW214766   3.635   3.488   2.845 -2.6687 -1.0881 -0.7302
 1044SOL     OW14767   1.233   4.378   6.064  0.4954  0.3050 -0.2060
 1044SOL    HW114768   1.196   4.459   6.098  0.0289 -0.0906  0.2341
 1044SOL    HW214769   1.263   4.414   5.981  0.5564  1.2097  0.2126
 1045SOL     OW14770   3.900   3.102  14.422 -0.1393 -0.0830  0.0715
 1045SOL    HW114771   3.971   3.042  14.401 -1.3562 -1.1107 -1.1189
 1045SOL    HW214772   3.894   3.154  14.342 -2.0367  0.6899  0.7130
 1046SOL     OW14773   4.018   0.228   0.159 -0.0513 -0.1071  0.1874
 1046SOL    HW114774   4.009   0.321   0.139  2.4784  0.1038  0.0635
 1046SOL    HW214775   3.951   0.187   0.105  0.6555  0.5354 -1.2005
 1047SOL     OW14776   0.939   2.183   5.986 -0.0904  0.1290  0.1010
 1047SOL    HW114777   1.026   2.220   5.971 -0.1577  1.4845  3.0100
 1047SOL    HW214778   0.939   2.155   5.894  1.6812 -1.5917  0.6155
 1048SOL     OW14779   4.646   2.982   5.740  0.2845 -0.4184 -0.1985
 1048SOL    HW114780   4.602   2.914   5.690 -1.4500  0.1361  0.5911
 1048SOL    HW214781   4.623   2.970   5.832  0.5356  0.4735 -0.0167
 1049SOL     OW14782   3.903   4.254   7.432  0.3976  0.1978 -0.4192
 1049SOL    HW114783   3.935   4.272   7.344 -0.1588 -0.1948 -0.7044
 1049SOL    HW214784   3.865   4.168   7.414  1.3449 -0.1080 -0.9805
 1050SOL     OW14785   4.324   0.049   7.241 -0.6354  0.2877 -0.7710
 1050SOL    HW114786   4.241   0.098   7.237  0.1332  1.8202  2.8124
 1050SOL    HW214787   4.316   4.732   7.161  1.5172  1.3521 -1.6544
 1051SOL     OW14788   1.932   1.745   2.921  0.1395 -0.3505 -0.1971
 1051SOL    HW114789   1.877   1.667   2.911 -0.3400 -0.0932  0.4537
 1051SOL    HW214790   1.979   1.709   2.996  2.1005  0.1487 -1.1890
 1052SOL     OW14791   3.178   3.129   3.016  0.0556 -0.5794  0.3739
 1052SOL    HW114792   3.188   3.213   2.971 -3.7583  1.2315  2.8910
 1052SOL    HW214793   3.268   3.096   3.016  0.7214  1.2685 -0.5035
 1053SOL     OW14794   0.723   4.599   8.601 -0.4853  0.4133  0.0148
 1053SOL    HW114795   0.638   4.627   8.567 -1.5586 -1.4104  1.2102
 1053SOL    HW214796   0.782   4.674   8.596  1.1422 -0.8764 -0.0692
 1054SOL     OW14797   4.483   2.665   7.465 -0.4906  0.2579  0.1343
 1054SOL    HW114798   4.528   2.707   7.538  0.6319 -1.9146  0.6903
 1054SOL    HW214799   4.473   2.738   7.404  2.2244  0.6550  0.1665
 1055SOL     OW14800   0.952   3.604   7.094  0.6295 -0.2282 -0.1398
 1055SOL    HW114801   0.941   3.676   7.032 -1.4001  0.9810  1.6044
 1055SOL    HW214802   1.044   3.581   7.084  0.1609 -1.6183 -1.1409
 1056SOL     OW14803   0.419   0.166  10.145  0.0477  0.0141  0.1111
 1056SOL    HW114804   0.336   0.211  10.127 -0.3652 -0.5779  0.5076
 1056SOL    HW214805   0.410   0.146  10.238 -0.6952  1.5889  0.3762
 1057SOL     OW14806   3.543   4.608  15.825 -0.7331  0.0400 -0.3548
 1057SOL    HW114807   3.630   4.618  15.864  0.7391  0.2785 -3.6748
 1057SOL    HW214808   3.498   4.684  15.862 -0.9091  0.1369 -0.7700
 1058SOL     OW14809   0.095   0.950   1.857 -0.0098  0.2866 -0.1608
 1058SOL    HW114810   0.176   0.954   1.806 -0.6006 -0.0627 -1.1308
 1058SOL    HW214811   0.068   0.861   1.836 -0.2211  0.1651  0.6325
 1059SOL     OW14812   1.308   3.990  10.413 -0.3633 -0.4772  0.5547
 1059SOL    HW114813   1.225   3.970  10.457 -0.3745 -1.5587  0.0546
 1059SOL    HW214814   1.334   3.900  10.394  1.0020  0.1344 -0.4498
 1060SOL     OW14815   0.366   0.483  17.688  0.0354 -0.9805 -0.9374
 1060SOL    HW114816   0.385   0.456   0.038 -2.5747  0.2316 -0.0359
 1060SOL    HW214817   0.286   0.532  17.705 -0.9091 -3.1674  0.8564
 1061SOL     OW14818   0.369   2.334  16.567  0.2600  0.1751  0.6321
 1061SOL    HW114819   0.460   2.328  16.597  0.5047  1.4456  0.1643
 1061SOL    HW214820   0.347   2.426  16.584 -1.3212 -0.2403  0.8703
 1062SOL     OW14821   1.189   0.388   8.616 -0.3224 -0.2831 -0.2607
 1062SOL    HW114822   1.188   0.477   8.580 -1.5328  0.8506  2.5740
 1062SOL    HW214823   1.114   0.347   8.572 -2.1741  1.5956  1.1269
 1063SOL     OW14824   1.413   0.887   6.325  0.3587  0.1745 -0.4540
 1063SOL    HW114825   1.491   0.880   6.271 -0.9366 -0.3165 -2.2318
 1063SOL    HW214826   1.384   0.797   6.341  0.3740 -0.2268 -2.7010
 1064SOL     OW14827   1.855   3.986  11.131  0.0765 -0.5152  0.4698
 1064SOL    HW114828   1.898   3.932  11.064  0.2814 -0.9365  0.9404
 1064SOL    HW214829   1.902   3.967  11.212 -1.2275  1.1942  1.6352
 1065SOL     OW14830   4.358   1.695   7.113 -0.1858  0.4912  0.0695
 1065SOL    HW114831   4.399   1.782   7.120  0.7095  0.1906 -1.3530
 1065SOL    HW214832   4.434   1.641   7.094  0.4564  1.1173  0.8176
 1066SOL     OW14833   1.339   3.002   2.807  0.1414  0.0212 -0.3322
 1066SOL    HW114834   1.283   2.927   2.827  1.2966 -0.6060  0.5078
 1066SOL    HW214835   1.345   2.988   2.712 -1.7334  1.0033 -0.5954
 1067SOL     OW14836   1.221   1.134   7.478 -0.1103  0.2062  0.0238
 1067SOL    HW114837   1.293   1.164   7.533 -1.3720  1.7847  0.8090
 1067SOL    HW214838   1.229   1.041   7.498 -0.3857  0.8549  3.1258
 1068SOL     OW14839   2.137   4.442   3.230  0.4083 -0.4802 -0.4361
 1068SOL    HW114840   2.169   4.388   3.302 -0.5686 -0.3716  0.0734
 1068SOL    HW214841   2.215   4.436   3.174  0.9661  2.3538  0.0153
 1069SOL     OW14842   3.921   4.658   7.147  0.0861 -0.4696 -0.1277
 1069SOL    HW114843   3.872   4.700   7.076  0.8079 -0.0709 -0.3960
 1069SOL    HW214844   3.877   4.573   7.152 -2.2055  0.7025 -0.5263
 1070SOL     OW14845   2.404   0.593  14.460  0.3924 -0.0630  0.0470
 1070SOL    HW114846   2.317   0.632  14.471 -0.4395 -1.3730 -1.9678
 1070SOL    HW214847   2.456   0.673  14.473  0.2809 -0.1102  0.7713
 1071SOL     OW14848   1.812   3.176   8.783  0.2616  0.5194 -0.1028
 1071SOL    HW114849   1.752   3.155   8.712  2.6649 -0.6255 -1.7971
 1071SOL    HW214850   1.768   3.155   8.865  0.2224  0.6310 -0.0953
 1072SOL     OW14851   4.218   1.523   4.644  0.2958 -0.8597  0.1008
 1072SOL    HW114852   4.182   1.436   4.628 -2.0340  0.3211 -0.8962
 1072SOL    HW214853   4.298   1.523   4.591 -0.9807 -1.0257 -1.7675
 1073SOL     OW14854   2.478   3.071  13.231  0.0406 -0.4388  0.3026
 1073SOL    HW114855   2.520   3.146  13.191 -1.2702 -0.7559 -1.6677
 1073SOL    HW214856   2.540   3.001  13.210 -0.6454  0.1773 -3.7338
 1074SOL     OW14857   4.107   0.507  15.461 -0.1334  0.0871 -0.0765
 1074SOL    HW114858   4.042   0.439  15.442  1.3041 -1.0856 -0.7584
 1074SOL    HW214859   4.181   0.487  15.403  0.2709  1.4065 -0.0047
 1075SOL     OW14860   1.362   0.544  11.789  0.0846 -0.2819  0.8967
 1075SOL    HW114861   1.420   0.469  11.773  0.5420  0.5578 -1.3776
 1075SOL    HW214862   1.290   0.504  11.837  1.2278 -2.0217  1.1701
 1076SOL     OW14863   0.010   0.277   9.053 -0.0989  0.7369  0.4119
 1076SOL    HW114864   0.082   0.238   9.003  0.7334  0.2645  1.9742
 1076SOL    HW214865   4.708   0.332   8.984 -3.8163 -1.6631  0.5325
 1077SOL     OW14866   3.724   3.241   6.656 -0.3682 -0.1198 -0.0148
 1077SOL    HW114867   3.634   3.219   6.683 -1.0476 -0.6845 -2.6775
 1077SOL    HW214868   3.781   3.168   6.679  0.9890  0.7933 -0.5038
 1078SOL     OW14869   3.455   4.438   4.715 -0.2338  0.2850 -0.0446
 1078SOL    HW114870   3.406   4.376   4.660 -0.6070  1.7440 -1.3487
 1078SOL    HW214871   3.539   4.397   4.736 -0.3324  0.9907  1.6854
 1079SOL     OW14872   3.352   2.348   3.399  0.1570 -0.1401  0.1234
 1079SOL    HW114873   3.369   2.439   3.423 -0.6377  0.1760 -0.4965
 1079SOL    HW214874   3.326   2.328   3.489 -2.2315 -1.3675 -0.8332
 1080SOL     OW14875   1.002   3.604   4.819 -0.2470  0.3464  0.2270
 1080SOL    HW114876   1.015   3.699   4.815  1.0085  0.1814  0.2263
 1080SOL    HW214877   1.051   3.575   4.742 -0.5718  0.4542 -0.0208
 1081SOL     OW14878   1.392   4.357   2.448  0.1533  0.3895  0.8395
 1081SOL    HW114879   1.441   4.429   2.487  0.1658  0.9454 -0.1866
 1081SOL    HW214880   1.424   4.280   2.494 -1.6691 -1.7790 -1.5253
 1082SOL     OW14881   0.823   0.598   1.325  0.0638  0.3009  0.2923
 1082SOL    HW114882   0.812   0.596   1.420 -0.5648  2.1201  0.2603
 1082SOL    HW214883   0.738   0.564   1.294  0.5932  0.6388 -1.5481
 1083SOL     OW14884   1.385   1.222   5.911  0.0773 -0.2356  0.5255
 1083SOL    HW114885   1.478   1.200   5.920  0.3107 -0.8097 -3.4574
 1083SOL    HW214886   1.367   1.285   5.981  0.0208 -0.0881  0.3788
 1084SOL     OW14887   3.296   0.558   7.019  0.2211 -0.0393  0.2938
 1084SOL    HW114888   3.319   0.607   6.940 -2.2838 -0.4540 -0.6680
 1084SOL    HW214889   3.363   0.593   7.078 -0.2304 -0.3439  0.9850
 1085SOL     OW14890   0.368   4.439  16.005 -0.1342 -0.2085 -0.2379
 1085SOL    HW114891   0.299   4.386  16.042  0.8768 -0.2626  1.5649
 1085SOL    HW214892   0.349   4.413  15.914  0.0573  2.5791 -1.0973
 1086SOL     OW14893   2.044   2.836  15.782  0.4743  0.4215  0.3112
 1086SOL    HW114894   1.998   2.908  15.827  0.4837  1.8162 -1.9210
 1086SOL    HW214895   1.971   2.781  15.757  1.0022  1.4647 -3.4512
 1087SOL     OW14896   0.473   1.811   7.179  0.1454  0.0892  0.1705
 1087SOL    HW114897   0.503   1.788   7.091  2.1193  0.1267  0.8327
 1087SOL    HW214898   0.470   1.721   7.212 -1.0120  0.1490  0.2108
 1088SOL     OW14899   3.600   0.669   0.814 -0.0545  0.1791 -0.3605
 1088SOL    HW114900   3.561   0.604   0.756  0.8323 -1.4255  0.8199
 1088SOL    HW214901   3.664   0.616   0.861  1.8060  3.9784  1.4134
 1089SOL     OW14902   0.773   2.892   7.698  0.0756 -0.7629 -0.2836
 1089SOL    HW114903   0.692   2.940   7.685 -0.5714 -1.8512 -0.2236
 1089SOL    HW214904   0.819   2.936   7.770 -0.0478 -0.1227 -0.5957
 1090SOL     OW14905   2.494   4.095   8.185  0.5696 -0.1978  0.1596
 1090SOL    HW114906   2.412   4.140   8.164 -0.9607 -1.9684  2.4056
 1090SOL    HW214907   2.493   4.017   8.130  0.2295 -0.9347  1.2364
 1091SOL     OW14908   0.613   1.399  10.526 -0.1085 -0.1161  0.3549
 1091SOL    HW114909   0.683   1.463  10.519  1.4614 -1.8750 -0.1232
 1091SOL    HW214910   0.570   1.419  10.609 -2.2341  1.8395 -1.2140
 1092SOL     OW14911   3.996   2.186   9.089  0.3995  0.1713 -0.4422
 1092SOL    HW114912   3.987   2.269   9.042  0.7194 -0.5804 -1.8309
 1092SOL    HW214913   3.962   2.124   9.025 -0.9836 -1.0325  1.4526
 1093SOL     OW14914   1.484   0.907   3.892 -0.4881  0.3436 -0.3397
 1093SOL    HW114915   1.446   0.854   3.961 -1.5585  3.1795  1.2730
 1093SOL    HW214916   1.554   0.940   3.948  0.0133 -0.0854 -0.7138
 1094SOL     OW14917   0.374   3.646   8.311  0.2755 -0.2332 -0.2664
 1094SOL    HW114918   0.447   3.696   8.347  0.6611 -0.9906 -0.0044
 1094SOL    HW214919   0.426   3.570   8.284  0.7449  0.1642 -0.4834
 1095SOL     OW14920   1.459   3.313   1.860 -0.3510  0.1469  0.4966
 1095SOL    HW114921   1.494   3.251   1.924  0.2057 -0.9625 -0.8883
 1095SOL    HW214922   1.537   3.368   1.848 -0.0193  0.0838  2.2838
 1096SOL     OW14923   4.168   2.211  11.352 -0.0531 -0.6712 -0.4915
 1096SOL    HW114924   4.103   2.157  11.306 -0.5068 -0.8811  0.4013
 1096SOL    HW214925   4.137   2.298  11.330  1.4507  0.1682  0.7083
 1097SOL     OW14926   3.472   3.568   6.216 -0.3408 -0.0793 -0.0321
 1097SOL    HW114927   3.426   3.633   6.163 -1.0761 -1.3888 -0.9958
 1097SOL    HW214928   3.452   3.594   6.306  0.5388  0.4678  0.0004
 1098SOL     OW14929   2.391   3.675   7.536  0.5111  0.0556 -0.3040
 1098SOL    HW114930   2.325   3.613   7.567  1.2084 -0.0408  1.0147
 1098SOL    HW214931   2.346   3.759   7.538 -1.0675 -0.8183  1.0035
 1099SOL     OW14932   1.491   0.771  10.414  0.3439  0.1009  0.2716
 1099SOL    HW114933   1.561   0.836  10.408  0.0912  0.2538 -1.1005
 1099SOL    HW214934   1.406   0.812  10.402  1.7005  2.7033 -0.4434
 1100SOL     OW14935   0.837   0.589   8.883  0.0834 -0.6943  0.2636
 1100SOL    HW114936   0.817   0.508   8.931  1.6444 -0.9285  0.5341
 1100SOL    HW214937   0.788   0.651   8.937 -1.5586 -1.5916 -0.1900
 1101SOL     OW14938   4.730   1.425   6.247 -0.0844  0.5798  0.4035
 1101SOL    HW114939   0.011   1.375   6.327 -1.4526 -1.0414 -0.3389
 1101SOL    HW214940   4.672   1.371   6.194 -0.2505  1.6574 -0.5299
 1102SOL     OW14941   3.468   1.686   3.677  0.0321  0.0890  0.0414
 1102SOL    HW114942   3.442   1.769   3.638 -0.1528  0.2138  0.4288
 1102SOL    HW214943   3.386   1.637   3.670  1.2635 -1.5469 -2.7660
 1103SOL     OW14944   2.903   3.862   8.271 -0.0670 -0.5021  1.0146
 1103SOL    HW114945   2.987   3.862   8.316  0.4418  0.1921  0.0869
 1103SOL    HW214946   2.831   3.864   8.334 -1.2646  2.0595 -0.4013
 1104SOL     OW14947   0.573   2.583   4.399 -0.5744 -0.6218  0.0514
 1104SOL    HW114948   0.616   2.499   4.380  0.7655  0.3571 -1.1884
 1104SOL    HW214949   0.531   2.567   4.483  1.5949  0.2440  1.3011
 1105SOL     OW14950   0.266   3.171  14.691  0.1595 -0.1140 -0.2565
 1105SOL    HW114951   0.171   3.177  14.676  0.0891  0.8835  0.6198
 1105SOL    HW214952   0.292   3.163  14.599 -0.3330 -0.0855 -0.4008
 1106SOL     OW14953   3.670   0.914   3.833 -0.1806  0.0347 -0.0025
 1106SOL    HW114954   3.676   0.994   3.885  1.0798  0.3704 -0.6613
 1106SOL    HW214955   3.742   0.936   3.774  1.6297 -0.0830  2.1156
 1107SOL     OW14956   3.315   0.762   9.010 -0.0944 -0.4289 -0.3871
 1107SOL    HW114957   3.299   0.836   9.068  2.0837 -0.2608  0.0013
 1107SOL    HW214958   3.352   0.806   8.933  0.8916 -1.1295 -0.3148
 1108SOL     OW14959   0.436   2.810   4.800  0.3056  0.5490  0.1621
 1108SOL    HW114960   0.480   2.883   4.843 -2.0024  2.3125 -0.4381
 1108SOL    HW214961   0.370   2.861   4.752 -0.6952 -0.8716  0.0391
 1109SOL     OW14962   1.388   1.328  13.895  0.0360 -0.4839  0.0634
 1109SOL    HW114963   1.421   1.371  13.816 -0.0989  1.1259  0.8873
 1109SOL    HW214964   1.350   1.250  13.854  0.2580 -1.0647  0.9666
 1110SOL     OW14965   2.142   1.944   4.991 -0.3597 -0.7450  0.3736
 1110SOL    HW114966   2.162   2.018   5.048  1.1126 -0.6552 -0.2721
 1110SOL    HW214967   2.100   1.999   4.926  0.0863 -0.2684  0.4910
 1111SOL     OW14968   0.959   1.336  15.152  0.2506 -0.6218  0.4219
 1111SOL    HW114969   1.010   1.341  15.233  1.8929  0.1083 -0.6549
 1111SOL    HW214970   1.024   1.301  15.091  1.8566  0.9734  1.1972
 1112SOL     OW14971   4.389   2.130   8.764 -0.1213 -0.2213  0.9200
 1112SOL    HW114972   4.365   2.045   8.728  1.8292 -0.1041 -0.6536
 1112SOL    HW214973   4.350   2.186   8.696  3.3782 -0.1168 -0.9744
 1113SOL     OW14974   2.110   2.735   6.169  0.0084  0.0939 -0.1413
 1113SOL    HW114975   2.185   2.691   6.130  1.2275  2.3814 -0.3606
 1113SOL    HW214976   2.136   2.824   6.145 -2.5638  0.5787 -1.1713
 1114SOL     OW14977   1.028   0.998   8.330 -0.1017  0.1479  0.3253
 1114SOL    HW114978   1.048   1.071   8.388  1.0843  1.2733 -1.5009
 1114SOL    HW214979   1.114   0.957   8.333  0.3455  1.2550  2.2974
 1115SOL     OW14980   0.827   3.416   5.330  0.3664 -0.4532  0.2472
 1115SOL    HW114981   0.911   3.446   5.365  1.0720 -0.0636 -1.8006
 1115SOL    HW214982   0.845   3.346   5.267  2.2541  0.6148 -0.3903
 1116SOL     OW14983   1.233   1.398   2.696 -0.0102 -0.6408 -0.2992
 1116SOL    HW114984   1.150   1.354   2.711 -0.1562 -0.1046  0.4854
 1116SOL    HW214985   1.211   1.441   2.613  0.0095  0.8214  0.4415
 1117SOL     OW14986   0.121   4.219   9.166  0.0041  0.0639  0.1101
 1117SOL    HW114987   0.052   4.248   9.225 -0.6144 -0.0753 -0.5491
 1117SOL    HW214988   0.193   4.239   9.226  1.7308 -3.1080 -0.8976
 1118SOL     OW14989   0.202   0.558   1.734  0.1358 -0.4671  1.0461
 1118SOL    HW114990   0.237   0.581   1.648 -1.0816 -3.3948 -0.2063
 1118SOL    HW214991   0.257   0.485   1.761  0.8781 -1.0038 -1.9356
 1119SOL     OW14992   4.349   4.615   7.486  0.3095  0.3192  0.5550
 1119SOL    HW114993   4.275   4.562   7.458  1.0161  0.9124 -2.4509
 1119SOL    HW214994   4.352   4.670   7.408  1.5963 -0.5301  0.0149
 1120SOL     OW14995   4.217   2.072  13.195  0.1011  0.2504  0.3044
 1120SOL    HW114996   4.245   2.120  13.117  0.7340 -2.4147 -1.0957
 1120SOL    HW214997   4.292   2.063  13.252 -2.0950 -2.4945  2.7209
 1121SOL     OW14998   4.010   1.392   0.455 -0.0592  0.2246 -0.2443
 1121SOL    HW114999   3.920   1.367   0.475 -0.0684 -0.2407 -0.8533
 1121SOL    HW215000   4.022   1.484   0.476 -1.0748  0.3373 -0.1962
 1122SOL     OW15001   3.391   1.846  10.353 -0.0487  0.3502  0.3396
 1122SOL    HW115002   3.336   1.810  10.283  1.4208 -3.8047  1.3119
 1122SOL    HW215003   3.424   1.763  10.389 -0.2520  0.1927  0.1690
 1123SOL     OW15004   3.836   2.584   8.800  0.4633 -0.2895  0.1056
 1123SOL    HW115005   3.790   2.583   8.717 -0.4578  1.8683  0.5796
 1123SOL    HW215006   3.835   2.680   8.811  0.9525 -0.1119 -1.4104
 1124SOL     OW15007   4.040   3.338   7.631 -0.5602 -0.2831  0.7650
 1124SOL    HW115008   4.018   3.423   7.670  2.5570  0.2660  1.3236
 1124SOL    HW215009   4.130   3.352   7.602 -1.0377  1.2650  0.0206
 1125SOL     OW15010   1.212   0.878   7.557  0.1320  0.0551  0.0923
 1125SOL    HW115011   1.302   0.848   7.546  0.3548  0.0867  1.8619
 1125SOL    HW215012   1.186   0.800   7.607  1.4105 -0.0700  0.5619
 1126SOL     OW15013   1.003   3.153   4.115  0.6067  0.2981 -0.0545
 1126SOL    HW115014   1.075   3.204   4.077 -0.3726  1.1686 -0.7478
 1126SOL    HW215015   1.021   3.186   4.203 -1.4638  1.7261 -0.1627
 1127SOL     OW15016   3.807   3.632   8.107  0.2097 -0.4158  0.4186
 1127SOL    HW115017   3.883   3.580   8.132 -1.2077 -1.6362  2.1413
 1127SOL    HW215018   3.737   3.589   8.156 -1.5583  1.6664 -0.2768
 1128SOL     OW15019   1.726   1.685   2.124 -0.1541  0.3680  0.1868
 1128SOL    HW115020   1.716   1.601   2.169 -2.8372 -0.0958 -1.2300
 1128SOL    HW215021   1.660   1.739   2.168 -0.6273  1.1666 -1.4772
 1129SOL     OW15022   1.378   2.485   3.041 -0.0413  0.3401  0.5294
 1129SOL    HW115023   1.431   2.459   2.965  0.1817 -0.7127  1.0480
 1129SOL    HW215024   1.392   2.578   3.025 -0.8154  0.3145 -0.3107
 1130SOL     OW15025   1.132   2.347  16.613  0.2550  0.2518  0.2116
 1130SOL    HW115026   1.068   2.377  16.550 -0.0340  0.3658  0.5586
 1130SOL    HW215027   1.176   2.273  16.570  4.4281  2.6111  0.3996
 1131SOL     OW15028   2.240   2.341   6.124  0.2148  0.4898  0.0331
 1131SOL    HW115029   2.238   2.318   6.031 -3.0757  0.2598  0.1467
 1131SOL    HW215030   2.275   2.430   6.120 -1.2168  1.1440  1.8296
 1132SOL     OW15031   2.727   0.819  12.464  0.3269  0.3278 -0.4323
 1132SOL    HW115032   2.778   0.754  12.513 -1.1847  0.8177  1.7630
 1132SOL    HW215033   2.782   0.893  12.490 -1.2008  0.4324  2.4774
 1133SOL     OW15034   0.135   2.440  14.950 -0.3277 -0.0096  0.4724
 1133SOL    HW115035   0.187   2.407  15.023 -1.6877 -0.1013  1.3975
 1133SOL    HW215036   0.117   2.528  14.983 -0.7995  0.6250 -1.4559
 1134SOL     OW15037   0.593   2.807   0.918 -0.3574  0.0921  0.3005
 1134SOL    HW115038   0.519   2.807   0.978  0.9744 -3.6954  1.9218
 1134SOL    HW215039   0.546   2.762   0.848  0.6104  0.2568 -0.4516
 1135SOL     OW15040   4.092   1.422   6.872  0.0566  0.1387  0.8906
 1135SOL    HW115041   4.050   1.499   6.833 -0.1065  0.1833  1.1519
 1135SOL    HW215042   4.024   1.378   6.923  1.1077 -0.2698  1.9263
 1136SOL     OW15043   3.348   4.025   6.823  0.4064  0.6785  0.7501
 1136SOL    HW115044   3.381   4.112   6.802 -1.2968  1.0874 -0.1947
 1136SOL    HW215045   3.423   3.970   6.846 -1.1234 -1.4572  0.6927
 1137SOL     OW15046   0.319   4.466   9.114 -0.4986 -0.3535 -0.5842
 1137SOL    HW115047   0.243   4.423   9.075 -0.0878 -0.9982 -0.6768
 1137SOL    HW215048   0.285   4.460   9.203  0.8171 -0.0478 -0.0513
 1138SOL     OW15049   0.103   4.114   5.043  0.2693 -0.2130 -0.2426
 1138SOL    HW115050   0.083   4.112   4.950  0.0836 -0.4884 -0.1988
 1138SOL    HW215051   0.125   4.023   5.063 -1.7316 -0.9307 -1.2126
 1139SOL     OW15052   0.769   3.278   8.891  0.4709  0.0276 -0.4441
 1139SOL    HW115053   0.761   3.285   8.796  0.2582 -0.5872 -0.4680
 1139SOL    HW215054   0.708   3.349   8.912 -0.3468  0.0597 -2.8837
 1140SOL     OW15055   0.247   2.068   8.235 -0.1737  0.6405 -0.0965
 1140SOL    HW115056   0.333   2.105   8.259  0.2012 -0.0702 -0.3510
 1140SOL    HW215057   0.187   2.131   8.275  0.7632  0.5934  1.3830
 1141SOL     OW15058   2.317   0.757   3.192 -0.3954  0.2621 -0.0779
 1141SOL    HW115059   2.374   0.795   3.125 -0.5109 -0.6950 -0.7191
 1141SOL    HW215060   2.312   0.667   3.159  0.1493 -0.3532  1.5330
 1142SOL     OW15061   1.346   0.367  14.045  0.3493  0.2096  0.6214
 1142SOL    HW115062   1.334   0.278  14.079 -0.5356 -0.3937 -1.2959
 1142SOL    HW215063   1.405   0.412  14.106  0.4858  1.3482 -0.3531
 1143SOL     OW15064   1.047   3.672   7.640  0.3445  0.0325 -0.0867
 1143SOL    HW115065   1.078   3.728   7.569 -0.6958  1.9155  0.9566
 1143SOL    HW215066   1.110   3.689   7.710  0.9061  0.8403 -0.7907
 1144SOL     OW15067   3.786   2.996   6.786  0.1709  0.3747  0.1212
 1144SOL    HW115068   3.796   3.051   6.864 -0.1513  0.9716 -0.2579
 1144SOL    HW215069   3.716   2.937   6.815  0.9946 -0.3767  0.5575
 1145SOL     OW15070   1.393   2.479   6.446  0.7513  0.0317  0.2140
 1145SOL    HW115071   1.477   2.437   6.427  1.6117  1.0869  1.6943
 1145SOL    HW215072   1.393   2.474   6.541  1.7882 -1.5342  0.1275
 1146SOL     OW15073   1.093   2.619   8.764 -0.9769  0.1269  0.8837
 1146SOL    HW115074   1.119   2.643   8.853  1.0591 -0.1984  0.3885
 1146SOL    HW215075   1.053   2.533   8.770  1.0980 -0.9001  0.0934
 1147SOL     OW15076   3.455   2.478   3.160 -0.4550  0.3139 -0.2544
 1147SOL    HW115077   3.444   2.415   3.232  0.6042 -1.4707 -1.6651
 1147SOL    HW215078   3.366   2.513   3.150 -0.5920 -0.3965 -1.5339
 1148SOL     OW15079   2.134   1.917  12.355  0.7035 -0.1826 -0.3686
 1148SOL    HW115080   2.152   1.882  12.442  1.7428 -3.4176 -1.9052
 1148SOL    HW215081   2.154   1.844  12.297 -1.2099 -0.1000 -1.1106
 1149SOL     OW15082   3.910   2.647   1.738  0.3369  0.6350 -0.5092
 1149SOL    HW115083   3.863   2.593   1.675  0.4386  0.1303 -0.1585
 1149SOL    HW215084   3.865   2.617   1.817 -1.1462  0.7811 -1.3054
 1150SOL     OW15085   1.398   3.344  16.250 -0.0639 -0.2912 -0.1981
 1150SOL    HW115086   1.321   3.372  16.201 -0.7324 -0.5201  0.7094
 1150SOL    HW215087   1.361   3.361  16.337 -0.6499  0.5624 -0.6249
 1151SOL     OW15088   3.028   4.262   2.023  0.6011  0.3290  0.0112
 1151SOL    HW115089   3.010   4.170   2.045 -1.8487  1.3566  2.1530
 1151SOL    HW215090   3.067   4.298   2.102 -0.7181  1.8926 -0.0692
 1152SOL     OW15091   4.679   3.804   6.876 -0.1348 -0.4857 -0.3207
 1152SOL    HW115092   0.009   3.740   6.905  0.7698  1.1556  1.2755
 1152SOL    HW215093   4.726   3.887   6.883  1.1533 -1.2167 -0.2521
 1153SOL     OW15094   4.544   3.167   5.247 -0.2856 -0.0104  0.2325
 1153SOL    HW115095   4.512   3.258   5.249 -0.8822 -0.2483  1.3841
 1153SOL    HW215096   4.564   3.170   5.340  0.3160  0.4625  0.0917
 1154SOL     OW15097   3.767   4.326   5.807 -0.0481 -0.6278  0.5739
 1154SOL    HW115098   3.841   4.279   5.769 -0.9122  0.8158 -2.8864
 1154SOL    HW215099   3.689   4.287   5.767  0.3814 -3.3683  2.3927
 1155SOL     OW15100   3.779   4.734  15.865 -0.0159 -0.5181  0.0266
 1155SOL    HW115101   3.847   4.674  15.835 -0.0581 -0.9712  0.8386
 1155SOL    HW215102   3.821   0.053  15.931 -1.6930  3.4470 -2.1200
 1156SOL     OW15103   2.901   0.790   2.907 -0.2279 -0.0489  0.3059
 1156SOL    HW115104   2.895   0.796   2.812  1.9754  1.6547  0.2556
 1156SOL    HW215105   2.984   0.838   2.910 -1.2508  1.8335 -1.4705
 1157SOL     OW15106   2.363   0.048   1.689  0.3417  0.1756 -0.0273
 1157SOL    HW115107   2.396   0.043   1.778  1.6279  1.5523 -0.4255
 1157SOL    HW215108   2.276   0.011   1.705  0.6107 -1.5174 -2.5249
 1158SOL     OW15109   4.340   4.710  10.989  0.0760 -1.0162  0.7720
 1158SOL    HW115110   4.277   0.013  11.050 -0.0794  2.0496 -1.2561
 1158SOL    HW215111   4.320   0.022  10.908  2.4511 -1.4724 -0.0816
 1159SOL     OW15112   0.066   4.644   8.426  0.4229  0.5666  0.7296
 1159SOL    HW115113   0.039   4.602   8.508 -0.0158 -1.6503 -0.5280
 1159SOL    HW215114   0.152   4.603   8.413 -0.0263 -0.3602  0.6922
 1160SOL     OW15115   4.428   2.787   2.508 -0.1766  0.5056 -0.2695
 1160SOL    HW115116   4.395   2.698   2.520  2.1515 -0.2503  0.5850
 1160SOL    HW215117   4.448   2.805   2.600  0.4969 -2.0084  0.0852
 1161SOL     OW15118   3.326   3.559   2.467  0.3599  0.4327  0.4347
 1161SOL    HW115119   3.298   3.489   2.407  1.8506  0.3293 -0.1338
 1161SOL    HW215120   3.377   3.503   2.526  0.0011  2.1366  2.3374
 1162SOL     OW15121   2.435   2.444  10.962  0.6226  0.1479 -0.2488
 1162SOL    HW115122   2.433   2.366  10.907  0.7294  1.2772 -1.8671
 1162SOL    HW215123   2.346   2.453  10.995  0.1539  2.6211 -2.1125
 1163SOL     OW15124   4.157   0.468   6.863  0.4540  0.2611 -0.5146
 1163SOL    HW115125   4.183   0.406   6.931  0.7477  1.9542  0.9145
 1163SOL    HW215126   4.203   0.548   6.887 -0.0609  0.3608  0.1246
 1164SOL     OW15127   3.407   2.783   3.691  0.0858  0.3013 -0.0201
 1164SOL    HW115128   3.387   2.749   3.778 -0.5700 -1.1781 -0.7482
 1164SOL    HW215129   3.381   2.874   3.708  0.7207  0.2504  1.2117
 1165SOL     OW15130   1.374   0.038  13.747 -0.2758  0.3031 -0.1696
 1165SOL    HW115131   1.314   0.037  13.823  0.3414  0.4351  0.3199
 1165SOL    HW215132   1.405   4.683  13.750 -0.7090  0.1435 -0.4233
 1166SOL     OW15133   4.069   1.941   8.179 -0.1861  0.2293 -0.1160
 1166SOL    HW115134   4.035   1.873   8.237 -1.2927  0.9004  0.0216
 1166SOL    HW215135   3.986   1.985   8.162 -0.4109 -0.7442 -1.4686
 1167SOL     OW15136   3.528   2.995  15.739 -0.1629  0.1216  0.1430
 1167SOL    HW115137   3.620   3.017  15.754 -0.1430  0.3766 -0.3205
 1167SOL    HW215138   3.517   2.983  15.644  2.3033  1.3617 -0.3091
 1168SOL     OW15139   1.192   0.313   3.670 -0.3659  0.1477 -0.1255
 1168SOL    HW115140   1.198   0.230   3.718 -3.2237 -0.3882 -0.7202
 1168SOL    HW215141   1.256   0.297   3.601 -1.0418  1.2477 -1.0134
 1169SOL     OW15142   3.696   4.415  15.379  0.5692 -0.4408 -0.0695
 1169SOL    HW115143   3.607   4.443  15.357  1.3121  2.0533  0.0483
 1169SOL    HW215144   3.720   4.345  15.318 -0.2939 -0.4491 -0.3894
 1170SOL     OW15145   1.629   2.400   7.622  0.6246 -0.2792 -0.3785
 1170SOL    HW115146   1.561   2.349   7.668  1.0774  0.3173  0.9464
 1170SOL    HW215147   1.579   2.464   7.572  0.6564 -0.8808 -1.1856
 1171SOL     OW15148   2.236   1.950   2.241  0.1257 -0.0623  0.0764
 1171SOL    HW115149   2.253   1.883   2.175  0.2902  0.0648 -0.0105
 1171SOL    HW215150   2.230   2.030   2.189 -1.5887 -1.6911 -2.1804
 1172SOL     OW15151   2.171   0.335   2.508 -0.1528 -0.3829  0.2258
 1172SOL    HW115152   2.131   0.420   2.489 -1.6627 -1.0093  0.6179
 1172SOL    HW215153   2.264   0.354   2.513  0.1290 -2.0139  0.7733
 1173SOL     OW15154   0.684   0.732   6.970  0.1985 -0.1067  0.3338
 1173SOL    HW115155   0.763   0.746   7.021  0.8034 -0.5309 -0.4902
 1173SOL    HW215156   0.710   0.763   6.884 -0.8023  1.4384  0.5930
 1174SOL     OW15157   2.065   0.836   4.696 -0.0371 -0.3273 -0.4352
 1174SOL    HW115158   2.016   0.918   4.697 -0.9405 -0.8576 -0.8985
 1174SOL    HW215159   2.037   0.802   4.781  2.9752 -5.3951 -1.4854
 1175SOL     OW15160   4.327   2.088   8.074 -0.0181  0.0623 -0.1257
 1175SOL    HW115161   4.419   2.067   8.084  0.0271 -0.4906 -1.8426
 1175SOL    HW215162   4.281   2.010   8.105 -0.0019  0.0646 -0.0955
 1176SOL     OW15163   1.644   4.573   2.073 -0.2719 -0.0970  0.2767
 1176SOL    HW115164   1.563   4.596   2.027 -0.5211 -0.7541  0.3938
 1176SOL    HW215165   1.690   4.656   2.064 -2.4527  1.4159  3.0522
 1177SOL     OW15166   4.691   2.288   6.133 -0.0827 -0.3144 -0.3344
 1177SOL    HW115167   0.036   2.253   6.172  0.2717  1.5053  0.5789
 1177SOL    HW215168   4.620   2.261   6.192  1.0559 -0.6682  0.8827
 1178SOL     OW15169   0.234   1.085   1.148  0.0265 -0.3783  0.2710
 1178SOL    HW115170   0.288   1.046   1.080  2.3510  1.5764  0.9979
 1178SOL    HW215171   0.199   1.002   1.180  1.8700 -2.2948 -2.6498
 1179SOL     OW15172   3.544   0.233  10.437  0.0308  0.2386  0.2339
 1179SOL    HW115173   3.543   0.327  10.419  0.4198 -0.0838 -1.3811
 1179SOL    HW215174   3.459   0.208  10.472  0.0429 -1.9467 -1.2747
 1180SOL     OW15175   2.733   1.026   2.455  0.0484 -0.0875 -0.0979
 1180SOL    HW115176   2.695   1.039   2.368  0.3461  1.1330 -0.0411
 1180SOL    HW215177   2.656   0.990   2.500 -0.0921  0.0483 -0.2284
 1181SOL     OW15178   3.869   3.449   7.405 -0.3341 -0.9285 -0.1013
 1181SOL    HW115179   3.773   3.446   7.400 -0.3088 -1.1864 -0.4673
 1181SOL    HW215180   3.879   3.386   7.477  2.1570  0.8451  1.0689
 1182SOL     OW15181   1.385   1.370  16.362 -0.5978  0.4107 -0.4055
 1182SOL    HW115182   1.411   1.364  16.454  1.1527 -1.0306 -0.9868
 1182SOL    HW215183   1.445   1.304  16.326 -0.5192  0.4600 -0.3656
 1183SOL     OW15184   0.189   0.171   8.719 -0.3258  0.0041  0.4670
 1183SOL    HW115185   0.268   0.121   8.740 -0.1784  0.5237  1.1057
 1183SOL    HW215186   0.235   0.254   8.711 -0.8180  0.4165  2.1245
 1184SOL     OW15187   0.482   2.464   7.261 -0.5551  0.1158  0.0646
 1184SOL    HW115188   0.459   2.546   7.305  1.2349  0.6680 -0.0170
 1184SOL    HW215189   0.528   2.502   7.186  0.3919  2.2599  1.7553
 1185SOL     OW15190   0.306   0.468   4.095 -0.1164 -0.2161 -0.3131
 1185SOL    HW115191   0.344   0.409   4.030 -0.3111 -0.4010 -0.2586
 1185SOL    HW215192   0.231   0.423   4.134 -1.6829 -0.0574 -3.1168
 1186SOL     OW15193   3.282   1.761   3.345  0.3170  0.5045  0.0295
 1186SOL    HW115194   3.301   1.789   3.434 -0.7931  0.4372  0.2791
 1186SOL    HW215195   3.195   1.800   3.332  0.1472  0.4985  1.2247
 1187SOL     OW15196   0.558   1.019   0.970 -0.3717 -0.2800 -0.1933
 1187SOL    HW115197   0.602   1.026   1.055 -2.5933 -1.8725  1.0997
 1187SOL    HW215198   0.527   1.109   0.959  1.0119  0.2768  0.5498
 1188SOL     OW15199   4.481   1.279   2.408 -0.0037  0.8228  0.3681
 1188SOL    HW115200   4.552   1.282   2.343  0.0806  0.4965  0.4458
 1188SOL    HW215201   4.460   1.372   2.410 -4.2672 -0.1044 -1.6667
 1189SOL     OW15202   4.237   0.505  13.110 -0.1009  0.1268 -0.4922
 1189SOL    HW115203   4.181   0.583  13.102  0.9133  0.8011 -0.9668
 1189SOL    HW215204   4.324   0.524  13.078  0.4289 -1.2304  0.1350
 1190SOL     OW15205   3.037   1.210  14.453 -0.3789  0.1734  0.0477
 1190SOL    HW115206   3.016   1.162  14.533  1.6170  0.9683  1.0418
 1190SOL    HW215207   3.113   1.159  14.424  0.3299 -0.0836  2.3955
 1191SOL     OW15208   4.130   4.632   8.394  0.1381  0.1343  0.1920
 1191SOL    HW115209   4.041   4.599   8.411 -0.3241 -0.0039 -2.4648
 1191SOL    HW215210   4.159   4.680   8.472  0.2831 -0.5158  0.5409
 1192SOL     OW15211   3.827   1.520   4.498 -0.7349  0.7834 -0.1427
 1192SOL    HW115212   3.878   1.497   4.576 -1.0994 -1.2017 -0.4758
 1192SOL    HW215213   3.756   1.577   4.527 -1.0449  0.2416  0.1813
 1193SOL     OW15214   1.501   3.556   8.170  0.6830 -0.3243  0.1191
 1193SOL    HW115215   1.573   3.520   8.221  0.3319 -0.2652  0.6648
 1193SOL    HW215216   1.440   3.598   8.231  0.6500  2.0016 -1.5403
 1194SOL     OW15217   2.514   2.504   2.733  0.2563 -0.4419  0.3905
 1194SOL    HW115218   2.578   2.476   2.799 -1.7230 -2.3474  1.4827
 1194SOL    HW215219   2.573   2.565   2.688 -0.1708 -0.0527  0.3617
 1195SOL     OW15220   4.089   3.702   8.770  0.0761  0.6923 -0.0013
 1195SOL    HW115221   4.021   3.765   8.795 -0.4693  0.3786 -0.6862
 1195SOL    HW215222   4.028   3.628   8.777  1.3937 -0.3125  0.7745
 1196SOL     OW15223   1.852   3.595   7.714  0.0662  0.0624 -0.0979
 1196SOL    HW115224   1.773   3.550   7.744  1.8630 -1.2428  2.7098
 1196SOL    HW215225   1.826   3.637   7.632  1.1210  1.0100  0.0421
 1197SOL     OW15226   4.508   4.105  10.687  0.9154  0.2089  0.3106
 1197SOL    HW115227   4.577   4.158  10.646  0.5982  0.2682 -0.1429
 1197SOL    HW215228   4.441   4.173  10.686 -0.5988 -1.3024 -0.2784
 1198SOL     OW15229   2.245   3.419   5.077 -0.4541 -0.1344  0.0235
 1198SOL    HW115230   2.312   3.389   5.139  1.4658  2.9927 -0.5295
 1198SOL    HW215231   2.185   3.464   5.137 -1.7741  1.3064 -2.3688
 1199SOL     OW15232   3.287   4.292   2.240  0.5183  0.3004  1.0196
 1199SOL    HW115233   3.286   4.199   2.260  0.0674 -0.0124 -0.4883
 1199SOL    HW215234   3.207   4.321   2.286  0.2720 -0.0304  0.7969
 1200SOL     OW15235   1.947   1.383   0.945 -0.4621 -0.2729 -0.1125
 1200SOL    HW115236   1.934   1.443   1.019 -0.7800 -1.5417  0.8517
 1200SOL    HW215237   1.901   1.440   0.884 -1.3437 -0.8285  0.0438
 1201SOL     OW15238   3.076   0.987   7.656 -0.2455 -0.1062  0.4625
 1201SOL    HW115239   3.121   0.988   7.572 -0.6633 -1.3677  0.2196
 1201SOL    HW215240   3.144   0.946   7.710  0.8170  2.8058  1.3428
 1202SOL     OW15241   0.137   3.170   0.672 -0.4505 -0.1215  0.4593
 1202SOL    HW115242   0.121   3.156   0.579  2.2555 -0.0833 -0.0059
 1202SOL    HW215243   0.083   3.097   0.704 -1.8419  0.3803 -0.7646
 1203SOL     OW15244   1.057   1.133  10.357  0.4132 -0.1298 -0.2428
 1203SOL    HW115245   0.979   1.184  10.380 -0.0564 -1.2080  0.5078
 1203SOL    HW215246   1.131   1.194  10.358  0.7241 -0.5432  1.6579
 1204SOL     OW15247   2.907   4.165  17.140 -0.1967  0.2946  0.1961
 1204SOL    HW115248   2.856   4.147  17.219 -2.2875  0.2539 -1.1545
 1204SOL    HW215249   2.900   4.260  17.146  2.2452  0.4472  0.6962
 1205SOL     OW15250   0.727   0.364   4.470 -0.0194  0.2370 -0.0108
 1205SOL    HW115251   0.670   0.432   4.505 -0.6490 -1.0401  1.5011
 1205SOL    HW215252   0.714   0.375   4.376 -0.4153  0.4259  0.0676
 1206SOL     OW15253   4.518   3.646   4.973  0.0721  0.3690  0.1693
 1206SOL    HW115254   4.523   3.660   4.878  0.4194 -2.4116 -0.2322
 1206SOL    HW215255   4.431   3.686   4.981  0.0019  0.3486 -0.4922
 1207SOL     OW15256   4.576   1.114   8.069  0.1831 -0.4531 -0.2095
 1207SOL    HW115257   4.634   1.055   8.021  2.3736  0.4951  1.2462
 1207SOL    HW215258   4.617   1.135   8.153  1.3210 -1.6448 -0.4642
 1208SOL     OW15259   3.550   4.237  16.999 -0.2956 -0.8472 -0.4782
 1208SOL    HW115260   3.529   4.308  16.938  1.9201 -0.5746 -0.9443
 1208SOL    HW215261   3.627   4.206  16.952  0.4133  1.3422 -0.7922
 1209SOL     OW15262   3.526   0.884  13.407 -0.2489 -0.0303  0.4264
 1209SOL    HW115263   3.485   0.938  13.475  1.3325  2.3232 -0.4676
 1209SOL    HW215264   3.600   0.843  13.451 -0.5216  0.1911  1.0957
 1210SOL     OW15265   2.412   1.899   1.817 -0.0363 -0.3324 -0.4792
 1210SOL    HW115266   2.330   1.886   1.865 -0.5291 -0.3794 -1.3420
 1210SOL    HW215267   2.472   1.882   1.889 -0.5570 -0.3044 -0.0373
 1211SOL     OW15268   1.135   3.194   1.065  0.9780 -0.3352 -0.5488
 1211SOL    HW115269   1.206   3.152   1.112  2.0732  1.3192 -0.7086
 1211SOL    HW215270   1.153   3.288   1.068  2.6299 -0.7193  0.8533
 1212SOL     OW15271   0.923   3.182  16.517  0.1321 -0.2507 -0.2098
 1212SOL    HW115272   0.900   3.136  16.436 -1.5952 -1.2619  0.8466
 1212SOL    HW215273   0.846   3.187  16.574 -0.3726 -2.1570 -0.7322
 1213SOL     OW15274   3.463   3.916   4.373 -0.8930  0.1596 -0.7319
 1213SOL    HW115275   3.443   3.831   4.333  2.7969 -0.8237 -0.5019
 1213SOL    HW215276   3.444   3.892   4.463 -1.8385  1.3965 -0.5990
 1214SOL     OW15277   0.500   1.739  17.715 -0.8652  0.3232  0.0879
 1214SOL    HW115278   0.409   1.715  17.700 -0.7316 -0.1945  0.1029
 1214SOL    HW215279   0.512   1.813  17.656  2.1994  1.4859  2.1274
 1215SOL     OW15280   4.296   0.254   2.622  0.6403  0.1350  0.9383
 1215SOL    HW115281   4.279   0.160   2.630 -2.6430  0.6985  0.7963
 1215SOL    HW215282   4.213   0.285   2.584  2.4684  1.8133 -1.6931
 1216SOL     OW15283   3.007   3.980  10.670  0.0199 -0.4142 -0.0680
 1216SOL    HW115284   2.920   4.010  10.699  0.0711 -0.2315 -0.1035
 1216SOL    HW215285   3.040   3.919  10.736  0.3436  2.4377  2.4500
 1217SOL     OW15286   2.002   2.269   3.281 -0.1700  0.1450  0.3175
 1217SOL    HW115287   2.043   2.267   3.194 -0.4772  0.3818  0.1695
 1217SOL    HW215288   2.025   2.182   3.314  1.1705 -0.2593 -1.6611
 1218SOL     OW15289   2.727   0.457   3.586  0.4387 -0.1561  0.1147
 1218SOL    HW115290   2.652   0.513   3.567  0.5023 -0.5747 -1.3712
 1218SOL    HW215291   2.694   0.373   3.551 -0.4676  0.5704 -0.7994
 1219SOL     OW15292   1.889   0.746   9.179 -0.5175  0.1652  0.7002
 1219SOL    HW115293   1.838   0.803   9.122 -0.8421 -0.9280 -0.0981
 1219SOL    HW215294   1.861   0.780   9.264 -1.0289  0.7068  0.3127
 1220SOL     OW15295   0.365   1.155  16.994  0.0693  0.0234  0.0184
 1220SOL    HW115296   0.290   1.126  17.047 -1.3241  1.0076 -1.4302
 1220SOL    HW215297   0.444   1.133  17.044 -0.1896  0.6656  0.7158
 1221SOL     OW15298   1.049   0.924   7.302 -0.6970  0.3067 -0.2818
 1221SOL    HW115299   1.016   1.004   7.261 -1.3996  0.2878  0.2400
 1221SOL    HW215300   1.070   0.952   7.391  0.1355  0.5683 -0.5664
 1222SOL     OW15301   3.164   3.292   2.548 -0.4216  0.0576 -0.6191
 1222SOL    HW115302   3.234   3.228   2.560  0.7459  1.7884  1.7892
 1222SOL    HW215303   3.129   3.250   2.469  0.0211 -2.1943  0.3970
 1223SOL     OW15304   1.238   1.650   5.010  0.2593 -0.0402 -0.2453
 1223SOL    HW115305   1.258   1.681   4.921  1.1205 -0.8522 -0.3300
 1223SOL    HW215306   1.257   1.734   5.052  0.4640  0.2490 -0.9039
 1224SOL     OW15307   0.154   0.853   1.216 -0.0055 -0.0929 -0.3975
 1224SOL    HW115308   0.075   0.846   1.270 -0.3196  1.6207 -0.6254
 1224SOL    HW215309   0.195   0.767   1.216 -0.2781 -0.2222  0.7931
 1225SOL     OW15310   2.995   4.357   0.709 -0.7772  0.3898  0.1538
 1225SOL    HW115311   3.083   4.394   0.719 -0.6960  0.4343 -0.7368
 1225SOL    HW215312   2.945   4.398   0.780 -1.7767  0.5800 -0.6605
 1226SOL     OW15313   1.682   3.426   6.329 -0.2547  0.2089  0.1837
 1226SOL    HW115314   1.598   3.438   6.373 -0.3412 -0.1736  0.1247
 1226SOL    HW215315   1.700   3.516   6.304  2.6071 -0.1136  1.1657
 1227SOL     OW15316   1.913   3.490   8.144 -0.0311  0.0080 -0.1028
 1227SOL    HW115317   1.834   3.473   8.196 -0.2821 -0.6030 -0.6872
 1227SOL    HW215318   1.956   3.404   8.141  1.8393  0.8822  1.2038
 1228SOL     OW15319   2.585   1.012  16.964 -0.6835 -0.2839  0.6775
 1228SOL    HW115320   2.512   0.954  16.986 -2.5746  2.4004  1.3095
 1228SOL    HW215321   2.553   1.100  16.980 -1.1497 -0.0316 -1.5732
 1229SOL     OW15322   4.626   3.734  12.917  0.1786 -0.8510  0.4730
 1229SOL    HW115323   4.693   3.776  12.972 -0.3517  0.4123  0.1516
 1229SOL    HW215324   4.545   3.725  12.968 -1.1575 -0.1972 -1.5581
 1230SOL     OW15325   0.729   0.976   5.841  0.3504 -0.0004  0.2213
 1230SOL    HW115326   0.772   1.047   5.794  0.8992  0.1851  0.9924
 1230SOL    HW215327   0.705   1.022   5.922  1.1329  0.0361  0.4286
 1231SOL     OW15328   1.233   3.753   5.589  0.5158 -0.3676  0.6637
 1231SOL    HW115329   1.149   3.744   5.634  0.3871 -0.8044  0.3401
 1231SOL    HW215330   1.259   3.662   5.574 -1.1275 -0.5940 -0.7584
 1232SOL     OW15331   2.872   2.823   6.333  0.1403 -0.7038  0.1854
 1232SOL    HW115332   2.950   2.842   6.281  0.1016 -0.5070  0.2007
 1232SOL    HW215333   2.916   2.760   6.391 -1.2995 -0.7316  1.2709
 1233SOL     OW15334   3.038   2.432   8.783  0.2391  0.1028 -0.3053
 1233SOL    HW115335   2.962   2.489   8.795  2.1276  1.9614  2.8604
 1233SOL    HW215336   3.008   2.347   8.815 -0.2503  0.4947  0.2846
 1234SOL     OW15337   2.896   3.136   1.749 -0.4721 -0.3083 -0.2303
 1234SOL    HW115338   2.991   3.127   1.758 -0.5479  0.8367  1.5132
 1234SOL    HW215339   2.887   3.208   1.687  1.6089  2.2732  2.5221
 1235SOL     OW15340   0.484   4.598  16.389  0.3014  0.1619 -0.4572
 1235SOL    HW115341   0.520   4.630  16.306  1.2561 -2.2173 -0.9682
 1235SOL    HW215342   0.391   4.624  16.388  0.0614 -0.6979 -0.5965
 1236SOL     OW15343   4.321   0.005   4.654 -0.4330  1.0574 -0.4599
 1236SOL    HW115344   4.400   0.035   4.699 -1.6690  2.7965  0.5804
 1236SOL    HW215345   4.347   4.655   4.621  0.7622  0.7801  1.1691
 1237SOL     OW15346   2.336   2.990   5.681 -0.5847  0.0972 -0.1197
 1237SOL    HW115347   2.250   3.032   5.676 -0.5847  0.5355  3.4017
 1237SOL    HW215348   2.377   3.067   5.719 -1.1955  0.2894  0.1557
 1238SOL     OW15349   2.981   3.104  11.821 -0.7419  0.1258 -0.7030
 1238SOL    HW115350   2.938   3.182  11.856  0.6348  0.8983 -0.7110
 1238SOL    HW215351   3.018   3.150  11.745  0.0554  0.3014 -0.2128
 1239SOL     OW15352   2.603   4.170  14.210 -0.0588 -0.7292  0.2122
 1239SOL    HW115353   2.511   4.192  14.225  0.2073  1.1268 -0.9009
 1239SOL    HW215354   2.602   4.212  14.124  0.4501 -0.1827  0.4662
 1240SOL     OW15355   2.798   2.536   4.930  0.3022  0.1665  0.0973
 1240SOL    HW115356   2.706   2.524   4.904  0.6463  0.1210 -1.1072
 1240SOL    HW215357   2.813   2.452   4.973  2.2770 -1.0924 -3.0630
 1241SOL     OW15358   3.535   1.982   5.552 -0.0102 -0.4554  0.4311
 1241SOL    HW115359   3.481   2.020   5.621 -0.5541  3.4411 -2.1428
 1241SOL    HW215360   3.496   2.015   5.471 -0.8108 -3.7830 -0.5572
 1242SOL     OW15361   0.514   2.863   2.760 -0.1045 -0.2242  0.3014
 1242SOL    HW115362   0.459   2.884   2.684  1.2200  1.5402 -0.1701
 1242SOL    HW215363   0.505   2.938   2.819  1.2181  0.9290 -0.9567
 1243SOL     OW15364   0.449   1.206   4.047  0.2281 -0.1378  0.2941
 1243SOL    HW115365   0.379   1.166   4.099 -2.1222  1.4487 -1.6418
 1243SOL    HW215366   0.496   1.132   4.008 -1.7915 -2.0568  1.4715
 1244SOL     OW15367   4.089   0.527   1.494  0.2421 -0.1829 -0.2716
 1244SOL    HW115368   4.141   0.544   1.573 -0.2821 -2.9467  0.6619
 1244SOL    HW215369   4.008   0.497   1.536  0.5362 -0.1509  0.3239
 1245SOL     OW15370   3.638   2.151   3.889  0.0732  0.0091  0.1041
 1245SOL    HW115371   3.716   2.126   3.839 -0.3922 -0.4171 -0.4025
 1245SOL    HW215372   3.609   2.067   3.924  1.0454  0.0817  1.1200
 1246SOL     OW15373   0.201   4.308  16.352 -0.1392 -0.5286 -0.0728
 1246SOL    HW115374   0.200   4.313  16.256 -0.0282  0.1894 -0.0343
 1246SOL    HW215375   0.278   4.252  16.352  0.4543  0.3015  0.7643
 1247SOL     OW15376   4.717   2.356   3.565  0.5003 -0.0305 -0.6951
 1247SOL    HW115377   4.638   2.411   3.567  0.5407 -0.0618  2.3864
 1247SOL    HW215378   4.699   2.307   3.485 -1.8557 -0.0651 -0.1626
 1248SOL     OW15379   0.570   3.817  15.968  0.3639 -0.1410 -0.4230
 1248SOL    HW115380   0.553   3.751  15.901 -3.1682 -0.1263  0.4268
 1248SOL    HW215381   0.665   3.826  15.962  0.4937 -0.6521  0.8114
 1249SOL     OW15382   2.201   4.179  10.864 -0.6214  0.1994 -0.0487
 1249SOL    HW115383   2.244   4.264  10.877  0.0999 -0.6043  2.7292
 1249SOL    HW215384   2.119   4.203  10.821 -1.5021 -0.0133  1.4950
 1250SOL     OW15385   1.953   4.105  16.049 -0.6710 -0.3208  0.6072
 1250SOL    HW115386   1.916   4.145  16.127 -0.4393 -0.7160  0.9142
 1250SOL    HW215387   1.907   4.160  15.985  0.1786 -1.3927 -0.9464
 1251SOL     OW15388   2.691   2.308   5.285  0.1975  0.2044  0.1096
 1251SOL    HW115389   2.743   2.289   5.364  3.4246  0.7781 -1.8610
 1251SOL    HW215390   2.655   2.223   5.262 -1.4826  0.8720  0.3046
 1252SOL     OW15391   2.068   3.105  10.756 -0.2592 -0.1782 -0.1921
 1252SOL    HW115392   2.046   3.011  10.756 -0.6580 -0.0870  0.7426
 1252SOL    HW215393   2.141   3.093  10.816 -0.4329  2.5465  0.5449
 1253SOL     OW15394   1.804   3.915  13.388 -0.3501 -0.1868  0.3822
 1253SOL    HW115395   1.844   3.971  13.322  1.7550  2.0276  3.4936
 1253SOL    HW215396   1.753   3.865  13.325 -1.5254  1.4562  0.0274
 1254SOL     OW15397   2.583   2.843   7.365 -0.3314  0.4063 -0.2197
 1254SOL    HW115398   2.590   2.938   7.355  0.5895  0.4094  0.5073
 1254SOL    HW215399   2.571   2.834   7.459  2.7316  1.5224  0.2568
 1255SOL     OW15400   1.926   1.075  10.817 -0.2670 -0.3208 -0.2603
 1255SOL    HW115401   1.881   0.991  10.814  0.6909 -0.8156 -0.8164
 1255SOL    HW215402   2.016   1.047  10.833 -0.5369 -0.4172  1.0618
 1256SOL     OW15403   3.735   3.592  17.152 -0.4572 -0.1991  0.4112
 1256SOL    HW115404   3.773   3.680  17.159  0.3367 -0.4737 -0.4329
 1256SOL    HW215405   3.803   3.535  17.189 -0.8300  0.7421  2.5328
 1257SOL     OW15406   0.010   1.295  10.067  0.6998  0.1914  0.4153
 1257SOL    HW115407   4.718   1.309   9.976 -0.1303  1.9775  0.9351
 1257SOL    HW215408   4.672   1.328  10.121 -1.0216 -0.5505 -1.4468
 1258SOL     OW15409   3.329   4.665   3.413 -0.1433  0.2202  0.9344
 1258SOL    HW115410   3.249   4.683   3.362  0.9457 -0.4938 -1.0349
 1258SOL    HW215411   3.405   4.702   3.368  0.4343 -2.1976 -0.0879
 1259SOL     OW15412   0.159   1.118   8.566  1.1077  0.2586  0.5145
 1259SOL    HW115413   0.188   1.136   8.477 -1.4716 -1.4755 -0.6358
 1259SOL    HW215414   0.154   1.023   8.574 -0.1908  0.3086  0.1217
 1260SOL     OW15415   1.068   1.870   5.325  0.1095 -0.2414 -0.6445
 1260SOL    HW115416   1.105   1.906   5.244  0.5810 -0.3190 -0.4653
 1260SOL    HW215417   1.086   1.777   5.314 -2.4686 -0.8661  0.5272
 1261SOL     OW15418   1.209   3.920   2.253  0.0818 -0.1459 -0.4019
 1261SOL    HW115419   1.114   3.931   2.249 -0.3043 -2.7941  1.7616
 1261SOL    HW215420   1.218   3.904   2.347 -2.0092 -1.3307 -0.3965
 1262SOL     OW15421   3.912   1.193   0.092 -0.0387  0.0158 -0.1105
 1262SOL    HW115422   3.992   1.151   0.058 -0.1160 -2.2370  2.4646
 1262SOL    HW215423   3.857   1.185   0.014  0.5014  0.8605 -0.5845
 1263SOL     OW15424   1.913   1.240   0.563  0.4294 -0.2470 -0.4513
 1263SOL    HW115425   1.887   1.258   0.473 -2.6890  3.6021  1.1880
 1263SOL    HW215426   1.915   1.330   0.596  1.7718 -0.4438  0.0118
 1264SOL     OW15427   1.008   0.985   2.996 -0.0069 -0.2301 -0.4685
 1264SOL    HW115428   1.007   0.891   2.982  0.1578  0.1191 -2.8851
 1264SOL    HW215429   1.012   1.025   2.908 -0.0773 -1.0761 -0.8570
 1265SOL     OW15430   3.594   3.086   8.899  0.0623 -0.1341 -0.2874
 1265SOL    HW115431   3.687   3.108   8.891  0.3783 -1.9060 -1.4090
 1265SOL    HW215432   3.568   3.139   8.974  0.1498  1.0244 -1.0667
 1266SOL     OW15433   3.891   0.098  11.476 -0.0447  0.5373  0.5408
 1266SOL    HW115434   3.936   0.036  11.533  1.7382 -0.3533 -1.8287
 1266SOL    HW215435   3.952   0.126  11.407 -1.1948 -1.1541 -1.1457
 1267SOL     OW15436   0.449   2.331   3.047 -0.0817  0.3196  0.0719
 1267SOL    HW115437   0.366   2.368   3.015  0.4881 -0.2930 -2.1286
 1267SOL    HW215438   0.471   2.306   2.957 -0.3452  2.7275 -0.6624
 1268SOL     OW15439   2.667   3.903  11.136 -0.1613  1.1272  0.1844
 1268SOL    HW115440   2.640   3.875  11.223  1.7249 -2.6608 -0.4477
 1268SOL    HW215441   2.718   3.983  11.150  2.4817 -0.5228  0.0825
 1269SOL     OW15442   2.309   1.368   3.706  0.2480  0.4366 -0.3415
 1269SOL    HW115443   2.233   1.379   3.763  0.0465  1.9311 -0.8936
 1269SOL    HW215444   2.289   1.286   3.659  2.7881 -0.1259 -0.4026
 1270SOL     OW15445   2.387   2.099   9.575 -0.1720  0.3704  0.4104
 1270SOL    HW115446   2.355   2.173   9.524  1.2538 -0.1575 -1.2382
 1270SOL    HW215447   2.432   2.140   9.650 -1.1861 -1.6003  2.0805
 1271SOL     OW15448   3.812   0.712   5.339 -0.3186 -0.3442 -0.7787
 1271SOL    HW115449   3.784   0.728   5.249  1.5773  2.1305 -0.9216
 1271SOL    HW215450   3.730   0.684   5.380  0.5123 -2.5137 -0.5359
 1272SOL     OW15451   3.645   3.900   5.007  0.5771  0.0429  0.2276
 1272SOL    HW115452   3.620   3.987   4.974  2.5522  1.2460  1.9283
 1272SOL    HW215453   3.716   3.926   5.065  1.2058 -0.0899 -0.4704
 1273SOL     OW15454   1.765   4.274  16.254  0.7871 -0.1612  0.3907
 1273SOL    HW115455   1.681   4.248  16.291 -0.8947  0.1606 -3.1576
 1273SOL    HW215456   1.749   4.368  16.247 -1.2402 -0.5727 -0.5075
 1274SOL     OW15457   1.194   2.175   5.332 -0.1794  0.2665  0.0224
 1274SOL    HW115458   1.106   2.143   5.314  0.3201 -0.5834 -0.9027
 1274SOL    HW215459   1.191   2.266   5.302 -0.0534  0.9465  2.0725
 1275SOL     OW15460   2.780   3.169   1.998  0.4786 -0.4419  0.3364
 1275SOL    HW115461   2.840   3.178   1.924 -0.3253  0.1240 -0.2531
 1275SOL    HW215462   2.741   3.256   1.989  1.8968  0.2883  1.2486
 1276SOL     OW15463   2.869   2.174   3.102  0.0240  0.0798  0.2849
 1276SOL    HW115464   2.831   2.168   3.190 -0.1818  1.9486  0.3209
 1276SOL    HW215465   2.829   2.103   3.051 -0.4856 -0.5440  1.5404
 1277SOL     OW15466   2.509   1.257  17.001 -0.4411 -0.0352  0.8303
 1277SOL    HW115467   2.492   1.337  17.050 -0.3661  1.0026 -0.8484
 1277SOL    HW215468   2.439   1.263  16.936  0.8021 -0.2238 -0.5466
 1278SOL     OW15469   1.334   2.551   3.509  0.1733  0.3616 -0.2852
 1278SOL    HW115470   1.261   2.597   3.550 -0.7623  0.0852 -1.6719
 1278SOL    HW215471   1.304   2.537   3.419 -0.1296  3.0539 -0.6227
 1279SOL     OW15472   3.825   3.922   2.821  0.2138  0.0063  0.2996
 1279SOL    HW115473   3.742   3.898   2.863  1.9518 -1.3743  2.9172
 1279SOL    HW215474   3.850   3.836   2.786 -1.4750  0.1619 -1.2894
 1280SOL     OW15475   0.824   1.005   0.052  0.0070  0.0059 -0.5112
 1280SOL    HW115476   0.911   1.019   0.089  0.3235 -1.7265 -0.5999
 1280SOL    HW215477   0.793   0.918   0.078 -0.2222  0.6617  1.4020
 1281SOL     OW15478   0.207   0.671   8.406  0.4989 -0.3459 -0.6641
 1281SOL    HW115479   0.182   0.582   8.384  1.6983 -0.9004  0.2628
 1281SOL    HW215480   0.213   0.665   8.501 -1.2216 -2.3222 -0.7048
 1282SOL     OW15481   4.609   2.680   0.902  0.3447 -0.4132 -0.0355
 1282SOL    HW115482   4.697   2.704   0.872  0.3337 -0.8065 -0.3729
 1282SOL    HW215483   4.548   2.710   0.835 -0.4228 -2.4437 -0.2276
 1283SOL     OW15484   2.777   0.089   7.964  0.4428 -0.1349 -0.1405
 1283SOL    HW115485   2.841   0.045   8.021 -0.0610  0.6563  1.0333
 1283SOL    HW215486   2.712   0.020   7.962  0.5327 -0.2092 -0.4835
 1284SOL     OW15487   1.273   3.956   5.395  0.7459  0.3874 -0.5905
 1284SOL    HW115488   1.241   3.899   5.465 -1.5899  1.3515 -0.8737
 1284SOL    HW215489   1.273   3.895   5.322 -0.4860 -1.1939  0.7276
 1285SOL     OW15490   0.067   4.168   9.973 -0.1061 -0.4346  0.2848
 1285SOL    HW115491   0.042   4.078   9.989 -0.2276 -0.5378 -0.4490
 1285SOL    HW215492   4.717   4.213   9.973  0.8935  1.5197 -3.0602
 1286SOL     OW15493   0.545   2.648   3.494 -0.3534 -0.2780  0.1326
 1286SOL    HW115494   0.549   2.589   3.419 -0.6508 -0.9685  0.6677
 1286SOL    HW215495   0.640   2.665   3.499 -0.8803  3.0276 -0.9960
 1287SOL     OW15496   4.521   2.819   3.649  0.4775  0.2060 -0.2543
 1287SOL    HW115497   4.548   2.870   3.725  2.0313  1.2087 -1.4791
 1287SOL    HW215498   4.427   2.826   3.664  0.7992 -1.1935  2.3539
 1288SOL     OW15499   2.551   1.635   1.664  0.4343  0.0442  0.0442
 1288SOL    HW115500   2.529   1.712   1.611 -0.2038 -0.8400 -0.9788
 1288SOL    HW215501   2.516   1.653   1.751  0.0106 -2.7086  0.4574
 1289SOL     OW15502   2.119   2.466   2.544  0.1562  0.2347  0.0247
 1289SOL    HW115503   2.169   2.412   2.605  0.0536  0.4072  0.2612
 1289SOL    HW215504   2.179   2.538   2.522 -0.1865 -0.1584 -2.2274
 1290SOL     OW15505   3.016   2.494  10.085 -0.0791  0.1131 -0.3186
 1290SOL    HW115506   3.000   2.560  10.152 -0.0796  0.0075 -0.2144
 1290SOL    HW215507   3.025   2.407  10.126  3.3998  0.0443 -1.2034
 1291SOL     OW15508   0.094   0.407   8.424  0.0446  0.1477  0.3495
 1291SOL    HW115509   0.000   0.428   8.428 -0.3238 -1.3160 -0.6034
 1291SOL    HW215510   0.087   0.314   8.405 -1.7983  0.1373  1.0282
 1292SOL     OW15511   1.831   3.217   5.134 -0.3311  0.3353 -0.2123
 1292SOL    HW115512   1.863   3.301   5.099 -0.9994  0.3202 -0.8530
 1292SOL    HW215513   1.862   3.164   5.061 -1.5071 -3.8687  2.3557
 1293SOL     OW15514   2.239   4.403  13.938 -0.3854 -0.1050 -0.1455
 1293SOL    HW115515   2.300   4.329  13.937  0.0920  0.2984 -0.2681
 1293SOL    HW215516   2.164   4.358  13.978 -1.2670 -0.1376 -1.8327
 1294SOL     OW15517   3.700   0.719  14.205 -0.3548  0.0966  0.1538
 1294SOL    HW115518   3.683   0.781  14.276  0.5738 -0.4906  0.8923
 1294SOL    HW215519   3.759   0.658  14.250  1.5014  1.9776  0.2672
 1295SOL     OW15520   4.235   4.424  13.532 -0.2368  0.2809  0.7020
 1295SOL    HW115521   4.216   4.333  13.552 -0.4205  0.6139  2.0762
 1295SOL    HW215522   4.273   4.417  13.444  2.1262 -1.1992  1.8313
 1296SOL     OW15523   4.401   4.419   3.500 -0.0239  0.4462  0.2211
 1296SOL    HW115524   4.355   4.446   3.579  0.2541  0.1326  0.4865
 1296SOL    HW215525   4.459   4.355   3.541 -1.6605 -1.6338 -0.6891
 1297SOL     OW15526   3.417   1.160   4.764  0.0339  0.8236 -0.2990
 1297SOL    HW115527   3.499   1.129   4.802  0.3847 -0.1152 -1.8022
 1297SOL    HW215528   3.449   1.230   4.707 -2.2924  2.2396  0.1249
 1298SOL     OW15529   3.462   2.725   8.334 -0.0102  0.1798  0.2268
 1298SOL    HW115530   3.386   2.738   8.389 -1.0034 -0.4643 -0.9863
 1298SOL    HW215531   3.441   2.793   8.269 -0.4964 -1.4596 -1.3149
 1299SOL     OW15532   3.198   2.538  10.457  0.4264  0.1658 -0.1581
 1299SOL    HW115533   3.186   2.451  10.495 -2.9085 -0.4334 -2.6531
 1299SOL    HW215534   3.250   2.592  10.518  2.0340  0.9835 -2.2628
 1300SOL     OW15535   0.377   2.752   2.325  0.6972  0.2431 -0.1115
 1300SOL    HW115536   0.446   2.814   2.303 -0.5477  0.0130 -4.5881
 1300SOL    HW215537   0.324   2.756   2.246 -2.4656  0.0197  1.9870
 1301SOL     OW15538   1.715   3.404   8.985 -0.0052  0.7548 -0.0211
 1301SOL    HW115539   1.754   3.317   8.985 -2.0224 -0.1484 -3.3369
 1301SOL    HW215540   1.780   3.449   9.040  1.7513 -1.5640 -0.2172
 1302SOL     OW15541   4.025   3.285   8.537 -0.1572  0.3314 -0.3749
 1302SOL    HW115542   4.042   3.253   8.626 -0.7412 -0.0665 -0.3996
 1302SOL    HW215543   4.108   3.331   8.530 -1.2951  2.2398 -1.5475
 1303SOL     OW15544   2.454   1.959   2.505  0.2209 -0.2103  0.7681
 1303SOL    HW115545   2.532   1.903   2.501  0.5421  0.3973 -1.5017
 1303SOL    HW215546   2.442   1.955   2.600 -0.7057  0.4615  0.6837
 1304SOL     OW15547   1.496   1.563  10.962  0.3268  0.2039 -0.2517
 1304SOL    HW115548   1.474   1.470  10.955  0.1339  0.1943  0.4615
 1304SOL    HW215549   1.417   1.608  10.931 -1.2195 -1.0022  1.9083
 1305SOL     OW15550   1.063   3.480   2.606 -0.2425  0.4320 -1.0103
 1305SOL    HW115551   1.060   3.481   2.701  1.7330  1.0906 -0.9499
 1305SOL    HW215552   1.081   3.389   2.585  0.0198  0.0869  0.7509
 1306SOL     OW15553   3.188   3.872   9.658  0.1121 -0.3164  0.2900
 1306SOL    HW115554   3.176   3.804   9.725  0.1936 -0.5613  0.0537
 1306SOL    HW215555   3.240   3.832   9.588  0.2092  1.9689 -0.9322
 1307SOL     OW15556   1.887   0.891   8.691 -0.3282  0.5233  0.2339
 1307SOL    HW115557   1.847   0.819   8.741 -2.7411 -0.4330 -3.0931
 1307SOL    HW215558   1.957   0.922   8.749  0.4223 -0.4776 -0.1432
 1308SOL     OW15559   4.381   3.754  15.930 -0.1986 -0.0374 -0.7842
 1308SOL    HW115560   4.349   3.717  15.848 -1.7068 -2.6562  1.0048
 1308SOL    HW215561   4.308   3.797  15.973  0.8878  1.3041 -0.2619
 1309SOL     OW15562   2.119   4.535  17.604 -0.1480 -0.0095  0.3651
 1309SOL    HW115563   2.117   4.445  17.637  0.3288 -0.9420 -2.1187
 1309SOL    HW215564   2.131   4.580  17.687  0.7330  0.5380 -0.0605
 1310SOL     OW15565   4.646   1.678   5.478  0.0007 -0.7576 -0.0321
 1310SOL    HW115566   4.582   1.698   5.410  0.5348  0.1786 -0.2689
 1310SOL    HW215567   4.583   1.661   5.547 -0.6469  0.2502 -0.3779
 1311SOL     OW15568   4.503   2.496  13.848  0.6565  0.0261 -0.5625
 1311SOL    HW115569   4.461   2.577  13.875 -1.9288 -0.7919 -2.1606
 1311SOL    HW215570   4.581   2.498  13.904  1.3283 -1.0859 -1.4550
 1312SOL     OW15571   3.953   4.620   9.997  0.2999  0.0280  0.2540
 1312SOL    HW115572   3.958   4.708  10.035  1.8790  0.0817 -0.0757
 1312SOL    HW215573   4.033   4.618   9.946  0.6997  2.8863  0.7704
 1313SOL     OW15574   1.650   1.761   5.507 -0.0313  0.7231  0.1436
 1313SOL    HW115575   1.656   1.790   5.416  0.9416 -0.5392 -0.1912
 1313SOL    HW215576   1.558   1.778   5.529  0.3827 -0.1214  2.4797
 1314SOL     OW15577   2.621   3.737   4.933  0.4893  0.2949  0.1692
 1314SOL    HW115578   2.618   3.643   4.954  0.4925  0.6943  1.9983
 1314SOL    HW215579   2.660   3.731   4.846 -1.0803 -0.6096 -0.4696
 1315SOL     OW15580   4.007   0.934  16.831  0.2499  0.6328  0.0322
 1315SOL    HW115581   3.981   1.001  16.769  2.1305  0.1406 -1.3177
 1315SOL    HW215582   4.091   0.977  16.846  0.6749 -0.5103  0.9812
 1316SOL     OW15583   2.692   1.456  16.146 -0.1510 -0.2932 -0.0731
 1316SOL    HW115584   2.598   1.467  16.161  0.1423 -0.3632  1.8179
 1316SOL    HW215585   2.706   1.516  16.073 -2.7152  3.2277  2.3638
 1317SOL     OW15586   4.466   0.445   7.773  0.6505 -0.1353 -0.1656
 1317SOL    HW115587   4.428   0.372   7.723  1.1074 -1.2203  1.0837
 1317SOL    HW215588   4.558   0.421   7.772  0.7685  0.3450 -0.4945
 1318SOL     OW15589   0.949   4.370   8.868 -0.7130  0.3468  0.0218
 1318SOL    HW115590   0.963   4.291   8.816 -5.5754 -1.5813  1.6812
 1318SOL    HW215591   0.860   4.394   8.841 -0.1545 -0.0739 -2.1646
 1319SOL     OW15592   1.387   0.942   8.879 -0.4195  0.7685  0.4070
 1319SOL    HW115593   1.474   0.975   8.857  0.0150  0.1940  1.2689
 1319SOL    HW215594   1.383   0.863   8.825 -0.2853 -0.2391  1.8628
 1320SOL     OW15595   3.625   0.122   7.676 -0.2704  0.1731  0.2021
 1320SOL    HW115596   3.700   0.091   7.728  1.3273  0.9122 -1.6511
 1320SOL    HW215597   3.590   0.189   7.736  3.1127  3.4891 -1.4958
 1321SOL     OW15598   2.005   3.462   9.907 -0.0866 -0.1351 -0.1389
 1321SOL    HW115599   1.957   3.411   9.842 -1.2025 -2.7471  2.7126
 1321SOL    HW215600   2.032   3.387   9.961 -0.3866 -0.2339 -0.1284
 1322SOL     OW15601   2.603   0.255   2.488 -0.2671  0.4060  0.2851
 1322SOL    HW115602   2.520   0.211   2.472 -1.2049  2.7999 -1.4611
 1322SOL    HW215603   2.580   0.326   2.428 -0.0977 -0.5103 -0.8814
 1323SOL     OW15604   0.263   2.006   5.507 -0.1791  0.2263  0.0870
 1323SOL    HW115605   0.258   1.926   5.455 -1.6839  0.4534 -0.0994
 1323SOL    HW215606   0.266   1.976   5.598 -0.9697  0.5114  0.2033
 1324SOL     OW15607   2.532   3.122   5.486 -0.4213 -0.7361 -0.4812
 1324SOL    HW115608   2.539   3.124   5.582  2.6865  0.2986 -0.7342
 1324SOL    HW215609   2.625   3.125   5.465 -0.7069 -0.9705 -1.7853
 1325SOL     OW15610   2.659   1.176  14.120  0.4640  0.1704 -0.3571
 1325SOL    HW115611   2.735   1.159  14.174 -0.4549  0.6978  1.1010
 1325SOL    HW215612   2.641   1.084  14.101  1.3503 -0.1863  0.5783
 1326SOL     OW15613   0.497   0.396   1.582 -0.0365 -0.3878 -0.4502
 1326SOL    HW115614   0.415   0.350   1.599  0.1867 -0.8524 -0.6322
 1326SOL    HW215615   0.564   0.328   1.584  0.5569  0.2824  2.9424
 1327SOL     OW15616   0.611   0.832  13.601 -0.4619  0.0940 -0.0707
 1327SOL    HW115617   0.522   0.818  13.566 -0.9734 -0.1264  1.3258
 1327SOL    HW215618   0.604   0.794  13.688  0.6697 -0.0240 -0.0410
 1328SOL     OW15619   0.883   0.076  10.032 -0.0943 -0.2551 -0.1015
 1328SOL    HW115620   0.869   0.031  10.116 -0.8997  1.0174  0.4644
 1328SOL    HW215621   0.813   0.036   9.980 -0.9996 -0.2195  1.0886
 1329SOL     OW15622   1.674   3.183   3.821 -0.1360 -0.4165 -0.6705
 1329SOL    HW115623   1.678   3.219   3.733 -0.4038  2.0115  0.3054
 1329SOL    HW215624   1.690   3.262   3.872  1.4583 -1.6710  0.8369
 1330SOL     OW15625   1.031   4.011   4.318 -0.4189  0.1284 -0.5275
 1330SOL    HW115626   1.111   4.018   4.371  0.6537 -2.5551 -1.7733
 1330SOL    HW215627   1.042   4.073   4.246  0.8607  0.4294 -0.0804
 1331SOL     OW15628   2.621   2.128   8.067 -0.3957  0.5660  0.3889
 1331SOL    HW115629   2.614   2.144   7.973 -1.5651 -2.1918  0.0188
 1331SOL    HW215630   2.696   2.070   8.078  0.5150  1.0783 -2.9138
 1332SOL     OW15631   0.155   3.249   1.658 -0.5305 -0.1565 -0.0152
 1332SOL    HW115632   0.092   3.237   1.729  0.1139 -1.3926  0.3477
 1332SOL    HW215633   0.108   3.206   1.586 -0.6985 -1.3371  0.7957
 1333SOL     OW15634   0.571   4.426   2.847 -0.3177  0.5581  0.1072
 1333SOL    HW115635   0.581   4.486   2.774 -0.1468  1.3141  0.7484
 1333SOL    HW215636   0.663   4.435   2.870 -0.0086 -2.6312  0.1169
 1334SOL     OW15637   2.773   3.364  16.484 -0.3770  0.1871  0.1973
 1334SOL    HW115638   2.708   3.422  16.445  0.5901  1.2173  0.0919
 1334SOL    HW215639   2.731   3.334  16.564  0.8229  2.1585  1.5953
 1335SOL     OW15640   4.450   3.318   3.853  0.2256 -0.0433 -0.4131
 1335SOL    HW115641   4.388   3.391   3.861 -0.0792 -0.2101 -1.2616
 1335SOL    HW215642   4.454   3.290   3.944 -2.5967  2.7524  0.5474
 1336SOL     OW15643   3.996   3.550   4.504 -0.0378  0.0302  0.5169
 1336SOL    HW115644   3.936   3.480   4.527  0.7008 -0.6622  0.3280
 1336SOL    HW215645   3.935   3.617   4.472  0.9916  0.6677 -0.1237
 1337SOL     OW15646   1.211   0.023   3.736 -0.6348 -0.3623 -0.3938
 1337SOL    HW115647   1.135   0.004   3.790 -1.9434 -1.6414 -2.6986
 1337SOL    HW215648   1.273   0.036   3.808  1.0602 -0.1139 -1.8888
 1338SOL     OW15649   2.816   0.608  10.238 -0.4091 -0.2234 -0.0360
 1338SOL    HW115650   2.867   0.625  10.159  1.4398 -2.8541  0.5976
 1338SOL    HW215651   2.787   0.696  10.261 -2.7790 -0.4452 -2.2103
 1339SOL     OW15652   0.993   2.594   4.820 -0.7925  0.1561 -0.0327
 1339SOL    HW115653   1.048   2.520   4.845 -1.9183 -1.3888 -2.0654
 1339SOL    HW215654   0.939   2.558   4.749 -0.4785 -0.6989  0.1613
 1340SOL     OW15655   2.993   4.569   2.564  0.2105  0.1251  0.0204
 1340SOL    HW115656   2.987   4.551   2.657  1.4628 -2.3115 -0.3600
 1340SOL    HW215657   2.970   4.661   2.548 -1.2343 -0.3112 -0.5118
 1341SOL     OW15658   3.681   2.435   7.784 -0.0116 -0.7107 -0.3089
 1341SOL    HW115659   3.624   2.381   7.729  1.3564 -2.2118 -0.2599
 1341SOL    HW215660   3.613   2.484   7.830 -1.3627 -0.9851 -2.0349
 1342SOL     OW15661   4.614   3.024   7.839 -0.3359  0.6035 -0.5419
 1342SOL    HW115662   4.660   2.967   7.777 -0.7769  0.3446 -0.6266
 1342SOL    HW215663   4.524   2.992   7.836 -0.0324 -0.0580 -3.3666
 1343SOL     OW15664   1.296   3.014  13.541 -0.3144 -0.1438  0.3396
 1343SOL    HW115665   1.370   3.068  13.515 -1.8999  1.5557 -0.6655
 1343SOL    HW215666   1.339   2.987  13.622  3.2223  0.9930 -1.1455
 1344SOL     OW15667   4.248   2.294   8.582 -0.4916 -0.3552  0.3713
 1344SOL    HW115668   4.277   2.305   8.492 -1.7425  3.0978  0.3939
 1344SOL    HW215669   4.161   2.256   8.570  0.7424 -2.6318 -1.2184
 1345SOL     OW15670   4.035   1.146  10.251 -0.2300 -0.0020  0.4910
 1345SOL    HW115671   4.117   1.184  10.282 -0.3416  1.5615 -1.1453
 1345SOL    HW215672   4.054   1.131  10.159  1.2337 -0.6926  0.8976
 1346SOL     OW15673   0.686   1.079   2.347  0.1975 -0.4153 -0.4672
 1346SOL    HW115674   0.615   1.051   2.404  0.2003 -0.7993 -0.6529
 1346SOL    HW215675   0.647   1.050   2.265 -0.4231 -0.0829 -0.2923
 1347SOL     OW15676   0.391   4.506  13.315 -0.3487 -0.2654  0.1041
 1347SOL    HW115677   0.308   4.551  13.299 -1.0101 -1.6464 -0.3340
 1347SOL    HW215678   0.414   4.529  13.404  1.2529  1.1672 -0.6794
 1348SOL     OW15679   0.077   4.260   7.655 -0.4416 -0.2288 -0.5493
 1348SOL    HW115680   4.730   4.232   7.614 -2.4624  0.5632  2.9761
 1348SOL    HW215681   0.043   4.301   7.734 -0.7063 -0.0269 -0.7674
 1349SOL     OW15682   0.591   3.021   4.491 -0.6206  0.1482 -0.1237
 1349SOL    HW115683   0.632   2.940   4.520 -1.6229  0.0110  0.8763
 1349SOL    HW215684   0.615   3.080   4.563  0.0652  1.7100 -1.6134
 1350SOL     OW15685   3.109   4.183   4.219 -0.7405  0.8111  0.3138
 1350SOL    HW115686   3.103   4.265   4.267  0.1529  1.9158 -1.4489
 1350SOL    HW215687   3.181   4.204   4.160 -0.9797 -0.1625 -0.3356
 1351SOL     OW15688   3.351   4.339   1.486  0.3005  0.1311 -0.4309
 1351SOL    HW115689   3.372   4.306   1.573 -0.2166  0.1645 -0.2983
 1351SOL    HW215690   3.432   4.325   1.436  0.3269  1.0261 -0.6481
 1352SOL     OW15691   0.416   4.354   2.263  0.9972 -0.4679 -0.1658
 1352SOL    HW115692   0.458   4.284   2.214  1.1072  0.3491 -1.2235
 1352SOL    HW215693   0.374   4.300   2.331  2.7880  1.3099  2.3631
 1353SOL     OW15694   0.850   2.233   2.307  0.1496 -0.6153  0.4613
 1353SOL    HW115695   0.893   2.187   2.234  2.4320 -0.5687  1.7698
 1353SOL    HW215696   0.923   2.289   2.332  0.0367 -0.9338  1.5156
 1354SOL     OW15697   3.317   4.180   8.814  0.3856 -0.2047  0.0660
 1354SOL    HW115698   3.310   4.273   8.793  0.6845 -0.0539  0.6485
 1354SOL    HW215699   3.407   4.181   8.847  0.6606 -0.0576 -0.6878
 1355SOL     OW15700   4.567   1.761  10.467 -0.4724  0.6259 -0.5798
 1355SOL    HW115701   4.492   1.811  10.434 -2.9974 -2.8807 -0.2163
 1355SOL    HW215702   4.625   1.822  10.511  0.3886 -0.1878 -0.5772
 1356SOL     OW15703   0.483   4.197   3.721  0.6816 -0.1890 -0.4459
 1356SOL    HW115704   0.433   4.272   3.753 -0.3642 -0.7741 -0.7171
 1356SOL    HW215705   0.514   4.222   3.634  3.7725  2.4607  1.4310
 1357SOL     OW15706   3.322   2.357   9.852 -0.1332 -0.3606  0.1610
 1357SOL    HW115707   3.331   2.433   9.910 -0.4692 -0.2572  0.0758
 1357SOL    HW215708   3.274   2.401   9.782  1.5270 -0.5028 -1.0357
 1358SOL     OW15709   2.063   0.174   9.231  0.3943 -0.6313  0.0104
 1358SOL    HW115710   2.010   0.191   9.309  0.9787 -0.1301  0.2985
 1358SOL    HW215711   2.115   0.099   9.261  0.7797 -0.5278 -0.4166
 1359SOL     OW15712   3.333   1.997  10.992 -0.0855 -0.2130  0.0052
 1359SOL    HW115713   3.413   2.046  11.013 -1.1160  1.5199 -0.1515
 1359SOL    HW215714   3.288   1.995  11.077  0.4028  1.5955  0.2948
 1360SOL     OW15715   1.505   3.299   2.648 -0.7736 -0.2726  0.4541
 1360SOL    HW115716   1.545   3.311   2.562  0.6146  0.7039  1.2397
 1360SOL    HW215717   1.574   3.260   2.702  1.4542  2.4090 -0.4891
 1361SOL     OW15718   3.884   1.909   7.637 -1.2416 -0.4205  0.9279
 1361SOL    HW115719   3.886   1.981   7.701  0.1342  0.5035 -0.1354
 1361SOL    HW215720   3.865   1.831   7.689 -0.4015 -0.8759  0.5540
 1362SOL     OW15721   3.648   3.344   3.209  0.3601 -0.1837 -0.4075
 1362SOL    HW115722   3.736   3.364   3.240 -0.7671  1.5856  1.6577
 1362SOL    HW215723   3.637   3.252   3.233 -0.2964  0.5010  1.9064
 1363SOL     OW15724   4.406   1.009   2.419  0.0569 -0.9445  0.0270
 1363SOL    HW115725   4.482   0.951   2.422 -0.1906 -1.3045 -0.6155
 1363SOL    HW215726   4.437   1.099   2.426  0.5114 -1.3775  3.4240
 1364SOL     OW15727   3.299   4.370  14.569  0.0082  0.2983  0.2138
 1364SOL    HW115728   3.315   4.383  14.475 -3.5401  1.4746 -0.2082
 1364SOL    HW215729   3.231   4.305  14.553  0.9176 -0.1613 -1.8503
 1365SOL     OW15730   1.848   3.642   4.208 -0.0897  0.2664  0.7755
 1365SOL    HW115731   1.888   3.564   4.169 -1.5648 -0.3175  0.3973
 1365SOL    HW215732   1.772   3.593   4.241 -0.5819  0.2737 -0.3256
 1366SOL     OW15733   2.926   0.859  13.392  0.2337 -0.2292  0.2845
 1366SOL    HW115734   2.887   0.817  13.315  2.0297  1.2046 -1.4157
 1366SOL    HW215735   2.866   0.865  13.466 -0.1475 -1.5996  0.0829
 1367SOL     OW15736   3.331   0.045   7.139  0.2478  0.1362  0.1640
 1367SOL    HW115737   3.292   4.725   7.208 -1.0134  1.2675  0.3558
 1367SOL    HW215738   3.262   0.084   7.086  1.9844  0.4053 -1.8723
 1368SOL     OW15739   3.289   1.692  13.551  0.1783  0.4955 -0.0019
 1368SOL    HW115740   3.225   1.642  13.500  1.1569 -1.9962  1.2480
 1368SOL    HW215741   3.295   1.647  13.635 -0.1421  2.0855  0.8829
 1369SOL     OW15742   2.753   4.217   6.320 -0.2749  0.4377  0.3593
 1369SOL    HW115743   2.744   4.143   6.259 -0.3031  0.9140 -0.2231
 1369SOL    HW215744   2.762   4.172   6.403  0.8247  1.4966  0.8150
 1370SOL     OW15745   2.564   2.149   3.039 -0.4577  0.0586 -0.4293
 1370SOL    HW115746   2.534   2.061   3.061 -0.8940  1.4080  4.2514
 1370SOL    HW215747   2.623   2.133   2.966 -0.8095 -0.3638 -0.6185
 1371SOL     OW15748   0.061   1.461   2.380  0.3092  0.0768 -0.5212
 1371SOL    HW115749   0.011   1.399   2.327  0.9673 -1.4192  0.6105
 1371SOL    HW215750   4.731   1.490   2.444 -0.4489  0.2379 -1.3490
 1372SOL     OW15751   1.813   1.967   2.576 -1.1688  0.0910 -0.0823
 1372SOL    HW115752   1.797   1.873   2.565  2.4985 -0.5225 -0.0385
 1372SOL    HW215753   1.884   1.984   2.514  0.3856  0.3897  1.8035
 1373SOL     OW15754   1.212   1.066   3.660  0.2931  0.2272  0.1393
 1373SOL    HW115755   1.223   1.020   3.576 -0.8953  1.4152 -0.6714
 1373SOL    HW215756   1.126   1.032   3.683  1.6770 -1.6587  2.4990
 1374SOL     OW15757   0.710   3.183   3.343  0.6962  0.1862  0.0518
 1374SOL    HW115758   0.780   3.120   3.325 -2.2678 -2.5983 -1.5235
 1374SOL    HW215759   0.695   3.164   3.435  0.7578 -0.9379 -0.1784
 1375SOL     OW15760   1.712   0.873   8.409  0.3153 -0.8423 -0.1919
 1375SOL    HW115761   1.760   0.890   8.490  0.2829 -0.8577 -0.1696
 1375SOL    HW215762   1.703   0.959   8.368  2.1844  0.4279  2.0294
 1376SOL     OW15763   2.269   2.988  11.594  0.4252 -0.2398  0.2145
 1376SOL    HW115764   2.297   3.072  11.557  0.2921  0.0695  0.8225
 1376SOL    HW215765   2.190   3.015  11.641  0.0103  0.6660 -0.9959
 1377SOL     OW15766   4.539   1.766   4.121  0.8454 -0.2649  0.1784
 1377SOL    HW115767   4.548   1.836   4.056  1.4085 -2.3503 -1.9916
 1377SOL    HW215768   4.447   1.740   4.112  0.4273  0.8275  1.2263
 1378SOL     OW15769   2.957   0.458   5.261 -0.4215 -0.2509  0.2312
 1378SOL    HW115770   2.881   0.455   5.319 -0.0337  1.1210  0.8183
 1378SOL    HW215771   2.977   0.367   5.243  2.8447  0.3448  0.8984
 1379SOL     OW15772   4.481   0.986  10.719 -0.3383  0.8022  0.1130
 1379SOL    HW115773   4.447   0.966  10.806 -2.9430  1.6966 -0.7066
 1379SOL    HW215774   4.519   0.903  10.689 -0.2485  0.2426  1.7927
 1380SOL     OW15775   0.544   3.384   9.456 -0.2831  0.4563 -0.3684
 1380SOL    HW115776   0.551   3.430   9.373  0.4231 -0.3024 -0.7356
 1380SOL    HW215777   0.459   3.411   9.489  0.3863 -0.5077  2.2004
 1381SOL     OW15778   1.413   0.525   9.588 -0.3774 -0.2093 -0.1634
 1381SOL    HW115779   1.388   0.434   9.573 -2.9365  0.3057  0.9548
 1381SOL    HW215780   1.351   0.548   9.657  0.6914  0.4651  0.5496
 1382SOL     OW15781   3.330   3.015   5.317 -1.0316  0.5738 -0.1583
 1382SOL    HW115782   3.342   3.040   5.408  2.9932  0.9353 -0.8004
 1382SOL    HW215783   3.400   3.065   5.274  0.4846 -1.4892 -0.1224
 1383SOL     OW15784   1.206   3.623   6.881 -0.6322 -0.3986 -0.1450
 1383SOL    HW115785   1.273   3.671   6.833  0.2717  0.6244  2.1493
 1383SOL    HW215786   1.129   3.630   6.824 -0.4414 -2.0289 -0.5879
 1384SOL     OW15787   3.645   2.234  15.623 -0.3478 -0.6052 -0.1315
 1384SOL    HW115788   3.687   2.206  15.705  0.6279 -0.7574 -0.6747
 1384SOL    HW215789   3.642   2.152  15.573  1.6305 -0.9957  0.3514
 1385SOL     OW15790   1.067   1.021   6.405  0.1749 -0.0794 -0.5749
 1385SOL    HW115791   1.005   0.964   6.451  0.4747 -0.8124 -1.0610
 1385SOL    HW215792   1.033   1.009   6.316  0.5090  1.7087 -0.9480
 1386SOL     OW15793   1.452   3.331   4.114  0.0727  0.1707 -0.3364
 1386SOL    HW115794   1.478   3.311   4.203  0.0621  0.9586 -0.1571
 1386SOL    HW215795   1.541   3.347   4.082  0.1207 -0.3378 -0.4566
 1387SOL     OW15796   0.343   0.439   9.896 -0.0441 -0.3555 -0.2834
 1387SOL    HW115797   0.334   0.529   9.865  1.3505 -0.5401 -1.2331
 1387SOL    HW215798   0.405   0.393   9.839  1.3520 -1.4158  2.0811
 1388SOL     OW15799   3.562   1.407   5.866  0.2351 -1.0088  0.4429
 1388SOL    HW115800   3.601   1.330   5.824  1.8642  0.6504 -1.0273
 1388SOL    HW215801   3.509   1.351   5.924 -0.1712 -0.4990  0.5650
 1389SOL     OW15802   0.414   3.799   3.285  0.2854  0.5156  0.1566
 1389SOL    HW115803   0.451   3.888   3.287 -1.6116  1.3024  0.5621
 1389SOL    HW215804   0.412   3.783   3.191 -0.1536  3.4635 -0.3623
 1390SOL     OW15805   0.517   2.677   1.678 -0.4472 -0.5306  0.7385
 1390SOL    HW115806   0.450   2.735   1.642 -2.3607 -2.6033  0.8745
 1390SOL    HW215807   0.521   2.703   1.770  1.4389  0.4424  0.3690
 1391SOL     OW15808   1.046   1.953   7.685 -0.1121 -0.0670 -0.1168
 1391SOL    HW115809   1.109   1.898   7.638 -0.7978 -0.3797 -0.6814
 1391SOL    HW215810   1.050   1.916   7.773 -4.0296 -1.5515 -0.5242
 1392SOL     OW15811   3.441   1.787  10.865  0.5597  0.2118  0.2115
 1392SOL    HW115812   3.442   1.719  10.932  1.1669 -0.0533 -0.0685
 1392SOL    HW215813   3.403   1.864  10.908 -0.9349 -0.0648 -0.5943
 1393SOL     OW15814   4.495   1.161  10.141  0.2824  0.0088 -0.1816
 1393SOL    HW115815   4.496   1.124  10.053  1.2251 -1.9169  0.6189
 1393SOL    HW215816   4.455   1.082  10.177 -0.4630  0.8461  0.8020
 1394SOL     OW15817   1.040   4.038   7.132  0.6117 -0.9371 -0.3951
 1394SOL    HW115818   1.079   3.961   7.092 -0.3616 -1.3729 -0.5211
 1394SOL    HW215819   1.031   4.026   7.226  0.7224 -1.7956 -0.4999
 1395SOL     OW15820   4.481   0.123   2.417 -0.2455  0.0677  0.3010
 1395SOL    HW115821   4.554   0.086   2.467 -0.5959 -0.1834  0.6331
 1395SOL    HW215822   4.444   0.045   2.377 -0.8637  0.4153  0.1989
 1396SOL     OW15823   1.936   0.442   5.451  0.2923 -0.9063  0.0045
 1396SOL    HW115824   1.929   0.527   5.408 -0.0239 -0.8099  0.2553
 1396SOL    HW215825   1.994   0.459   5.526 -0.5716  1.1764  0.2010
 1397SOL     OW15826   1.712   0.080   2.638  0.5708 -0.2369  0.1749
 1397SOL    HW115827   1.626   0.058   2.602  1.2814 -0.8308 -1.1699
 1397SOL    HW215828   1.729   0.149   2.573 -2.5772 -1.1300 -1.5914
 1398SOL     OW15829   0.982   1.536  15.987 -0.1740  0.1738 -0.5330
 1398SOL    HW115830   0.887   1.525  15.981  0.0079 -1.2021 -0.8142
 1398SOL    HW215831   0.996   1.625  16.019  0.5208 -0.5279  1.0594
 1399SOL     OW15832   2.783   4.655  12.199 -0.3151 -0.8949 -0.8537
 1399SOL    HW115833   2.772   4.719  12.269 -4.2851 -0.9243 -1.4303
 1399SOL    HW215834   2.875   4.639  12.218  0.5575  3.2922 -1.5615
 1400SOL     OW15835   1.369   3.076   4.047 -0.1645  0.5593  0.0129
 1400SOL    HW115836   1.409   3.162   4.036  1.1291 -0.1339 -0.6530
 1400SOL    HW215837   1.335   3.068   4.136 -1.2540  2.0580 -0.2665
 1401SOL     OW15838   2.546   1.308   1.957 -0.1703 -0.2312 -0.1760
 1401SOL    HW115839   2.488   1.237   1.930 -0.5156 -0.3410  0.8408
 1401SOL    HW215840   2.612   1.266   2.013 -2.4908 -1.4358  1.6947
 1402SOL     OW15841   3.498   0.067   6.160  0.1609 -0.0578 -0.3644
 1402SOL    HW115842   3.418   0.114   6.137  0.5154  0.0916 -1.2985
 1402SOL    HW215843   3.486   0.010   6.237 -1.1972 -1.5375 -1.6723
 1403SOL     OW15844   3.505   0.384   8.895 -0.1804  0.3405 -0.0572
 1403SOL    HW115845   3.522   0.476   8.874 -0.9229  0.9410  1.9030
 1403SOL    HW215846   3.590   0.354   8.927 -0.4427  0.5473  0.8412
 1404SOL     OW15847   1.610   3.280   5.797  0.1777 -0.0894 -0.6117
 1404SOL    HW115848   1.661   3.225   5.856 -0.2288  0.7411  0.5066
 1404SOL    HW215849   1.673   3.342   5.760 -0.4831  0.3356 -1.0232
 1405SOL     OW15850   2.410   4.294   4.307  1.0516  0.2479  0.0467
 1405SOL    HW115851   2.481   4.255   4.358 -1.5294 -0.2102  3.2467
 1405SOL    HW215852   2.426   4.388   4.311 -0.8434  0.5091  1.2399
 1406SOL     OW15853   4.379   4.506   6.688  0.1663 -0.7329 -0.1203
 1406SOL    HW115854   4.347   4.596   6.682 -0.3748 -0.9782 -1.0171
 1406SOL    HW215855   4.431   4.519   6.767 -0.7412  0.1213  0.3356
 1407SOL     OW15856   2.703   1.532  16.984  0.4586  0.3743  0.5578
 1407SOL    HW115857   2.747   1.452  17.010  0.4563  0.2065  0.0458
 1407SOL    HW215858   2.628   1.531  17.044 -0.3048  0.9001 -0.3703
 1408SOL     OW15859   1.851   4.396   4.243 -0.4620 -0.2358 -0.1283
 1408SOL    HW115860   1.816   4.454   4.311  2.3324  0.3226  0.8518
 1408SOL    HW215861   1.943   4.422   4.241 -0.6718  0.5722  0.8498
 1409SOL     OW15862   4.319   2.829   2.270  0.0865 -0.0270  0.0156
 1409SOL    HW115863   4.380   2.807   2.340  2.8752 -0.8635 -2.6522
 1409SOL    HW215864   4.244   2.868   2.314 -0.2879  0.4525 -1.0636
 1410SOL     OW15865   1.869   4.320  15.367  0.5159 -0.2688 -0.4549
 1410SOL    HW115866   1.796   4.281  15.415 -2.2292  2.8024 -2.1839
 1410SOL    HW215867   1.913   4.369  15.436 -0.0693 -1.0821  0.4947
 1411SOL     OW15868   4.433   0.421   1.657 -0.0598  0.4320 -0.6040
 1411SOL    HW115869   4.461   0.431   1.748  0.0613  1.0534 -0.7086
 1411SOL    HW215870   4.360   0.484   1.658  0.8623  1.4695  0.9800
 1412SOL     OW15871   0.256   3.308  16.667 -0.0641 -0.3133 -0.1115
 1412SOL    HW115872   0.171   3.272  16.643  0.1289 -1.1434  0.4446
 1412SOL    HW215873   0.263   3.366  16.592  2.2863  0.3530  0.6149
 1413SOL     OW15874   1.882   0.943   0.522 -0.0928 -0.1037 -0.1884
 1413SOL    HW115875   1.918   0.900   0.600  1.6084  1.9556  0.1698
 1413SOL    HW215876   1.884   1.031   0.560  0.3220  0.5108 -1.6739
 1414SOL     OW15877   3.926   2.819   7.028 -0.5699 -0.2141 -0.1401
 1414SOL    HW115878   3.869   2.776   7.091  0.2679 -2.0749 -0.6524
 1414SOL    HW215879   3.865   2.862   6.968 -0.4104 -0.9832 -0.8507
 1415SOL     OW15880   1.139   1.846  17.553 -0.2914 -0.4655  0.3945
 1415SOL    HW115881   1.049   1.855  17.581 -0.4977 -0.9540 -0.1037
 1415SOL    HW215882   1.184   1.846  17.637  2.0886  0.4164 -0.8427
 1416SOL     OW15883   1.094   0.815   4.287  0.5715  0.0522  0.3080
 1416SOL    HW115884   1.070   0.747   4.350  0.5538  2.2376  2.6462
 1416SOL    HW215885   1.180   0.850   4.308  0.9532 -1.2281  0.8881
 1417SOL     OW15886   3.781   1.237   0.514 -0.1009  0.2973 -0.8040
 1417SOL    HW115887   3.752   1.195   0.433  1.3578 -0.1153 -1.0936
 1417SOL    HW215888   3.730   1.180   0.571 -1.1787  1.9704 -0.0893
 1418SOL     OW15889   2.050   3.440   8.969 -0.0781 -0.0013  0.1951
 1418SOL    HW115890   2.037   3.531   8.943 -0.0396 -0.3031 -0.9061
 1418SOL    HW215891   2.000   3.452   9.050 -2.0623  1.1050 -1.1845
 1419SOL     OW15892   0.121   0.719   6.026 -0.0637 -0.2207  0.2037
 1419SOL    HW115893   0.059   0.698   5.957 -1.3270 -2.8926  2.1312
 1419SOL    HW215894   0.143   0.632   6.061 -0.0723  0.3609  1.6810
 1420SOL     OW15895   4.644   3.017   0.268  0.2493  1.3374  0.5015
 1420SOL    HW115896   4.556   2.985   0.250  1.3821 -0.5737 -1.5677
 1420SOL    HW215897   4.692   2.979   0.195 -1.4295  0.7458 -0.3090
 1421SOL     OW15898   0.847   4.575   1.776  0.6312 -0.4947  0.2281
 1421SOL    HW115899   0.804   4.499   1.814 -0.3653  0.6304  1.3330
 1421SOL    HW215900   0.914   4.539   1.718 -0.3637 -2.2226  0.1607
 1422SOL     OW15901   1.120   3.924   7.485  0.2912 -0.2543 -0.1712
 1422SOL    HW115902   1.049   3.882   7.437  1.0043 -1.9441  0.2338
 1422SOL    HW215903   1.196   3.890   7.438 -0.0899 -1.1669 -0.1356
 1423SOL     OW15904   4.554   2.506  14.878 -0.5274  0.2195  0.3189
 1423SOL    HW115905   4.615   2.478  14.810 -1.4745  1.9936 -1.2492
 1423SOL    HW215906   4.487   2.541  14.820  0.0984 -0.2178 -0.6563
 1424SOL     OW15907   0.150   0.243   7.589 -0.3504 -0.4186  0.0437
 1424SOL    HW115908   0.091   0.318   7.599 -1.0776 -0.8024 -1.4643
 1424SOL    HW215909   0.158   0.223   7.682  1.4466 -1.7419 -0.4079
 1425SOL     OW15910   1.214   4.339   2.704 -0.2042 -0.1467 -0.0199
 1425SOL    HW115911   1.226   4.432   2.686 -1.2331 -0.3575 -1.7154
 1425SOL    HW215912   1.130   4.341   2.750 -0.8449  0.0104 -1.2224
 1426SOL     OW15913   2.980   2.162   8.858 -0.1575 -0.2157  0.2170
 1426SOL    HW115914   3.004   2.112   8.780 -1.1204  0.1108 -0.3003
 1426SOL    HW215915   2.929   2.095   8.904 -0.0861 -2.0713 -2.4164
 1427SOL     OW15916   2.786   1.666   6.010 -0.7567 -0.2440 -0.4572
 1427SOL    HW115917   2.834   1.594   5.970  0.6436  0.7283 -0.4931
 1427SOL    HW215918   2.742   1.619   6.082 -0.1766 -1.3246 -0.8101
 1428SOL     OW15919   0.466   0.648   2.547 -0.1314 -0.0961 -0.4609
 1428SOL    HW115920   0.400   0.712   2.574  2.7129  2.1420  1.1988
 1428SOL    HW215921   0.500   0.615   2.630 -0.5131  1.7318  0.4337
 1429SOL     OW15922   4.348   0.042   5.288 -0.3144  0.1078 -0.3618
 1429SOL    HW115923   4.257   0.054   5.314  1.1383  1.7461  3.9647
 1429SOL    HW215924   4.390   0.047   5.374  1.8055  1.8890 -1.4902
 1430SOL     OW15925   3.479   0.478   5.090  0.1354  0.2432  0.3133
 1430SOL    HW115926   3.519   0.564   5.075  2.8634 -1.1654 -0.5589
 1430SOL    HW215927   3.397   0.483   5.041  1.4719  1.0072 -1.8346
 1431SOL     OW15928   3.583   4.214   7.028  0.5218 -0.0195  0.7789
 1431SOL    HW115929   3.590   4.141   6.966 -0.6836 -0.1317  0.7792
 1431SOL    HW215930   3.489   4.232   7.024  0.2295 -1.3871  1.4264
 1432SOL     OW15931   3.820   2.657   6.722 -0.2658 -0.2466 -0.1055
 1432SOL    HW115932   3.743   2.602   6.706 -0.8340 -0.1900  2.3470
 1432SOL    HW215933   3.793   2.748   6.711  0.5577  0.1496  1.0936
 1433SOL     OW15934   3.010   1.135   2.762  0.1020  0.0745  0.0286
 1433SOL    HW115935   3.058   1.211   2.730 -0.4693  1.0321  1.4959
 1433SOL    HW215936   3.001   1.087   2.679  1.2360 -0.0296 -0.0281
 1434SOL     OW15937   3.122   2.488   5.094  0.0960 -0.1368 -0.0445
 1434SOL    HW115938   3.119   2.576   5.055  0.8468  0.9485  2.3448
 1434SOL    HW215939   3.170   2.508   5.174  0.6041 -3.1121  0.3887
 1435SOL     OW15940   3.512   1.547   4.332 -0.7285 -0.0990 -0.3158
 1435SOL    HW115941   3.537   1.516   4.419  0.3203 -1.6461 -1.1630
 1435SOL    HW215942   3.589   1.569   4.279 -1.7622 -2.3592 -2.8075
 1436SOL     OW15943   0.410   0.846  10.779 -0.3547  0.2848  0.4922
 1436SOL    HW115944   0.316   0.841  10.765 -0.2414 -1.1099  0.2997
 1436SOL    HW215945   0.444   0.812  10.696 -0.5044  0.4599  0.3605
 1437SOL     OW15946   3.953   3.933   8.379  0.3359 -0.5918 -0.1426
 1437SOL    HW115947   3.880   3.942   8.319 -0.9115  2.6833  1.8506
 1437SOL    HW215948   3.969   4.027   8.394 -1.2944 -0.5897  1.6286
 1438SOL     OW15949   2.411   4.262   6.565  0.2891 -0.8209 -0.1989
 1438SOL    HW115950   2.395   4.211   6.644  2.7224 -1.3092 -0.0222
 1438SOL    HW215951   2.359   4.219   6.498  0.6767  0.8903 -1.6032
 1439SOL     OW15952   2.380   3.421   0.762 -0.2021  0.2111 -0.0818
 1439SOL    HW115953   2.361   3.335   0.724 -1.6251  0.6396 -0.3568
 1439SOL    HW215954   2.412   3.463   0.682  2.2235 -2.1369 -0.3430
 1440SOL     OW15955   4.189   3.265   2.265  0.1898  0.1676 -0.4672
 1440SOL    HW115956   4.182   3.308   2.179 -2.9566 -1.2985 -0.9474
 1440SOL    HW215957   4.231   3.333   2.317 -0.5691  1.2623 -1.2670
 1441SOL     OW15958   1.728   1.358   7.870  0.1177 -0.0894  0.0455
 1441SOL    HW115959   1.647   1.398   7.901 -0.8381  0.5356 -3.2410
 1441SOL    HW215960   1.699   1.343   7.779  0.3290  0.5838 -0.1303
 1442SOL     OW15961   2.004   3.781   5.386  0.0978 -0.4290  0.1310
 1442SOL    HW115962   2.070   3.814   5.447  0.6243 -0.9826 -0.1283
 1442SOL    HW215963   2.061   3.746   5.317  0.8899  1.0638  0.0340
 1443SOL     OW15964   3.546   2.379   6.334  0.4279  0.5342 -0.3721
 1443SOL    HW115965   3.592   2.325   6.398 -0.1388  0.9853  0.4107
 1443SOL    HW215966   3.492   2.312   6.292 -2.8497  1.0040  3.0950
 1444SOL     OW15967   3.378   4.551   1.893 -0.0767  0.3637 -0.2068
 1444SOL    HW115968   3.459   4.500   1.892 -0.2198  0.1319  0.2059
 1444SOL    HW215969   3.390   4.602   1.812  0.2176  1.4600  0.5215
 1445SOL     OW15970   0.862   4.275   4.840 -0.4869 -0.1474  0.0986
 1445SOL    HW115971   0.811   4.229   4.906 -0.4760 -0.8487 -0.3887
 1445SOL    HW215972   0.918   4.335   4.889 -0.0156 -0.6785  0.2070
 1446SOL     OW15973   2.488   4.052   0.519 -0.2697  0.0945  0.6292
 1446SOL    HW115974   2.583   4.059   0.534  0.0448  1.2676 -1.9338
 1446SOL    HW215975   2.472   4.084   0.431 -0.8595 -0.5101  0.5181
 1447SOL     OW15976   0.187   3.073   7.786 -0.1943 -0.3219 -1.3432
 1447SOL    HW115977   0.179   3.169   7.781  0.5725 -0.1123  1.6408
 1447SOL    HW215978   0.147   3.054   7.701 -4.0910  0.1905  0.3714
 1448SOL     OW15979   4.527   1.496   6.564 -0.8401  0.0945  0.2973
 1448SOL    HW115980   4.550   1.567   6.623 -0.1996 -1.0121  1.3905
 1448SOL    HW215981   4.438   1.465   6.580 -0.6528 -0.4685  0.2656
 1449SOL     OW15982   4.102   3.800  16.428 -0.8951 -0.4596  0.2455
 1449SOL    HW115983   4.139   3.886  16.408  0.1919 -0.9034  0.3066
 1449SOL    HW215984   4.162   3.728  16.407  0.4005  1.2223 -1.8113
 1450SOL     OW15985   1.122   3.311   7.423 -0.0222 -0.4000 -0.4214
 1450SOL    HW115986   1.160   3.224   7.410 -2.4151 -2.3064  5.3603
 1450SOL    HW215987   1.138   3.337   7.514 -1.0637 -3.7750  0.7404
 1451SOL     OW15988   4.638   1.314   2.197 -0.6616 -0.5413 -0.3934
 1451SOL    HW115989   4.620   1.242   2.136  1.0495 -2.7493  1.7186
 1451SOL    HW215990   4.657   1.381   2.131  0.9951 -1.2283 -0.6258
 1452SOL     OW15991   3.962   1.520   7.554 -0.3205  0.1387  0.0664
 1452SOL    HW115992   4.053   1.512   7.526 -1.2454 -1.1065 -2.5684
 1452SOL    HW215993   3.978   1.513   7.648 -1.0034  2.9318  0.3949
 1453SOL     OW15994   3.004   4.507   7.863 -0.4564 -0.6883  0.3021
 1453SOL    HW115995   3.030   4.569   7.931  2.5865  1.1077 -2.4496
 1453SOL    HW215996   2.981   4.433   7.919  0.6945 -1.4056 -0.1662
 1454SOL     OW15997   4.556   3.150   5.525  0.0154 -0.6842  0.6005
 1454SOL    HW115998   4.550   3.239   5.558 -0.6753 -0.2391 -0.7152
 1454SOL    HW215999   4.583   3.099   5.601  0.6315 -0.3761  0.5914
 1455SOL     OW16000   3.464   2.951   2.314 -0.2197  0.2129  0.2804
 1455SOL    HW116001   3.559   2.943   2.305 -0.3578 -0.3048 -0.6568
 1455SOL    HW216002   3.440   2.861   2.295  2.1876 -0.0009 -1.6844
 1456SOL     OW16003   4.308   2.034   0.380  0.4762 -0.3440  0.5038
 1456SOL    HW116004   4.359   1.959   0.411 -0.3211 -1.9096 -1.9969
 1456SOL    HW216005   4.338   2.047   0.290  1.3906  0.0598  0.8733
 1457SOL     OW16006   0.074   4.410   2.417  0.4152  0.1890  0.1763
 1457SOL    HW116007   0.103   4.482   2.362 -0.3719  0.1847 -0.2358
 1457SOL    HW216008   0.110   4.431   2.504 -2.1364  0.6075  1.1410
 1458SOL     OW16009   1.820   1.006   1.089  0.0152  0.0064  0.0727
 1458SOL    HW116010   1.749   1.063   1.060 -0.2994 -0.8258 -0.8283
 1458SOL    HW216011   1.764   0.944   1.137 -0.1347 -1.9678 -2.6377
 1459SOL     OW16012   3.502   1.494   5.085 -0.0208 -0.0865 -0.1852
 1459SOL    HW116013   3.482   1.552   5.159  1.0659  1.2930 -0.9693
 1459SOL    HW216014   3.500   1.406   5.121 -4.8379 -0.6792 -1.8071
 1460SOL     OW16015   3.084   3.329  15.470 -0.1419  0.0217 -0.0204
 1460SOL    HW116016   3.089   3.390  15.543 -1.0550  1.2422 -0.9889
 1460SOL    HW216017   3.118   3.386  15.402  3.0922 -2.1272 -0.2042
 1461SOL     OW16018   2.775   1.483  13.689 -0.0989  0.3143 -0.0363
 1461SOL    HW116019   2.719   1.410  13.664  0.8266 -0.2793 -0.3907
 1461SOL    HW216020   2.702   1.545  13.683  0.5414  1.1068  0.3045
 1462SOL     OW16021   1.841   2.833   3.413 -0.1960 -0.0134 -0.8579
 1462SOL    HW116022   1.812   2.792   3.331 -1.5409  2.7989 -1.7952
 1462SOL    HW216023   1.881   2.763   3.464  0.3226 -0.2463 -1.5750
 1463SOL     OW16024   2.882   0.165   0.759 -0.0340 -0.3526  0.1800
 1463SOL    HW116025   2.806   0.121   0.799 -0.6747  1.0717  0.5391
 1463SOL    HW216026   2.908   0.201   0.844  1.8319 -0.1982 -0.4560
 1464SOL     OW16027   2.286   0.191   5.370 -0.3346 -0.6222  0.0851
 1464SOL    HW116028   2.283   0.118   5.431  0.3168 -1.0806 -0.4423
 1464SOL    HW216029   2.328   0.260   5.421  0.2816 -0.3276 -0.8139
 1465SOL     OW16030   2.960   4.194   3.348  0.4498 -0.4232  0.4600
 1465SOL    HW116031   2.926   4.279   3.376 -1.2143 -1.6953  2.3063
 1465SOL    HW216032   3.041   4.183   3.398  0.7330  0.9353  0.2983
 1466SOL     OW16033   2.352   2.092   6.205  0.1175 -0.0288 -0.3122
 1466SOL    HW116034   2.272   2.040   6.208  1.5661 -2.1312  1.9782
 1466SOL    HW216035   2.315   2.177   6.183 -1.1554 -0.8310 -1.2987
 1467SOL     OW16036   3.457   3.137   7.371  0.1667 -0.1771  0.2037
 1467SOL    HW116037   3.467   3.065   7.432 -2.2676 -2.1600 -1.7089
 1467SOL    HW216038   3.366   3.161   7.389  0.7067  2.7983 -0.9407
 1468SOL     OW16039   0.957   1.246   8.503 -0.3421 -0.2114  0.7247
 1468SOL    HW116040   1.040   1.284   8.474 -0.1511 -1.6054 -0.5697
 1468SOL    HW216041   0.976   1.231   8.595 -1.2434  0.1953  0.9715
 1469SOL     OW16042   3.184   3.308   9.917  0.1436 -0.1666  0.0925
 1469SOL    HW116043   3.176   3.293  10.011  0.7549  1.4892  0.4017
 1469SOL    HW216044   3.163   3.224   9.874 -2.4735  0.8871 -0.6747
 1470SOL     OW16045   3.474   1.007   6.216 -0.0998 -0.2149 -0.0911
 1470SOL    HW116046   3.390   0.963   6.227 -0.5696  0.3753 -1.2611
 1470SOL    HW216047   3.472   1.067   6.290  0.7509 -0.8679  0.4625
 1471SOL     OW16048   1.326   0.760   3.625  0.5851 -0.3020 -0.2957
 1471SOL    HW116049   1.250   0.747   3.681  1.8068  0.0790  1.4747
 1471SOL    HW216050   1.369   0.833   3.670  1.2412 -1.2214  0.5693
 1472SOL     OW16051   3.670   2.205   8.549  0.0029 -0.0651  0.1115
 1472SOL    HW116052   3.705   2.187   8.461  0.1242 -1.9981  0.5433
 1472SOL    HW216053   3.666   2.300   8.555 -1.6383 -0.0448 -1.2897
 1473SOL     OW16054   3.245   1.309   3.643  0.2633 -0.4387  0.5261
 1473SOL    HW116055   3.297   1.303   3.563 -0.6259  1.7851 -0.2168
 1473SOL    HW216056   3.226   1.403   3.646 -0.6074 -0.5830 -0.4509
 1474SOL     OW16057   0.088   0.629   6.793  0.0200 -0.7701  0.2502
 1474SOL    HW116058   0.117   0.719   6.779  0.0496 -0.6154  1.3386
 1474SOL    HW216059   4.733   0.647   6.819  0.7127  0.6188  1.6592
 1475SOL     OW16060   3.021   2.702   3.326  0.4457  0.3122 -0.9766
 1475SOL    HW116061   3.038   2.675   3.417 -0.4909 -0.1000 -0.9212
 1475SOL    HW216062   3.101   2.673   3.283  0.6010 -2.0868  0.9000
 1476SOL     OW16063   2.606   1.020   3.401  1.2723 -0.0709 -0.6617
 1476SOL    HW116064   2.649   1.036   3.317 -1.2229 -0.0435 -1.9141
 1476SOL    HW216065   2.672   1.064   3.454 -0.9786  1.0636  1.2077
 1477SOL     OW16066   2.005   4.221   4.926 -0.0296  0.4423  0.6946
 1477SOL    HW116067   2.039   4.140   4.888  0.9332  0.9295  0.5186
 1477SOL    HW216068   2.057   4.287   4.880  0.3999  0.5258  1.3070
 1478SOL     OW16069   2.013   4.123  13.524 -0.1622 -0.6230  0.4346
 1478SOL    HW116070   1.936   4.109  13.579 -0.4699  0.2013  0.2138
 1478SOL    HW216071   2.029   4.041  13.479  0.1960  0.1888 -0.9173
 1479SOL     OW16072   2.934   3.773   4.490 -0.2415 -0.0848 -0.3394
 1479SOL    HW116073   2.943   3.685   4.454  1.5818  1.3984 -3.4565
 1479SOL    HW216074   2.995   3.827   4.439 -0.3250  0.6169  0.2916
 1480SOL     OW16075   2.965   4.554   2.860  0.1720  0.1768 -0.1572
 1480SOL    HW116076   3.010   4.623   2.909 -0.9748  1.2499 -0.5929
 1480SOL    HW216077   3.016   4.476   2.882 -0.1966  0.1806  0.7352
 1481SOL     OW16078   3.058   0.337   8.173  0.4848  0.0364  0.3462
 1481SOL    HW116079   3.129   0.293   8.125 -0.5001  1.0350 -1.9973
 1481SOL    HW216080   3.088   0.326   8.263 -0.6343  0.3483  0.7499
 1482SOL     OW16081   1.655   2.104   6.124 -0.3074  0.4955  0.0846
 1482SOL    HW116082   1.618   2.046   6.058  4.1656 -1.1880 -0.9522
 1482SOL    HW216083   1.647   2.046   6.200 -0.1066 -1.0891 -1.1047
 1483SOL     OW16084   1.089   3.159  13.423 -0.3755  0.4061  0.0263
 1483SOL    HW116085   1.069   3.112  13.342  0.1150 -0.3929  0.3617
 1483SOL    HW216086   1.161   3.103  13.453 -2.3683 -1.7350  0.8559
 1484SOL     OW16087   3.244   1.486   4.686 -0.4899  0.1819 -0.1280
 1484SOL    HW116088   3.256   1.519   4.775 -0.4809 -2.6511  0.9432
 1484SOL    HW216089   3.168   1.428   4.692 -0.5298  0.2760  0.2614
 1485SOL     OW16090   1.843   3.767   8.224  0.1310 -0.3848  0.0374
 1485SOL    HW116091   1.873   3.682   8.255 -1.3099  0.2406  3.1471
 1485SOL    HW216092   1.834   3.749   8.130  1.2551 -1.8388  0.2170
 1486SOL     OW16093   2.625   1.896  13.918  0.0546 -0.0890 -0.1375
 1486SOL    HW116094   2.690   1.869  13.983  0.7427  3.1143  0.4797
 1486SOL    HW216095   2.562   1.832  13.950 -0.1803  1.3115  2.2317
 1487SOL     OW16096   0.649   2.994   7.293  0.8814 -0.2836  0.5453
 1487SOL    HW116097   0.554   2.997   7.284  0.8673  0.9094  1.1104
 1487SOL    HW216098   0.667   3.045   7.214 -1.6719 -1.3223 -0.7044
 1488SOL     OW16099   4.330   3.613   8.056 -0.6007  0.1744 -0.3756
 1488SOL    HW116100   4.290   3.684   8.107 -0.9882  1.9303 -3.1320
 1488SOL    HW216101   4.369   3.664   7.985  1.1664 -2.3221 -1.1840
 1489SOL     OW16102   2.258   3.726  11.626  0.3061 -0.3919  0.7527
 1489SOL    HW116103   2.278   3.765  11.711 -0.0674 -0.0916  0.7041
 1489SOL    HW216104   2.303   3.641  11.632  1.6556  0.2111 -0.5516
 1490SOL     OW16105   2.342   4.216   4.027 -0.2716 -1.1497 -0.6040
 1490SOL    HW116106   2.358   4.219   4.121 -0.4136  0.7255 -0.6410
 1490SOL    HW216107   2.413   4.270   3.992  2.5006 -2.9317  2.2997
 1491SOL     OW16108   0.962   2.855  10.073 -0.2912  0.2778  0.0900
 1491SOL    HW116109   1.009   2.832  10.153  0.6696  2.5462  0.1798
 1491SOL    HW216110   1.032   2.855  10.008 -0.6631  0.2559 -0.3056
 1492SOL     OW16111   4.474   0.486   5.924  0.3080  0.9443  1.0417
 1492SOL    HW116112   4.515   0.507   6.008 -0.7357 -0.3002  1.8636
 1492SOL    HW216113   4.411   0.418   5.945  0.8076  0.3997  0.7776
 1493SOL     OW16114   0.945   3.735   8.772  0.7915 -0.3835  0.2073
 1493SOL    HW116115   0.991   3.778   8.700  2.0901 -1.5449  0.3399
 1493SOL    HW216116   1.016   3.731   8.836  1.0190 -1.7083 -0.1256
 1494SOL     OW16117   0.318   1.691   8.898  0.5330  0.7360  0.4579
 1494SOL    HW116118   0.409   1.704   8.873  0.1633  1.6733 -0.4020
 1494SOL    HW216119   0.290   1.648   8.817 -0.6741 -0.9178  1.7639
 1495SOL     OW16120   1.587   3.737   6.494  0.2028 -0.1238  0.4297
 1495SOL    HW116121   1.672   3.769   6.466 -0.5720  1.4138 -0.1464
 1495SOL    HW216122   1.611   3.716   6.584 -0.9746  2.1759  1.2828
 1496SOL     OW16123   0.821   4.664  10.275 -0.0819 -0.4055  0.5881
 1496SOL    HW116124   0.824   0.021  10.303 -2.7658 -0.2270  0.2881
 1496SOL    HW216125   0.736   4.639  10.312 -0.2586  1.0245  1.1753
 1497SOL     OW16126   1.177   2.716   5.983  0.0632  0.6245 -0.8776
 1497SOL    HW116127   1.205   2.785   6.044  0.0200 -2.7442  2.9764
 1497SOL    HW216128   1.252   2.725   5.925  0.2910  2.6761 -0.2762
 1498SOL     OW16129   4.671   1.737   7.392  0.1083  0.2488 -0.5741
 1498SOL    HW116130   4.654   1.828   7.415  0.1301  0.5456 -1.7373
 1498SOL    HW216131   0.023   1.718   7.426  0.4134  0.6193 -1.1513
 1499SOL     OW16132   4.249   3.026   8.522 -0.1584 -0.5029  0.0923
 1499SOL    HW116133   4.239   2.997   8.432 -0.4516  0.7434 -0.2704
 1499SOL    HW216134   4.279   2.944   8.561 -0.4287 -1.4754 -1.7728
 1500SOL     OW16135   3.032   0.353   8.844 -0.0161  0.1544  0.0702
 1500SOL    HW116136   2.965   0.381   8.782 -1.2881  0.7852  1.7167
 1500SOL    HW216137   3.038   0.260   8.824  0.8264 -0.6868  4.2451
 1501SOL     OW16138   1.120   0.944  15.373 -0.6349  0.0146 -0.2739
 1501SOL    HW116139   1.092   1.013  15.433  0.8123 -0.1454  0.6077
 1501SOL    HW216140   1.057   0.955  15.302 -0.4297 -0.3274 -0.5120
 1502SOL     OW16141   2.423   3.530   2.956 -0.3305 -0.5207 -0.4069
 1502SOL    HW116142   2.378   3.463   2.904  0.4238 -0.9835 -0.4710
 1502SOL    HW216143   2.512   3.525   2.921 -0.6207 -1.4169 -1.0361
 1503SOL     OW16144   3.618   0.914   4.142 -0.1891 -0.2815 -0.1798
 1503SOL    HW116145   3.561   0.927   4.217 -0.6843  0.8273 -0.7401
 1503SOL    HW216146   3.631   0.820   4.148 -2.1424 -0.4066  1.9420
 1504SOL     OW16147   0.100   1.120   9.773 -0.6939 -0.0088 -0.0665
 1504SOL    HW116148   0.123   1.154   9.859  2.3253 -0.4791 -0.6752
 1504SOL    HW216149   0.064   1.034   9.794 -0.7457 -0.1413 -0.6928
 1505SOL     OW16150   0.124   1.546   1.340  0.2569 -0.3822  0.3891
 1505SOL    HW116151   0.047   1.531   1.393  0.2283 -1.0323  0.1662
 1505SOL    HW216152   0.194   1.497   1.383  0.1458 -2.6453 -2.0064
 1506SOL     OW16153   3.779   0.694   5.079  0.3071 -0.2249  0.1254
 1506SOL    HW116154   3.872   0.683   5.057  0.4577 -0.1174  0.7195
 1506SOL    HW216155   3.735   0.727   5.000  0.4561  0.0789  0.1680
 1507SOL     OW16156   4.595   0.174   7.776 -0.6557 -0.4575  0.2992
 1507SOL    HW116157   4.630   0.246   7.828  2.6920 -2.6346  1.1160
 1507SOL    HW216158   4.580   0.110   7.846  1.4346  0.4761  1.6045
 1508SOL     OW16159   0.027   4.222   5.301  0.3516 -0.1676  0.3268
 1508SOL    HW116160   4.696   4.287   5.276 -0.9876 -0.5027  3.0521
 1508SOL    HW216161   0.056   4.195   5.214 -1.9740  1.7753 -1.0692
 1509SOL     OW16162   3.936   0.185   0.844  1.0877 -0.0911  0.3004
 1509SOL    HW116163   4.010   0.244   0.861  1.1378 -0.5389  1.6564
 1509SOL    HW216164   3.908   0.223   0.761 -3.2454 -0.2893  1.6941
 1510SOL     OW16165   2.525   4.302  12.379  0.0770 -0.3542 -0.0323
 1510SOL    HW116166   2.490   4.260  12.300 -0.1603 -1.8313  0.8524
 1510SOL    HW216167   2.527   4.394  12.355 -1.1221 -0.5643 -0.9084
 1511SOL     OW16168   2.554   1.380   4.442  0.0786 -0.3683  0.8538
 1511SOL    HW116169   2.470   1.385   4.396  0.8788  0.3855 -0.5127
 1511SOL    HW216170   2.568   1.472   4.464  1.8518 -0.7881  1.4713
 1512SOL     OW16171   1.574   1.055   0.545 -0.3555  0.0175 -0.1475
 1512SOL    HW116172   1.580   1.136   0.594 -1.1192 -0.1057  0.1618
 1512SOL    HW216173   1.627   0.995   0.597  0.2456 -0.4531 -1.2844
 1513SOL     OW16174   2.124   1.189  16.829 -0.3346 -0.4985  0.3380
 1513SOL    HW116175   2.107   1.153  16.742 -2.2801  3.9716 -1.1232
 1513SOL    HW216176   2.199   1.246  16.815  0.7932 -1.4902  2.3971
 1514SOL     OW16177   2.429   3.688   5.320  0.0911  0.8037  0.2426
 1514SOL    HW116178   2.393   3.702   5.407 -1.5929 -1.4654 -0.1047
 1514SOL    HW216179   2.454   3.779   5.300  0.0163  0.4970 -1.2232
 1515SOL     OW16180   0.433   0.163   9.845 -0.5105 -0.0108 -0.5645
 1515SOL    HW116181   0.405   0.208   9.925 -0.2630 -0.2194 -0.3635
 1515SOL    HW216182   0.520   0.133   9.870  0.8383  1.3500 -3.6255
 1516SOL     OW16183   1.176   2.745   7.575  0.3458 -0.2435  0.6049
 1516SOL    HW116184   1.107   2.766   7.513 -0.5966 -2.1312  1.0247
 1516SOL    HW216185   1.115   2.699   7.633 -0.0689 -0.3607  0.0766
 1517SOL     OW16186   2.669   1.337  12.050 -0.0790 -0.1332  0.0421
 1517SOL    HW116187   2.693   1.319  11.959  0.4479  4.4047 -0.7141
 1517SOL    HW216188   2.709   1.263  12.095 -0.8609 -1.3604 -1.2710
 1518SOL     OW16189   2.566   0.675   5.031  0.3274 -0.2187  0.2171
 1518SOL    HW116190   2.563   0.580   5.023 -0.8207 -0.2471  0.9299
 1518SOL    HW216191   2.657   0.696   5.048  0.6466 -0.3101 -1.3994
 1519SOL     OW16192   1.267   1.186   1.438  0.3400 -0.3284 -0.0388
 1519SOL    HW116193   1.277   1.255   1.372  0.6966  0.9244  1.3399
 1519SOL    HW216194   1.177   1.206   1.465  1.0125  0.5974  1.5179
 1520SOL     OW16195   0.155   1.128   2.800  0.5907 -0.0055  0.1074
 1520SOL    HW116196   0.068   1.092   2.788 -0.8257  2.7729  2.1996
 1520SOL    HW216197   0.205   1.048   2.814 -1.4151 -1.4422 -1.0046
 1521SOL     OW16198   2.879   4.593   9.729 -0.1247 -0.4467  0.3647
 1521SOL    HW116199   2.956   4.552   9.768  0.4031 -0.0428 -0.2485
 1521SOL    HW216200   2.874   4.547   9.646 -0.1932  2.1558 -1.0862
 1522SOL     OW16201   1.370   2.265   0.762  0.1873  0.0799  0.1836
 1522SOL    HW116202   1.329   2.294   0.843  1.6576 -1.1363  1.3713
 1522SOL    HW216203   1.389   2.343   0.711  0.6516 -0.9014 -1.1548
 1523SOL     OW16204   1.496   4.007  10.213 -0.6884 -0.1740  0.2429
 1523SOL    HW116205   1.435   4.036  10.281 -1.8022 -1.2959 -0.2670
 1523SOL    HW216206   1.535   3.931  10.258 -0.0481  0.1421  0.2239
 1524SOL     OW16207   2.414   0.080  11.012 -0.0842  0.1413  0.1179
 1524SOL    HW116208   2.466   0.001  11.028 -2.5057 -1.4708 -0.0896
 1524SOL    HW216209   2.356   0.082  11.088 -0.0452 -0.1912  0.1561
 1525SOL     OW16210   4.475   0.931   2.076  0.0068 -0.1313  0.7927
 1525SOL    HW116211   4.481   0.962   2.166  1.7927  0.8473  0.3421
 1525SOL    HW216212   4.537   0.980   2.022 -1.9087  1.1012 -0.2877
 1526SOL     OW16213   2.867   0.748   8.303 -0.4076 -0.0086  0.6031
 1526SOL    HW116214   2.791   0.805   8.296 -0.7490 -0.1783  2.8487
 1526SOL    HW216215   2.944   0.806   8.301  0.6950 -1.4381  1.8913
 1527SOL     OW16216   4.715   1.116   0.395  0.0949  0.1451  0.6406
 1527SOL    HW116217   0.059   1.158   0.360 -0.2664 -1.1852 -1.7654
 1527SOL    HW216218   4.721   1.136   0.488  1.6373  2.1395  0.1153
 1528SOL     OW16219   4.524   1.795   5.263 -0.1636 -0.0235 -0.3948
 1528SOL    HW116220   4.525   1.891   5.268 -2.9821  0.0194 -0.6264
 1528SOL    HW216221   4.554   1.779   5.173 -0.2260 -0.7481 -0.2791
 1529SOL     OW16222   3.941   1.488   4.762  0.1316 -0.2472  0.6791
 1529SOL    HW116223   3.978   1.400   4.765 -1.4236 -0.8502  1.5050
 1529SOL    HW216224   3.930   1.514   4.853 -0.9308 -0.6990  0.6720
 1530SOL     OW16225   4.198   1.025  13.113  0.4956  0.3797  0.5153
 1530SOL    HW116226   4.139   1.100  13.102  2.1634  1.4617 -0.9549
 1530SOL    HW216227   4.238   1.033  13.026 -0.3802  0.8521  0.1484
 1531SOL     OW16228   3.410   1.641   0.539 -0.6054  0.0042  0.1861
 1531SOL    HW116229   3.480   1.583   0.507 -0.0099  0.2599  1.0219
 1531SOL    HW216230   3.437   1.728   0.510 -2.6010 -0.1622 -2.1605
 1532SOL     OW16231   3.730   4.644  16.804 -0.0727  0.3130  0.6821
 1532SOL    HW116232   3.741   4.559  16.846  1.0663 -1.0818 -2.4175
 1532SOL    HW216233   3.635   4.651  16.800 -0.0558 -0.9080 -1.9479
 1533SOL     OW16234   2.753   1.121   3.164 -0.5683  0.1000 -0.1884
 1533SOL    HW116235   2.824   1.172   3.203 -0.5307  1.3966 -1.9444
 1533SOL    HW216236   2.776   1.115   3.072 -0.1769 -0.9300 -0.0238
 1534SOL     OW16237   0.244   0.654  15.014 -0.5614  0.1218  0.7077
 1534SOL    HW116238   0.182   0.584  14.994  0.4673 -0.4100 -0.6568
 1534SOL    HW216239   0.224   0.676  15.105 -2.6122  1.8013 -0.1483
 1535SOL     OW16240   2.192   3.806  15.887  0.5906 -0.3625  0.0338
 1535SOL    HW116241   2.218   3.854  15.966 -0.2137  1.3150 -0.7263
 1535SOL    HW216242   2.280   3.777  15.863  0.0949 -1.2226 -0.7144
 1536SOL     OW16243   1.585   3.083   1.360  0.2495 -0.4226  0.4451
 1536SOL    HW116244   1.545   3.071   1.447 -1.0181 -1.2215 -0.2450
 1536SOL    HW216245   1.513   3.105   1.301  1.7786  3.6776  0.1671
 1537SOL     OW16246   3.553   4.065   4.693  0.3106  0.3153 -0.5478
 1537SOL    HW116247   3.576   4.102   4.779  0.9146  0.3221 -0.7140
 1537SOL    HW216248   3.475   4.114   4.665 -3.2237 -2.7726  3.8671
 1538SOL     OW16249   2.749   0.237   7.681  0.7291 -0.3883  0.1642
 1538SOL    HW116250   2.761   0.191   7.765  0.7579 -3.0754 -1.3169
 1538SOL    HW216251   2.659   0.269   7.690  0.7542  0.3337 -2.3437
 1539SOL     OW16252   2.681   1.618   3.352  0.1680  0.5056  0.6676
 1539SOL    HW116253   2.674   1.542   3.410 -1.2542 -0.9067 -1.3520
 1539SOL    HW216254   2.650   1.684   3.414  0.0424 -0.2406  1.3947
 1540SOL     OW16255   4.069   0.097   5.266  0.0723 -0.3485  0.1857
 1540SOL    HW116256   4.108   0.183   5.251  0.4559 -0.3013  1.4709
 1540SOL    HW216257   3.988   0.124   5.310  1.2675  2.4015  0.7238
 1541SOL     OW16258   2.755   2.169   2.777 -0.0370  0.2286 -0.3889
 1541SOL    HW116259   2.848   2.184   2.797 -0.3530  0.9502  0.5567
 1541SOL    HW216260   2.738   2.233   2.707 -0.7781  1.4355  0.8882
 1542SOL     OW16261   4.189   1.879   1.139 -0.4052 -0.0039  0.4476
 1542SOL    HW116262   4.259   1.942   1.127 -1.9217  1.5674 -0.1592
 1542SOL    HW216263   4.198   1.868   1.234 -1.3403  1.4082  0.6941
 1543SOL     OW16264   1.156   1.998   7.993  0.3764  0.1184  0.9113
 1543SOL    HW116265   1.244   1.964   8.008  0.1545 -0.6312  0.4671
 1543SOL    HW216266   1.101   1.922   8.007  2.4516 -1.3533  1.0631
 1544SOL     OW16267   3.074   4.072  14.747  0.0470  0.4032  0.4939
 1544SOL    HW116268   3.148   4.015  14.768  1.5799  2.5312  0.7885
 1544SOL    HW216269   3.074   4.135  14.819  2.3765  0.6279  0.3146
 1545SOL     OW16270   1.025   0.824  10.009  0.4923  0.3038 -0.2815
 1545SOL    HW116271   0.997   0.776   9.931  0.0235 -1.0705  0.7355
 1545SOL    HW216272   0.976   0.905   9.994 -1.1033 -0.1074  2.6501
 1546SOL     OW16273   2.563   1.421   6.820 -0.2514 -0.8534 -0.5754
 1546SOL    HW116274   2.606   1.478   6.757 -0.9820 -0.4079 -0.6723
 1546SOL    HW216275   2.480   1.465   6.840 -0.0421 -0.9076  0.4163
 1547SOL     OW16276   0.806   4.160  11.277 -0.5782 -0.0881  0.3535
 1547SOL    HW116277   0.780   4.203  11.358 -0.7358  0.7048 -0.1178
 1547SOL    HW216278   0.774   4.072  11.297 -2.0376  0.1939 -0.6923
 1548SOL     OW16279   1.612   0.815   2.313  0.5982  0.3306 -0.0749
 1548SOL    HW116280   1.587   0.887   2.370  0.7193 -1.2686  1.9859
 1548SOL    HW216281   1.602   0.738   2.369  0.8517  1.9397  2.1329
 1549SOL     OW16282   3.733   3.094   2.124 -0.4598 -0.3913  0.1309
 1549SOL    HW116283   3.813   3.089   2.072  0.4837 -1.2889  1.6614
 1549SOL    HW216284   3.674   3.092   2.049 -0.0206 -1.4434 -0.1863
 1550SOL     OW16285   3.952   3.619   3.302 -0.2256  0.3117 -0.3622
 1550SOL    HW116286   4.014   3.606   3.374 -2.9145 -0.3837  1.8090
 1550SOL    HW216287   3.954   3.714   3.295 -2.0280  0.5162  2.0713
 1551SOL     OW16288   0.288   2.979  14.941  0.4362  0.1269 -0.4409
 1551SOL    HW116289   0.289   3.049  14.875 -0.4054 -0.1608 -0.7534
 1551SOL    HW216290   0.336   3.023  15.012 -0.6852 -1.7799  1.4836
 1552SOL     OW16291   2.272   2.395   3.155  0.2780 -0.5996 -0.2414
 1552SOL    HW116292   2.341   2.460   3.141 -0.4884 -0.2726 -2.5366
 1552SOL    HW216293   2.281   2.346   3.074 -0.8272 -0.3275 -0.5385
 1553SOL     OW16294   1.835   3.163  17.539  0.3543 -0.8253 -0.5950
 1553SOL    HW116295   1.814   3.155  17.632  1.0520  0.7133 -0.3026
 1553SOL    HW216296   1.753   3.172  17.491  0.7569  2.2995 -0.6993
 1554SOL     OW16297   0.472   3.827  16.270 -0.6871 -0.0076  0.2856
 1554SOL    HW116298   0.503   3.818  16.180 -2.9366  1.2120 -0.6004
 1554SOL    HW216299   0.491   3.920  16.284  0.0779  0.0399 -1.1377
 1555SOL     OW16300   1.722   0.028   0.389  0.4473 -0.1188 -0.8572
 1555SOL    HW116301   1.662   0.043   0.316 -2.8469 -1.1604  1.6329
 1555SOL    HW216302   1.743   0.115   0.424 -1.6535  0.1267 -0.2241
 1556SOL     OW16303   3.316   0.428   7.369  0.7489 -0.1374 -0.3406
 1556SOL    HW116304   3.402   0.386   7.380  0.6225 -0.7144 -1.5985
 1556SOL    HW216305   3.321   0.463   7.280 -2.2501 -2.9695 -1.5945
 1557SOL     OW16306   4.134   0.092  13.687  0.2647  0.4170  0.5074
 1557SOL    HW116307   4.102   0.043  13.612  2.9147 -2.0161  0.9626
 1557SOL    HW216308   4.099   0.036  13.756 -0.3838  0.2566  0.0411
 1558SOL     OW16309   0.471   3.977   9.125  0.1461 -0.4931  0.4642
 1558SOL    HW116310   0.399   3.915   9.116 -0.8030  0.4341  1.7242
 1558SOL    HW216311   0.466   4.035   9.049  2.0987 -0.2585  0.5147
 1559SOL     OW16312   1.255   2.853   4.494  0.2345  0.0149  0.1362
 1559SOL    HW116313   1.190   2.850   4.564 -0.7586  1.3038 -0.7357
 1559SOL    HW216314   1.306   2.921   4.538  0.9250  0.1716 -0.9139
 1560SOL     OW16315   1.677   0.162   4.272 -0.4111 -0.7503  0.6497
 1560SOL    HW116316   1.698   0.182   4.364  2.3601 -0.5612 -0.0156
 1560SOL    HW216317   1.696   0.069   4.279  0.3152 -0.6279  0.3445
 1561SOL     OW16318   1.061   2.883   3.521  0.5703 -0.5495 -0.3390
 1561SOL    HW116319   1.087   2.799   3.558  2.4141  0.6509  1.1149
 1561SOL    HW216320   1.095   2.945   3.586  0.2915 -0.9304  0.1735
 1562SOL     OW16321   3.021   3.796   8.601  0.0087  0.5825 -0.2179
 1562SOL    HW116322   3.060   3.764   8.683 -0.9055 -0.6814 -0.2883
 1562SOL    HW216323   2.966   3.721   8.578 -0.4862  0.6846  0.6068
 1563SOL     OW16324   1.024   4.655  14.745 -0.0049 -0.0209 -0.1911
 1563SOL    HW116325   0.989   4.602  14.817 -2.2660  2.2409  0.3656
 1563SOL    HW216326   1.109   4.670  14.786 -0.8888 -0.0790  1.6422
 1564SOL     OW16327   1.869   1.940   7.152 -0.0549  0.5118 -0.2860
 1564SOL    HW116328   1.779   1.915   7.171  0.3297  0.8634  2.1188
 1564SOL    HW216329   1.887   1.891   7.073  0.2679 -1.8613  1.2543
 1565SOL     OW16330   3.186   2.844  10.184  0.1448  0.0505  0.4995
 1565SOL    HW116331   3.234   2.853  10.266  1.9394 -0.7039 -0.4715
 1565SOL    HW216332   3.235   2.805  10.111  0.8522  0.2834  0.8514
 1566SOL     OW16333   2.939   1.442  14.499  0.2960 -0.0319  0.4159
 1566SOL    HW116334   2.985   1.357  14.497 -0.8187 -0.6523  1.3819
 1566SOL    HW216335   2.912   1.439  14.408 -0.2941  0.0029  0.5941
 1567SOL     OW16336   4.647   4.110   6.210 -0.2786 -0.0964 -0.0134
 1567SOL    HW116337   4.669   4.082   6.299  1.7813 -3.6430 -1.6399
 1567SOL    HW216338   4.563   4.149   6.232 -0.7958 -1.0111 -0.3912
 1568SOL     OW16339   0.376   1.838  12.394  1.1619 -0.0208 -0.4411
 1568SOL    HW116340   0.412   1.892  12.324  0.3184 -0.7440 -1.4407
 1568SOL    HW216341   0.445   1.859  12.458 -0.2729  0.7821  0.8335
 1569SOL     OW16342   0.157   3.440  14.854 -0.2962 -0.3346  0.5619
 1569SOL    HW116343   0.244   3.452  14.816 -1.0591  3.3999  0.0105
 1569SOL    HW216344   0.129   3.357  14.816  0.5263 -1.0935  1.6019
 1570SOL     OW16345   2.181   1.504  17.339 -0.0443 -0.4204  0.1710
 1570SOL    HW116346   2.239   1.580  17.342 -1.4777  0.7334 -1.4522
 1570SOL    HW216347   2.110   1.525  17.400 -1.6008  0.0119 -1.7828
 1571SOL     OW16348   4.537   3.502   5.564  0.0022 -0.4690 -0.5209
 1571SOL    HW116349   4.562   3.538   5.649  0.0621 -2.2106  0.2012
 1571SOL    HW216350   4.587   3.558   5.505 -0.5352  1.4481  0.8505
 1572SOL     OW16351   1.926   4.472  14.310  0.1601 -0.4191 -0.1498
 1572SOL    HW116352   1.902   4.470  14.218 -0.7898  1.9176  0.0561
 1572SOL    HW216353   1.838   4.469  14.350 -1.1676  0.3896 -3.0245
 1573SOL     OW16354   3.165   1.115   8.573  0.2695 -0.0394  0.2272
 1573SOL    HW116355   3.248   1.153   8.603  0.1629 -1.1470  1.9735
 1573SOL    HW216356   3.110   1.172   8.626 -0.5521 -1.8089  1.2795
 1574SOL     OW16357   3.106   2.831   6.681  0.2806 -0.5480 -0.1669
 1574SOL    HW116358   3.065   2.752   6.644 -0.8698  0.7886 -1.7470
 1574SOL    HW216359   3.040   2.900   6.682  0.6643 -0.2037  0.9019
 1575SOL     OW16360   0.489   0.979   4.224 -0.3651 -0.1014  0.0238
 1575SOL    HW116361   0.493   1.014   4.313 -0.3320 -2.0073  0.7627
 1575SOL    HW216362   0.574   0.938   4.211 -1.3534 -2.4183  0.8248
 1576SOL     OW16363   1.461   3.311   8.482 -0.5525 -0.4832 -0.4408
 1576SOL    HW116364   1.467   3.406   8.492  0.1626 -0.7380  1.4165
 1576SOL    HW216365   1.373   3.295   8.448 -0.0373 -0.1674 -1.9206
 1577SOL     OW16366   0.301   1.019   8.788 -0.0136 -0.0530 -0.3443
 1577SOL    HW116367   0.348   1.064   8.858 -1.9718  0.0140  0.8994
 1577SOL    HW216368   0.278   1.082   8.719 -2.2106  0.9013  1.2796
 1578SOL     OW16369   0.892   3.863   8.202  0.9026  0.3136 -0.9856
 1578SOL    HW116370   0.869   3.941   8.151 -0.6282  0.9462  0.6752
 1578SOL    HW216371   0.813   3.810   8.207 -0.0998  1.7257 -1.8300
 1579SOL     OW16372   1.658   3.151   6.725  0.1549  1.1910 -0.0983
 1579SOL    HW116373   1.716   3.198   6.664 -0.6791  0.4739 -1.4591
 1579SOL    HW216374   1.583   3.180   6.673  0.2995  2.2445  0.2701
 1580SOL     OW16375   2.345   3.961   7.939 -0.0853 -0.2273  0.5213
 1580SOL    HW116376   2.296   3.945   8.019  2.4668  1.3545  2.3948
 1580SOL    HW216377   2.280   3.943   7.870  1.8560 -0.3166 -1.2981
 1581SOL     OW16378   0.729   0.349   6.909 -1.0167  0.6267 -0.4813
 1581SOL    HW116379   0.720   0.389   6.823  1.4916  1.0162 -0.5442
 1581SOL    HW216380   0.824   0.361   6.913 -0.9263  0.0169 -0.7250
 1582SOL     OW16381   0.943   3.745  13.181 -0.1644  0.3953  0.0106
 1582SOL    HW116382   0.860   3.790  13.163 -0.4559  0.8877  2.6856
 1582SOL    HW216383   1.010   3.806  13.151  0.3798  0.3126  1.0854
 1583SOL     OW16384   3.914   2.283   0.239 -0.3697  0.0823 -0.1292
 1583SOL    HW116385   3.975   2.241   0.299  0.6238 -2.1910 -2.7348
 1583SOL    HW216386   3.835   2.297   0.290  0.0410  0.3097  0.4436
 1584SOL     OW16387   3.628   3.402  11.320  0.8113  0.2532 -0.2070
 1584SOL    HW116388   3.569   3.363  11.385 -0.3546  2.8857  0.3225
 1584SOL    HW216389   3.688   3.332  11.294 -1.4949 -0.8910 -2.4265
 1585SOL     OW16390   3.217   0.841   2.937  0.4517 -0.0613 -1.0410
 1585SOL    HW116391   3.185   0.922   2.977  0.2871 -0.6188 -0.0519
 1585SOL    HW216392   3.305   0.835   2.974 -0.4945 -0.7319  1.1012
 1586SOL     OW16393   3.014   4.711   8.050 -0.9384 -0.5603  0.1493
 1586SOL    HW116394   3.036   0.010   7.963 -0.7583 -0.2434  0.3175
 1586SOL    HW216395   3.095   4.723   8.100 -0.2842 -3.2159 -0.2825
 1587SOL     OW16396   3.727   2.500  14.746  0.0002 -0.6371  0.6940
 1587SOL    HW116397   3.768   2.557  14.812  0.3244  2.7126 -2.4036
 1587SOL    HW216398   3.802   2.451  14.712 -0.4345 -0.9812  0.2214
 1588SOL     OW16399   3.524   0.536   6.330  0.3872 -0.4189 -0.2269
 1588SOL    HW116400   3.445   0.485   6.317 -0.8755  1.3638  0.4529
 1588SOL    HW216401   3.511   0.599   6.259 -1.2565  1.4884  1.7506
 1589SOL     OW16402   3.606   0.252   4.800  0.1641  0.0203 -0.3625
 1589SOL    HW116403   3.623   0.346   4.797 -1.9691  0.4526  1.0478
 1589SOL    HW216404   3.676   0.219   4.743  0.0879 -0.3433 -0.2477
 1590SOL     OW16405   0.038   1.213  17.260  0.0341 -0.3832  0.2624
 1590SOL    HW116406   0.129   1.185  17.249  0.4387  1.4903 -1.0926
 1590SOL    HW216407   0.002   1.163  17.187 -0.8962  0.6817  0.0009
 1591SOL     OW16408   3.073   3.202   9.237 -0.7291 -0.4407  0.1124
 1591SOL    HW116409   3.094   3.295   9.247  1.2723 -0.9231  0.3711
 1591SOL    HW216410   2.978   3.207   9.247 -0.6428  0.2929  0.5634
 1592SOL     OW16411   4.713   1.918   5.747  0.1118 -0.1714 -0.3539
 1592SOL    HW116412   4.666   1.876   5.819  0.6027  0.2210  0.1820
 1592SOL    HW216413   0.043   1.851   5.726  1.8652  1.0393  1.3059
 1593SOL     OW16414   0.090   0.744   9.171  0.4648 -0.2038  0.0815
 1593SOL    HW116415   0.165   0.759   9.228 -0.4214 -0.3259  1.2804
 1593SOL    HW216416   0.036   0.695   9.233 -0.7772  1.8467  0.6065
 1594SOL     OW16417   4.564   0.362  14.854  0.3485  0.3836 -0.1839
 1594SOL    HW116418   4.568   0.458  14.858  1.3329  0.4254 -2.4655
 1594SOL    HW216419   4.554   0.337  14.762  0.3513 -0.0691 -0.0616
 1595SOL     OW16420   2.253   2.316   7.299 -0.4730 -0.0278 -0.2219
 1595SOL    HW116421   2.198   2.239   7.285  0.7878 -1.3121  1.8715
 1595SOL    HW216422   2.241   2.350   7.210 -0.8254 -0.0022 -0.1636
 1596SOL     OW16423   2.188   1.639  10.750  0.1022  0.5073 -0.1452
 1596SOL    HW116424   2.202   1.692  10.829 -0.1193  0.1586  0.1278
 1596SOL    HW216425   2.156   1.558  10.789  0.1645 -0.7319 -2.6892
 1597SOL     OW16426   1.365   0.651  14.820 -0.2753  0.1537 -0.2885
 1597SOL    HW116427   1.292   0.711  14.806  0.1147  0.9722  1.2474
 1597SOL    HW216428   1.375   0.599  14.740  1.5726 -1.6200  1.0967
 1598SOL     OW16429   0.958   3.372   7.931 -0.0578 -0.4913  0.1354
 1598SOL    HW116430   0.984   3.430   8.002  0.2676 -0.2453 -0.1891
 1598SOL    HW216431   0.865   3.392   7.922  1.0333  4.2035 -0.6730
 1599SOL     OW16432   4.295   3.451   5.913  0.1065  0.2784 -0.3643
 1599SOL    HW116433   4.231   3.452   5.985 -1.7281 -1.6750 -1.9752
 1599SOL    HW216434   4.278   3.535   5.870 -2.2375  1.0954  2.0953
 1600SOL     OW16435   3.002   2.811   8.787  0.0493 -0.2628 -0.2383
 1600SOL    HW116436   3.064   2.833   8.718  1.0032 -1.4514  0.2390
 1600SOL    HW216437   2.975   2.893   8.829  2.9174  0.5594 -0.0071
 1601SOL     OW16438   3.843   0.560  13.899 -0.1315 -0.0972  0.8023
 1601SOL    HW116439   3.848   0.517  13.813  2.8906 -0.1002  0.9504
 1601SOL    HW216440   3.865   0.490  13.960  2.0404 -0.3973 -0.3079
 1602SOL     OW16441   2.257   3.470   2.507 -0.5526 -0.5118  0.0843
 1602SOL    HW116442   2.345   3.449   2.537 -0.2246  1.5001  0.4907
 1602SOL    HW216443   2.240   3.391   2.454  0.5274 -0.4262 -0.3985
 1603SOL     OW16444   3.469   0.318   3.708 -0.0413  0.4666 -0.2311
 1603SOL    HW116445   3.452   0.410   3.686 -1.0145  0.2999 -0.1963
 1603SOL    HW216446   3.397   0.321   3.771 -0.6331 -1.1929 -0.8305
 1604SOL     OW16447   3.424   4.524  15.300  0.1393 -0.0121  0.3044
 1604SOL    HW116448   3.375   4.603  15.278  0.1959  0.1417  0.7192
 1604SOL    HW216449   3.357   4.476  15.350 -2.8215  2.1191 -1.5938
 1605SOL     OW16450   3.582   1.350  10.376  0.1292 -0.1890 -0.0863
 1605SOL    HW116451   3.673   1.322  10.371  0.0246 -0.8003  1.6141
 1605SOL    HW216452   3.538   1.286  10.319 -1.8005 -0.2943  1.5149
 1606SOL     OW16453   4.681   2.973   0.763 -1.0940 -0.4904  0.2588
 1606SOL    HW116454   4.678   2.924   0.681  0.0620  0.2917 -0.2490
 1606SOL    HW216455   4.612   3.039   0.753 -0.3534  0.2221 -0.1846
 1607SOL     OW16456   3.412   3.282   8.600 -0.6381  0.2056 -0.2960
 1607SOL    HW116457   3.455   3.219   8.657 -2.3561  0.5646  1.3923
 1607SOL    HW216458   3.484   3.341   8.575 -0.3996  0.1357  0.2224
 1608SOL     OW16459   3.984   1.201   3.415  0.6983  0.5212  0.1614
 1608SOL    HW116460   4.026   1.173   3.334 -0.6837  0.0574 -0.4126
 1608SOL    HW216461   3.978   1.296   3.407 -0.6639  0.1429 -3.2295
 1609SOL     OW16462   2.522   2.521   6.336  0.4414  0.5572 -0.5616
 1609SOL    HW116463   2.545   2.533   6.428 -0.1703  2.4347 -0.6696
 1609SOL    HW216464   2.540   2.427   6.339 -0.2746  0.4505  0.4163
 1610SOL     OW16465   0.648   3.783   4.032  0.1744  0.0387  0.2951
 1610SOL    HW116466   0.737   3.782   4.067  0.1181  2.7676  0.5234
 1610SOL    HW216467   0.658   3.700   3.985  0.4818 -0.3275  0.9938
 1611SOL     OW16468   0.556   2.417  11.981 -0.3880 -1.1563  0.3300
 1611SOL    HW116469   0.604   2.458  11.910  0.0132 -1.9402  0.1460
 1611SOL    HW216470   0.616   2.344  11.994  0.0576 -0.8474 -0.0096
 1612SOL     OW16471   1.649   0.345   6.993  0.2444 -0.2927 -0.1229
 1612SOL    HW116472   1.680   0.433   6.970 -0.6009  0.1895  0.5571
 1612SOL    HW216473   1.733   0.302   7.011  0.2757  0.3200  1.2107
 1613SOL     OW16474   0.671   2.119   7.520  0.5771 -0.1422 -0.0495
 1613SOL    HW116475   0.631   2.167   7.593 -1.8484  1.1397 -2.2264
 1613SOL    HW216476   0.607   2.134   7.450 -0.8873  0.5640  1.4319
 1614SOL     OW16477   1.007   1.611   3.646 -0.3537 -0.0126  0.0283
 1614SOL    HW116478   1.021   1.555   3.570 -0.5844 -0.5465  0.3729
 1614SOL    HW216479   0.914   1.604   3.668 -0.0472  0.7389  1.6112
 1615SOL     OW16480   2.811   0.046   5.933  0.1402 -0.0608 -0.1004
 1615SOL    HW116481   2.738   0.050   5.870 -0.9932  0.2807  1.2234
 1615SOL    HW216482   2.768   0.089   6.007 -0.2671 -0.7198  0.0548
 1616SOL     OW16483   3.245   4.015  13.635 -0.3165  0.3202 -0.7018
 1616SOL    HW116484   3.209   4.064  13.561 -1.1961  0.0159 -0.4823
 1616SOL    HW216485   3.308   4.080  13.665  0.2830 -0.4089 -0.3639
 1617SOL     OW16486   4.703   1.223   5.701  0.5899  0.3190  0.2348
 1617SOL    HW116487   4.715   1.284   5.774 -1.0045  2.5526 -1.3930
 1617SOL    HW216488   4.673   1.145   5.749  0.9332 -0.5068 -0.8881
 1618SOL     OW16489   3.696   3.594   3.369 -0.3340 -0.1249  0.4205
 1618SOL    HW116490   3.786   3.575   3.341 -0.3334  1.1470 -0.4193
 1618SOL    HW216491   3.665   3.680   3.340 -1.1269 -0.6757 -0.3555
 1619SOL     OW16492   3.481   3.872  13.091 -0.3603  0.3318  0.9562
 1619SOL    HW116493   3.497   3.906  13.003 -1.0614 -1.9279 -0.0399
 1619SOL    HW216494   3.414   3.803  13.088  0.9983 -0.9356 -0.5216
 1620SOL     OW16495   0.728   4.514  10.793  0.6448 -0.1251 -0.7008
 1620SOL    HW116496   0.709   4.568  10.869 -0.4471  0.0457 -1.0868
 1620SOL    HW216497   0.804   4.475  10.835  1.9827  1.7600 -1.3907
 1621SOL     OW16498   4.488   4.127   8.933 -0.6723  0.1422  0.4316
 1621SOL    HW116499   4.501   4.033   8.946  0.3258  0.2403  0.1643
 1621SOL    HW216500   4.502   4.164   9.020 -3.3684 -0.7658  1.2547
 1622SOL     OW16501   1.940   2.028  10.422  0.6222  0.1206  0.3581
 1622SOL    HW116502   1.974   1.940  10.442  0.8233  0.4348  1.3605
 1622SOL    HW216503   2.019   2.069  10.387  0.0106  0.8271 -0.1910
 1623SOL     OW16504   2.285   0.292  15.025  0.2722 -0.3051 -0.6529
 1623SOL    HW116505   2.345   0.217  15.031  0.2517 -0.1459  1.3995
 1623SOL    HW216506   2.201   0.249  15.007  0.7575 -2.4672  2.2185
 1624SOL     OW16507   4.080   1.564  11.731 -0.7632  0.3056 -0.3562
 1624SOL    HW116508   4.031   1.645  11.746 -0.6836  0.7499 -2.6032
 1624SOL    HW216509   4.013   1.500  11.754 -0.5664  1.3161  3.0527
 1625SOL     OW16510   3.848   0.804  12.524  0.6143  0.0560 -0.1471
 1625SOL    HW116511   3.818   0.779  12.436  0.1198  1.1649 -0.2875
 1625SOL    HW216512   3.847   0.721  12.572  0.1369 -0.1095 -0.4407
 1626SOL     OW16513   4.415   3.033   7.576 -0.3348 -0.2177  0.9636
 1626SOL    HW116514   4.464   3.034   7.494  0.7559 -1.4866  1.6087
 1626SOL    HW216515   4.449   2.947   7.600 -2.1605 -1.9031 -2.5148
 1627SOL     OW16516   0.706   2.110   6.832  0.0076  0.3083 -0.4990
 1627SOL    HW116517   0.672   2.177   6.891 -0.2779  1.4936 -2.0015
 1627SOL    HW216518   0.648   2.129   6.758  1.3883  2.9035 -0.9338
 1628SOL     OW16519   1.500   2.282   6.630 -0.2795  0.0740  0.1009
 1628SOL    HW116520   1.425   2.227   6.654  0.3924 -1.0426 -0.3897
 1628SOL    HW216521   1.545   2.240   6.558 -0.2767 -2.1340  1.4029
 1629SOL     OW16522   1.224   1.688   0.684  0.3807  0.0233  0.6022
 1629SOL    HW116523   1.251   1.763   0.631  0.7558 -0.1014  0.6206
 1629SOL    HW216524   1.158   1.735   0.736 -0.1322  0.5126 -0.4986
 1630SOL     OW16525   1.132   2.722  11.647 -0.3620  0.0653 -0.0781
 1630SOL    HW116526   1.207   2.713  11.706  0.1470  1.6058 -0.4904
 1630SOL    HW216527   1.174   2.759  11.569  0.8812 -2.8311 -0.7963
 1631SOL     OW16528   2.325   4.216  14.229  0.1373  0.0985  0.3575
 1631SOL    HW116529   2.311   4.294  14.282 -0.1588  0.2975 -0.0156
 1631SOL    HW216530   2.240   4.220  14.185  0.6122  0.5215 -0.5213
 1632SOL     OW16531   1.226   0.069   6.316  0.0622  0.8650  0.6498
 1632SOL    HW116532   1.152   0.057   6.376 -1.3735  1.0061 -1.0728
 1632SOL    HW216533   1.190   0.026   6.238  0.2620 -1.6941  1.9741
 1633SOL     OW16534   0.984   2.257  16.869 -0.7951 -0.0957  0.0265
 1633SOL    HW116535   1.043   2.325  16.899 -0.1536 -0.4273 -0.4791
 1633SOL    HW216536   1.007   2.267  16.776  1.7641  1.4790  0.8330
 1634SOL     OW16537   2.792   4.120  12.959  0.2480 -0.0047 -0.0845
 1634SOL    HW116538   2.734   4.177  12.909  0.4856  1.4387  1.2505
 1634SOL    HW216539   2.866   4.181  12.958 -1.5910  2.3077  3.9393
 1635SOL     OW16540   3.793   1.646  10.329 -0.0521 -0.2003  0.1454
 1635SOL    HW116541   3.722   1.698  10.293  0.9267  0.4346 -0.8341
 1635SOL    HW216542   3.787   1.564  10.279 -1.9563  0.5220 -0.8113
 1636SOL     OW16543   3.433   4.294   8.416 -0.0557  0.1909  0.0117
 1636SOL    HW116544   3.367   4.234   8.451  0.4434 -0.3680 -0.0177
 1636SOL    HW216545   3.381   4.335   8.346  0.7438  1.7828  0.3485
 1637SOL     OW16546   0.426   4.158   8.868 -0.0639  0.9329  0.2593
 1637SOL    HW116547   0.331   4.175   8.866 -0.1856  0.0055 -1.6496
 1637SOL    HW216548   0.453   4.232   8.814  0.5177 -0.4058 -1.2873
 1638SOL     OW16549   2.723   0.437   5.990 -0.5637 -0.6709  0.1741
 1638SOL    HW116550   2.686   0.525   5.980 -0.9819 -1.1747 -2.6444
 1638SOL    HW216551   2.784   0.449   6.063  1.7569 -2.2781 -1.4564
 1639SOL     OW16552   2.230   3.784   1.071  0.7069  0.4016  0.0031
 1639SOL    HW116553   2.150   3.834   1.086  0.5822 -0.3879  2.0168
 1639SOL    HW216554   2.209   3.716   1.007 -0.3575  0.9867 -0.2735
 1640SOL     OW16555   4.633   1.630  10.004 -0.3125  0.3372  0.0782
 1640SOL    HW116556   4.542   1.634  10.033 -0.3785 -0.5488 -0.0219
 1640SOL    HW216557   4.672   1.644  10.090  0.3225 -1.2574  0.0363
 1641SOL     OW16558   3.500   1.179   7.553 -0.6500 -0.1972  0.3050
 1641SOL    HW116559   3.532   1.127   7.627  1.4106 -1.6096 -1.5599
 1641SOL    HW216560   3.470   1.112   7.491  0.0626 -1.6347  1.5307
 1642SOL     OW16561   2.750   3.140   8.090 -0.1289  0.2310 -0.0019
 1642SOL    HW116562   2.800   3.171   8.165  0.7740  1.2301 -1.0304
 1642SOL    HW216563   2.667   3.186   8.103 -0.3702  0.1480 -1.2354
 1643SOL     OW16564   2.339   2.743   8.317  0.0976 -0.5951 -0.4422
 1643SOL    HW116565   2.422   2.697   8.322 -0.4882 -1.9166 -3.0815
 1643SOL    HW216566   2.279   2.688   8.366  3.5116 -2.6417  1.4168
 1644SOL     OW16567   2.814   0.939  17.120  0.3793 -0.7452  0.4965
 1644SOL    HW116568   2.733   0.953  17.070  1.1528  0.5932 -0.4159
 1644SOL    HW216569   2.843   0.853  17.089  0.1605  0.2934 -2.6005
 1645SOL     OW16570   2.951   1.708  13.887 -0.3988 -0.1325 -0.0156
 1645SOL    HW116571   2.902   1.748  13.958  0.9195 -1.0256  1.3854
 1645SOL    HW216572   2.983   1.629  13.930 -1.2127  0.0879  0.9942
 1646SOL     OW16573   1.200   4.312   4.109  0.0874 -0.2149  0.3417
 1646SOL    HW116574   1.213   4.303   4.204  1.8336 -1.3404 -0.0015
 1646SOL    HW216575   1.290   4.305   4.076  0.9373  0.9904  2.4164
 1647SOL     OW16576   2.927   0.315   7.923 -0.0074 -0.6017  0.3476
 1647SOL    HW116577   2.851   0.257   7.932  0.0713 -0.7068  0.3372
 1647SOL    HW216578   2.944   0.324   8.017 -0.7921  0.0286  0.4250
 1648SOL     OW16579   4.639   0.963   4.422  0.3138  0.5924 -0.2236
 1648SOL    HW116580   4.723   0.927   4.448 -1.3068 -2.4487  0.7975
 1648SOL    HW216581   4.642   0.966   4.326 -1.0279  0.4389 -0.2727
 1649SOL     OW16582   0.982   3.178   4.794  0.4806  0.1506 -0.3641
 1649SOL    HW116583   0.998   3.137   4.709 -1.4590 -2.5026  0.5471
 1649SOL    HW216584   0.923   3.113   4.833 -0.3256  0.0842 -1.6914
 1650SOL     OW16585   2.406   0.110  11.483  0.0201 -0.8708  0.1812
 1650SOL    HW116586   2.314   0.119  11.457 -0.1448 -0.9238  0.7590
 1650SOL    HW216587   2.406   0.040  11.548 -0.7805 -1.0771 -0.0380
 1651SOL     OW16588   0.181   2.499   8.371  0.2276  0.6040 -0.0161
 1651SOL    HW116589   0.157   2.570   8.431  1.3568  1.2015 -0.2815
 1651SOL    HW216590   0.134   2.525   8.292 -1.4509  2.7919  1.6812
 1652SOL     OW16591   2.608   1.972   5.567 -0.4059 -0.9067 -0.2321
 1652SOL    HW116592   2.571   1.960   5.480 -1.1359  0.5089 -0.1167
 1652SOL    HW216593   2.532   2.010   5.611  1.3239  0.6375  1.4507
 1653SOL     OW16594   1.091   1.981   8.354 -0.2230  0.0497  0.3242
 1653SOL    HW116595   1.097   1.954   8.446  3.1150  0.3434  0.2055
 1653SOL    HW216596   1.002   2.016   8.358  0.4705  1.7211  1.3192
 1654SOL     OW16597   1.689   1.487   1.148  0.3450 -0.4298 -0.1974
 1654SOL    HW116598   1.728   1.423   1.207  1.8676 -0.4939 -1.2899
 1654SOL    HW216599   1.735   1.565   1.178  0.1108 -0.9715  1.5837
 1655SOL     OW16600   0.451   1.414   4.201  0.2773 -0.0603  0.6660
 1655SOL    HW116601   0.501   1.374   4.272 -0.8621  0.8558  1.9677
 1655SOL    HW216602   0.469   1.349   4.133 -1.7962  0.5710 -0.4934
 1656SOL     OW16603   1.340   1.993   9.517 -0.0428 -0.8350  0.6805
 1656SOL    HW116604   1.381   1.970   9.601 -1.7760 -3.8067  0.7279
 1656SOL    HW216605   1.417   1.980   9.462  0.7408  0.6795  1.4214
 1657SOL     OW16606   2.694   0.337  16.382  0.7853 -0.5992 -0.8988
 1657SOL    HW116607   2.640   0.270  16.424 -0.2396  1.1857  0.6209
 1657SOL    HW216608   2.668   0.334  16.290 -1.2694 -2.3089 -0.2663
 1658SOL     OW16609   4.628   1.997   1.592  0.3748 -0.2008 -0.4281
 1658SOL    HW116610   4.684   1.938   1.644 -0.0230 -0.5190 -0.3638
 1658SOL    HW216611   4.549   1.948   1.572  0.0320 -0.1021  0.6779
 1659SOL     OW16612   4.009   3.046   7.579  0.3689 -0.1665  0.4080
 1659SOL    HW116613   4.031   3.137   7.601 -1.0791  0.4053 -0.4728
 1659SOL    HW216614   3.939   3.052   7.514  0.8659 -1.0711 -0.2078
 1660SOL     OW16615   0.257   1.977   2.710 -0.2769  0.9402 -0.1897
 1660SOL    HW116616   0.284   1.976   2.618 -2.0705  0.1177 -0.7133
 1660SOL    HW216617   0.217   2.064   2.707  0.1873  1.1805  0.8044
 1661SOL     OW16618   4.175   1.193   8.244 -0.5079 -0.1223  0.4163
 1661SOL    HW116619   4.228   1.125   8.202 -0.9878  1.3809 -2.6165
 1661SOL    HW216620   4.124   1.140   8.305  0.1991 -0.9496  0.2887
 1662SOL     OW16621   4.452   1.163  14.486  0.3020  0.2226  0.1019
 1662SOL    HW116622   4.464   1.248  14.445  1.5217  0.2226  0.4482
 1662SOL    HW216623   4.358   1.164  14.499  0.3699  0.8586  0.5431
 1663SOL     OW16624   2.922   0.944   4.454  0.2047 -0.3658 -0.1265
 1663SOL    HW116625   2.848   0.932   4.513 -0.6362 -2.0822 -1.5092
 1663SOL    HW216626   2.902   0.872   4.393  0.4479 -1.4090  1.0328
 1664SOL     OW16627   1.359   2.802  11.765  0.2090 -0.2190  0.3337
 1664SOL    HW116628   1.449   2.770  11.759 -0.4774 -1.8738 -1.2028
 1664SOL    HW216629   1.376   2.895  11.750  0.0649  0.0140  1.6229
 1665SOL     OW16630   3.444   3.329   6.471 -0.0761  0.7061  0.1994
 1665SOL    HW116631   3.453   3.423   6.456 -0.6747  0.5765 -0.9393
 1665SOL    HW216632   3.448   3.322   6.566  1.8448 -0.6766  0.0011
 1666SOL     OW16633   0.243   3.829   1.071  0.3647  0.5404 -0.5394
 1666SOL    HW116634   0.215   3.907   1.024  0.2160  1.6378  1.4146
 1666SOL    HW216635   0.161   3.810   1.117  1.7022 -1.0381  1.1969
 1667SOL     OW16636   4.172   0.524   1.965 -0.1123 -0.4921 -0.0014
 1667SOL    HW116637   4.155   0.535   2.059 -0.0222 -3.2320  0.3465
 1667SOL    HW216638   4.243   0.460   1.970  2.5734  2.6372  1.4888
 1668SOL     OW16639   0.980   0.323   8.454  0.3889 -0.3074 -0.4175
 1668SOL    HW116640   0.932   0.248   8.419  0.4929 -0.2640 -0.6560
 1668SOL    HW216641   0.909   0.376   8.490  0.0939 -1.6400  0.9359
 1669SOL     OW16642   2.272   3.235   4.746  0.3138  0.5084  0.1520
 1669SOL    HW116643   2.186   3.255   4.709 -1.0148 -2.8292  1.4580
 1669SOL    HW216644   2.278   3.143   4.720 -1.6314  0.9845 -2.0320
 1670SOL     OW16645   0.191   1.762   1.179 -0.3679 -0.3216 -0.1009
 1670SOL    HW116646   0.152   1.684   1.220 -0.5528 -0.2850 -0.2060
 1670SOL    HW216647   0.121   1.816   1.215  0.4779  0.6591  0.0463
 1671SOL     OW16648   0.694   4.146   8.203 -0.0287  0.5802  0.1696
 1671SOL    HW116649   0.603   4.147   8.234 -0.3249  1.2251 -0.7018
 1671SOL    HW216650   0.699   4.093   8.123 -0.0545  1.0864 -0.1649
 1672SOL     OW16651   2.697   1.924   2.262  0.3956 -0.3468  0.1807
 1672SOL    HW116652   2.675   1.854   2.324  1.4660  0.7975  1.8661
 1672SOL    HW216653   2.757   1.973   2.319  1.0678 -1.6457  0.6015
 1673SOL     OW16654   4.685   3.589   5.344  0.2685 -0.3787  0.2713
 1673SOL    HW116655   0.027   3.570   5.397 -0.2686 -2.6471  0.2315
 1673SOL    HW216656   4.726   3.582   5.257  0.2695 -1.5282  0.3658
 1674SOL     OW16657   3.351   3.464   9.794 -0.8442 -0.3674 -0.4924
 1674SOL    HW116658   3.295   3.398   9.835  0.5337 -0.3683  1.4037
 1674SOL    HW216659   3.413   3.484   9.864 -0.3412  1.1534 -1.3653
 1675SOL     OW16660   3.824   2.357   5.084  0.0015  0.0647  0.0773
 1675SOL    HW116661   3.812   2.417   5.010  1.3743  0.2015 -0.0413
 1675SOL    HW216662   3.920   2.351   5.089 -0.0356 -0.1170  0.5505
 1676SOL     OW16663   1.490   3.423   3.361  0.2878  0.1252 -0.4087
 1676SOL    HW116664   1.449   3.438   3.446 -1.7513  1.1679 -1.5895
 1676SOL    HW216665   1.521   3.333   3.375 -0.1812  0.0158 -0.0944
 1677SOL     OW16666   4.484   2.928  12.389 -0.8329  0.7194 -0.3565
 1677SOL    HW116667   4.456   2.853  12.337 -3.1179  1.8778 -0.8191
 1677SOL    HW216668   4.579   2.917  12.397 -0.6812  1.2816 -1.3072
 1678SOL     OW16669   1.099   3.355   8.353 -0.2541 -0.4515 -0.1002
 1678SOL    HW116670   1.127   3.444   8.334 -0.5737 -0.5194 -0.8875
 1678SOL    HW216671   1.108   3.353   8.449 -2.0561  1.7586  0.1124
 1679SOL     OW16672   3.959   0.384   7.441  0.1288 -0.2998 -0.4897
 1679SOL    HW116673   4.016   0.340   7.505 -1.2366 -0.1011  0.8532
 1679SOL    HW216674   3.921   0.310   7.394 -2.3171  0.6903 -0.0745
 1680SOL     OW16675   1.272   2.667   9.257  0.9307 -0.1553 -0.2736
 1680SOL    HW116676   1.355   2.625   9.235  3.3108  2.9934  2.4660
 1680SOL    HW216677   1.239   2.619   9.333  2.2376 -1.5884 -0.6087
 1681SOL     OW16678   4.289   0.957  15.086 -0.6155 -0.0192 -0.2665
 1681SOL    HW116679   4.299   1.051  15.070 -1.9006  0.5489  2.2589
 1681SOL    HW216680   4.382   0.934  15.092 -0.3413  1.4932  1.3729
 1682SOL     OW16681   3.315   1.933   3.574  0.0978  0.1220 -0.1194
 1682SOL    HW116682   3.253   1.946   3.646 -0.4319 -0.5937 -0.4440
 1682SOL    HW216683   3.296   2.000   3.509 -0.5687  1.5650  1.5678
 1683SOL     OW16684   1.432   3.400   0.928  0.3692  0.1646 -0.0570
 1683SOL    HW116685   1.342   3.394   0.896 -0.3459  2.3679  1.5708
 1683SOL    HW216686   1.473   3.319   0.896 -1.4623 -0.0580 -1.8571
 1684SOL     OW16687   1.962   3.453  17.475 -0.1499 -0.0977  0.9335
 1684SOL    HW116688   2.021   3.426  17.404  0.3214  0.2604  1.1881
 1684SOL    HW216689   1.903   3.378  17.467  1.0728 -0.8352 -1.1417
 1685SOL     OW16690   2.212   4.033   4.518 -0.2885 -0.1074 -0.0604
 1685SOL    HW116691   2.296   4.056   4.557 -0.7511  0.1463  0.7771
 1685SOL    HW216692   2.233   3.944   4.488  0.7007  0.1458 -0.1394
 1686SOL     OW16693   3.476   0.074   8.865 -0.0103  0.7215 -0.4130
 1686SOL    HW116694   3.496   0.162   8.833  1.2947  0.8483  0.7678
 1686SOL    HW216695   3.559   0.047   8.905 -0.3038  0.2212 -0.1336
 1687SOL     OW16696   3.536   3.800   0.666  0.0639  0.0799 -0.1577
 1687SOL    HW116697   3.551   3.773   0.756 -1.4356 -2.6704 -0.7452
 1687SOL    HW216698   3.466   3.866   0.665 -0.1826 -0.1483  1.6447
 1688SOL     OW16699   3.379   3.581  13.406 -0.5571  0.2267  0.1955
 1688SOL    HW116700   3.349   3.622  13.325  0.6783 -0.6841 -0.7199
 1688SOL    HW216701   3.460   3.538  13.376 -0.6734 -1.0725  1.6928
 1689SOL     OW16702   1.013   4.520   3.367  0.1426  0.2765  0.1255
 1689SOL    HW116703   1.003   4.563   3.282  2.6614 -1.7406 -1.1921
 1689SOL    HW216704   1.056   4.589   3.417  0.2868 -1.9618  3.1100
 1690SOL     OW16705   0.493   1.325   4.481  0.0322  0.7078 -0.4090
 1690SOL    HW116706   0.574   1.324   4.531 -0.6693  0.7889  0.7267
 1690SOL    HW216707   0.446   1.254   4.525 -0.2553  1.8572  1.1099
 1691SOL     OW16708   1.607   2.190   1.818 -0.2203  0.2467  0.0955
 1691SOL    HW116709   1.587   2.277   1.785 -0.3608  0.8755  1.8439
 1691SOL    HW216710   1.562   2.184   1.902  0.7725 -1.4776  0.5133
 1692SOL     OW16711   1.061   1.349   4.687  0.4602  0.1864  0.5042
 1692SOL    HW116712   0.965   1.356   4.692  0.7866  3.7404  1.6491
 1692SOL    HW216713   1.084   1.334   4.778  2.7177  0.0827 -0.0823
 1693SOL     OW16714   4.344   1.706  16.369  0.1208  0.2472  0.2670
 1693SOL    HW116715   4.312   1.628  16.415  1.9642 -0.4345  0.3921
 1693SOL    HW216716   4.383   1.760  16.439  0.2992 -0.8899  1.0433
 1694SOL     OW16717   4.324   4.182  13.810 -0.1222 -0.1186  0.1968
 1694SOL    HW116718   4.308   4.159  13.718  0.3100 -2.8514  0.8126
 1694SOL    HW216719   4.258   4.125  13.848  0.8009 -1.3210 -0.0178
 1695SOL     OW16720   3.439   0.686   5.341  0.3332  0.0887 -0.4377
 1695SOL    HW116721   3.354   0.654   5.309 -0.5638  3.2188 -1.1941
 1695SOL    HW216722   3.484   0.604   5.362 -0.3390  0.1232  1.1542
 1696SOL     OW16723   4.490   4.107  14.734 -0.2315  0.5899 -0.6232
 1696SOL    HW116724   4.423   4.080  14.672  1.0530  0.0037 -1.7528
 1696SOL    HW216725   4.558   4.040  14.721 -1.6733 -1.0737  0.3438
 1697SOL     OW16726   4.665   2.486   7.191  0.1191 -0.2482  0.1072
 1697SOL    HW116727   0.007   2.432   7.209  0.6513 -0.6231 -3.4210
 1697SOL    HW216728   4.600   2.470   7.259 -0.4516  0.9315 -0.1522
 1698SOL     OW16729   1.713   1.847   3.183 -0.7316 -0.2775  0.1425
 1698SOL    HW116730   1.798   1.814   3.154  0.3652  1.2417  1.6413
 1698SOL    HW216731   1.740   1.890   3.265 -2.0423 -0.2378  0.5524
 1699SOL     OW16732   0.910   4.230   8.345 -0.7016 -0.6783 -0.4931
 1699SOL    HW116733   0.956   4.183   8.276 -2.1333  0.2651 -2.1084
 1699SOL    HW216734   0.821   4.215   8.313 -0.7160 -0.9715 -0.3093
 1700SOL     OW16735   1.401   2.454   9.504 -0.2856  0.4964 -0.7582
 1700SOL    HW116736   1.484   2.469   9.548 -0.7375  1.2923 -0.1793
 1700SOL    HW216737   1.347   2.509   9.560 -1.9013 -3.1097  1.2039
 1701SOL     OW16738   2.558   2.235   3.314  0.2373  0.4372 -0.3155
 1701SOL    HW116739   2.559   2.245   3.219  2.8904 -0.0448 -0.3197
 1701SOL    HW216740   2.464   2.247   3.327  0.3490  0.8870  0.0554
 1702SOL     OW16741   1.160   1.941   2.842  0.0779  0.5711  0.1581
 1702SOL    HW116742   1.082   1.887   2.856 -1.0564  1.9591 -0.7930
 1702SOL    HW216743   1.113   2.014   2.803  0.2361  0.9845  0.7476
 1703SOL     OW16744   4.172   3.319  12.861 -0.5710  0.0524 -0.1165
 1703SOL    HW116745   4.265   3.340  12.872 -0.4621 -1.5466  2.1004
 1703SOL    HW216746   4.180   3.228  12.832  0.5777 -0.2161  1.0253
 1704SOL     OW16747   1.052   3.350   2.978 -1.0051 -0.0275 -0.0044
 1704SOL    HW116748   0.986   3.365   2.911 -1.4251 -0.2093  0.3701
 1704SOL    HW216749   1.076   3.442   2.987 -0.3010 -0.2327  0.2344
 1705SOL     OW16750   4.358   2.935   3.261  0.0880 -0.5065 -0.1604
 1705SOL    HW116751   4.338   2.978   3.344  1.1619 -0.9845  0.3465
 1705SOL    HW216752   4.276   2.959   3.218  1.9015  1.1269 -2.7267
 1706SOL     OW16753   0.712   0.041   9.268 -0.4302 -0.0154  0.2412
 1706SOL    HW116754   0.674   0.064   9.353 -0.4123  0.6997  0.0567
 1706SOL    HW216755   0.801   0.012   9.290 -0.6785  0.1410  1.4406
 1707SOL     OW16756   0.984   2.549   7.372 -1.0530 -0.3669 -0.3025
 1707SOL    HW116757   0.933   2.471   7.392 -2.2203 -0.1607 -2.4977
 1707SOL    HW216758   0.964   2.598   7.452 -0.1986 -1.3872  0.5346
 1708SOL     OW16759   4.623   0.824   0.414 -0.3390  0.9182  0.1156
 1708SOL    HW116760   4.621   0.820   0.318 -1.5640  0.0750  0.1707
 1708SOL    HW216761   4.653   0.913   0.433  0.2299  1.2417 -2.2717
 1709SOL     OW16762   0.241   0.612   4.717  0.0422 -0.3900  0.6114
 1709SOL    HW116763   0.327   0.609   4.759  0.4987  1.1202 -0.2159
 1709SOL    HW216764   0.239   0.518   4.701 -0.6087 -0.2369 -0.1496
 1710SOL     OW16765   1.481   3.913   2.246  0.1787  0.2632  0.6990
 1710SOL    HW116766   1.386   3.920   2.238 -0.0152 -0.4630  2.3155
 1710SOL    HW216767   1.489   3.946   2.335  1.3641 -0.7836  0.9739
 1711SOL     OW16768   4.660   4.151  16.544 -0.6241  0.1987  0.4762
 1711SOL    HW116769   4.688   4.135  16.634  2.8981  1.5416 -0.3994
 1711SOL    HW216770   4.731   4.125  16.485 -0.8034 -0.2993  0.4803
 1712SOL     OW16771   2.259   0.565  12.375  0.0049  0.3353  0.0551
 1712SOL    HW116772   2.174   0.523  12.387 -0.1444 -0.1909 -2.8560
 1712SOL    HW216773   2.270   0.576  12.281 -1.0484 -0.3019 -0.1441
 1713SOL     OW16774   0.821   1.751  10.699  0.0621  0.0614  0.2738
 1713SOL    HW116775   0.791   1.752  10.789 -0.1675  0.8895  0.1939
 1713SOL    HW216776   0.746   1.715  10.652 -0.4678  0.9374  0.4504
 1714SOL     OW16777   2.288   1.328   1.767 -0.1261 -0.1909 -0.2418
 1714SOL    HW116778   2.354   1.329   1.698  0.1568  2.0394  0.0626
 1714SOL    HW216779   2.327   1.256   1.816  2.1634  0.2446 -1.4364
 1715SOL     OW16780   1.160   1.094   9.254 -0.4903  0.2973 -0.5881
 1715SOL    HW116781   1.107   1.130   9.325  1.7589  1.3428  0.5461
 1715SOL    HW216782   1.122   1.141   9.180 -1.7395  2.0439  1.1588
 1716SOL     OW16783   1.734   0.888   9.018  0.3618  0.2027 -0.0660
 1716SOL    HW116784   1.668   0.954   9.040  0.1533 -0.1024  0.2226
 1716SOL    HW216785   1.699   0.846   8.939  0.4798  0.0054 -0.0138
 1717SOL     OW16786   4.246   2.192  14.132  0.1912  0.4908 -0.8983
 1717SOL    HW116787   4.272   2.245  14.056  1.1681  0.0544 -0.8696
 1717SOL    HW216788   4.198   2.118  14.095  1.6092 -1.3879  1.0505
 1718SOL     OW16789   3.824   1.929  12.971 -0.0428  0.4416 -0.0173
 1718SOL    HW116790   3.909   1.890  12.990 -0.2751 -0.0431  0.0185
 1718SOL    HW216791   3.840   2.023  12.963 -1.9855  0.5704 -2.3344
 1719SOL     OW16792   3.108   3.963   4.438 -0.0868  0.2453  0.2310
 1719SOL    HW116793   3.090   4.001   4.352 -2.1925  1.7495  1.3183
 1719SOL    HW216794   3.112   4.035   4.501  0.4423  0.4547 -0.0387
 1720SOL     OW16795   3.307   3.057   9.348  0.5739  0.6012 -0.0178
 1720SOL    HW116796   3.249   3.079   9.275  1.5557  1.1148 -0.6363
 1720SOL    HW216797   3.371   3.127   9.342  1.1866 -0.0988 -1.6515
 1721SOL     OW16798   3.227   4.529   6.026 -0.0081  0.0604 -0.5335
 1721SOL    HW116799   3.189   4.606   6.067 -1.8568 -0.2794 -1.6219
 1721SOL    HW216800   3.151   4.476   6.003 -1.5574  1.1487  2.1692
 1722SOL     OW16801   1.944   2.163   8.761  0.2362  0.5591 -0.3306
 1722SOL    HW116802   1.861   2.119   8.780 -0.5151  1.6652 -1.0296
 1722SOL    HW216803   1.991   2.081   8.747  0.4833  0.4481  1.1548
 1723SOL     OW16804   1.677   1.969  11.735 -0.1211 -0.0321 -0.2824
 1723SOL    HW116805   1.679   1.876  11.757 -1.2780  0.4547  1.8801
 1723SOL    HW216806   1.585   1.971  11.709 -0.4977  0.1262  1.0680
 1724SOL     OW16807   0.168   3.563   5.739 -0.2474  0.0096 -0.1167
 1724SOL    HW116808   0.200   3.652   5.753 -1.8707  0.6094 -0.2948
 1724SOL    HW216809   0.173   3.525   5.827  1.9605 -1.9127 -1.0535
 1725SOL     OW16810   2.224   0.859  17.437 -0.5406  0.3892  0.8850
 1725SOL    HW116811   2.316   0.859  17.466  0.0248 -0.5134 -0.9170
 1725SOL    HW216812   2.225   0.845  17.343  2.9059  0.5749  0.9022
 1726SOL     OW16813   0.141   3.584   6.370 -0.3162 -0.1842 -0.3230
 1726SOL    HW116814   0.202   3.633   6.314 -1.0877  0.7078 -0.3773
 1726SOL    HW216815   0.065   3.614   6.320  0.3135 -2.1778 -2.4636
 1727SOL     OW16816   2.384   0.619   6.686  0.3630 -0.0873  0.1006
 1727SOL    HW116817   2.306   0.601   6.634  1.1734 -0.4084 -0.9994
 1727SOL    HW216818   2.353   0.614   6.777  0.9904 -3.5572  0.1348
 1728SOL     OW16819   2.435   2.086  13.953 -0.0144  0.4345 -0.3899
 1728SOL    HW116820   2.510   2.035  13.922  0.1528  1.6389 -1.9534
 1728SOL    HW216821   2.356   2.033  13.961  1.0417 -0.9605  0.7743
 1729SOL     OW16822   0.579   4.463   5.996  0.0442  0.0881 -0.2773
 1729SOL    HW116823   0.487   4.438   6.004  0.3830 -1.4548 -1.2742
 1729SOL    HW216824   0.601   4.442   5.906  1.1588 -0.2223  0.0709
 1730SOL     OW16825   4.121   0.375  12.788 -0.5973 -0.1429  0.1268
 1730SOL    HW116826   4.039   0.412  12.821  1.0167  3.9460 -0.4505
 1730SOL    HW216827   4.162   0.460  12.773 -1.7788  0.4093 -0.0183
 1731SOL     OW16828   0.492   0.588   8.982 -0.3412 -0.3790  0.4167
 1731SOL    HW116829   0.564   0.568   9.042 -0.7773 -2.2318  0.3348
 1731SOL    HW216830   0.442   0.661   9.018 -1.1172 -0.1821 -1.0370
 1732SOL     OW16831   4.678   2.926   6.268  0.2557  0.0857 -0.2373
 1732SOL    HW116832   4.729   2.968   6.199 -0.4736  4.0485  1.6183
 1732SOL    HW216833   4.726   2.844   6.282 -0.0455 -0.1441 -0.5629
 1733SOL     OW16834   4.409   0.631   9.315  0.0639  0.4394 -0.3841
 1733SOL    HW116835   4.370   0.607   9.231  2.4275  3.0438 -2.2273
 1733SOL    HW216836   4.465   0.555   9.330  1.8624  1.7860 -0.3959
 1734SOL     OW16837   3.604   3.394   7.330 -0.0516 -1.1137 -0.3530
 1734SOL    HW116838   3.572   3.305   7.340  2.9771 -2.4242 -2.1188
 1734SOL    HW216839   3.610   3.395   7.234  1.4244  1.8688 -0.2352
 1735SOL     OW16840   0.812   0.014   3.512 -0.1305  0.3961 -0.0442
 1735SOL    HW116841   0.888   4.692   3.507 -0.8532 -0.7799  2.4496
 1735SOL    HW216842   0.849   0.102   3.521 -2.3897  1.2308  1.2161
 1736SOL     OW16843   0.726   0.871   4.172  0.2222 -0.2167  0.0836
 1736SOL    HW116844   0.749   0.806   4.239 -0.3624 -2.7375 -2.1209
 1736SOL    HW216845   0.796   0.935   4.186  0.5887 -0.8572  1.1602
 1737SOL     OW16846   0.216   1.657   5.828 -0.4629 -0.2798  0.3283
 1737SOL    HW116847   0.121   1.646   5.841 -0.1406 -1.7075  1.4813
 1737SOL    HW216848   0.232   1.601   5.752 -0.0397 -0.1003  0.2870
 1738SOL     OW16849   2.978   1.749   3.507  0.5076 -0.5302 -0.1880
 1738SOL    HW116850   2.990   1.811   3.435  1.6420 -0.2567  0.2292
 1738SOL    HW216851   2.952   1.811   3.576 -0.0399 -1.8434  0.7999
 1739SOL     OW16852   2.384   4.005   5.328  0.1369 -0.2425 -0.0412
 1739SOL    HW116853   2.325   3.985   5.400  0.3799 -0.3786  0.1193
 1739SOL    HW216854   2.322   3.993   5.255  1.4846  0.2840 -1.2767
 1740SOL     OW16855   3.195   0.681  12.690 -0.0667 -0.4315  0.2334
 1740SOL    HW116856   3.230   0.767  12.666  2.6845 -1.7171 -0.3373
 1740SOL    HW216857   3.274   0.627  12.677  0.0337  0.0611 -1.2078
 1741SOL     OW16858   3.111   3.119   8.975 -0.0234  0.0890  0.0193
 1741SOL    HW116859   3.189   3.174   8.975  0.7172 -0.9408 -1.1079
 1741SOL    HW216860   3.079   3.124   9.065  1.6813  1.3247  0.5470
 1742SOL     OW16861   3.201   1.194   4.906 -0.0838 -0.1267 -0.2369
 1742SOL    HW116862   3.214   1.121   4.966 -1.3613  0.0332  0.2210
 1742SOL    HW216863   3.288   1.194   4.865 -0.6430  2.4214 -1.3966
 1743SOL     OW16864   0.773   2.022   3.459  0.8672 -0.5305 -0.1531
 1743SOL    HW116865   0.840   1.957   3.440  0.3591 -1.1727  0.2203
 1743SOL    HW216866   0.825   2.086   3.506  0.1793 -0.0906  0.0116
 1744SOL     OW16867   2.301   2.498   1.858 -0.0531 -0.7974 -0.0083
 1744SOL    HW116868   2.343   2.429   1.910  1.7876  1.3255  1.3094
 1744SOL    HW216869   2.310   2.560   1.930  0.8782  0.4688 -1.2041
 1745SOL     OW16870   4.274   3.160   7.155 -0.5285 -0.1507 -0.2073
 1745SOL    HW116871   4.243   3.076   7.123  1.4926 -1.6987  1.9613
 1745SOL    HW216872   4.247   3.218   7.084 -2.6262  0.7289  1.3193
 1746SOL     OW16873   4.063   2.147   6.522 -0.2697 -0.1329  0.2010
 1746SOL    HW116874   4.045   2.056   6.545  3.1457 -0.6207  0.9052
 1746SOL    HW216875   4.000   2.198   6.573 -0.5174 -0.2173 -0.0199
 1747SOL     OW16876   2.793   0.710   1.891  1.0482 -0.4267 -0.5601
 1747SOL    HW116877   2.754   0.632   1.851  2.4451 -2.7278  2.4859
 1747SOL    HW216878   2.857   0.668   1.950  0.4537 -1.3882 -0.5941
 1748SOL     OW16879   2.916   0.413   4.041 -0.0722  0.6304 -0.0245
 1748SOL    HW116880   2.837   0.387   4.088  0.3973 -0.2268  0.2798
 1748SOL    HW216881   2.987   0.406   4.106 -1.5729  0.8942  1.6487
 1749SOL     OW16882   2.635   4.369   5.100 -0.2450 -0.1086 -0.4239
 1749SOL    HW116883   2.693   4.315   5.154  0.2635  0.4146 -0.4411
 1749SOL    HW216884   2.554   4.319   5.100 -0.8041  0.7759  1.6918
 1750SOL     OW16885   4.427   0.953  10.286  0.0059 -0.0913 -0.2181
 1750SOL    HW116886   4.462   0.906  10.362 -0.9817  0.0304  0.3158
 1750SOL    HW216887   4.340   0.913  10.286 -0.0077 -0.0542 -1.1387
 1751SOL     OW16888   0.682   0.008   4.265 -0.0952  0.2933 -0.1493
 1751SOL    HW116889   0.617   0.062   4.310 -0.1981 -1.1229  1.4370
 1751SOL    HW216890   0.633   4.718   4.186  0.0964 -1.9548  0.4242
 1752SOL     OW16891   2.404   1.027   6.555 -0.4628  0.2726  0.4730
 1752SOL    HW116892   2.323   1.047   6.601 -0.7014  1.2294 -0.3763
 1752SOL    HW216893   2.413   1.117   6.525  3.5679 -0.7750 -1.5534
 1753SOL     OW16894   1.389   3.666  17.151  0.4662  0.0892  0.0711
 1753SOL    HW116895   1.459   3.720  17.188  0.6712  0.7162 -1.2171
 1753SOL    HW216896   1.338   3.738  17.115 -0.0694 -0.6795 -0.7086
 1754SOL     OW16897   4.414   0.999   9.036 -0.2255  0.7516 -0.0193
 1754SOL    HW116898   4.347   0.955   8.983  1.6476 -0.1810 -1.6148
 1754SOL    HW216899   4.385   1.089   9.047  2.9310  1.3676  3.2896
 1755SOL     OW16900   3.806   2.035   8.106 -0.1201 -0.4696  0.3136
 1755SOL    HW116901   3.718   2.004   8.126  0.1608 -1.7323 -0.3864
 1755SOL    HW216902   3.791   2.110   8.049  0.4493 -0.5648  0.0342
 1756SOL     OW16903   2.760   3.810   5.939  0.4476 -0.7552 -0.2894
 1756SOL    HW116904   2.813   3.862   5.879 -0.7201  0.7337 -0.0332
 1756SOL    HW216905   2.831   3.768   5.987  1.7914  0.2431 -1.4436
 1757SOL     OW16906   3.853   4.434  16.925 -0.0906  0.5170 -0.2540
 1757SOL    HW116907   3.945   4.408  16.930 -0.8620 -2.3333 -1.0197
 1757SOL    HW216908   3.821   4.344  16.922  0.2292  0.4325 -1.2559
 1758SOL     OW16909   0.967   4.462  11.228  0.1755 -0.8159  0.0162
 1758SOL    HW116910   0.915   4.394  11.272 -0.1206 -1.1670 -0.8669
 1758SOL    HW216911   0.992   4.516  11.303 -2.8013 -0.3679  0.7152
 1759SOL     OW16912   0.028   2.505   3.072  0.6976  0.5327 -0.0213
 1759SOL    HW116913   4.718   2.578   3.030 -0.3124 -0.7032 -1.0942
 1759SOL    HW216914   4.725   2.427   3.031 -0.0243 -0.0421  1.7425
 1760SOL     OW16915   0.613   4.612   6.667 -0.2318  0.7620 -0.2152
 1760SOL    HW116916   0.665   4.557   6.608 -1.1986  0.4645 -0.7831
 1760SOL    HW216917   0.648   4.578   6.750 -0.4671  3.3770  0.9787
 1761SOL     OW16918   3.441   3.227   6.785 -0.3643 -0.0747  0.7101
 1761SOL    HW116919   3.398   3.141   6.792 -0.6405 -0.0399 -0.6004
 1761SOL    HW216920   3.366   3.280   6.814 -1.1173 -2.2161  2.7727
 1762SOL     OW16921   1.978   1.858  12.788 -0.3138 -0.0383 -0.2853
 1762SOL    HW116922   1.887   1.830  12.786 -0.6916  1.1561  0.3170
 1762SOL    HW216923   2.018   1.792  12.732  2.0984 -0.6689  2.1633
 1763SOL     OW16924   3.630   3.856   0.370  0.3420 -0.1274 -0.3943
 1763SOL    HW116925   3.548   3.905   0.375  0.5563  0.2109 -0.1440
 1763SOL    HW216926   3.666   3.856   0.459  1.0706  0.4747 -0.6872
 1764SOL     OW16927   4.125   2.851   7.745  0.4486 -0.3599 -0.4148
 1764SOL    HW116928   4.117   2.909   7.670 -1.4487 -0.2430 -0.1120
 1764SOL    HW216929   4.144   2.772   7.695 -0.9613  0.7906 -2.7283
 1765SOL     OW16930   0.245   2.018  13.884 -0.3482  0.0479 -0.2056
 1765SOL    HW116931   0.193   1.998  13.806  0.0165  1.9541 -0.9341
 1765SOL    HW216932   0.207   1.961  13.952  0.4452  0.3896  0.5317
 1766SOL     OW16933   2.947   4.275  11.867  0.5088  0.2710 -0.7863
 1766SOL    HW116934   3.012   4.332  11.827  1.5005 -0.3639 -0.1123
 1766SOL    HW216935   2.886   4.341  11.901 -0.0891 -0.1183 -1.0978
 1767SOL     OW16936   4.093   2.966   9.152  0.1423  0.1628 -0.4250
 1767SOL    HW116937   4.010   2.959   9.106  0.3622 -1.1268 -0.6158
 1767SOL    HW216938   4.064   2.995   9.239  1.5873  2.7401 -0.7850
 1768SOL     OW16939   3.089   4.419   2.355 -0.9114  0.3090  0.1625
 1768SOL    HW116940   3.052   4.436   2.442  2.6800 -0.7233  1.8918
 1768SOL    HW216941   3.011   4.447   2.307  0.7041 -0.9178 -3.1962
 1769SOL     OW16942   1.385   3.371   9.965  0.9897  0.1085  0.7893
 1769SOL    HW116943   1.369   3.409   9.879 -0.1814 -2.7130 -0.2359
 1769SOL    HW216944   1.433   3.294   9.934 -2.3237 -2.3404  1.7610
 1770SOL     OW16945   3.018   2.323   7.846  0.7409 -0.4992  0.4653
 1770SOL    HW116946   3.088   2.386   7.834  1.0463 -1.0240 -0.5329
 1770SOL    HW216947   3.033   2.274   7.765  1.6210  1.4937 -0.5714
 1771SOL     OW16948   0.317   3.343   7.063 -0.3013 -0.3826 -0.2827
 1771SOL    HW116949   0.254   3.273   7.043  2.0943 -1.9969 -2.1827
 1771SOL    HW216950   0.249   3.407   7.087  0.9895  1.2727 -1.0513
 1772SOL     OW16951   0.614   1.958   3.251 -0.0394  0.0124 -0.0850
 1772SOL    HW116952   0.670   1.983   3.325  0.2926 -0.8272 -0.0465
 1772SOL    HW216953   0.525   1.958   3.285  0.0727  1.1086  0.2102
 1773SOL     OW16954   1.611   3.547   2.946 -0.3560 -0.5908  0.2851
 1773SOL    HW116955   1.537   3.534   3.005 -0.5239 -5.4609 -0.9610
 1773SOL    HW216956   1.647   3.629   2.980 -1.0370  0.0762 -0.5974
 1774SOL     OW16957   3.341   4.396   6.331 -1.1171 -0.6977 -0.8322
 1774SOL    HW116958   3.381   4.311   6.309 -0.8453 -0.7644 -0.0747
 1774SOL    HW216959   3.402   4.462   6.299 -1.5735  0.1470  0.0345
 1775SOL     OW16960   2.964   3.850  16.491 -0.2926 -0.0848  0.2327
 1775SOL    HW116961   3.028   3.884  16.553  0.0965 -0.0147 -0.2129
 1775SOL    HW216962   2.993   3.759  16.484 -3.1661 -0.9791 -0.3814
 1776SOL     OW16963   4.651   4.385   9.320  0.5659 -0.9412  0.2189
 1776SOL    HW116964   4.653   4.452   9.252  2.0348 -0.7238  0.4895
 1776SOL    HW216965   4.730   4.418   9.361  0.3368  0.1345 -0.2230
 1777SOL     OW16966   1.439   0.905   7.402 -0.9982 -0.0108  0.1869
 1777SOL    HW116967   1.486   0.964   7.344  0.9535 -3.8057 -2.1412
 1777SOL    HW216968   1.473   0.949   7.480 -0.6070  3.1951 -1.8195
 1778SOL     OW16969   0.442   1.435   2.288  0.3328 -0.5893  0.0250
 1778SOL    HW116970   0.447   1.517   2.239 -4.1482 -0.6773 -0.5472
 1778SOL    HW216971   0.519   1.439   2.345  0.6140 -0.0538 -0.3837
 1779SOL     OW16972   4.222   1.957   3.809 -0.3957 -0.4774 -0.2357
 1779SOL    HW116973   4.211   2.003   3.893  1.6807 -0.8627  0.2524
 1779SOL    HW216974   4.175   1.876   3.828 -2.0125  0.2301 -1.2201
 1780SOL     OW16975   3.054   1.421  10.653  0.5217 -0.5262 -0.0469
 1780SOL    HW116976   3.090   1.399  10.567  0.4488  2.9097 -0.9493
 1780SOL    HW216977   3.129   1.438  10.711  0.1025 -2.0737  0.9547
 1781SOL     OW16978   3.026   4.346   5.909 -0.0887 -0.0078  0.4861
 1781SOL    HW116979   2.962   4.341   5.980  1.5944 -1.3819  1.9039
 1781SOL    HW216980   2.971   4.377   5.837  0.0866 -0.2022  0.2711
 1782SOL     OW16981   3.833   0.150   6.402 -0.7338  0.0848 -0.4784
 1782SOL    HW116982   3.817   0.243   6.421 -0.0108  0.5978 -2.3076
 1782SOL    HW216983   3.786   0.153   6.318 -0.1720  0.8745 -0.7660
 1783SOL     OW16984   1.947   3.102   3.850 -0.7801  0.1185 -0.0902
 1783SOL    HW116985   1.866   3.065   3.814  0.0981 -1.8412 -0.0679
 1783SOL    HW216986   1.983   3.146   3.773  2.3984 -1.4352  0.5266
 1784SOL     OW16987   0.415   3.507   7.918  0.2840 -0.2120 -0.4237
 1784SOL    HW116988   0.509   3.518   7.931  0.3583 -0.5907 -0.6556
 1784SOL    HW216989   0.382   3.597   7.917 -0.7706 -0.5945  1.3563
 1785SOL     OW16990   4.106   1.208   4.861  0.3141 -0.1058  0.7448
 1785SOL    HW116991   4.123   1.224   4.768 -0.7228 -0.4153  0.5013
 1785SOL    HW216992   4.028   1.154   4.846  0.3739  0.1478 -0.4566
 1786SOL     OW16993   2.432   0.867   4.851  0.0006 -0.0412 -0.0502
 1786SOL    HW116994   2.483   0.787   4.863  1.1720  0.5348 -1.0974
 1786SOL    HW216995   2.378   0.833   4.780 -0.3400 -0.6816  0.5231
 1787SOL     OW16996   4.353   3.997   2.028  0.0140  0.4038 -0.0012
 1787SOL    HW116997   4.289   4.063   2.000 -0.1082  0.1315 -0.3770
 1787SOL    HW216998   4.434   4.046   2.037  0.3378 -0.1875  0.3343
 1788SOL     OW16999   1.148   0.671   8.187 -0.2110  0.0761  0.3212
 1788SOL    HW117000   1.088   0.715   8.127 -2.1673  0.3905  2.5192
 1788SOL    HW217001   1.234   0.699   8.155  0.7964  2.3697  5.0508
 1789SOL     OW17002   4.559   3.671  16.279  0.0844 -0.0273  0.1184
 1789SOL    HW117003   4.648   3.707  16.270 -0.9777  3.0220  1.8469
 1789SOL    HW217004   4.575   3.578  16.299 -1.0833 -0.0484  0.9772
 1790SOL     OW17005   0.163   0.385   1.078 -0.4587 -0.2755  0.3537
 1790SOL    HW117006   0.220   0.308   1.072  2.0329  1.6029  0.0444
 1790SOL    HW217007   0.073   0.353   1.072 -0.1451 -1.3744  1.3668
 1791SOL     OW17008   4.612   4.626   1.945 -0.3515 -0.3621 -0.5194
 1791SOL    HW117009   4.567   4.554   1.988  0.4241 -0.4486  0.1441
 1791SOL    HW217010   4.535   4.660   1.899  1.0379 -0.2203 -2.7258
 1792SOL     OW17011   2.814   2.614   5.876 -0.1657 -0.5306  0.0823
 1792SOL    HW117012   2.902   2.644   5.852 -0.8901  0.6721 -1.1307
 1792SOL    HW217013   2.781   2.595   5.788  1.0100 -0.5460 -0.3539
 1793SOL     OW17014   1.233   2.293   2.118  0.1518  0.2001  0.3372
 1793SOL    HW117015   1.284   2.310   2.197  2.4742 -2.0149 -0.6606
 1793SOL    HW217016   1.176   2.224   2.153  1.7555 -1.1906  0.2423
 1794SOL     OW17017   2.006   2.859   4.320  0.5257 -0.4399 -0.2914
 1794SOL    HW117018   1.914   2.881   4.310  0.4072 -0.1750  1.3396
 1794SOL    HW217019   2.035   2.841   4.231  0.3540 -2.8249  0.1352
 1795SOL     OW17020   1.846   3.581  15.518 -0.3082  0.6314  0.2374
 1795SOL    HW117021   1.928   3.629  15.534 -1.2116  1.3709  2.6561
 1795SOL    HW217022   1.796   3.609  15.595 -0.8471  3.6915 -1.2263
 1796SOL     OW17023   0.239   3.337   8.506 -0.0110 -0.5314  0.5917
 1796SOL    HW117024   0.243   3.324   8.411 -0.8062  0.8067  0.3769
 1796SOL    HW217025   0.305   3.404   8.526 -2.1595  1.6542  0.4032
 1797SOL     OW17026   1.076   0.548  11.477 -0.3664  0.9877  0.4051
 1797SOL    HW117027   0.981   0.533  11.475  0.1526 -2.5666  2.7533
 1797SOL    HW217028   1.112   0.460  11.487  1.6352  1.8194  0.3929
 1798SOL     OW17029   1.516   4.363  16.527 -0.0113 -0.9494  0.7175
 1798SOL    HW117030   1.528   4.455  16.502  2.0963 -0.2968  4.0866
 1798SOL    HW217031   1.520   4.321  16.441 -1.5383  0.9462 -0.2698
 1799SOL     OW17032   4.295   0.924   7.879 -0.3513  0.1566  0.1662
 1799SOL    HW117033   4.382   0.940   7.841  0.3313 -1.7837  0.9596
 1799SOL    HW217034   4.309   0.830   7.889  0.1948  0.1107 -0.9867
 1800SOL     OW17035   0.130   0.609   5.639 -0.9752 -0.3418  0.3940
 1800SOL    HW117036   0.202   0.577   5.692  0.9470 -2.2720 -3.3911
 1800SOL    HW217037   0.073   0.658   5.698 -0.4597  1.3648 -0.5248
 1801SOL     OW17038   0.506   4.621   7.642 -0.0574  0.4517  0.1530
 1801SOL    HW117039   0.419   4.582   7.652 -0.8031  1.9340 -0.6668
 1801SOL    HW217040   0.565   4.547   7.662  1.9081  1.5587 -1.5864
 1802SOL     OW17041   0.679   3.701   7.145  0.0443 -0.6482  0.1190
 1802SOL    HW117042   0.627   3.678   7.068 -2.2339  1.1946  1.1039
 1802SOL    HW217043   0.745   3.634   7.127  0.9270  0.8299 -2.0348
 1803SOL     OW17044   4.728   3.973   6.408 -0.2481 -0.0993 -0.0629
 1803SOL    HW117045   4.718   3.923   6.489 -1.3641 -0.2749 -0.3069
 1803SOL    HW217046   0.005   3.904   6.343 -0.5260 -0.4315  0.2373
 1804SOL     OW17047   4.204   1.518   1.971 -0.3571  0.2732 -0.7011
 1804SOL    HW117048   4.195   1.501   2.064 -2.2831 -4.1121 -1.6871
 1804SOL    HW217049   4.298   1.529   1.961 -0.8475  5.9856  0.6488
 1805SOL     OW17050   4.727   2.598   8.615 -0.1770  0.1488 -0.0368
 1805SOL    HW117051   4.683   2.515   8.630  0.1011 -0.1242 -0.7382
 1805SOL    HW217052   4.650   2.649   8.592 -0.5580 -0.5957 -0.4105
 1806SOL     OW17053   1.256   1.243   0.658  0.1422 -0.4640  0.4227
 1806SOL    HW117054   1.282   1.204   0.742  0.3325 -0.9997  0.1084
 1806SOL    HW217055   1.275   1.168   0.603 -1.3673 -2.7456  3.0267
 1807SOL     OW17056   2.301   1.414   4.306  0.4847  1.0624 -0.1551
 1807SOL    HW117057   2.324   1.497   4.264 -0.4955  0.5136 -1.8035
 1807SOL    HW217058   2.264   1.435   4.391  0.2578  0.0345  0.0028
 1808SOL     OW17059   2.302   2.871   9.051 -0.0770  0.6184 -0.1392
 1808SOL    HW117060   2.342   2.793   9.089 -1.4653  0.5825  1.2099
 1808SOL    HW217061   2.270   2.915   9.130  0.4978 -0.3360  0.6179
 1809SOL     OW17062   3.056   2.119   7.121  0.1210 -0.3476  0.2340
 1809SOL    HW117063   3.096   2.061   7.186  1.7542 -1.0179 -1.3704
 1809SOL    HW217064   2.968   2.083   7.106 -0.7007  1.2398  1.2129
 1810SOL     OW17065   0.305   0.834   4.130  0.1861  0.1330 -0.1257
 1810SOL    HW117066   0.370   0.890   4.173  1.3723 -0.3651 -1.2390
 1810SOL    HW217067   0.223   0.883   4.130 -0.5372 -1.0788 -1.7203
 1811SOL     OW17068   3.304   3.879   6.239 -0.4628 -0.6333  0.5285
 1811SOL    HW117069   3.326   3.813   6.174 -1.0829 -0.5815  0.2655
 1811SOL    HW217070   3.213   3.851   6.250 -0.9928  0.9936  0.3812
 1812SOL     OW17071   4.735   0.943  10.504  0.2361 -0.3822  0.1831
 1812SOL    HW117072   4.680   1.021  10.500  1.1564  0.1982 -0.9872
 1812SOL    HW217073   0.028   0.931  10.414  1.9605 -2.5939  1.0111
 1813SOL     OW17074   0.712   3.798  12.343 -0.0734  0.0550 -0.4769
 1813SOL    HW117075   0.682   3.752  12.264  0.9946  0.3375 -1.0396
 1813SOL    HW217076   0.725   3.888  12.315  2.2493  0.1766  1.0125
 1814SOL     OW17077   2.354   2.717   3.465 -0.1542 -0.0528 -0.5762
 1814SOL    HW117078   2.417   2.676   3.406 -0.4070  0.2346 -1.0399
 1814SOL    HW217079   2.274   2.675   3.433  0.1189  0.0071 -1.3290
 1815SOL     OW17080   1.337   1.871   7.319  0.3167 -0.2720 -0.2334
 1815SOL    HW117081   1.321   1.931   7.392 -1.4323  1.5521 -2.1542
 1815SOL    HW217082   1.257   1.890   7.271 -0.0555 -0.1810  0.4192
 1816SOL     OW17083   3.019   1.559  13.607 -0.5439  0.3219  0.3752
 1816SOL    HW117084   3.057   1.499  13.544  0.4010 -0.9645  2.1778
 1816SOL    HW217085   2.951   1.513  13.656 -0.8832 -0.9407 -1.2858
 1817SOL     OW17086   2.326   4.519  17.433  0.4318 -0.2498 -0.1736
 1817SOL    HW117087   2.251   4.512  17.491 -0.0750  1.0190 -0.6782
 1817SOL    HW217088   2.318   4.435  17.386 -0.1156  0.5347 -1.4749
 1818SOL     OW17089   3.016   3.519   8.931 -0.4495 -0.2376 -0.5521
 1818SOL    HW117090   3.068   3.512   9.010 -0.0321  0.0420 -0.8050
 1818SOL    HW217091   2.936   3.493   8.977 -1.4352  2.1654 -0.9285
 1819SOL     OW17092   2.055   3.686   3.427  0.2517  0.5977  0.6985
 1819SOL    HW117093   2.136   3.712   3.383  0.0767  0.7616  0.4753
 1819SOL    HW217094   1.996   3.737   3.372 -0.4356 -0.7213  0.1992
 1820SOL     OW17095   0.565   1.574   9.780 -0.2204 -0.5262  0.0538
 1820SOL    HW117096   0.479   1.607   9.807 -0.6037 -1.1538 -0.4187
 1820SOL    HW217097   0.563   1.605   9.690 -0.7627 -2.3530 -0.5609
 1821SOL     OW17098   1.952   2.299  16.672  0.0324 -0.4891 -0.0968
 1821SOL    HW117099   1.911   2.316  16.757  0.4925  2.8580 -0.5516
 1821SOL    HW217100   1.882   2.331  16.616 -0.0046  0.3602  0.4251
 1822SOL     OW17101   1.630   0.140  11.965  0.1403  0.6188 -0.1848
 1822SOL    HW117102   1.647   0.213  11.904 -1.9499  0.3117 -1.1119
 1822SOL    HW217103   1.706   0.083  11.967 -1.0500 -0.9322  0.2557
 1823SOL     OW17104   4.379   3.648   1.379  0.2582  0.0715  0.1465
 1823SOL    HW117105   4.343   3.631   1.466 -1.0855 -2.7036 -0.9480
 1823SOL    HW217106   4.455   3.701   1.401 -1.2941  2.0720  0.6228
 1824SOL     OW17107   4.564   2.909   4.816 -0.2714 -0.1390 -0.9355
 1824SOL    HW117108   4.493   2.972   4.800  1.4536  2.2540  0.9398
 1824SOL    HW217109   4.515   2.828   4.803 -1.6344  0.6002 -0.4023
 1825SOL     OW17110   2.417   0.580  16.117 -0.4422 -0.4068  0.8182
 1825SOL    HW117111   2.448   0.641  16.185 -1.1439  0.9290 -0.0555
 1825SOL    HW217112   2.329   0.615  16.128  0.2551  0.6112  3.4429
 1826SOL     OW17113   1.852   3.772  10.945  0.1199  0.5803  0.0285
 1826SOL    HW117114   1.777   3.745  10.893 -1.3873  2.0209  1.4205
 1826SOL    HW217115   1.848   3.708  11.016 -1.6741  0.9061  0.2396
 1827SOL     OW17116   0.066   3.892   3.208  0.0719 -0.2337 -0.6919
 1827SOL    HW117117   0.056   3.844   3.290 -0.8345  1.8305  0.3964
 1827SOL    HW217118   0.080   3.817   3.149 -0.6588 -0.2259 -0.8711
 1828SOL     OW17119   2.645   0.264   8.831 -0.3238 -0.2498 -0.4439
 1828SOL    HW117120   2.664   0.181   8.875  0.4679 -0.8583 -1.9501
 1828SOL    HW217121   2.605   0.222   8.755  0.4175 -0.5038 -0.6845
 1829SOL     OW17122   1.724   1.154   6.129 -0.3474 -0.1727  0.5297
 1829SOL    HW117123   1.691   1.112   6.049 -0.8208  1.0270  0.0883
 1829SOL    HW217124   1.807   1.107   6.139 -1.0023 -1.4399  0.0205
 1830SOL     OW17125   4.012   0.622  12.015  0.5558 -0.2629 -0.1672
 1830SOL    HW117126   3.934   0.568  12.003  1.1230 -1.0085 -0.4949
 1830SOL    HW217127   4.067   0.546  12.034  1.2462  0.3566  0.3215
 1831SOL     OW17128   1.888   2.876  13.147 -0.0485  0.0538 -0.3054
 1831SOL    HW117129   1.945   2.945  13.113 -0.7151  1.3429  1.1932
 1831SOL    HW217130   1.836   2.839  13.076 -0.3630  1.1784 -0.6563
 1832SOL     OW17131   3.373   4.472   0.475  0.7440  0.2293  0.1900
 1832SOL    HW117132   3.288   4.440   0.446  0.4873  1.0597  0.0197
 1832SOL    HW217133   3.421   4.391   0.455 -1.1830 -0.7384 -0.5644
 1833SOL     OW17134   2.775   3.522   6.395  0.0482 -0.1578 -0.1682
 1833SOL    HW117135   2.834   3.460   6.353 -1.1229 -1.1923 -0.2871
 1833SOL    HW217136   2.751   3.479   6.477 -0.9835  1.0183  0.1490
 1834SOL     OW17137   0.708   3.390   4.388 -0.4214  0.4746 -0.4836
 1834SOL    HW117138   0.636   3.330   4.405  0.8160 -1.0880 -0.8142
 1834SOL    HW217139   0.670   3.443   4.318 -0.1853  1.7419  0.3490
 1835SOL     OW17140   0.840   3.372   7.616  0.2823 -0.1938 -0.0635
 1835SOL    HW117141   0.928   3.394   7.586  0.4836 -0.3839  0.3886
 1835SOL    HW217142   0.811   3.306   7.554 -1.0540  1.2735 -1.0063
 1836SOL     OW17143   1.015   4.198   1.952  0.0263 -0.1596 -0.2311
 1836SOL    HW117144   1.089   4.140   1.970 -0.8335 -1.1865 -0.0109
 1836SOL    HW217145   1.050   4.282   1.982  2.2534 -1.1753 -0.0380
 1837SOL     OW17146   0.234   3.439  10.654  0.2192  0.3574  0.5980
 1837SOL    HW117147   0.321   3.422  10.690  0.6927  0.3377 -0.5737
 1837SOL    HW217148   0.216   3.531  10.673 -0.4971  0.8608 -2.5583
 1838SOL     OW17149   2.879   3.567   4.824  0.0390  0.3632  0.0137
 1838SOL    HW117150   2.851   3.504   4.757  0.4279  0.3493 -0.1366
 1838SOL    HW217151   2.842   3.648   4.788 -3.2777 -0.2962  1.9444
 1839SOL     OW17152   2.694   0.373   5.027  0.0259 -0.1019 -0.2389
 1839SOL    HW117153   2.722   0.292   5.069  1.5547  0.4851 -0.1038
 1839SOL    HW217154   2.776   0.419   5.008 -0.3680  1.1482  1.0468
 1840SOL     OW17155   4.561   0.939  15.058 -0.1445 -0.2996 -0.2925
 1840SOL    HW117156   4.628   1.002  15.085  0.9456 -1.7419  0.3497
 1840SOL    HW217157   4.596   0.903  14.977  1.0572 -0.8920  0.5013
 1841SOL     OW17158   3.938   4.306   9.408 -0.2782 -0.2481 -0.1717
 1841SOL    HW117159   3.850   4.272   9.424 -1.1463  1.7618 -0.6888
 1841SOL    HW217160   3.939   4.285   9.314 -1.5013  0.9593 -0.4549
 1842SOL     OW17161   1.057   3.786  12.651  0.5242 -0.1763 -0.2987
 1842SOL    HW117162   0.987   3.841  12.687 -0.1385 -0.5902 -0.9751
 1842SOL    HW217163   1.014   3.720  12.598 -1.1141  0.6104  0.0600
 1843SOL     OW17164   0.711   1.796  10.236 -0.2746  0.0700 -0.3193
 1843SOL    HW117165   0.670   1.711  10.249  1.3311 -0.5757  0.4257
 1843SOL    HW217166   0.770   1.776  10.164 -1.9561 -1.8878 -1.1533
 1844SOL     OW17167   0.223   1.474   2.127 -0.6127 -0.2160 -0.1009
 1844SOL    HW117168   0.175   1.503   2.204  1.1256 -0.5691  1.1195
 1844SOL    HW217169   0.295   1.432   2.173  0.8832  3.2793  0.7579
 1845SOL     OW17170   1.799   2.192   2.144 -0.5986 -0.2527 -0.2321
 1845SOL    HW117171   1.804   2.285   2.120 -1.1440 -0.0196  0.5265
 1845SOL    HW217172   1.886   2.177   2.182 -1.5371 -0.3755  1.8725
 1846SOL     OW17173   4.532   1.384   7.999 -0.4246 -0.6445  0.1883
 1846SOL    HW117174   4.471   1.397   8.071  0.1669  2.5747  0.1147
 1846SOL    HW217175   4.541   1.289   8.008  1.2499 -0.4984  0.0643
 1847SOL     OW17176   2.136   1.116   5.146 -0.0623 -0.3468  0.7895
 1847SOL    HW117177   2.047   1.144   5.126  0.7641  0.7707 -1.3186
 1847SOL    HW217178   2.116   1.023   5.156 -0.9640 -0.2542 -0.2361
 1848SOL     OW17179   3.142   3.437   9.437  0.0196 -0.2275  0.9773
 1848SOL    HW117180   3.083   3.477   9.501 -1.5242 -2.2590  0.8187
 1848SOL    HW217181   3.232   3.464   9.459  0.5006 -1.5189  0.6138
 1849SOL     OW17182   2.759   4.372   8.924 -0.4137  0.0286 -0.5464
 1849SOL    HW117183   2.677   4.376   8.876  0.1720  1.1135 -1.4498
 1849SOL    HW217184   2.815   4.431   8.874  0.2940 -0.1135  0.0644
 1850SOL     OW17185   4.640   3.429   1.579  0.3024 -0.0840  0.6940
 1850SOL    HW117186   4.633   3.524   1.582 -1.0888 -0.1018 -2.0588
 1850SOL    HW217187   4.730   3.413   1.549 -0.0216 -1.8334  0.6169
 1851SOL     OW17188   2.241   2.746   4.882 -0.0347  0.4657  0.4388
 1851SOL    HW117189   2.231   2.784   4.970  2.5481  1.6069  0.2491
 1851SOL    HW217190   2.238   2.828   4.832 -0.8107 -0.1617 -0.5235
 1852SOL     OW17191   2.107   2.531   9.448  0.2205 -0.3239  0.5040
 1852SOL    HW117192   2.041   2.549   9.382  0.5191 -0.8090  0.0757
 1852SOL    HW217193   2.146   2.618   9.461  1.6719 -0.8314 -0.4810
 1853SOL     OW17194   0.013   4.424   7.080 -0.1121  0.6081 -0.0498
 1853SOL    HW117195   0.006   4.348   7.137 -0.9644 -0.4396 -1.5349
 1853SOL    HW217196   0.100   4.461   7.096  0.3736  0.3099 -1.9873
 1854SOL     OW17197   1.618   1.143  10.192  0.2513 -0.1411  0.0198
 1854SOL    HW117198   1.535   1.125  10.237  0.4122 -0.4298  0.2074
 1854SOL    HW217199   1.669   1.063  10.206  1.1436  0.6774  1.4457
 1855SOL     OW17200   3.094   2.050   4.012  0.3557  0.3644 -0.6606
 1855SOL    HW117201   3.159   2.120   4.018  0.5973 -0.0193  1.4725
 1855SOL    HW217202   3.135   1.983   3.957  0.9867 -3.0007  3.8919
 1856SOL     OW17203   4.314   4.640   0.766 -0.2354 -0.3844  0.1326
 1856SOL    HW117204   4.305   4.635   0.671 -0.1722 -2.7562  0.2555
 1856SOL    HW217205   4.273   4.555   0.779 -1.7750  0.0564 -1.9162
 1857SOL     OW17206   4.655   2.563   6.600  0.9438  0.2929  0.2425
 1857SOL    HW117207   4.673   2.566   6.506  1.5928 -3.2590  0.2420
 1857SOL    HW217208   4.701   2.481   6.617 -0.8119 -0.6648  0.3472
 1858SOL     OW17209   3.344   2.984   6.811 -0.2245  0.1319  0.6300
 1858SOL    HW117210   3.289   2.943   6.745  0.5260  2.3870 -1.4035
 1858SOL    HW217211   3.303   2.971   6.897 -1.5195  1.0834  0.1537
 1859SOL     OW17212   3.360   2.155  10.026  0.0309 -0.2716  0.2380
 1859SOL    HW117213   3.286   2.179  10.082  0.5677 -0.7836  1.1737
 1859SOL    HW217214   3.359   2.225   9.961  1.5755 -0.4006  0.0883
 1860SOL     OW17215   1.142   0.430   6.350 -0.1190 -0.2133  0.4050
 1860SOL    HW117216   1.083   0.359   6.326 -0.2616  0.4152 -1.0730
 1860SOL    HW217217   1.091   0.500   6.390 -0.2546 -0.5196  0.7696
 1861SOL     OW17218   3.222   3.006   3.488 -0.0738  0.2288 -0.1249
 1861SOL    HW117219   3.154   3.019   3.422 -1.4650  1.1467  1.4927
 1861SOL    HW217220   3.167   2.993   3.565  1.7852 -1.3101  0.9473
 1862SOL     OW17221   2.109   2.333   6.347 -0.4457 -0.7212 -0.9837
 1862SOL    HW117222   2.038   2.371   6.295 -1.3513 -0.0608  0.7100
 1862SOL    HW217223   2.180   2.320   6.285  1.6123 -0.8947  1.4121
 1863SOL     OW17224   0.464   3.365  10.767  0.1009 -0.3826  0.2411
 1863SOL    HW117225   0.449   3.384  10.860 -1.1483 -0.7786  0.1212
 1863SOL    HW217226   0.559   3.358  10.758  0.5216  4.5393  0.8809
 1864SOL     OW17227   3.899   3.431   9.172 -0.2141  0.0219 -0.3347
 1864SOL    HW117228   3.989   3.464   9.173 -0.5412  0.8461  2.1001
 1864SOL    HW217229   3.886   3.393   9.259 -2.3638 -3.4794 -2.2076
 1865SOL     OW17230   0.703   4.567  14.511 -0.5792  0.1440 -0.4317
 1865SOL    HW117231   0.648   4.553  14.587  2.5901 -0.9535  1.6779
 1865SOL    HW217232   0.647   4.579  14.435 -0.3736 -3.0202 -1.0989
 1866SOL     OW17233   0.187   4.205   4.291 -0.5378 -0.0263  0.4185
 1866SOL    HW117234   0.162   4.258   4.367  2.4407 -0.2884  1.5735
 1866SOL    HW217235   0.202   4.116   4.325  0.2262 -0.2071 -0.3883
 1867SOL     OW17236   3.924   2.662   2.136 -0.7489  0.3066  0.0134
 1867SOL    HW117237   3.989   2.667   2.066 -0.2118 -1.7793  0.3734
 1867SOL    HW217238   3.866   2.600   2.093 -0.5485  0.3798 -0.3574
 1868SOL     OW17239   2.861   3.094   1.444 -0.0037  0.3745 -0.0726
 1868SOL    HW117240   2.888   3.139   1.364 -0.2161  0.3376 -0.1663
 1868SOL    HW217241   2.947   3.058   1.462  0.2304  0.9867  0.0304
 1869SOL     OW17242   4.527   4.154   4.866 -0.2456  0.2547  0.5358
 1869SOL    HW117243   4.594   4.220   4.882 -1.3796  1.5360  0.0376
 1869SOL    HW217244   4.583   4.083   4.837  0.4755  1.1785 -0.3406
 1870SOL     OW17245   0.699   3.953   5.478 -0.6370  0.2883  0.8698
 1870SOL    HW117246   0.721   4.046   5.469 -0.3112  0.1061 -0.2029
 1870SOL    HW217247   0.686   3.923   5.388 -1.6355  1.4905  0.6007
 1871SOL     OW17248   0.411   4.052   7.626  0.9198  0.4022  0.1678
 1871SOL    HW117249   0.451   4.125   7.674 -1.9254  2.1557 -0.1476
 1871SOL    HW217250   0.480   3.985   7.621 -0.4764 -0.9444 -0.8431
 1872SOL     OW17251   1.738   0.070   3.444 -0.9004 -0.2393 -0.2561
 1872SOL    HW117252   1.821   0.034   3.477 -0.0176  1.2840 -0.8321
 1872SOL    HW217253   1.673   0.006   3.475  0.7752 -1.4543  0.7676
 1873SOL     OW17254   2.398   4.646  11.654  0.1514  0.0128  0.0413
 1873SOL    HW117255   2.383   4.689  11.738 -0.7636  2.1928 -1.2345
 1873SOL    HW217256   2.423   4.559  11.684 -2.3269 -0.0901  1.7447
 1874SOL     OW17257   1.864   2.108  16.431 -0.5264 -0.8496  0.0834
 1874SOL    HW117258   1.805   2.033  16.437 -2.0517  0.3694  0.1731
 1874SOL    HW217259   1.859   2.127  16.525 -0.6290  1.0316 -0.3063
 1875SOL     OW17260   4.119   0.050   8.178 -0.2924  0.1326 -0.2090
 1875SOL    HW117261   4.124   4.718   8.246 -0.3142 -0.0911 -0.4331
 1875SOL    HW217262   4.208   0.083   8.169 -0.0660  0.1680  2.1030
 1876SOL     OW17263   0.566   2.430   7.684  0.1490  0.1290 -0.2423
 1876SOL    HW117264   0.548   2.520   7.657  0.0652 -0.3869 -1.9037
 1876SOL    HW217265   0.623   2.437   7.761 -0.9210 -0.1066  0.5691
 1877SOL     OW17266   0.500   2.482   5.539  0.0497  0.0311 -0.2341
 1877SOL    HW117267   0.473   2.546   5.473  2.1729 -2.3883 -3.4872
 1877SOL    HW217268   0.414   2.449   5.565  0.4344 -1.3377 -0.6950
 1878SOL     OW17269   4.498   2.015   2.608 -0.2760 -0.3386  0.0642
 1878SOL    HW117270   4.553   1.944   2.641  1.1103  0.4640 -0.4859
 1878SOL    HW217271   4.475   2.058   2.690 -0.8495 -1.8441  0.6756
 1879SOL     OW17272   2.215   3.194   6.767  0.1255 -0.3136  0.2326
 1879SOL    HW117273   2.272   3.152   6.831 -0.5419 -0.5722  0.6497
 1879SOL    HW217274   2.125   3.165   6.776 -0.6339  1.3225 -1.9229
 1880SOL     OW17275   0.530   2.461   1.146  0.3111 -0.2706 -0.1087
 1880SOL    HW117276   0.442   2.430   1.123 -0.2458  0.8773  0.4930
 1880SOL    HW217277   0.515   2.549   1.180 -0.3296 -0.5723  0.3912
 1881SOL     OW17278   1.403   2.708   8.481  0.6315 -0.3545 -0.2732
 1881SOL    HW117279   1.325   2.654   8.491  0.3668 -0.0770 -0.8545
 1881SOL    HW217280   1.458   2.650   8.428 -1.1661 -0.7363 -1.7297
 1882SOL     OW17281   2.716   1.661  13.121 -0.1347 -0.0597 -0.5929
 1882SOL    HW117282   2.664   1.611  13.057  0.9476 -0.1380 -1.4140
 1882SOL    HW217283   2.717   1.597  13.192  0.4274  0.7532  0.1375
 1883SOL     OW17284   3.774   2.575   3.785  0.2194 -0.1886  0.0153
 1883SOL    HW117285   3.812   2.659   3.809 -0.5464  0.1975 -0.1435
 1883SOL    HW217286   3.817   2.511   3.843  0.0297 -1.2650 -1.0209
 1884SOL     OW17287   3.590   3.730   9.035  0.4348  0.2285 -0.4486
 1884SOL    HW117288   3.647   3.700   8.963 -0.2001 -1.7956 -0.0877
 1884SOL    HW217289   3.641   3.698   9.109 -0.9558 -1.0616 -0.0675
 1885SOL     OW17290   3.973   2.165  13.078  0.4308 -0.6039  0.4449
 1885SOL    HW117291   4.046   2.204  13.030 -0.7674  2.0296  0.7622
 1885SOL    HW217292   4.027   2.134  13.150  0.1987 -0.0116  0.8763
 1886SOL     OW17293   0.590   4.223   5.554  0.5436  0.4421  0.3770
 1886SOL    HW117294   0.535   4.145   5.551  2.4790 -0.9055  0.1023
 1886SOL    HW217295   0.525   4.293   5.544 -0.2962 -0.5231 -0.9579
 1887SOL     OW17296   3.069   1.571   2.779  0.5596  0.2599  0.0920
 1887SOL    HW117297   3.147   1.517   2.769  0.4201  0.0045  0.3831
 1887SOL    HW217298   3.019   1.524   2.846  0.8521  1.1002  0.8773
 1888SOL     OW17299   0.654   0.048  13.475  0.6708  0.3447  0.0658
 1888SOL    HW117300   0.687   4.720  13.411 -2.2310 -0.9825 -0.1257
 1888SOL    HW217301   0.627   0.116  13.414  1.1386  1.0927  0.6873
 1889SOL     OW17302   2.182   2.414   9.795 -0.5422 -0.2770  0.5958
 1889SOL    HW117303   2.174   2.320   9.782 -1.4579  0.0907 -1.4125
 1889SOL    HW217304   2.096   2.445   9.768 -0.5117 -0.5224  0.2291
 1890SOL     OW17305   4.335   3.468   2.457 -0.2408 -0.2389 -0.1506
 1890SOL    HW117306   4.425   3.501   2.450 -0.6547  1.2922  1.7694
 1890SOL    HW217307   4.287   3.551   2.464  0.9519  0.4516 -0.1172
 1891SOL     OW17308   4.530   1.170   6.854 -0.7356  0.4112  0.4086
 1891SOL    HW117309   4.498   1.258   6.834  1.0856  0.8731 -0.5305
 1891SOL    HW217310   4.507   1.173   6.947 -1.8294  1.0353  0.1158
 1892SOL     OW17311   3.362   0.805   9.896 -0.3793 -0.6540  0.4284
 1892SOL    HW117312   3.296   0.851   9.844 -0.1028 -2.3636 -1.4092
 1892SOL    HW217313   3.357   0.723   9.847  0.6796  0.4910 -1.5974
 1893SOL     OW17314   0.951   4.363   2.853 -0.4921 -0.0774 -0.1439
 1893SOL    HW117315   0.921   4.272   2.856 -0.4985 -0.0168  1.5232
 1893SOL    HW217316   0.937   4.382   2.946  0.0566  0.4404 -0.1639
 1894SOL     OW17317   2.651   1.766   1.205 -0.0772 -0.1955 -0.1370
 1894SOL    HW117318   2.660   1.788   1.113 -0.8676 -0.2187 -0.2200
 1894SOL    HW217319   2.560   1.737   1.214 -0.9926  2.4847 -0.6915
 1895SOL     OW17320   0.124   2.749   9.435  0.1731  0.1786  0.2639
 1895SOL    HW117321   0.051   2.798   9.472 -0.5319  0.1716 -1.1353
 1895SOL    HW217322   0.080   2.708   9.361 -0.5931  0.4101  0.5884
 1896SOL     OW17323   2.925   1.023   1.496 -0.6314  0.4063  0.2969
 1896SOL    HW117324   2.888   1.106   1.467  1.6533  0.6820 -1.9443
 1896SOL    HW217325   2.930   0.984   1.408 -0.3274  1.6132 -0.2150
 1897SOL     OW17326   1.417   3.777   6.777 -0.2040  0.4423 -0.0554
 1897SOL    HW117327   1.418   3.855   6.834  1.1018  0.0522  0.4709
 1897SOL    HW217328   1.410   3.812   6.688  0.1109  4.4147  1.4634
 1898SOL     OW17329   4.581   1.639   1.547 -0.1534 -0.1531 -0.4349
 1898SOL    HW117330   4.508   1.675   1.597 -1.1305 -0.8909 -1.3122
 1898SOL    HW217331   4.547   1.663   1.460 -1.6965  0.4699  0.3492
 1899SOL     OW17332   3.773   3.220  17.271  0.3014 -0.4310  0.1687
 1899SOL    HW117333   3.835   3.217  17.343  2.2843 -1.8123 -1.5998
 1899SOL    HW217334   3.827   3.260  17.204 -0.2592 -0.5475 -0.3531
 1900SOL     OW17335   2.269   4.713  14.590 -0.0733 -0.2077  0.4561
 1900SOL    HW117336   2.276   4.618  14.592 -0.8235 -0.2993 -1.0006
 1900SOL    HW217337   2.175   4.720  14.574 -0.1397 -1.3715  0.3518
 1901SOL     OW17338   1.394   3.039   5.809 -0.5377 -0.5124  0.1510
 1901SOL    HW117339   1.349   3.104   5.755  1.3677 -3.1010 -4.5140
 1901SOL    HW217340   1.400   3.087   5.892 -1.7905 -1.8839  1.0536
 1902SOL     OW17341   0.490   0.750   6.647 -0.1731  0.3745 -0.2652
 1902SOL    HW117342   0.428   0.799   6.593 -0.2118  1.0206  0.3574
 1902SOL    HW217343   0.442   0.733   6.727  2.6526 -1.6274  1.0040
 1903SOL     OW17344   4.124   3.154   5.282 -0.0614  0.4807  0.8756
 1903SOL    HW117345   4.196   3.125   5.227  0.5186  1.2658  1.2288
 1903SOL    HW217346   4.159   3.149   5.371 -0.8515  4.2289  1.3638
 1904SOL     OW17347   0.760   1.845   2.292  0.0404 -0.0920  0.4337
 1904SOL    HW117348   0.716   1.761   2.275 -0.4420  0.1188  0.6416
 1904SOL    HW217349   0.787   1.870   2.204  0.4102  0.3755  0.6851
 1905SOL     OW17350   1.983   0.632   2.181 -0.0497  0.6575 -0.1995
 1905SOL    HW117351   1.979   0.613   2.087  4.0267 -0.0128 -0.2588
 1905SOL    HW217352   1.917   0.701   2.182  0.0198  0.7211  0.0312
 1906SOL     OW17353   2.599   2.543   3.391  0.0960  0.3727  0.5739
 1906SOL    HW117354   2.612   2.449   3.379 -1.0838  0.1553  0.9426
 1906SOL    HW217355   2.548   2.559   3.311 -0.7859 -1.7783  0.7047
 1907SOL     OW17356   0.870   4.123  13.938  0.4532  0.0222  0.2919
 1907SOL    HW117357   0.949   4.108  13.885 -0.3109 -2.6358 -0.0740
 1907SOL    HW217358   0.874   4.218  13.954  0.6521  0.3522 -1.7059
 1908SOL     OW17359   2.880   2.406  11.083 -0.0714  0.2392  0.3021
 1908SOL    HW117360   2.843   2.332  11.132  0.2237  0.4308  0.8190
 1908SOL    HW217361   2.812   2.473  11.074 -0.9676 -0.3293  2.8436
 1909SOL     OW17362   1.661   2.304   6.402  0.0463  0.0622  0.0324
 1909SOL    HW117363   1.733   2.365   6.386 -0.4724  1.3188  2.4475
 1909SOL    HW217364   1.655   2.260   6.317 -2.8774 -0.6086  0.5829
 1910SOL     OW17365   0.561   3.451   6.934 -0.0929  0.1148 -0.0012
 1910SOL    HW117366   0.521   3.491   6.857 -0.4070 -1.6222 -0.7418
 1910SOL    HW217367   0.485   3.407   6.972  0.4857 -0.2634  0.7195
 1911SOL     OW17368   2.076   4.411   5.341 -0.0960 -0.9116  0.1881
 1911SOL    HW117369   2.168   4.429   5.322 -0.2275  0.6664  1.0459
 1911SOL    HW217370   2.029   4.444   5.265 -0.9513  0.8360  1.4754
 1912SOL     OW17371   0.023   4.332   3.209  0.0208 -0.2753  0.1287
 1912SOL    HW117372   0.025   4.320   3.114  0.3038  0.2893  0.0620
 1912SOL    HW217373   0.016   4.239   3.230  0.5979 -0.1140  1.0147
 1913SOL     OW17374   4.001   0.708   3.554 -0.2675 -0.0571 -0.9303
 1913SOL    HW117375   3.942   0.690   3.481 -1.2765 -0.9099  0.0960
 1913SOL    HW217376   4.073   0.720   3.493 -0.2484 -2.9128 -1.4673
 1914SOL     OW17377   2.474   4.579   6.188  0.5494 -0.0589 -0.1329
 1914SOL    HW117378   2.498   4.487   6.196  1.0880 -0.0660 -1.7931
 1914SOL    HW217379   2.395   4.574   6.134  1.3366 -0.6320 -1.2340
 1915SOL     OW17380   0.776   1.728   5.524 -0.0245 -0.4512  0.0090
 1915SOL    HW117381   0.700   1.763   5.571 -0.8985 -1.2793 -0.7921
 1915SOL    HW217382   0.735   1.651   5.485  0.7446 -1.2344  0.7477
 1916SOL     OW17383   0.139   0.902   3.358 -0.1066  0.3592 -0.0843
 1916SOL    HW117384   0.156   0.993   3.331  1.1360  0.0962 -0.1651
 1916SOL    HW217385   0.081   0.868   3.289  1.0530  2.9173 -2.3504
 1917SOL     OW17386   3.705   2.542   2.876  0.0240 -0.1318 -0.2295
 1917SOL    HW117387   3.631   2.584   2.831  1.1150 -0.0549 -1.9198
 1917SOL    HW217388   3.777   2.548   2.814  0.5329 -0.5746  0.3164
 1918SOL     OW17389   0.212   1.474   9.824 -0.4227 -0.3052 -0.1878
 1918SOL    HW117390   0.245   1.468   9.734  2.9934 -0.2862  1.0578
 1918SOL    HW217391   0.259   1.403   9.867  1.3442  1.6090  1.0277
 1919SOL     OW17392   3.099   1.911   2.292 -0.5236  0.3203  0.5405
 1919SOL    HW117393   3.161   1.838   2.300 -0.4354  0.3761  0.3679
 1919SOL    HW217394   3.107   1.949   2.379 -0.6475  1.8269 -0.1089
 1920SOL     OW17395   0.329   2.940   6.993 -0.1025 -0.2207 -0.2571
 1920SOL    HW117396   0.237   2.919   6.976 -0.4149  1.5015 -0.6583
 1920SOL    HW217397   0.374   2.893   6.923 -0.9812 -0.6209 -0.5588
 1921SOL     OW17398   2.409   0.295   6.483  0.1733 -0.0201 -0.4596
 1921SOL    HW117399   2.481   0.324   6.539  0.4810  1.6517 -1.7211
 1921SOL    HW217400   2.428   0.202   6.467 -3.0520 -1.2693  3.2692
 1922SOL     OW17401   1.402   0.551   8.396 -0.0386  0.0247 -0.0781
 1922SOL    HW117402   1.440   0.577   8.312  2.1090 -0.8412  0.6167
 1922SOL    HW217403   1.435   0.625   8.448 -0.6892  0.8086 -0.7871
 1923SOL     OW17404   4.401   0.102   8.132 -0.1644 -0.2438 -0.0569
 1923SOL    HW117405   4.372   0.189   8.105  0.2208 -0.1517 -0.1779
 1923SOL    HW217406   4.427   0.061   8.050 -1.7376 -0.4906 -0.4238
 1924SOL     OW17407   2.010   3.568   6.450  0.2019  0.1499  0.8518
 1924SOL    HW117408   2.099   3.597   6.468  0.4883 -1.2900  1.7667
 1924SOL    HW217409   1.976   3.522   6.527  0.8194 -0.1837  0.9258
 1925SOL     OW17410   1.947   0.363   7.411 -1.1642 -0.0726  0.0892
 1925SOL    HW117411   1.940   0.267   7.407 -0.1955 -0.1046 -0.6984
 1925SOL    HW217412   1.862   0.381   7.370 -0.4603  0.9161 -0.9414
 1926SOL     OW17413   3.091   1.833   4.940 -0.1833  0.4117  0.0854
 1926SOL    HW117414   3.086   1.896   5.012  2.3086  0.2716  0.3814
 1926SOL    HW217415   3.075   1.751   4.987  0.0917 -0.7489 -1.8345
 1927SOL     OW17416   3.207   4.172   8.538 -0.0197  0.3021 -0.0150
 1927SOL    HW117417   3.121   4.214   8.539 -0.0728  0.1588  1.7935
 1927SOL    HW217418   3.238   4.181   8.629 -2.2768  0.8491  0.6979
 1928SOL     OW17419   3.151   2.268   7.586 -0.1749  0.1694 -0.3145
 1928SOL    HW117420   3.072   2.232   7.546  1.3251 -0.8801 -2.3482
 1928SOL    HW217421   3.198   2.268   7.502  0.0171  0.1118 -0.2058
 1929SOL     OW17422   1.335   1.420  14.330  0.4605 -0.8267  0.2644
 1929SOL    HW117423   1.297   1.501  14.363  2.5358  0.3896 -0.3134
 1929SOL    HW217424   1.257   1.388  14.284 -0.2397  1.0012  0.1860
 1930SOL     OW17425   0.328   3.114  11.458 -0.0504 -0.3924  0.0461
 1930SOL    HW117426   0.280   3.032  11.446 -0.4095  0.0983 -1.7988
 1930SOL    HW217427   0.398   3.079  11.513 -1.5263 -2.0512  0.8365
 1931SOL     OW17428   2.365   3.894  11.429  0.1069  0.2149  0.4294
 1931SOL    HW117429   2.456   3.869  11.447  0.4603  0.9848 -0.3201
 1931SOL    HW217430   2.316   3.835  11.487 -1.5335  2.5954  1.4406
 1932SOL     OW17431   3.459   3.658   4.308 -0.5702  0.2360 -0.6592
 1932SOL    HW117432   3.433   3.585   4.252 -0.9980 -0.1899  0.0856
 1932SOL    HW217433   3.519   3.620   4.373 -1.0831  1.0006  0.2546
 1933SOL     OW17434   0.306   0.128   1.372 -0.3000 -0.2256  0.1452
 1933SOL    HW117435   0.338   0.132   1.282 -3.0788 -2.9707 -0.9614
 1933SOL    HW217436   0.212   0.127   1.355 -0.1741 -0.9717 -0.4863
 1934SOL     OW17437   4.119   0.309   9.196  0.6367 -0.1997 -0.1321
 1934SOL    HW117438   4.054   0.255   9.151  1.1119 -2.2811  1.6845
 1934SOL    HW217439   4.072   0.393   9.194  0.8229 -0.1039 -0.4014
 1935SOL     OW17440   2.415   4.734  11.947  0.9892  0.2521  0.1422
 1935SOL    HW117441   2.468   4.656  11.931 -1.7233 -1.4550 -0.4735
 1935SOL    HW217442   2.395   4.725  12.040  0.8012  0.0017  0.0776
 1936SOL     OW17443   0.286   1.710   4.744  0.3334  0.3112  0.6959
 1936SOL    HW117444   0.216   1.763   4.782  0.0739  0.6258 -0.2344
 1936SOL    HW217445   0.334   1.707   4.827  1.9562 -1.0351 -0.2921
 1937SOL     OW17446   2.858   2.860   6.052 -0.5014 -0.0956 -0.0749
 1937SOL    HW117447   2.937   2.901   6.086  0.0885 -0.9455 -0.4011
 1937SOL    HW217448   2.827   2.825   6.136 -0.0518  0.9139  0.5125
 1938SOL     OW17449   0.231   4.114   7.469  0.4054 -0.3421  0.0460
 1938SOL    HW117450   0.293   4.080   7.534  0.8032 -4.2033 -2.3511
 1938SOL    HW217451   0.165   4.156   7.524 -0.0892 -1.6202  0.4239
 1939SOL     OW17452   4.686   0.070   2.619 -0.5439 -0.1549  0.1424
 1939SOL    HW117453   4.649   0.081   2.707 -0.4835  1.9716 -0.1065
 1939SOL    HW217454   0.046   0.071   2.627 -0.3952 -0.5153 -1.6211
 1940SOL     OW17455   0.780   4.188   6.154  0.4692  1.0612  0.5750
 1940SOL    HW117456   0.825   4.121   6.205 -1.4490  0.4960  1.5465
 1940SOL    HW217457   0.760   4.146   6.070 -0.8010  1.2371  0.7893
 1941SOL     OW17458   4.522   3.247   0.444  0.2730 -0.2888  0.3768
 1941SOL    HW117459   4.611   3.214   0.455  0.1111 -0.5399  0.9719
 1941SOL    HW217460   4.490   3.178   0.386  0.2579 -2.3978  2.8544
 1942SOL     OW17461   4.539   2.973   7.346 -0.5422  0.1684  0.1192
 1942SOL    HW117462   4.612   2.949   7.288  0.0466 -0.2760  1.0403
 1942SOL    HW217463   4.470   2.940   7.288 -0.1394 -0.9871  0.3158
 1943SOL     OW17464   0.762   1.280   4.550 -0.1395 -0.2449 -0.3749
 1943SOL    HW117465   0.841   1.228   4.567 -0.2859 -0.2999  0.1184
 1943SOL    HW217466   0.791   1.322   4.468  0.9155  0.0727  0.1580
 1944SOL     OW17467   2.385   0.186  12.421  0.3239 -0.0305 -0.3696
 1944SOL    HW117468   2.391   0.274  12.385 -0.7494  0.5522  0.8879
 1944SOL    HW217469   2.313   0.153  12.368  0.2709 -2.5037  1.2310
 1945SOL     OW17470   0.937   2.335   4.255  0.1992  0.0590 -0.4408
 1945SOL    HW117471   0.943   2.419   4.209 -0.3699 -0.1184 -0.8391
 1945SOL    HW217472   0.878   2.288   4.196  2.2813 -1.1883 -1.4969
 1946SOL     OW17473   3.378   3.827   9.169 -0.3225 -0.6245  0.1303
 1946SOL    HW117474   3.317   3.852   9.100  1.5354 -2.5384 -2.1946
 1946SOL    HW217475   3.436   3.769   9.120 -0.5531 -0.7301 -0.0204
 1947SOL     OW17476   0.244   1.271   2.409 -0.0033 -0.1840  0.2604
 1947SOL    HW117477   0.187   1.340   2.442 -1.5616 -0.6137 -1.5674
 1947SOL    HW217478   0.314   1.326   2.372 -0.4478  0.9278  1.0815
 1948SOL     OW17479   4.047   4.380   6.089 -0.2759 -0.1391  0.2341
 1948SOL    HW117480   4.138   4.353   6.080  0.0152  0.5694  1.1019
 1948SOL    HW217481   3.999   4.332   6.021  1.2774  1.2149 -1.8343
 1949SOL     OW17482   1.835   3.987   2.326  0.2676  0.4134  0.3303
 1949SOL    HW117483   1.900   4.043   2.368  0.8719 -0.8146  1.0449
 1949SOL    HW217484   1.845   3.903   2.371 -2.3136 -0.1629 -0.1684
 1950SOL     OW17485   3.688   2.493   9.296  0.5903 -0.1984  0.6104
 1950SOL    HW117486   3.606   2.540   9.281  0.5220 -0.1235  1.2552
 1950SOL    HW217487   3.696   2.502   9.391  2.0262 -1.0256  0.5594
 1951SOL     OW17488   1.778   0.274   2.469  0.0369 -0.4434 -0.3465
 1951SOL    HW117489   1.746   0.237   2.387 -3.8644  1.6910  0.2182
 1951SOL    HW217490   1.837   0.343   2.437  0.3621  0.2340  1.6748
 1952SOL     OW17491   4.200   0.361   8.356 -0.3180 -0.1499 -0.1889
 1952SOL    HW117492   4.208   0.442   8.406  0.2933 -1.0081  1.0938
 1952SOL    HW217493   4.239   0.297   8.416 -1.4397  0.4465  1.1648
 1953SOL     OW17494   0.138   4.328  16.091 -0.0796 -0.3095 -0.2826
 1953SOL    HW117495   0.084   4.262  16.047 -1.3058  1.2796 -1.1238
 1953SOL    HW217496   0.091   4.410  16.077 -0.4215 -0.8454 -2.3232
 1954SOL     OW17497   4.470   1.535  10.628 -0.2921  0.2022 -0.6523
 1954SOL    HW117498   4.502   1.449  10.603  0.0798 -0.1418  1.0132
 1954SOL    HW217499   4.488   1.589  10.550  1.8393 -1.9736 -1.6676
 1955SOL     OW17500   4.163   3.791   9.109 -0.1720 -0.0616 -0.5874
 1955SOL    HW117501   4.186   3.698   9.116 -0.5752  0.0913  2.7593
 1955SOL    HW217502   4.245   3.830   9.080  1.6442 -1.9417  1.9960
 1956SOL     OW17503   0.838   2.728   7.157 -0.9730  0.4008 -0.0101
 1956SOL    HW117504   0.816   2.726   7.250 -0.2203  0.5627  0.1730
 1956SOL    HW217505   0.904   2.797   7.153  2.0186 -2.5781 -1.2578
 1957SOL     OW17506   3.483   4.723   8.047 -0.1083  0.2543 -0.6840
 1957SOL    HW117507   3.568   4.696   8.013  1.5975  3.5399  0.9985
 1957SOL    HW217508   3.487   0.081   8.029  0.0179  0.2738 -0.5551
 1958SOL     OW17509   3.591   2.206   7.068  0.2767 -0.5305 -0.3798
 1958SOL    HW117510   3.497   2.223   7.076  0.2064 -1.1299  0.0626
 1958SOL    HW217511   3.613   2.298   7.050 -3.6123  0.2885 -1.0044
 1959SOL     OW17512   3.087   2.654  12.570  0.4400  0.0463  0.2450
 1959SOL    HW117513   3.060   2.622  12.484 -2.3528  0.9771  0.7748
 1959SOL    HW217514   3.067   2.747  12.560  0.5903  0.1849  1.1658
 1960SOL     OW17515   4.048   3.033   9.429  0.0551 -0.2320  0.6001
 1960SOL    HW117516   4.016   2.968   9.493  0.5442 -0.0881  0.9921
 1960SOL    HW217517   4.010   3.113   9.466  1.1144 -0.2447  1.7304
 1961SOL     OW17518   3.128   3.953  12.624 -0.4258  0.3462  0.2351
 1961SOL    HW117519   3.140   3.902  12.704  1.2409 -0.4565 -0.5275
 1961SOL    HW217520   3.034   3.967  12.635 -0.0147  2.4761  0.9389
 1962SOL     OW17521   1.731   2.641   1.601 -0.2118 -0.7412 -0.2294
 1962SOL    HW117522   1.694   2.716   1.647 -0.1690 -0.1643 -1.1317
 1962SOL    HW217523   1.715   2.669   1.511  1.3582 -0.7124 -0.4897
 1963SOL     OW17524   0.496   2.165   8.280  0.1781 -0.5922  0.0696
 1963SOL    HW117525   0.551   2.104   8.329 -0.2764  0.3134  1.7110
 1963SOL    HW217526   0.485   2.235   8.345  3.1384  0.4281 -0.5273
 1964SOL     OW17527   1.145   0.102  17.722 -0.3799 -0.1884  0.3145
 1964SOL    HW117528   1.207   0.126   0.051 -0.0207 -0.3222  0.0331
 1964SOL    HW217529   1.189   0.144  17.648  0.5661  1.1931  1.6655
 1965SOL     OW17530   2.517   0.475   1.884  0.0667 -0.2061  0.8207
 1965SOL    HW117531   2.518   0.452   1.791 -1.8020  1.7927  0.3003
 1965SOL    HW217532   2.555   0.399   1.929 -1.1684 -1.2805  0.0500
 1966SOL     OW17533   3.777   1.665   9.305 -0.1507 -0.7551 -0.0112
 1966SOL    HW117534   3.709   1.711   9.354  1.9544  0.2972  1.9578
 1966SOL    HW217535   3.854   1.683   9.358 -1.9180  3.6124  1.0628
 1967SOL     OW17536   1.201   3.394   9.355  0.6107 -0.3289 -0.0276
 1967SOL    HW117537   1.235   3.339   9.285 -2.1251 -0.7669 -1.0373
 1967SOL    HW217538   1.115   3.425   9.326  0.0817 -1.3742  0.4092
 1968SOL     OW17539   2.322   2.261   9.227 -1.0352 -0.4056 -0.4233
 1968SOL    HW117540   2.269   2.183   9.209 -0.0778 -1.0693 -0.3257
 1968SOL    HW217541   2.398   2.254   9.170 -0.5785 -1.0227  0.2758
 1969SOL     OW17542   3.281   0.737   7.518  0.1194 -0.3243 -0.2033
 1969SOL    HW117543   3.266   0.649   7.551  2.0018 -0.3891  0.5060
 1969SOL    HW217544   3.277   0.778   7.604 -2.7000  0.8392 -0.8702
 1970SOL     OW17545   2.659   0.961   5.576  1.1313  0.3503 -0.0571
 1970SOL    HW117546   2.735   0.904   5.562  0.1417 -0.9664 -0.0817
 1970SOL    HW217547   2.605   0.938   5.500  0.5970  0.8170  0.1803
 1971SOL     OW17548   0.306   3.818   4.009 -0.1610  0.0396  0.2892
 1971SOL    HW117549   0.265   3.773   3.936  0.0809  0.8080 -0.3140
 1971SOL    HW217550   0.357   3.744   4.044  0.4823  1.5505  2.5667
 1972SOL     OW17551   2.339   3.318   2.834 -0.2269 -1.0075  0.5298
 1972SOL    HW117552   2.245   3.300   2.846 -0.2440 -0.2111  1.5541
 1972SOL    HW217553   2.328   3.363   2.750  0.6032  0.1462  1.0369
 1973SOL     OW17554   1.909   4.208  16.890  0.1014 -0.2297  0.2662
 1973SOL    HW117555   1.870   4.199  16.803  0.0638  2.4189  0.0272
 1973SOL    HW217556   1.904   4.300  16.913  0.2389 -0.0512 -0.4050
 1974SOL     OW17557   1.109   2.866  15.206  0.1941  0.5307 -0.0075
 1974SOL    HW117558   1.129   2.802  15.137  1.0112 -1.5444  2.1360
 1974SOL    HW217559   1.020   2.830  15.210  0.7999 -1.0448 -0.4830
 1975SOL     OW17560   3.610   2.022  15.464  0.1682 -0.4521 -0.6259
 1975SOL    HW117561   3.545   1.962  15.427 -1.7227  0.9607  0.4039
 1975SOL    HW217562   3.629   2.073  15.386  0.0512  0.5810  0.0129
 1976SOL     OW17563   1.726   0.481   2.738 -0.3153 -0.3896  0.0735
 1976SOL    HW117564   1.813   0.443   2.750  0.6577  1.5867 -0.6850
 1976SOL    HW217565   1.660   0.412   2.748  0.8468 -1.4756  0.1810
 1977SOL     OW17566   2.986   4.553  17.593  0.2731 -0.5709  0.0278
 1977SOL    HW117567   2.971   4.479  17.534  2.7806 -1.6482  0.7586
 1977SOL    HW217568   2.896   4.587  17.587 -0.4024 -2.1484  1.3839
 1978SOL     OW17569   0.027   0.393   3.931 -0.2176  0.3417  0.1097
 1978SOL    HW117570   4.698   0.361   3.867  0.8255  0.9079 -1.2072
 1978SOL    HW217571   4.735   0.480   3.959  0.8657  0.9338 -0.6403
 1979SOL     OW17572   0.843   1.971  10.389  0.4744 -0.7420  0.4500
 1979SOL    HW117573   0.762   1.920  10.387  1.3141 -2.0569  0.7586
 1979SOL    HW217574   0.849   2.008  10.301 -0.1086  0.5187  0.9338
 1980SOL     OW17575   4.470   0.152   5.510 -0.1639 -0.1918  0.3252
 1980SOL    HW117576   4.505   0.240   5.493 -0.1305 -0.1045  0.8524
 1980SOL    HW217577   4.418   0.169   5.589 -0.0546 -0.5673  0.4751
 1981SOL     OW17578   0.868   3.390   7.238  0.6323 -0.4225 -0.4921
 1981SOL    HW117579   0.942   3.338   7.272 -0.5781 -2.0401 -0.3527
 1981SOL    HW217580   0.914   3.468   7.206 -0.0552 -0.4295 -1.4901
 1982SOL     OW17581   4.304   1.323   0.651  0.7495 -0.2455  0.6107
 1982SOL    HW117582   4.209   1.319   0.660  0.6538 -1.1274 -0.7533
 1982SOL    HW217583   4.340   1.234   0.653  1.0671 -0.1907 -1.7319
 1983SOL     OW17584   1.392   3.583  10.167  0.1263  0.4329 -0.7090
 1983SOL    HW117585   1.433   3.608  10.083  0.4976 -0.7500 -0.8788
 1983SOL    HW217586   1.380   3.490  10.150  0.5621  0.3838 -0.7437
 1984SOL     OW17587   4.686   4.474   7.451  0.3154 -0.0636 -0.4563
 1984SOL    HW117588   4.603   4.509   7.484  0.2937  1.6606 -2.3826
 1984SOL    HW217589   0.016   4.513   7.509  1.3603 -1.9515 -0.3652
 1985SOL     OW17590   1.551   1.250   2.235 -0.0868  0.1456 -0.0885
 1985SOL    HW117591   1.578   1.287   2.151  0.3786 -0.1060 -0.0457
 1985SOL    HW217592   1.498   1.322   2.269  0.6366 -0.2611  1.8937
 1986SOL     OW17593   0.933   3.605   9.587  0.0777 -0.2919 -0.6035
 1986SOL    HW117594   0.878   3.528   9.602  1.3678 -1.0212  0.4316
 1986SOL    HW217595   0.909   3.632   9.499 -0.2355 -0.0122 -0.4333
 1987SOL     OW17596   2.365   0.332   1.655  0.9342  0.1368  0.2633
 1987SOL    HW117597   2.308   0.343   1.579 -0.7333  0.4308  1.5693
 1987SOL    HW217598   2.380   0.240   1.675  1.7707 -0.3052 -2.3893
 1988SOL     OW17599   2.116   2.939   7.827  0.0435  0.3125 -0.2768
 1988SOL    HW117600   2.047   2.955   7.762 -1.3947 -0.2739  1.1072
 1988SOL    HW217601   2.105   3.019   7.879 -2.0861  0.4197 -0.8653
 1989SOL     OW17602   4.286   0.938   0.442 -0.1697 -0.0332 -0.4092
 1989SOL    HW117603   4.314   0.980   0.524 -0.4648 -1.9596  0.6838
 1989SOL    HW217604   4.195   0.963   0.431 -0.1454 -0.5202 -1.6455
 1990SOL     OW17605   2.693   3.430   4.233  0.1339  0.1737  0.7233
 1990SOL    HW117606   2.698   3.429   4.137 -1.7046  1.4364  0.6153
 1990SOL    HW217607   2.684   3.338   4.256 -1.3807  0.3330  0.7904
 1991SOL     OW17608   2.282   2.484   4.795 -0.1367  0.2060  0.2831
 1991SOL    HW117609   2.268   2.579   4.806  1.7580  0.4806  0.2646
 1991SOL    HW217610   2.263   2.476   4.702  0.8337 -1.4054  0.2399
 1992SOL     OW17611   2.898   0.291   0.978 -0.2108 -0.3945  0.3613
 1992SOL    HW117612   2.964   0.321   1.042  1.8485 -1.4583 -1.2476
 1992SOL    HW217613   2.899   0.358   0.910 -1.1471  0.3061  1.0436
 1993SOL     OW17614   3.208   3.809   7.410 -0.4588  0.2675  0.5702
 1993SOL    HW117615   3.267   3.825   7.337 -0.3582 -0.0292  0.5818
 1993SOL    HW217616   3.160   3.729   7.387 -1.0553  1.0637 -0.9017
 1994SOL     OW17617   4.582   3.339   9.161  0.2812  0.0730  0.4597
 1994SOL    HW117618   4.599   3.247   9.142 -1.9280 -0.7451  2.5429
 1994SOL    HW217619   4.632   3.351   9.242 -1.2649  1.1621  1.2495
 1995SOL     OW17620   0.215   3.006   8.237 -0.0204 -0.3587 -0.0801
 1995SOL    HW117621   0.301   3.028   8.273 -0.3895  1.9011 -0.5276
 1995SOL    HW217622   0.230   2.952   8.160  3.8404 -1.5604  1.5295
 1996SOL     OW17623   0.888   3.201   2.131  0.5721  0.0588  0.2786
 1996SOL    HW117624   0.965   3.152   2.160  1.2594  1.1574  0.3078
 1996SOL    HW217625   0.817   3.159   2.179  0.9620 -1.5280 -0.5620
 1997SOL     OW17626   2.070   2.195  10.272  0.0096  0.2809  0.0143
 1997SOL    HW117627   1.992   2.202  10.217 -1.0734  3.9515  2.0040
 1997SOL    HW217628   2.141   2.201  10.208 -0.4582 -0.0549 -0.5442
 1998SOL     OW17629   0.334   1.034  15.237  0.5294 -0.2955  0.2989
 1998SOL    HW117630   0.277   0.989  15.299  0.1706 -1.3100 -0.7832
 1998SOL    HW217631   0.417   0.995  15.267  0.2321 -1.8465 -0.9142
 1999SOL     OW17632   1.962   1.704   1.512  0.4247  0.4345  0.0795
 1999SOL    HW117633   2.048   1.746   1.518  0.7058 -0.2136  0.6736
 1999SOL    HW217634   1.976   1.611   1.497 -0.3673  0.7615 -2.5767
 2000SOL     OW17635   0.431   3.465   2.999 -0.4490  0.2189  0.0043
 2000SOL    HW117636   0.363   3.450   3.064 -0.0798 -0.1838  0.2939
 2000SOL    HW217637   0.510   3.449   3.050  0.2944  0.5790 -1.0274
 2001SOL     OW17638   0.037   4.644  10.625 -0.0587 -0.3920  0.4227
 2001SOL    HW117639   0.095   4.568  10.625 -0.1152 -0.4361  1.4197
 2001SOL    HW217640   0.001   4.641  10.714  0.5750 -0.4661  0.6727
 2002SOL     OW17641   4.519   2.799   4.327  0.3473  0.1522 -0.1189
 2002SOL    HW117642   4.498   2.781   4.419  1.3703 -2.5622 -0.4295
 2002SOL    HW217643   4.549   2.714   4.295 -2.7803 -1.6153  1.5779
 2003SOL     OW17644   0.991   1.202   9.061  0.2757 -0.1293 -0.0616
 2003SOL    HW117645   0.915   1.198   9.119  0.9497 -1.2180  0.7375
 2003SOL    HW217646   0.997   1.297   9.049  0.1701  0.0231  1.0775
 2004SOL     OW17647   0.417   4.298   7.413  0.4151 -0.5389 -0.5525
 2004SOL    HW117648   0.467   4.217   7.411 -0.1311 -0.8431 -2.5387
 2004SOL    HW217649   0.330   4.263   7.434  1.5249 -3.1919 -0.4497
 2005SOL     OW17650   2.627   3.369   9.363  0.5630  0.3563 -1.2809
 2005SOL    HW117651   2.579   3.314   9.301  0.1326  0.0445 -0.6728
 2005SOL    HW217652   2.577   3.353   9.443  1.1122 -0.3771 -1.0923
 2006SOL     OW17653   2.449   4.278   1.907  0.1283  0.4340  0.3149
 2006SOL    HW117654   2.532   4.253   1.947 -0.2021  0.0750  0.7635
 2006SOL    HW217655   2.472   4.332   1.831 -2.3971  0.4147 -0.4751
 2007SOL     OW17656   0.608   4.377   9.997  0.1093  0.2413  0.6994
 2007SOL    HW117657   0.540   4.411   9.938  0.3568  1.0095  0.8503
 2007SOL    HW217658   0.601   4.284   9.978  1.2290  0.6806 -1.7851
 2008SOL     OW17659   1.606   3.367   2.394 -0.6002 -0.1718  0.1402
 2008SOL    HW117660   1.696   3.391   2.373 -0.8242  0.9919  0.4874
 2008SOL    HW217661   1.556   3.444   2.370  0.2169  0.2188 -0.3113
 2009SOL     OW17662   2.501   0.480  15.070  0.0572 -0.1705  0.4306
 2009SOL    HW117663   2.516   0.543  15.000 -0.0632 -1.5152 -0.7842
 2009SOL    HW217664   2.437   0.416  15.040 -0.7276  0.3871  0.9104
 2010SOL     OW17665   4.345   4.200   5.601 -0.4258 -0.1988 -0.0344
 2010SOL    HW117666   4.424   4.146   5.607 -0.9175 -0.7682  1.3869
 2010SOL    HW217667   4.388   4.279   5.568 -0.5233  0.2450  0.9208
 2011SOL     OW17668   0.510   4.149   2.099  0.2506  0.7289  0.0638
 2011SOL    HW117669   0.606   4.139   2.099  0.0929 -0.7341 -5.1017
 2011SOL    HW217670   0.497   4.136   2.005  1.5375 -1.9044  0.2366
 2012SOL     OW17671   3.033   2.279   4.627 -0.3266 -0.6690 -0.3787
 2012SOL    HW117672   3.014   2.218   4.698 -0.5917 -0.8188 -0.5756
 2012SOL    HW217673   2.956   2.332   4.646  1.2152  1.6640 -0.6542
 2013SOL     OW17674   0.717   0.978  10.227 -0.0918 -0.3742  0.0265
 2013SOL    HW117675   0.737   0.910  10.291  0.9288  0.0074  0.1176
 2013SOL    HW217676   0.730   1.050  10.290  1.3623 -0.6290  0.0235
 2014SOL     OW17677   4.455   2.863   2.033 -0.1212 -0.0743 -0.6100
 2014SOL    HW117678   4.418   2.792   1.980 -0.1954 -0.8632  0.5021
 2014SOL    HW217679   4.420   2.847   2.120  0.1365  0.7773 -0.3528
 2015SOL     OW17680   2.627   0.107  12.366 -0.2420  0.1243  0.5986
 2015SOL    HW117681   2.538   0.139  12.380  0.4788  1.2449  2.5814
 2015SOL    HW217682   2.677   0.179  12.405 -0.2260  0.7468 -0.5744
 2016SOL     OW17683   2.285   1.092   4.865 -0.1891  0.5249  0.2178
 2016SOL    HW117684   2.331   1.008   4.861 -0.9931  0.0638  0.7113
 2016SOL    HW217685   2.231   1.081   4.943 -1.3120  1.6247 -0.4055
 2017SOL     OW17686   1.186   1.207   3.024  0.0368  0.4815  0.0430
 2017SOL    HW117687   1.253   1.162   3.075  1.4730  1.1292 -1.2509
 2017SOL    HW217688   1.121   1.143   2.994  2.4051 -0.9736 -2.0265
 2018SOL     OW17689   1.125   3.609   3.064 -0.0857 -0.1394 -0.2243
 2018SOL    HW117690   1.126   3.644   3.152 -0.6170  0.8666 -0.6190
 2018SOL    HW217691   1.113   3.689   3.013 -2.9029 -0.6123 -0.3315
 2019SOL     OW17692   1.954   4.142   3.189  0.1961  0.9516 -0.4455
 2019SOL    HW117693   1.941   4.059   3.234 -0.7729  0.7481 -1.1072
 2019SOL    HW217694   2.049   4.149   3.179  0.5944 -3.1679  0.5521
 2020SOL     OW17695   3.821   2.243   6.647  0.1493  0.0052 -0.0703
 2020SOL    HW117696   3.780   2.157   6.660 -1.8109  1.0199  0.4352
 2020SOL    HW217697   3.769   2.282   6.576 -0.5373  0.0756  0.4727
 2021SOL     OW17698   3.344   0.055  12.216 -0.0359 -0.5641  0.0139
 2021SOL    HW117699   3.371   0.146  12.232 -2.0260 -0.5227  3.0491
 2021SOL    HW217700   3.391   0.010  12.286 -0.4854  2.2323  2.1254
 2022SOL     OW17701   1.571   2.604   9.259 -0.2393  0.1591 -0.6728
 2022SOL    HW117702   1.650   2.555   9.234 -1.1373 -1.1757 -0.9081
 2022SOL    HW217703   1.556   2.588   9.352 -0.3178  0.0003 -0.7113
 2023SOL     OW17704   4.611   3.211   6.879  0.2428  0.4436 -0.2726
 2023SOL    HW117705   4.555   3.134   6.871  0.9565 -0.0604 -0.3721
 2023SOL    HW217706   4.689   3.178   6.923 -1.8507 -2.2584  1.4244
 2024SOL     OW17707   0.893   1.798   5.030  0.1472 -0.2485  0.4410
 2024SOL    HW117708   0.949   1.866   4.994 -0.1702 -0.2672 -0.0795
 2024SOL    HW217709   0.950   1.764   5.100  2.4820 -1.4889 -2.0652
 2025SOL     OW17710   0.219   0.456   6.960  0.2102  0.0527  0.2431
 2025SOL    HW117711   0.310   0.485   6.946  0.1808 -0.0800 -0.2135
 2025SOL    HW217712   0.168   0.519   6.909  0.1191 -0.6958 -0.5877
 2026SOL     OW17713   3.935   0.470   9.032  0.0072  0.9494 -0.1909
 2026SOL    HW117714   4.002   0.486   8.964  2.2025  2.5881  2.3368
 2026SOL    HW217715   3.938   0.557   9.072 -0.9498  1.6116 -1.5805
 2027SOL     OW17716   4.493   4.445   2.107  0.2663 -0.3584 -0.2117
 2027SOL    HW117717   4.478   4.479   2.195 -0.2595 -0.2318 -0.3539
 2027SOL    HW217718   4.427   4.376   2.101 -0.1786  0.1782 -1.3580
 2028SOL     OW17719   4.702   1.943   3.225 -0.0367 -0.5870 -0.3192
 2028SOL    HW117720   4.616   1.955   3.184  0.2660 -1.8849 -1.3373
 2028SOL    HW217721   4.701   1.848   3.236 -1.4865 -0.3584  1.5153
 2029SOL     OW17722   3.538   3.336   3.860 -0.2130 -0.1291  0.4237
 2029SOL    HW117723   3.467   3.399   3.848 -1.0317 -0.7762  1.8806
 2029SOL    HW217724   3.607   3.388   3.819 -0.4699  0.2490  0.4678
 2030SOL     OW17725   3.317   2.591  12.688 -0.6603  0.1879  0.2180
 2030SOL    HW117726   3.286   2.525  12.750  0.9583  1.3510  2.2805
 2030SOL    HW217727   3.231   2.620  12.657 -0.8536 -0.2171  0.3705
 2031SOL     OW17728   0.190   1.888   6.011  0.3400 -0.5167  0.3974
 2031SOL    HW117729   0.198   1.911   5.919 -0.2743 -0.7777  0.2774
 2031SOL    HW217730   0.208   1.794   6.003  3.2160  0.1417 -0.6346
 2032SOL     OW17731   4.116   3.962   5.423 -0.0888 -0.7746 -0.2153
 2032SOL    HW117732   4.109   4.031   5.489 -2.7502 -0.5467 -0.7151
 2032SOL    HW217733   4.174   4.013   5.366 -0.3958  0.1094  0.2721
 2033SOL     OW17734   3.047   4.620   7.237 -0.5408  0.0915  0.0042
 2033SOL    HW117735   2.999   4.549   7.279  0.6162  0.1550  1.4295
 2033SOL    HW217736   3.116   4.637   7.301  1.3902 -1.3964 -1.6854
 2034SOL     OW17737   1.691   2.759  14.205  0.3262  0.3030 -0.3437
 2034SOL    HW117738   1.626   2.691  14.188  3.0854 -2.1347 -1.0745
 2034SOL    HW217739   1.698   2.802  14.120  0.7704 -0.3738 -0.6499
 2035SOL     OW17740   0.144   1.188  11.597 -0.4788 -0.3079  0.3437
 2035SOL    HW117741   0.135   1.094  11.582  3.2061 -0.5079 -0.5818
 2035SOL    HW217742   0.132   1.194  11.691  1.3845 -0.8311  0.6019
 2036SOL     OW17743   2.638   1.051   1.335  0.3163 -0.4627 -0.8363
 2036SOL    HW117744   2.604   0.963   1.353  0.8116 -0.0259  2.1694
 2036SOL    HW217745   2.607   1.092   1.415  2.2235 -1.5823  0.4827
 2037SOL     OW17746   2.167   3.101   5.050  0.5383 -0.7957 -0.5473
 2037SOL    HW117747   2.184   3.162   4.978 -0.4527  0.3799  0.2122
 2037SOL    HW217748   2.178   3.164   5.121 -1.4804 -0.9704 -0.0850
 2038SOL     OW17749   3.839   1.488  13.285 -0.8000  0.0984 -0.4824
 2038SOL    HW117750   3.821   1.478  13.378 -0.8758 -2.3612 -0.7504
 2038SOL    HW217751   3.855   1.582  13.281 -0.5557  0.0479 -0.6973
 2039SOL     OW17752   3.341   4.491   7.595  0.3312  0.0674 -0.3095
 2039SOL    HW117753   3.325   4.534   7.679 -2.8328 -0.4513 -0.6511
 2039SOL    HW217754   3.407   4.430   7.627  1.0765  0.2419 -1.5291
 2040SOL     OW17755   2.487   0.216  15.474  0.2221 -0.3874 -0.1239
 2040SOL    HW117756   2.511   0.123  15.470 -2.7637 -1.0717 -1.8443
 2040SOL    HW217757   2.522   0.247  15.390 -1.4957  2.3170  0.1697
 2041SOL     OW17758   4.069   4.213  11.871  0.1175  0.0675 -0.3181
 2041SOL    HW117759   3.983   4.172  11.866 -0.0263  0.5959 -2.2149
 2041SOL    HW217760   4.066   4.273  11.946  3.0051 -0.0447 -0.1093
 2042SOL     OW17761   2.030   3.494  11.911 -0.0232 -0.2992  0.0653
 2042SOL    HW117762   2.121   3.510  11.936 -0.2800  1.5230 -0.1379
 2042SOL    HW217763   2.017   3.400  11.905 -1.7709 -0.0232 -0.6323
 2043SOL     OW17764   4.541   0.030   4.817 -0.3140 -0.2188  0.4326
 2043SOL    HW117765   4.534   0.002   4.909 -2.1608  0.3941  0.4826
 2043SOL    HW217766   4.623   4.727   4.785 -0.7700 -0.4180 -0.4955
 2044SOL     OW17767   2.302   1.042   3.925  0.4170  0.3913 -0.3426
 2044SOL    HW117768   2.339   1.119   3.967 -0.1662  0.5273 -0.0826
 2044SOL    HW217769   2.213   1.075   3.912 -0.4126 -1.0304  1.5877
 2045SOL     OW17770   4.437   3.888   5.990 -0.3142  0.1044  0.0342
 2045SOL    HW117771   4.392   3.934   5.919 -1.3230  0.9509  1.2224
 2045SOL    HW217772   4.364   3.874   6.051 -0.6361 -0.5679 -0.5019
 2046SOL     OW17773   1.555   3.086   2.038  0.3824  0.0559  0.2242
 2046SOL    HW117774   1.640   3.058   2.003  0.4627  1.1871 -0.4968
 2046SOL    HW217775   1.572   3.109   2.129 -1.4798  1.0013  0.3247
 2047SOL     OW17776   1.429   1.524   4.475  0.1669  0.5114  0.6418
 2047SOL    HW117777   1.435   1.582   4.400  1.4619 -0.1827  0.2194
 2047SOL    HW217778   1.511   1.548   4.517  0.7722 -0.8341  0.2119
 2048SOL     OW17779   2.366   0.777   8.213  0.2350  0.1343  0.3242
 2048SOL    HW117780   2.409   0.855   8.177 -0.2543  0.0765 -0.3931
 2048SOL    HW217781   2.283   0.777   8.165  0.0158 -1.0764  0.7105
 2049SOL     OW17782   4.347   0.326   4.883 -0.7288 -0.1532 -0.3095
 2049SOL    HW117783   4.385   0.362   4.963 -0.1398  1.1617 -1.1672
 2049SOL    HW217784   4.301   0.252   4.920  0.0495  0.3538  1.6532
 2050SOL     OW17785   2.221   3.224  13.125  0.2253 -1.1417 -0.7350
 2050SOL    HW117786   2.204   3.147  13.072  1.0608 -1.1264 -1.0181
 2050SOL    HW217787   2.272   3.190  13.199  3.0778 -1.0254 -2.6673
 2051SOL     OW17788   0.766   2.641   4.965 -0.0987  0.4363 -0.2524
 2051SOL    HW117789   0.800   2.562   5.005 -0.2561  0.8422  0.6763
 2051SOL    HW217790   0.807   2.622   4.880  1.5484 -2.3084  1.1922
 2052SOL     OW17791   2.984   0.120   8.624 -0.0429 -0.5499 -0.2377
 2052SOL    HW117792   3.028   0.039   8.650 -0.4364 -0.5681  0.3493
 2052SOL    HW217793   2.893   0.095   8.635  0.1095  0.0099  2.2713
 2053SOL     OW17794   4.246   0.745   3.414 -0.1660 -0.6359  0.3609
 2053SOL    HW117795   4.288   0.700   3.488 -0.6064  1.3655  1.8137
 2053SOL    HW217796   4.237   0.834   3.448  1.0428 -0.1084 -0.6905
 2054SOL     OW17797   3.948   4.331   2.221 -0.2918 -0.2475  0.1271
 2054SOL    HW117798   3.975   4.376   2.141  1.3381  1.1893  1.4742
 2054SOL    HW217799   3.956   4.237   2.207 -0.2524  0.0752 -2.0010
 2055SOL     OW17800   1.524   1.680   0.572 -0.3736 -0.3437  0.4811
 2055SOL    HW117801   1.540   1.720   0.658  1.6421  1.8669 -0.9083
 2055SOL    HW217802   1.451   1.621   0.592  0.7112 -1.3711  1.4650
 2056SOL     OW17803   3.197   3.039  15.335 -0.5174  0.1607  0.9708
 2056SOL    HW117804   3.230   3.075  15.252 -1.8362 -0.4558  0.1835
 2056SOL    HW217805   3.151   3.112  15.377 -1.6942  0.1301 -0.2601
 2057SOL     OW17806   1.177   2.173   1.874 -0.6501  0.5337  0.4692
 2057SOL    HW117807   1.251   2.116   1.852 -1.6337 -1.8664  3.3953
 2057SOL    HW217808   1.206   2.208   1.958  0.0576  0.7416  0.1457
 2058SOL     OW17809   4.232   0.308   4.171 -0.5914  0.0412  0.5921
 2058SOL    HW117810   4.252   0.240   4.235 -2.0609 -0.1385  0.8582
 2058SOL    HW217811   4.301   0.370   4.194 -1.5584  1.1649  0.4719
 2059SOL     OW17812   0.884   4.079   6.919 -0.1182  0.2997  0.2612
 2059SOL    HW117813   0.935   4.073   7.000  1.7371 -2.5463 -1.1023
 2059SOL    HW217814   0.910   4.168   6.893  0.0732  0.0149 -0.5340
 2060SOL     OW17815   2.796   2.427   4.636 -0.4119 -0.1681 -0.0168
 2060SOL    HW117816   2.718   2.433   4.691  0.4890  0.1745  1.2285
 2060SOL    HW217817   2.758   2.372   4.568 -1.3703 -1.1394  1.2918
 2061SOL     OW17818   0.681   2.102  10.908 -0.5201 -0.6135 -0.3057
 2061SOL    HW117819   0.751   2.166  10.915  0.4542 -1.7103 -0.0839
 2061SOL    HW217820   0.679   2.081  11.001  2.0683 -1.2735 -0.4036
 2062SOL     OW17821   0.308   0.806   9.357 -0.6373 -0.1221 -0.3119
 2062SOL    HW117822   0.398   0.779   9.377 -0.2949  1.1410 -0.1820
 2062SOL    HW217823   0.286   0.853   9.438  0.6485 -1.0444  0.5724
 2063SOL     OW17824   1.988   0.961  15.508  0.2940  0.1779  0.1340
 2063SOL    HW117825   2.029   0.922  15.431 -0.7064 -0.6446  0.0189
 2063SOL    HW217826   1.976   1.054  15.487  1.6044  0.9155  2.7106
 2064SOL     OW17827   0.012   3.293   4.548  0.2244  0.1213  0.1028
 2064SOL    HW117828   0.041   3.205   4.573 -0.7764 -0.3559 -0.4171
 2064SOL    HW217829   4.658   3.279   4.516  0.1511  2.1147 -0.5601
 2065SOL     OW17830   3.473   1.313   8.498 -0.3567 -0.2745 -0.7867
 2065SOL    HW117831   3.511   1.236   8.540  1.6658  1.6507  0.9653
 2065SOL    HW217832   3.425   1.352   8.571  1.7728 -0.5541  0.7495
 2066SOL     OW17833   0.563   2.632   9.717  0.6941 -0.3564 -0.4124
 2066SOL    HW117834   0.507   2.664   9.646 -0.2138 -1.1333 -0.0510
 2066SOL    HW217835   0.496   2.585   9.767  0.5413 -0.2663 -0.5327
 2067SOL     OW17836   2.586   0.248   6.798  0.4318  0.9007 -0.1874
 2067SOL    HW117837   2.656   0.198   6.841 -0.0542  1.2192  0.9821
 2067SOL    HW217838   2.505   0.215   6.839  0.9879  0.9586  0.9465
 2068SOL     OW17839   1.770   2.983  17.090 -0.1009  0.2607 -1.0451
 2068SOL    HW117840   1.689   3.026  17.064  1.6722  3.6931 -0.9596
 2068SOL    HW217841   1.828   3.059  17.081  0.0851  0.3793  1.1343
 2069SOL     OW17842   3.270   3.301   5.503  0.1058  0.5054 -0.1137
 2069SOL    HW117843   3.300   3.213   5.523  0.1754  0.2197 -1.4786
 2069SOL    HW217844   3.203   3.283   5.437 -0.2170  0.4112  0.2419
 2070SOL     OW17845   3.838   2.467  10.815  0.1649 -0.1725  0.2228
 2070SOL    HW117846   3.925   2.470  10.775 -0.6375  1.1778 -1.3919
 2070SOL    HW217847   3.851   2.405  10.887  2.1302  0.0447  0.0529
 2071SOL     OW17848   4.294   3.822   2.213  0.2746  0.2728  0.2855
 2071SOL    HW117849   4.340   3.865   2.140 -1.5613 -1.5891 -1.9587
 2071SOL    HW217850   4.350   3.846   2.287 -1.6660  1.2911  1.4162
 2072SOL     OW17851   4.160   0.720   4.194 -0.0728  0.1977 -0.6602
 2072SOL    HW117852   4.148   0.627   4.212 -0.1444  0.7850  2.4524
 2072SOL    HW217853   4.075   0.758   4.215  0.1603  1.1217 -1.3533
 2073SOL     OW17854   2.936   1.955   5.308 -0.3113 -0.2009 -0.1361
 2073SOL    HW117855   2.854   1.981   5.265 -1.2078 -0.6758  1.3074
 2073SOL    HW217856   3.000   1.999   5.252 -0.6088  0.6343  0.1777
 2074SOL     OW17857   4.402   3.472   3.333 -0.3389 -0.1765 -0.0529
 2074SOL    HW117858   4.415   3.566   3.319 -0.0262 -0.2749 -0.4229
 2074SOL    HW217859   4.410   3.474   3.428 -1.9887 -0.3423  0.0868
 2075SOL     OW17860   0.604   4.409   8.400 -0.3530  0.2836  0.1905
 2075SOL    HW117861   0.601   4.480   8.335 -1.8873 -0.4946 -0.5839
 2075SOL    HW217862   0.691   4.411   8.441 -0.2463  3.8787 -0.1814
 2076SOL     OW17863   1.041   3.911   2.723  0.7328 -0.6355  0.1135
 2076SOL    HW117864   1.051   3.977   2.791 -1.3615 -0.2346  0.0490
 2076SOL    HW217865   1.096   3.845   2.764 -0.3737 -0.5207  1.7846
 2077SOL     OW17866   1.872   3.240   1.690 -0.0565  0.1455  0.2745
 2077SOL    HW117867   1.899   3.328   1.717  1.7996 -0.4588  0.3646
 2077SOL    HW217868   1.867   3.256   1.596 -0.2826 -1.2332  0.0569
 2078SOL     OW17869   4.365   3.633   1.663 -0.1798  0.6484  0.1928
 2078SOL    HW117870   4.457   3.627   1.687  0.6826 -0.7184 -3.4720
 2078SOL    HW217871   4.334   3.688   1.735  1.9581 -0.4965  1.9637
 2079SOL     OW17872   1.711   2.049   4.540 -1.1945  0.1956 -0.3139
 2079SOL    HW117873   1.771   2.075   4.470 -0.1418 -0.2419  0.4317
 2079SOL    HW217874   1.670   1.973   4.499 -2.3344  1.9431 -2.4794
 2080SOL     OW17875   0.084   2.890   1.518  0.1210 -0.1699 -0.2761
 2080SOL    HW117876   0.062   2.977   1.487  0.5696  0.4292  1.0725
 2080SOL    HW217877   0.078   2.892   1.614  1.5828  1.3078 -0.2199
 2081SOL     OW17878   0.836   0.596   7.447  0.3948 -0.1419 -0.6785
 2081SOL    HW117879   0.762   0.548   7.486  0.2354  1.6634  1.2435
 2081SOL    HW217880   0.819   0.687   7.469  0.9179  0.0537 -1.0816
 2082SOL     OW17881   2.291   0.959   3.361  0.1833  0.1516  0.4480
 2082SOL    HW117882   2.284   0.869   3.327 -0.3925  1.3607 -2.6615
 2082SOL    HW217883   2.374   0.961   3.408 -0.5246 -1.8613  1.7877
 2083SOL     OW17884   3.915   2.848   4.800  0.2815  0.0410  0.2353
 2083SOL    HW117885   3.976   2.776   4.819  1.3833  1.0467  0.5521
 2083SOL    HW217886   3.872   2.816   4.721 -1.0118  0.7058  0.6843
 2084SOL     OW17887   3.319   3.982   2.778  0.0619  0.2188 -0.2016
 2084SOL    HW117888   3.292   3.892   2.758 -1.1406  0.3746  0.7316
 2084SOL    HW217889   3.361   3.999   2.694 -1.0633  1.3953 -0.5079
 2085SOL     OW17890   1.175   4.553  10.878 -0.8512 -0.2011  0.0957
 2085SOL    HW117891   1.236   4.511  10.939 -0.7153 -1.3640 -0.8561
 2085SOL    HW217892   1.210   4.506  10.803 -1.2911  0.7381 -0.6973
 2086SOL     OW17893   0.373   4.046  11.716  0.6172 -0.2901 -0.0799
 2086SOL    HW117894   0.313   4.118  11.733  0.0725 -0.6894 -0.3034
 2086SOL    HW217895   0.436   4.080  11.652 -2.2905 -0.5801 -3.1109
 2087SOL     OW17896   3.994   2.232  16.655  0.4291 -0.5200 -0.6214
 2087SOL    HW117897   3.970   2.324  16.646  0.1451 -0.5861 -0.5448
 2087SOL    HW217898   3.915   2.195  16.618  0.1723  1.0425 -1.6077
 2088SOL     OW17899   0.791   3.270  13.036  0.4116 -0.1820 -0.4414
 2088SOL    HW117900   0.833   3.259  13.122 -1.7917  1.2056  0.8184
 2088SOL    HW217901   0.823   3.359  13.019  0.6167 -0.4552 -1.4716
 2089SOL     OW17902   3.242   1.935   5.861 -0.2738 -0.3976  0.0892
 2089SOL    HW117903   3.316   1.996   5.852  0.8108 -1.7463 -0.0335
 2089SOL    HW217904   3.164   1.988   5.846 -0.4384 -0.2281  1.4947
 2090SOL     OW17905   0.319   0.651   0.996  0.2145 -0.4554 -0.0735
 2090SOL    HW117906   0.278   0.569   1.025  0.4289 -0.1634  1.0472
 2090SOL    HW217907   0.394   0.608   0.955  0.0418  0.0009 -0.8796
 2091SOL     OW17908   1.582   1.886   6.706 -0.0026  0.8335 -0.4451
 2091SOL    HW117909   1.514   1.903   6.771  1.2848  0.4229  0.9988
 2091SOL    HW217910   1.538   1.850   6.629 -0.5265 -1.6299  1.0056
 2092SOL     OW17911   2.275   3.662   6.226 -0.2018  0.2033  0.1575
 2092SOL    HW117912   2.274   3.720   6.302  1.1983  0.2894  0.1229
 2092SOL    HW217913   2.319   3.591   6.272  0.1397 -1.1854 -2.2937
 2093SOL     OW17914   4.005   0.632   2.437 -0.7671 -0.0866  0.2573
 2093SOL    HW117915   4.068   0.704   2.441 -2.3173  1.2909 -0.1188
 2093SOL    HW217916   3.961   0.621   2.521 -0.3311  1.2908  0.6641
 2094SOL     OW17917   1.308   1.837  13.240 -0.0654  0.1651  0.1386
 2094SOL    HW117918   1.353   1.754  13.227 -3.3795 -1.1789 -2.8149
 2094SOL    HW217919   1.266   1.848  13.155 -1.2455 -0.5876  0.6186
 2095SOL     OW17920   0.020   4.523  14.415 -0.2984  0.0538  0.4070
 2095SOL    HW117921   0.089   4.530  14.349 -1.9691 -0.3720 -1.3787
 2095SOL    HW217922   0.040   4.588  14.482  0.2401  1.6090 -1.2740
 2096SOL     OW17923   0.049   4.056   4.751 -0.1819  0.3236 -0.0915
 2096SOL    HW117924   0.093   4.126   4.703  3.2467 -1.1204  0.9865
 2096SOL    HW217925   0.077   3.979   4.702 -0.3614 -0.0178  0.3482
 2097SOL     OW17926   2.004   2.354   4.411 -0.3106  0.2948  0.3098
 2097SOL    HW117927   1.968   2.436   4.376 -1.5448 -0.1508  0.5192
 2097SOL    HW217928   2.059   2.378   4.485 -0.1429 -1.9481  0.9155
 2098SOL     OW17929   0.893   2.235   9.234  0.4710 -0.2313  0.0959
 2098SOL    HW117930   0.965   2.288   9.269 -0.3542  0.8673  0.1106
 2098SOL    HW217931   0.847   2.212   9.314 -1.2549  1.4018 -0.4503
 2099SOL     OW17932   1.156   3.440  13.525 -0.1974  0.2765  0.3801
 2099SOL    HW117933   1.121   3.352  13.514 -0.9126  0.4979  0.8952
 2099SOL    HW217934   1.072   3.482  13.506  0.1396  0.3998 -0.8421
 2100SOL     OW17935   2.396   3.928   4.824  0.3186  0.3192  0.0682
 2100SOL    HW117936   2.465   3.941   4.889 -0.1081 -0.3803  0.6497
 2100SOL    HW217937   2.440   3.924   4.738  0.5652 -2.5820  0.3507
 2101SOL     OW17938   0.028   2.393  13.930  0.0857  0.7643 -0.1604
 2101SOL    HW117939   4.735   2.316  13.980  0.2179  1.2013  0.5868
 2101SOL    HW217940   0.049   2.453  14.002  1.0337  0.0986  0.1192
 2102SOL     OW17941   2.991   0.492  15.225  0.3110 -0.4486  0.4364
 2102SOL    HW117942   2.996   0.574  15.274  2.2817 -1.1326  1.4027
 2102SOL    HW217943   3.074   0.493  15.178 -1.4757  0.3075 -2.7008
 2103SOL     OW17944   4.229   0.819   4.762  0.3238  0.0109 -0.2715
 2103SOL    HW117945   4.278   0.833   4.681  2.4442  1.1389  1.2114
 2103SOL    HW217946   4.260   0.905   4.791  0.8201  0.1992 -1.3505
 2104SOL     OW17947   1.677   2.877  13.389  0.0763 -0.0452  0.4298
 2104SOL    HW117948   1.719   2.794  13.414 -0.7880 -0.7096 -0.3297
 2104SOL    HW217949   1.713   2.893  13.302  2.5338 -0.0442  1.4327
 2105SOL     OW17950   0.581   2.124  11.955 -0.4769  0.1049 -0.1336
 2105SOL    HW117951   0.488   2.125  11.933 -0.4583 -1.0797 -0.2403
 2105SOL    HW217952   0.611   2.050  11.902 -1.4470  0.4575 -1.1793
 2106SOL     OW17953   1.688   3.795   5.440  0.4406  0.1777  0.4229
 2106SOL    HW117954   1.653   3.861   5.379  0.9179 -1.2979 -1.4571
 2106SOL    HW217955   1.782   3.812   5.443  0.1548  1.5517  1.3445
 2107SOL     OW17956   4.495   3.715  13.152 -0.2624 -0.7773  0.0357
 2107SOL    HW117957   4.458   3.680  13.233 -1.4238 -1.2514 -0.6970
 2107SOL    HW217958   4.459   3.804  13.156  2.1618  0.1125  1.6293
 2108SOL     OW17959   3.479   3.777   8.388 -0.4008  0.4525 -0.1104
 2108SOL    HW117960   3.484   3.834   8.311  1.7517  0.8764  0.3371
 2108SOL    HW217961   3.398   3.805   8.430  0.5877  2.5206  0.4239
 2109SOL     OW17962   1.356   3.511   2.811  0.0855 -0.4978 -0.5433
 2109SOL    HW117963   1.387   3.437   2.760 -0.2452 -0.0309 -1.4203
 2109SOL    HW217964   1.426   3.537   2.871  0.4841 -1.8375 -0.4428
 2110SOL     OW17965   0.480   3.010  12.652  0.4162  0.2328 -0.1735
 2110SOL    HW117966   0.415   3.024  12.584 -0.0357  0.0050  0.2069
 2110SOL    HW217967   0.565   3.024  12.612 -0.4212  0.3393 -1.8911
 2111SOL     OW17968   1.658   1.593   8.564 -0.2496  0.0377  0.4101
 2111SOL    HW117969   1.629   1.683   8.555 -0.3066 -0.1407 -1.2790
 2111SOL    HW217970   1.736   1.584   8.509 -1.0834 -0.8805 -0.6278
 2112SOL     OW17971   3.211   0.885  14.676  0.2256  0.2323  0.0797
 2112SOL    HW117972   3.187   0.899  14.585  1.8184  0.6391 -0.2649
 2112SOL    HW217973   3.126   0.856  14.710  1.1298 -1.6454  0.7748
 2113SOL     OW17974   2.756   0.765  12.075 -0.1387 -0.2127  0.8277
 2113SOL    HW117975   2.797   0.690  12.032 -1.2386 -1.3007  1.6550
 2113SOL    HW217976   2.743   0.833  12.010 -0.8311  0.0858  1.2718
 2114SOL     OW17977   0.918   0.381   4.671  0.3187  0.2167 -0.1309
 2114SOL    HW117978   0.991   0.329   4.635  2.1323  1.3507  1.8749
 2114SOL    HW217979   0.856   0.384   4.598  0.2282 -0.4702 -0.0876
 2115SOL     OW17980   2.216   3.150  10.046 -0.3493 -0.2296  0.1914
 2115SOL    HW117981   2.274   3.223  10.064 -0.4497 -0.4354  1.3460
 2115SOL    HW217982   2.216   3.106  10.132  3.1772  1.3758  1.0242
 2116SOL     OW17983   1.416   4.520   8.528 -0.3938 -0.1844 -0.0612
 2116SOL    HW117984   1.449   4.492   8.613 -0.2488 -0.1552 -0.1084
 2116SOL    HW217985   1.370   4.598   8.560 -0.2911  0.2734 -1.0104
 2117SOL     OW17986   4.590   1.007   2.825 -0.2795  0.2614 -0.0044
 2117SOL    HW117987   4.562   1.088   2.783  0.8021 -0.1693 -1.5457
 2117SOL    HW217988   4.527   0.949   2.784 -1.6656  1.5621  0.2923
 2118SOL     OW17989   2.656   4.157  16.719 -0.6497 -0.2239 -0.2745
 2118SOL    HW117990   2.614   4.085  16.766  1.7154 -1.3323  0.1410
 2118SOL    HW217991   2.703   4.100  16.657  0.9489 -0.2283  0.9528
 2119SOL     OW17992   1.583   2.310   3.389 -0.1118  0.2468 -0.0361
 2119SOL    HW117993   1.640   2.345   3.320  0.1733 -0.9987 -0.4268
 2119SOL    HW217994   1.503   2.276   3.348 -0.4141 -0.3630  1.0796
 2120SOL     OW17995   0.587   1.902   5.606  0.6202 -0.3376  0.0157
 2120SOL    HW117996   0.578   1.992   5.638 -1.6516 -0.5343 -0.1009
 2120SOL    HW217997   0.561   1.916   5.515 -2.9428 -2.4543  0.7049
 2121SOL     OW17998   3.819   0.833  15.529  0.4371 -0.6780 -0.1353
 2121SOL    HW117999   3.726   0.854  15.518  0.3156 -0.4103  1.2776
 2121SOL    HW218000   3.860   0.862  15.448  1.1759  0.9323  0.8034
 2122SOL     OW18001   0.114   0.281  16.223 -0.0983 -0.4859  0.1238
 2122SOL    HW118002   0.068   0.365  16.221  1.2160  0.2673  1.1403
 2122SOL    HW218003   0.162   0.286  16.306  0.7345 -2.3234 -0.2543
 2123SOL     OW18004   3.552   4.302   1.310 -0.1441 -0.4815 -0.5489
 2123SOL    HW118005   3.592   4.245   1.244  2.6684  0.0748  0.6573
 2123SOL    HW218006   3.630   4.354   1.328 -1.6630  0.8425  2.1602
 2124SOL     OW18007   2.598   3.589   5.735 -0.2668 -0.1230 -0.5237
 2124SOL    HW118008   2.637   3.614   5.819 -1.9660 -0.2211  0.3089
 2124SOL    HW218009   2.580   3.496   5.750 -2.6599  0.3041 -0.7214
 2125SOL     OW18010   4.149   4.138   1.266  0.0783 -0.0477 -0.6716
 2125SOL    HW118011   4.113   4.174   1.347  1.9652 -0.9740  0.5631
 2125SOL    HW218012   4.147   4.049   1.303  2.2312 -0.3235 -1.2035
 2126SOL     OW18013   3.873   0.173   3.549 -0.8066  0.2994  0.3265
 2126SOL    HW118014   3.882   0.241   3.482  0.5398  0.2130  0.4331
 2126SOL    HW218015   3.829   0.223   3.618 -0.5328  3.0600 -1.4870
 2127SOL     OW18016   1.770   0.518   8.161 -0.4823  0.4830 -0.6569
 2127SOL    HW118017   1.842   0.575   8.137  0.7968 -0.6628  0.4583
 2127SOL    HW218018   1.809   0.431   8.169 -0.4076  0.4845 -1.0299
 2128SOL     OW18019   0.705   4.409   1.955  0.0300 -0.1884  0.1297
 2128SOL    HW118020   0.773   4.408   2.022  0.0417  2.1492  0.1421
 2128SOL    HW218021   0.657   4.488   1.978  0.2866  0.3595 -1.2565
 2129SOL     OW18022   4.506   3.580   2.687 -0.1455  0.0633  0.4037
 2129SOL    HW118023   4.442   3.639   2.646  1.3743  1.8914  0.6685
 2129SOL    HW218024   4.594   3.617   2.680 -0.7815  1.5453  0.1026
 2130SOL     OW18025   3.201   0.442   5.522  0.3712  0.2204 -0.3739
 2130SOL    HW118026   3.107   0.456   5.538  0.9603  1.2974  2.0651
 2130SOL    HW218027   3.238   0.432   5.609 -1.0256 -2.1926 -0.0348
 2131SOL     OW18028   0.264   3.732   6.900  0.4613  0.8598  0.1472
 2131SOL    HW118029   0.224   3.774   6.824 -1.3692 -0.0822  0.5924
 2131SOL    HW218030   0.212   3.652   6.907 -2.0125  2.3961 -0.6638
 2132SOL     OW18031   0.386   3.848   4.876  0.0948 -0.2276 -0.3198
 2132SOL    HW118032   0.384   3.934   4.918  0.9554 -1.3980  2.1260
 2132SOL    HW218033   0.440   3.863   4.799  0.5853 -3.0904 -0.5594
 2133SOL     OW18034   3.340   3.845   8.670 -0.1043  0.0186 -0.5099
 2133SOL    HW118035   3.326   3.759   8.711  0.7583  0.4121  0.5944
 2133SOL    HW218036   3.273   3.898   8.712 -2.1928 -3.6427  0.8317
 2134SOL     OW18037   1.700   2.939   6.859 -0.1115  0.0066 -0.0853
 2134SOL    HW118038   1.764   2.905   6.796  1.9389 -2.1058  3.0818
 2134SOL    HW218039   1.679   3.021   6.815  1.9528 -0.1418 -1.3570
 2135SOL     OW18040   3.728   4.289   7.923 -0.1419 -0.3544 -0.6009
 2135SOL    HW118041   3.729   4.196   7.945 -0.0409 -0.1598  0.1933
 2135SOL    HW218042   3.818   4.307   7.897 -1.1945 -0.4836 -4.3576
 2136SOL     OW18043   3.158   3.771  16.969  0.6590  0.5485  0.3583
 2136SOL    HW118044   3.142   3.853  16.923  1.2930  0.6768  0.3652
 2136SOL    HW218045   3.132   3.715  16.895  2.0991  0.7767 -0.3156
 2137SOL     OW18046   1.873   3.002  13.702  0.1009 -0.1449 -0.2285
 2137SOL    HW118047   1.888   3.028  13.612 -2.7257  0.1084 -0.6229
 2137SOL    HW218048   1.827   3.082  13.728  1.0186 -0.0488  1.1404
 2138SOL     OW18049   3.285   1.933   7.801 -0.1443 -0.4912 -0.4580
 2138SOL    HW118050   3.301   1.988   7.878 -0.1347 -1.2454  0.0742
 2138SOL    HW218051   3.375   1.913   7.775 -0.6449  0.3732 -2.7700
 2139SOL     OW18052   0.700   0.300  13.350 -0.6522  0.3947 -0.1366
 2139SOL    HW118053   0.777   0.344  13.314 -0.8298 -0.1556 -1.1955
 2139SOL    HW218054   0.705   0.337  13.438 -0.3418 -0.6061  0.2613
 2140SOL     OW18055   3.258   4.661   7.409 -0.0107  0.3896  0.0489
 2140SOL    HW118056   3.314   0.001   7.427 -0.4608  1.1520 -1.7676
 2140SOL    HW218057   3.288   4.607   7.483  2.6858 -1.9891 -2.7889
 2141SOL     OW18058   1.915   4.248   0.176  0.0078  0.2703 -0.1888
 2141SOL    HW118059   1.973   4.254   0.100  1.8567 -0.9626  1.1094
 2141SOL    HW218060   1.955   4.314   0.232 -1.3567  0.0011  1.0935
 2142SOL     OW18061   1.411   2.020  11.701 -0.4095 -0.2162  0.0582
 2142SOL    HW118062   1.328   1.993  11.661  0.2163  1.7700 -2.6182
 2142SOL    HW218063   1.382   2.090  11.760  0.6829  1.1994 -1.0757
 2143SOL     OW18064   1.513   2.297   6.939 -0.0734 -0.2738 -0.4115
 2143SOL    HW118065   1.590   2.272   6.888  0.9081 -2.6144  2.2046
 2143SOL    HW218066   1.459   2.349   6.879  0.3572  0.3777 -0.2351
 2144SOL     OW18067   3.486   1.482   6.794 -0.1470  0.2869  0.2489
 2144SOL    HW118068   3.490   1.571   6.757  0.0829  0.2731  0.2383
 2144SOL    HW218069   3.417   1.486   6.860  0.0926  2.3345  0.3901
 2145SOL     OW18070   1.348   0.372   4.006 -0.5688  0.5122 -0.4779
 2145SOL    HW118071   1.339   0.279   3.985 -2.6631  0.3321  1.2364
 2145SOL    HW218072   1.371   0.403   3.919  0.7813 -0.5908 -0.5257
 2146SOL     OW18073   1.984   4.643   1.840 -0.3551  0.2179  0.0923
 2146SOL    HW118074   1.905   4.593   1.818 -0.5409  1.0494 -1.1445
 2146SOL    HW218075   2.048   4.572   1.844  0.5436  1.0627  0.3915
 2147SOL     OW18076   3.082   0.116   5.940  0.0687 -0.3258  0.2585
 2147SOL    HW118077   2.993   0.103   5.907 -0.3091  1.5179  0.5124
 2147SOL    HW218078   3.133   0.087   5.864  0.9710  2.8238 -0.3426
 2148SOL     OW18079   0.831   3.861   3.069  0.1079  0.0727  0.2411
 2148SOL    HW118080   0.791   3.883   3.153 -1.7992 -0.5515 -0.5159
 2148SOL    HW218081   0.914   3.831   3.106 -1.0835 -1.3854  1.6947
 2149SOL     OW18082   3.010   2.743   1.855 -0.4029 -0.0827 -0.1085
 2149SOL    HW118083   3.069   2.721   1.928  1.3364  1.6799 -0.9692
 2149SOL    HW218084   2.978   2.653   1.843 -1.5065 -0.1082  3.1333
 2150SOL     OW18085   3.713   3.439   6.273  0.0949  0.4317  0.3123
 2150SOL    HW118086   3.745   3.456   6.184 -1.9751 -0.4866 -0.5921
 2150SOL    HW218087   3.622   3.469   6.272  0.2251  0.8920  2.3872
 2151SOL     OW18088   1.092   3.331   9.680  0.2408 -0.2654  0.2992
 2151SOL    HW118089   1.053   3.284   9.753  1.8996 -2.1379 -0.0052
 2151SOL    HW218090   1.013   3.364   9.638  0.8718  0.4902 -0.3060
 2152SOL     OW18091   4.005   0.864   4.920  0.1417  0.1916  0.0546
 2152SOL    HW118092   4.066   0.827   4.857  0.1333 -0.2981  0.3276
 2152SOL    HW218093   3.971   0.939   4.872 -0.7137 -2.0471 -2.8477
 2153SOL     OW18094   0.007   2.079   3.660 -0.4367 -0.1673 -0.4337
 2153SOL    HW118095   4.649   2.065   3.677 -0.2217  0.1363  0.9899
 2153SOL    HW218096   0.007   2.166   3.620  0.2944  0.1664  0.2747
 2154SOL     OW18097   3.730   3.027   5.370 -0.3125 -0.3256  0.0534
 2154SOL    HW118098   3.738   3.108   5.420 -1.3821  0.6669 -1.3700
 2154SOL    HW218099   3.656   3.046   5.312  0.3542 -0.8996 -0.9771
 2155SOL     OW18100   2.015   2.118   7.282  0.7645  0.0899 -0.0282
 2155SOL    HW118101   1.974   2.042   7.241  0.7415  0.0298  0.1047
 2155SOL    HW218102   1.982   2.191   7.230  0.2880 -1.8474 -2.4156
 2156SOL     OW18103   4.217   0.320  13.864  0.2788  0.6294 -0.0620
 2156SOL    HW118104   4.219   0.352  13.774 -2.7408  0.3141 -0.2526
 2156SOL    HW218105   4.167   0.240  13.846  0.4798  0.6368 -0.6345
 2157SOL     OW18106   3.323   1.977   6.869  0.3610  0.3323  0.4154
 2157SOL    HW118107   3.401   1.934   6.905  2.0265  2.2511 -0.8832
 2157SOL    HW218108   3.257   1.910   6.887  0.0511  0.3562 -0.6038
 2158SOL     OW18109   0.142   1.021   2.447 -0.0482 -0.3021  0.6002
 2158SOL    HW118110   0.054   1.036   2.411 -0.2990 -0.1296  1.2840
 2158SOL    HW218111   0.174   1.111   2.439  1.4010 -0.8786  0.0285
 2159SOL     OW18112   1.340   4.453  11.831 -0.1873  0.0113 -0.2967
 2159SOL    HW118113   1.342   4.375  11.776  0.3061 -0.8242  0.9112
 2159SOL    HW218114   1.389   4.428  11.910  0.5271  0.7718 -0.4967
 2160SOL     OW18115   3.310   3.768  12.474  0.5833  0.4260  0.5572
 2160SOL    HW118116   3.309   3.812  12.389 -0.7204 -3.0276 -1.2104
 2160SOL    HW218117   3.233   3.811  12.510  1.7005  1.7139  1.3914
 2161SOL     OW18118   1.803   1.280  16.835 -0.9429  0.1402  0.2613
 2161SOL    HW118119   1.757   1.209  16.789  1.2895 -1.3523  0.3441
 2161SOL    HW218120   1.894   1.254  16.835 -1.1679 -0.6268 -1.4292
 2162SOL     OW18121   4.558   1.283   4.207  0.3292  0.1859 -0.1523
 2162SOL    HW118122   4.511   1.352   4.160  1.6067 -1.0454 -3.2086
 2162SOL    HW218123   4.531   1.209   4.152  1.0909  1.1876 -1.8571
 2163SOL     OW18124   2.463   2.226   3.623 -0.0599 -0.2954  0.0821
 2163SOL    HW118125   2.398   2.269   3.569  1.4970  0.8341 -0.8913
 2163SOL    HW218126   2.544   2.235   3.572  0.5630 -1.5202  0.8303
 2164SOL     OW18127   1.298   4.438   7.862 -0.2067 -0.2081  0.4449
 2164SOL    HW118128   1.254   4.494   7.926  0.3451 -0.1328  0.7595
 2164SOL    HW218129   1.375   4.494   7.853 -0.3575 -0.5276 -2.7124
 2165SOL     OW18130   0.680   3.552  13.674  0.3951 -0.4521  0.0798
 2165SOL    HW118131   0.681   3.518  13.764  0.6984 -1.2856 -0.2329
 2165SOL    HW218132   0.666   3.475  13.618 -1.8747  1.0395 -1.3918
 2166SOL     OW18133   0.412   1.379  12.684 -0.3079  0.2234  0.0143
 2166SOL    HW118134   0.349   1.445  12.654 -0.2110  0.2590 -0.1130
 2166SOL    HW218135   0.356   1.307  12.712  0.5140 -0.5845 -0.3889
 2167SOL     OW18136   3.657   3.798   6.582  0.4324 -0.5742  0.2758
 2167SOL    HW118137   3.706   3.819   6.661 -0.1858 -0.7311  0.7034
 2167SOL    HW218138   3.672   3.886   6.547 -1.6279  0.7839  2.8023
 2168SOL     OW18139   2.302   1.696   7.102  0.8024 -0.2375  1.1488
 2168SOL    HW118140   2.389   1.715   7.139  1.1638  0.9122 -0.2924
 2168SOL    HW218141   2.268   1.785   7.098  1.9832  0.0900 -1.4247
 2169SOL     OW18142   3.809   4.155   8.593 -0.0603  0.5855 -0.2413
 2169SOL    HW118143   3.735   4.100   8.619  0.7505 -0.7282 -0.7053
 2169SOL    HW218144   3.790   4.232   8.645  0.6307  1.4338 -1.2562
 2170SOL     OW18145   1.179   1.252  15.061 -0.2307 -0.9924 -0.3967
 2170SOL    HW118146   1.258   1.298  15.089 -2.3871  1.5283  1.6641
 2170SOL    HW218147   1.199   1.198  14.985 -2.2879 -1.9140 -0.3020
 2171SOL     OW18148   4.108   2.576  10.266  0.3285  0.4578 -0.1210
 2171SOL    HW118149   4.064   2.509  10.319  0.0647  2.1167  1.7709
 2171SOL    HW218150   4.188   2.532  10.237  0.4275 -0.5925  1.7392
 2172SOL     OW18151   0.131   2.932   9.167  0.5860 -0.0197 -0.2807
 2172SOL    HW118152   0.186   2.868   9.211 -0.5366 -1.8448 -1.5416
 2172SOL    HW218153   0.187   2.975   9.102 -2.7507  1.1873 -2.4016
 2173SOL     OW18154   0.933   1.287   2.178  0.2296 -0.0906  0.2677
 2173SOL    HW118155   0.844   1.301   2.145 -0.4880 -1.0943  1.7792
 2173SOL    HW218156   0.978   1.339   2.112 -0.2877 -0.9719 -0.7877
 2174SOL     OW18157   1.581   0.627   1.464  0.3729 -0.6112  0.6166
 2174SOL    HW118158   1.646   0.635   1.534  0.2774  0.8028  0.5304
 2174SOL    HW218159   1.531   0.706   1.482  1.7770  0.3241  0.3830
 2175SOL     OW18160   2.932   0.218   4.663 -0.4487 -0.3992 -0.0560
 2175SOL    HW118161   2.969   0.238   4.577  0.5775 -0.1965  0.4347
 2175SOL    HW218162   2.933   0.300   4.712 -1.5930 -0.7750  0.5974
 2176SOL     OW18163   1.865   3.770  16.336 -0.6899  0.1980  0.5017
 2176SOL    HW118164   1.888   3.863  16.340 -2.8441  0.7460 -0.2175
 2176SOL    HW218165   1.954   3.739  16.318  0.4714  3.0660  1.3253
 2177SOL     OW18166   4.071   2.102   9.313  0.2902 -0.4274  0.1808
 2177SOL    HW118167   4.042   2.123   9.224  1.9824  1.8467  0.1586
 2177SOL    HW218168   4.062   2.007   9.316 -1.0001 -0.2667  1.4796
 2178SOL     OW18169   2.997   0.111   2.538  0.6701  0.0593  0.2023
 2178SOL    HW118170   3.054   0.187   2.555 -1.7259  2.0399 -0.6566
 2178SOL    HW218171   2.981   0.125   2.445 -1.3802 -1.5979  0.3266
 2179SOL     OW18172   0.380   3.207  10.441 -0.2510  0.0024 -0.0877
 2179SOL    HW118173   0.402   3.114  10.445 -2.4158 -0.5445 -0.7834
 2179SOL    HW218174   0.423   3.239  10.521 -1.3354 -1.5129  1.1220
 2180SOL     OW18175   3.142   3.417   6.765 -0.4896  0.3543  0.1249
 2180SOL    HW118176   3.103   3.344   6.814  0.7878 -0.0458  0.5377
 2180SOL    HW218177   3.212   3.445   6.823 -0.1605 -0.4623  0.1251
 2181SOL     OW18178   2.259   3.076  13.371 -0.1732 -0.1339 -0.4190
 2181SOL    HW118179   2.340   3.091  13.323  1.1292 -2.1689  1.1022
 2181SOL    HW218180   2.283   3.018  13.443  2.0669  3.8992  2.0707
 2182SOL     OW18181   0.639   3.395  14.574  0.4256 -0.2622  0.4875
 2182SOL    HW118182   0.685   3.328  14.524  0.0535  0.6335 -1.0416
 2182SOL    HW218183   0.591   3.444  14.508 -2.5860  1.0619  3.6249
 2183SOL     OW18184   3.705   4.245   8.336  0.1525  0.4522  0.1790
 2183SOL    HW118185   3.734   4.334   8.356  1.3050  0.4902 -1.6815
 2183SOL    HW218186   3.613   4.244   8.362  0.1035 -2.2759 -0.1169
 2184SOL     OW18187   0.322   0.934   5.642  0.3433 -0.1736 -0.0028
 2184SOL    HW118188   0.295   1.026   5.647  0.3347 -0.1547 -0.3848
 2184SOL    HW218189   0.324   0.918   5.736  1.3184 -0.1661 -0.0281
 2185SOL     OW18190   1.784   0.654   4.490  0.2093 -0.0660  0.3747
 2185SOL    HW118191   1.816   0.655   4.400  3.4797  0.8857  1.5038
 2185SOL    HW218192   1.694   0.623   4.482  0.3674 -0.8866  1.8883
 2186SOL     OW18193   3.954   2.811  10.298 -0.2481  0.1830 -0.2747
 2186SOL    HW118194   3.881   2.802  10.236  1.2161 -1.2695 -1.8048
 2186SOL    HW218195   4.007   2.734  10.276  0.6767  1.1752 -1.5206
 2187SOL     OW18196   0.329   0.156   1.090  0.3347  0.3243  0.1293
 2187SOL    HW118197   0.265   0.097   1.051  1.5602 -0.5413 -0.5666
 2187SOL    HW218198   0.400   0.141   1.028 -0.6354  0.3910 -0.9831
 2188SOL     OW18199   1.792   0.071  12.920  0.0505  0.3255 -0.1312
 2188SOL    HW118200   1.741   0.058  13.000  2.1376  2.5557  1.5349
 2188SOL    HW218201   1.864   0.009  12.931  1.1590  2.0919  2.3485
 2189SOL     OW18202   4.493   2.702   3.260 -0.2668  0.7059 -0.0285
 2189SOL    HW118203   4.415   2.757   3.259 -1.0751 -0.5306 -4.7485
 2189SOL    HW218204   4.538   2.722   3.177  0.4223 -1.6722 -0.2386
 2190SOL     OW18205   3.860   2.458   5.353 -0.1037  0.4404  0.8833
 2190SOL    HW118206   3.828   2.427   5.268  1.1473  1.2561  0.1194
 2190SOL    HW218207   3.954   2.455   5.339 -0.2467 -1.3731  0.2360
 2191SOL     OW18208   3.840   2.069   6.251 -0.0639  0.2699 -0.1818
 2191SOL    HW118209   3.854   2.140   6.314 -2.2415  1.4966 -1.0761
 2191SOL    HW218210   3.874   1.991   6.296 -0.9685  1.1831  2.1118
 2192SOL     OW18211   3.124   1.262   5.912  0.0301  0.7188  0.0427
 2192SOL    HW118212   3.042   1.217   5.892  1.5409 -2.4008  0.8000
 2192SOL    HW218213   3.175   1.186   5.940 -1.1913  0.2694  1.0366
 2193SOL     OW18214   2.506   3.270   1.151  0.0603  0.3352  0.2863
 2193SOL    HW118215   2.534   3.304   1.236 -0.5038  1.5327 -0.0071
 2193SOL    HW218216   2.590   3.250   1.108  0.1469  0.0451  0.5859
 2194SOL     OW18217   4.224   3.805   3.856  0.2294  0.5643  0.1294
 2194SOL    HW118218   4.316   3.824   3.876  0.9943 -2.3140 -0.6189
 2194SOL    HW218219   4.200   3.761   3.938 -0.2521 -0.6788 -0.6793
 2195SOL     OW18220   4.393   2.327   5.088  0.1021 -0.6111 -0.1769
 2195SOL    HW118221   4.306   2.294   5.109  0.2022 -0.1432  1.0030
 2195SOL    HW218222   4.449   2.250   5.099  2.3096  1.1015  0.7444
 2196SOL     OW18223   0.534   4.310   6.936 -0.1114  0.1999 -0.3270
 2196SOL    HW118224   0.549   4.227   6.890 -0.4215 -0.1483  0.1986
 2196SOL    HW218225   0.439   4.296   6.945  0.0648  0.1509  1.6198
 2197SOL     OW18226   4.213   1.187   3.716  0.0821 -0.0801  0.1451
 2197SOL    HW118227   4.151   1.259   3.729  0.4479  0.0862  0.9485
 2197SOL    HW218228   4.273   1.201   3.789  0.1998 -0.6367  0.1558
 2198SOL     OW18229   4.711   4.647   3.629 -0.5875  0.3013 -0.0552
 2198SOL    HW118230   0.063   4.622   3.658 -0.0437  2.2734  0.0481
 2198SOL    HW218231   4.672   4.659   3.716 -0.1133 -2.5135  0.5467
 2199SOL     OW18232   4.682   2.880   0.512  0.4769 -0.4520 -0.5087
 2199SOL    HW118233   4.695   2.945   0.443  0.8971  2.1924  2.0568
 2199SOL    HW218234   4.620   2.815   0.479  0.5572 -1.0113  0.4309
 2200SOL     OW18235   0.047   4.193   3.841 -0.1742  0.0474  0.4581
 2200SOL    HW118236   0.089   4.172   3.925  1.0097 -1.8120 -0.5770
 2200SOL    HW218237   0.045   4.107   3.798 -1.5463 -1.0135  2.5985
 2201SOL     OW18238   3.737   3.697   5.601  0.2226  0.2232  0.2075
 2201SOL    HW118239   3.678   3.751   5.549 -1.7944 -0.7128  1.5393
 2201SOL    HW218240   3.822   3.681   5.559  0.7926  0.2601  1.3387
 2202SOL     OW18241   3.190   3.431   7.576  0.0651  0.4097 -0.1981
 2202SOL    HW118242   3.117   3.487   7.548  1.1249  2.2687  0.7920
 2202SOL    HW218243   3.165   3.410   7.666 -1.7001 -1.6848 -1.1624
 2203SOL     OW18244   0.780   0.530   8.604  0.3587 -1.5826  0.0754
 2203SOL    HW118245   0.820   0.572   8.681  2.5474 -1.0716 -1.3156
 2203SOL    HW218246   0.811   0.601   8.547  1.0532 -2.0316 -0.1081
 2204SOL     OW18247   0.714   1.151  17.586 -0.4189  0.3570  0.1426
 2204SOL    HW118248   0.738   1.086  17.652 -0.0831  2.4710  2.1000
 2204SOL    HW218249   0.762   1.228  17.614 -0.4497 -0.2288  1.8077
 2205SOL     OW18250   2.370   0.012   5.197  0.1042 -0.2920  0.1859
 2205SOL    HW118251   2.343   0.084   5.254 -0.2266 -0.4269  0.1972
 2205SOL    HW218252   2.399   0.075   5.131 -0.4996 -1.2566 -1.0068
 2206SOL     OW18253   2.726   3.268   0.481 -0.0550 -0.4126  0.5572
 2206SOL    HW118254   2.783   3.233   0.412 -0.3969  0.3184 -0.1069
 2206SOL    HW218255   2.650   3.284   0.425  1.0365  0.9370 -0.5487
 2207SOL     OW18256   1.393   3.264  15.492 -0.5875  0.3673  0.0702
 2207SOL    HW118257   1.380   3.279  15.586  0.3920 -1.7344  0.5502
 2207SOL    HW218258   1.307   3.280  15.453  0.3578  3.3404 -0.8053
 2208SOL     OW18259   3.788   0.731   2.921 -0.5775  0.8173 -0.3961
 2208SOL    HW118260   3.873   0.712   2.962 -1.3405 -2.4594 -0.3158
 2208SOL    HW218261   3.810   0.716   2.829 -0.0758 -0.5824 -0.0578
 2209SOL     OW18262   1.228   0.538  10.166 -0.3010  0.3069 -0.2505
 2209SOL    HW118263   1.271   0.620  10.146  1.0486 -0.7842 -1.8217
 2209SOL    HW218264   1.249   0.526  10.258  1.9059  0.9779 -0.6838
 2210SOL     OW18265   3.608   1.731   6.098  0.4465 -0.3572  0.0749
 2210SOL    HW118266   3.669   1.772   6.037 -2.6469 -0.1377 -2.8639
 2210SOL    HW218267   3.658   1.649   6.095  1.3731  0.1810  1.1484
 2211SOL     OW18268   3.410   1.398   3.938 -0.1286 -0.4598  0.3011
 2211SOL    HW118269   3.360   1.404   4.019  0.4853 -0.3630  0.6746
 2211SOL    HW218270   3.370   1.324   3.892 -0.7615  1.0797 -1.6390
 2212SOL     OW18271   2.268   2.213  17.676 -0.3017  0.1270 -0.6747
 2212SOL    HW118272   2.338   2.245  17.619 -0.6091  0.7477 -0.7071
 2212SOL    HW218273   2.286   2.257   0.020  1.3493 -1.9637  0.0522
 2213SOL     OW18274   3.702   4.402   1.618  0.0428 -0.6905  0.0548
 2213SOL    HW118275   3.682   4.484   1.664  3.9698  0.5671 -0.4723
 2213SOL    HW218276   3.711   4.442   1.531  0.3407 -1.0154 -0.0646
 2214SOL     OW18277   1.921   4.193   7.372 -0.0490 -0.6317  0.4062
 2214SOL    HW118278   1.926   4.207   7.466  0.2120 -0.5882  0.3846
 2214SOL    HW218279   1.875   4.109   7.375  0.2265 -0.8323 -0.8287
 2215SOL     OW18280   3.590   1.702   6.640  0.2263 -0.7162  0.3540
 2215SOL    HW118281   3.591   1.641   6.566 -1.0356 -0.1634 -0.1173
 2215SOL    HW218282   3.539   1.772   6.600  1.4153 -0.3894 -0.6174
 2216SOL     OW18283   3.216   2.890   7.034 -0.2224  0.3298 -0.0228
 2216SOL    HW118284   3.145   2.842   6.991  0.7549 -0.6632 -0.5599
 2216SOL    HW218285   3.194   2.885   7.127  2.2950  1.8416  0.6448
 2217SOL     OW18286   4.421   1.004  10.987  0.0082 -0.3224  0.2589
 2217SOL    HW118287   4.480   0.992  11.061 -0.1566  1.4780  0.6910
 2217SOL    HW218288   4.338   0.999  11.035 -1.4140  1.6582 -1.9881
 2218SOL     OW18289   3.728   4.149   3.144 -0.4032  0.2838 -0.6115
 2218SOL    HW118290   3.821   4.141   3.167 -0.5134 -0.7903 -0.5698
 2218SOL    HW218291   3.729   4.217   3.077  1.8692  0.2562 -0.6211
 2219SOL     OW18292   4.036   1.158   5.310 -0.1933 -0.0307  0.0291
 2219SOL    HW118293   4.044   1.230   5.248  0.2413  0.6186  0.8456
 2219SOL    HW218294   4.119   1.161   5.357  1.0612  2.7020 -2.3465
 2220SOL     OW18295   2.377   2.602   6.565  0.0816  0.2469  0.0305
 2220SOL    HW118296   2.413   2.531   6.618  3.1837  0.1124 -2.2112
 2220SOL    HW218297   2.447   2.664   6.587 -1.2558  2.1431 -1.0908
 2221SOL     OW18298   2.654   3.464   3.957  0.2613  0.5413  0.2798
 2221SOL    HW118299   2.692   3.467   3.869  2.1021  0.2052  1.0481
 2221SOL    HW218300   2.583   3.524   3.936  0.3381  0.4296 -0.3040
 2222SOL     OW18301   0.188   3.973   4.459 -0.0484  0.4391 -0.3186
 2222SOL    HW118302   0.159   3.889   4.494  2.6430  0.1202  1.1475
 2222SOL    HW218303   0.266   3.949   4.409 -0.9932 -2.0468 -0.5913
 2223SOL     OW18304   0.359   0.483   8.027  0.0744 -0.2877 -0.7158
 2223SOL    HW118305   0.432   0.499   7.967  1.7083  0.1233  1.3883
 2223SOL    HW218306   0.338   0.567   8.068 -1.0418 -1.2991  0.7875
 2224SOL     OW18307   2.497   3.316  16.771 -0.2426 -0.2589 -0.1361
 2224SOL    HW118308   2.589   3.289  16.775  0.1505  1.1566  0.6811
 2224SOL    HW218309   2.498   3.404  16.810 -1.1104 -0.7873  1.0695
 2225SOL     OW18310   2.750   4.271  17.680 -0.7881  0.2814 -0.1041
 2225SOL    HW118311   2.706   4.187  17.671 -0.5682  0.0559  0.9496
 2225SOL    HW218312   2.816   4.282  17.611 -0.8089  1.2626  0.0258
 2226SOL     OW18313   0.184   3.438   3.713  0.0359  0.3393 -0.0532
 2226SOL    HW118314   0.263   3.391   3.687 -0.0878 -1.8176  3.5172
 2226SOL    HW218315   0.120   3.397   3.655  1.1644 -2.3485  0.6128
 2227SOL     OW18316   0.004   1.633   4.855  0.5397 -0.1216 -0.1833
 2227SOL    HW118317   0.049   1.554   4.825 -1.7420 -0.9329 -1.4641
 2227SOL    HW218318   4.680   1.640   4.780  0.3380 -2.0242 -0.2161
 2228SOL     OW18319   4.278   2.637   8.406 -0.4510  0.3620 -0.2287
 2228SOL    HW118320   4.292   2.558   8.354  0.6244 -1.1493  2.3369
 2228SOL    HW218321   4.187   2.625   8.434 -0.3803  0.4699  0.0469
 2229SOL     OW18322   0.187   4.504  15.772 -0.8818 -0.0567 -0.2635
 2229SOL    HW118323   0.105   4.517  15.724 -0.9626  1.4025  0.2482
 2229SOL    HW218324   0.252   4.486  15.705 -2.6074  2.0660 -2.5228
 2230SOL     OW18325   1.384   3.825   4.870  0.3602  1.1687 -0.0243
 2230SOL    HW118326   1.450   3.839   4.938  0.3519 -2.7605  0.8005
 2230SOL    HW218327   1.427   3.815   4.785  0.4660  0.5630  0.1009
 2231SOL     OW18328   0.575   2.590  10.360 -0.1841  0.1720  0.4425
 2231SOL    HW118329   0.651   2.624  10.314  0.4092 -0.3492  1.0492
 2231SOL    HW218330   0.554   2.652  10.430  0.4774  1.2062 -0.2888
 2232SOL     OW18331   1.218   0.696   7.275 -0.1847 -0.5101 -0.4321
 2232SOL    HW118332   1.157   0.769   7.284  1.2080  0.9055 -2.8372
 2232SOL    HW218333   1.298   0.746   7.261 -0.2198 -0.8140 -1.6989
 2233SOL     OW18334   2.990   1.244   3.211  0.3047 -0.3547 -0.1876
 2233SOL    HW118335   2.995   1.279   3.300 -1.4802 -0.2083 -0.1514
 2233SOL    HW218336   2.985   1.319   3.152 -2.7827 -0.2294  0.2565
 2234SOL     OW18337   2.110   0.953   8.261  0.3262 -0.2434  0.0713
 2234SOL    HW118338   2.088   0.866   8.295 -0.8359 -0.7489 -1.9717
 2234SOL    HW218339   2.172   0.983   8.328  0.7007  0.4277 -0.5806
 2235SOL     OW18340   1.068   2.919   7.157 -0.8350  0.4441  0.1632
 2235SOL    HW118341   1.160   2.920   7.184 -1.1608  0.6044  1.2643
 2235SOL    HW218342   1.058   3.013   7.143 -3.2439 -0.0319 -1.3980
 2236SOL     OW18343   3.857   0.815   1.895 -0.0259  0.0704 -0.1200
 2236SOL    HW118344   3.951   0.833   1.893 -0.2448  1.1472 -1.3176
 2236SOL    HW218345   3.816   0.901   1.910 -0.0520  0.2848 -1.3744
 2237SOL     OW18346   0.975   0.758   2.089 -0.4250 -0.2278  0.0938
 2237SOL    HW118347   1.055   0.785   2.134  0.0705  0.8022 -1.3943
 2237SOL    HW218348   0.918   0.831   2.115 -0.9241 -0.6807  0.2864
 2238SOL     OW18349   2.777   3.509   2.051  0.2316  0.4332  0.0871
 2238SOL    HW118350   2.737   3.479   1.969  3.3317 -3.5500  0.0572
 2238SOL    HW218351   2.858   3.458   2.053 -1.2337 -1.9725 -1.4025
 2239SOL     OW18352   3.055   0.801  11.839 -1.1188  0.3624  0.5431
 2239SOL    HW118353   2.970   0.795  11.794  1.0446 -0.2090 -3.4496
 2239SOL    HW218354   3.044   0.889  11.875  1.7655  1.3296 -0.9294
 2240SOL     OW18355   3.337   2.653   1.647  0.1682 -0.3182 -0.0667
 2240SOL    HW118356   3.347   2.746   1.629  1.8315 -0.1776  1.6038
 2240SOL    HW218357   3.287   2.624   1.571  0.0278 -1.8398  0.6073
 2241SOL     OW18358   3.023   0.033   9.122 -0.0592  0.8018  0.0150
 2241SOL    HW118359   2.966   0.083   9.062  0.8792  2.3346  0.3924
 2241SOL    HW218360   3.086   0.005   9.056  0.2334 -1.2539  1.1698
 2242SOL     OW18361   4.468   4.056  12.190  0.1032  0.4053 -1.1510
 2242SOL    HW118362   4.483   4.115  12.116 -0.4634 -0.0949 -1.6596
 2242SOL    HW218363   4.390   4.009  12.163 -0.4432  2.4550 -3.1872
 2243SOL     OW18364   0.435   3.485   8.598  0.0447  0.1233  0.0010
 2243SOL    HW118365   0.457   3.424   8.669  1.0141 -0.4708 -0.8245
 2243SOL    HW218366   0.431   3.574   8.635  2.0722  0.7545 -1.3128
 2244SOL     OW18367   0.510   3.598   4.239  0.2717 -0.2065 -0.3085
 2244SOL    HW118368   0.415   3.610   4.229  0.4583  1.7222  0.2897
 2244SOL    HW218369   0.534   3.616   4.148  0.5554 -6.1844 -1.3829
 2245SOL     OW18370   0.053   0.805   7.210 -0.0539  0.4886 -0.4268
 2245SOL    HW118371   0.060   0.717   7.246 -1.1702  0.5240 -0.1198
 2245SOL    HW218372   4.698   0.806   7.179 -0.1800 -1.1825 -0.0847
 2246SOL     OW18373   3.048   4.383   6.310  0.2899  0.2035 -0.4337
 2246SOL    HW118374   3.135   4.421   6.297  0.0657  1.9050  3.0315
 2246SOL    HW218375   2.989   4.420   6.244  0.2370  0.0605 -0.4650
 2247SOL     OW18376   1.745   0.917   6.420  0.1848  0.4075 -0.0153
 2247SOL    HW118377   1.691   0.863   6.478 -1.7940  4.1839  1.5984
 2247SOL    HW218378   1.707   0.903   6.333  0.1779 -1.7339  0.3272
 2248SOL     OW18379   4.555   0.655   1.986 -0.1504  0.2267  0.8385
 2248SOL    HW118380   4.516   0.740   1.966  0.6065  0.2005 -0.7396
 2248SOL    HW218381   4.549   0.658   2.081 -2.8397  1.0705  0.6295
 2249SOL     OW18382   1.765   4.726   5.642 -0.6908  0.3482  0.3235
 2249SOL    HW118383   1.760   0.081   5.675 -1.8492  0.3178  0.2209
 2249SOL    HW218384   1.848   0.002   5.597 -0.1635  0.4381  1.3221
 2250SOL     OW18385   3.972   2.655   3.612 -0.1220 -0.2581 -0.7729
 2250SOL    HW118386   3.995   2.567   3.640 -0.3170  0.0891  0.4441
 2250SOL    HW218387   3.877   2.650   3.602 -0.3614  0.7662  0.9977
 2251SOL     OW18388   0.498   0.929   4.964 -0.4124 -0.7726 -0.2298
 2251SOL    HW118389   0.456   0.944   5.049 -2.0769 -1.3576 -0.9508
 2251SOL    HW218390   0.451   0.989   4.906 -1.2024 -0.3859  0.8202
 2252SOL     OW18391   1.503   1.192  14.818 -0.6257  0.2626  0.2284
 2252SOL    HW118392   1.457   1.109  14.803 -1.7385  0.7221  1.0508
 2252SOL    HW218393   1.496   1.237  14.734  0.0053 -0.2190 -0.0782
 2253SOL     OW18394   0.533   0.609   1.755  0.1393  0.1358 -0.0520
 2253SOL    HW118395   0.536   0.554   1.833  0.4206 -1.0310 -0.8889
 2253SOL    HW218396   0.515   0.540   1.691  0.1970  1.4659 -1.4837
 2254SOL     OW18397   0.851   2.957   2.359  1.1677  0.0736 -0.2812
 2254SOL    HW118398   0.877   2.982   2.447  0.8933 -0.3367 -0.0857
 2254SOL    HW218399   0.940   2.942   2.327  0.4390 -1.0006 -1.8519
 2255SOL     OW18400   1.547   4.573   2.883 -0.9099 -0.1536 -0.3349
 2255SOL    HW118401   1.490   4.598   2.956  1.0639 -0.0932  1.1974
 2255SOL    HW218402   1.618   4.637   2.898 -0.1805 -0.8943 -0.6322
 2256SOL     OW18403   3.856   4.477   4.111 -0.1569  0.4195  0.7856
 2256SOL    HW118404   3.778   4.531   4.125 -0.4291 -0.0308  0.9811
 2256SOL    HW218405   3.863   4.468   4.016 -1.6972  1.4608  0.5723
 2257SOL     OW18406   2.413   0.299   3.024  0.5311  0.3391  0.2330
 2257SOL    HW118407   2.419   0.208   3.054  1.6204  0.2303 -0.3404
 2257SOL    HW218408   2.506   0.319   3.025  0.7419 -0.7287  1.4066
 2258SOL     OW18409   3.193   3.734   5.560  0.6199  0.1699 -0.3665
 2258SOL    HW118410   3.207   3.647   5.597  1.3558 -0.8973 -3.2397
 2258SOL    HW218411   3.135   3.715   5.486 -1.1865 -0.3511  1.1715
 2259SOL     OW18412   1.659   3.378  16.792  0.0986  0.2478 -0.5055
 2259SOL    HW118413   1.720   3.422  16.851 -1.9170  2.5902 -0.2189
 2259SOL    HW218414   1.579   3.427  16.808  0.4543 -0.1178  2.3524
 2260SOL     OW18415   0.696   1.599   9.375  0.2390 -0.5434  0.1606
 2260SOL    HW118416   0.629   1.547   9.331  0.2048 -0.9571  0.6987
 2260SOL    HW218417   0.641   1.664   9.418  0.0318 -1.5227  1.3599
 2261SOL     OW18418   1.998   3.836   6.173 -0.3472  0.1984 -0.2913
 2261SOL    HW118419   2.082   3.801   6.204  0.2769 -0.4720 -2.7407
 2261SOL    HW218420   2.009   3.931   6.174  2.4227 -0.1067 -1.5478
 2262SOL     OW18421   3.972   2.146   7.209 -0.5878 -0.1651 -0.4723
 2262SOL    HW118422   3.883   2.154   7.245  0.0086 -0.1866  1.0297
 2262SOL    HW218423   3.961   2.083   7.138 -4.1152 -0.7327  0.5554
 2263SOL     OW18424   0.070   1.374   3.072  0.0838 -0.6699 -0.4449
 2263SOL    HW118425   4.723   1.360   3.025  0.5892  1.5185 -2.0279
 2263SOL    HW218426   0.038   1.392   3.160  4.0813 -0.9390  1.0697
 2264SOL     OW18427   2.102   0.315   9.007  0.1003 -0.2960  0.1058
 2264SOL    HW118428   2.044   0.391   9.016 -1.5351 -1.6966  1.4279
 2264SOL    HW218429   2.092   0.271   9.092  2.2952  0.2923  0.6589
 2265SOL     OW18430   2.399   1.802  10.217 -0.0224 -0.2951 -0.2031
 2265SOL    HW118431   2.448   1.734  10.262  0.1428 -0.1639 -0.1852
 2265SOL    HW218432   2.419   1.885  10.261 -0.0781 -0.1085 -0.5236
 2266SOL     OW18433   0.978   0.431   1.170  0.0649 -0.0832  0.3752
 2266SOL    HW118434   1.060   0.404   1.211 -0.2450 -0.6818  0.5891
 2266SOL    HW218435   0.945   0.492   1.236 -1.5814  0.7622 -1.2151
 2267SOL     OW18436   3.918   0.252   4.944  0.0481 -0.4216 -0.2665
 2267SOL    HW118437   3.863   0.198   4.888 -1.9285  1.1847  0.1311
 2267SOL    HW218438   3.993   0.193   4.944  1.3407  1.1970  0.5759
 2268SOL     OW18439   4.236   4.106   8.245 -0.0105 -0.2756 -0.5634
 2268SOL    HW118440   4.144   4.084   8.256 -0.2085  0.9125  0.2152
 2268SOL    HW218441   4.211   4.168   8.176 -0.8712  1.6860  1.5026
 2269SOL     OW18442   4.007   1.711   8.323 -0.6942 -0.1117 -0.7181
 2269SOL    HW118443   3.997   1.660   8.403  0.8112  0.3085 -0.2697
 2269SOL    HW218444   3.932   1.675   8.276 -0.3078 -1.2381 -0.4506
 2270SOL     OW18445   4.120   1.717   3.798  0.3730  0.4297  0.1543
 2270SOL    HW118446   4.102   1.705   3.705 -0.2163  2.8175 -0.0378
 2270SOL    HW218447   4.033   1.696   3.832  1.5046 -0.4608  2.5139
 2271SOL     OW18448   3.859   1.307   2.766 -0.5460  0.0335  0.2347
 2271SOL    HW118449   3.868   1.298   2.861 -1.9425  2.4621  0.5987
 2271SOL    HW218450   3.764   1.317   2.759 -0.3654  0.4378 -1.5975
 2272SOL     OW18451   3.043   0.303   6.330 -0.2148  0.3100  0.0965
 2272SOL    HW118452   2.959   0.310   6.287 -0.2902 -0.7004  0.0975
 2272SOL    HW218453   3.076   0.217   6.306 -1.0257 -0.6291  2.2940
 2273SOL     OW18454   2.744   4.722   6.605 -0.0841 -0.3056  0.3932
 2273SOL    HW118455   2.692   4.643   6.619  1.1866 -0.9327  1.4832
 2273SOL    HW218456   2.764   0.023   6.691  3.0760 -0.8964 -0.0712
 2274SOL     OW18457   4.683   2.276   1.980  0.3002 -0.1090  0.1318
 2274SOL    HW118458   0.026   2.223   1.969  0.1353 -0.4523  0.6512
 2274SOL    HW218459   4.719   2.355   1.940 -1.2754 -0.3839 -1.8733
 2275SOL     OW18460   2.338   3.354   3.652 -0.1524  0.2991 -0.3836
 2275SOL    HW118461   2.303   3.338   3.564 -0.3855  1.6521 -0.5312
 2275SOL    HW218462   2.263   3.391   3.699 -0.6573  0.4213 -1.2738
 2276SOL     OW18463   0.177   2.812   4.619  0.2334 -0.6163  0.1872
 2276SOL    HW118464   0.163   2.727   4.661  0.1467  0.1994  1.7594
 2276SOL    HW218465   0.170   2.767   4.534  1.2058 -1.5037  0.5790
 2277SOL     OW18466   1.926   4.539   0.112  0.0001  0.7769 -0.3139
 2277SOL    HW118467   1.853   4.592   0.080  0.6916 -0.0976 -3.3148
 2277SOL    HW218468   1.912   4.471   0.046  1.6048 -0.7185  0.8876
 2278SOL     OW18469   3.243   0.338   3.840  0.1507  0.7228  0.3729
 2278SOL    HW118470   3.169   0.396   3.826 -0.0860  0.6304  1.2225
 2278SOL    HW218471   3.198   0.283   3.905  0.3171  2.8628  2.3014
 2279SOL     OW18472   3.422   3.990   2.475  0.8427  0.6506  0.2528
 2279SOL    HW118473   3.467   4.067   2.441 -1.3210  2.2012  0.9330
 2279SOL    HW218474   3.332   4.015   2.456  1.5496  3.4483  0.6997
 2280SOL     OW18475   1.763   4.552   9.376  0.5407  0.2287  0.8762
 2280SOL    HW118476   1.748   4.541   9.469 -0.3448 -1.6444  0.5140
 2280SOL    HW218477   1.677   4.548   9.333  0.1632  0.0235  1.6522
 2281SOL     OW18478   2.594   4.521   1.324  0.2588 -0.0877 -0.3098
 2281SOL    HW118479   2.545   4.539   1.404  1.4775  2.3765 -0.1157
 2281SOL    HW218480   2.569   4.595   1.269  0.5408 -0.6487 -1.1773
 2282SOL     OW18481   3.829   2.964   3.738 -0.0982 -0.3358  0.1275
 2282SOL    HW118482   3.774   2.905   3.686  0.1545  0.5331 -1.1232
 2282SOL    HW218483   3.821   3.047   3.690 -1.6600  0.0538  1.0312
 2283SOL     OW18484   4.601   2.163  14.346 -0.2479 -0.1667 -0.2606
 2283SOL    HW118485   4.663   2.103  14.388  1.2158  0.6733 -1.2599
 2283SOL    HW218486   4.637   2.191  14.263 -1.1933  1.3271 -0.1671
 2284SOL     OW18487   0.435   3.639   5.420 -0.1061 -0.1811  0.4129
 2284SOL    HW118488   0.503   3.572   5.429  2.4978  2.3851 -0.2478
 2284SOL    HW218489   0.466   3.705   5.482  3.6104  0.7581 -2.4563
 2285SOL     OW18490   2.007   2.124   7.689 -0.6730 -0.3987 -0.0187
 2285SOL    HW118491   2.086   2.167   7.721 -0.5582 -0.1199 -0.6864
 2285SOL    HW218492   1.979   2.162   7.606  0.7539  0.9347  0.1110
 2286SOL     OW18493   1.743   0.327   9.224 -0.3631 -0.1205 -0.1128
 2286SOL    HW118494   1.678   0.383   9.266 -0.7444 -1.9585  1.7149
 2286SOL    HW218495   1.779   0.276   9.296  0.6710  0.0848 -0.4930
 2287SOL     OW18496   3.423   2.598   9.398  0.6185  0.2788 -0.3965
 2287SOL    HW118497   3.365   2.619   9.471 -1.9537 -0.5409 -2.2186
 2287SOL    HW218498   3.375   2.529   9.352 -0.1032 -0.7347  1.8599
 2288SOL     OW18499   1.737   0.611   4.885 -0.6073 -0.3118 -0.1127
 2288SOL    HW118500   1.748   0.611   4.790  2.3636 -1.5401  0.2255
 2288SOL    HW218501   1.669   0.678   4.892 -1.5187 -1.5262  2.5315
 2289SOL     OW18502   4.364   2.906  10.621 -0.2591  1.1982 -0.1168
 2289SOL    HW118503   4.317   2.827  10.594  0.7016  0.7490 -0.4725
 2289SOL    HW218504   4.359   2.953  10.537  0.0419  1.6539  0.1246
 2290SOL     OW18505   1.490   3.848   4.616  0.7717  0.1418  0.2835
 2290SOL    HW118506   1.545   3.777   4.583  0.1089 -0.3864  0.2999
 2290SOL    HW218507   1.549   3.921   4.602 -2.1688  2.2586 -1.1156
 2291SOL     OW18508   3.094   1.975  13.790 -1.2317 -0.1569  0.2485
 2291SOL    HW118509   3.041   2.055  13.794 -2.4064 -0.9120 -0.2678
 2291SOL    HW218510   3.035   1.901  13.801 -1.8494  0.7846  3.2244
 2292SOL     OW18511   3.278   1.814   2.041  0.1626  1.0673 -0.0423
 2292SOL    HW118512   3.226   1.737   2.062 -0.8138  1.9960  0.9962
 2292SOL    HW218513   3.218   1.846   1.974 -0.9202 -0.9592 -0.0203
 2293SOL     OW18514   0.994   2.241  11.612 -0.2333  0.6023 -0.3793
 2293SOL    HW118515   1.018   2.149  11.602  0.7757  0.8979 -0.6233
 2293SOL    HW218516   1.004   2.238  11.707  0.8759 -0.1385 -0.5228
 2294SOL     OW18517   4.698   4.324   7.895 -0.6145  0.0301 -0.1127
 2294SOL    HW118518   4.687   4.253   7.958 -0.4266 -0.1163 -0.2457
 2294SOL    HW218519   0.021   4.386   7.940 -1.6043 -0.2943  1.6290
 2295SOL     OW18520   1.625   2.742   1.364 -0.2249 -0.4255 -0.5068
 2295SOL    HW118521   1.629   2.834   1.340 -0.4852  0.6252  3.6405
 2295SOL    HW218522   1.546   2.714   1.316 -1.5787 -0.7948  1.9098
 2296SOL     OW18523   1.175   1.254   2.329 -0.0484  0.1971 -0.2276
 2296SOL    HW118524   1.212   1.172   2.297  0.1961 -0.0041  0.5593
 2296SOL    HW218525   1.090   1.252   2.286 -0.9102  1.4515  1.3990
 2297SOL     OW18526   3.712   0.825   3.161 -0.4638 -0.9332 -0.1195
 2297SOL    HW118527   3.762   0.812   3.081  0.3484 -0.5493  0.3242
 2297SOL    HW218528   3.766   0.764   3.212  0.5537 -0.5083 -0.6939
 2298SOL     OW18529   1.413   3.337   4.638 -0.0841 -0.1164 -0.3392
 2298SOL    HW118530   1.499   3.313   4.672 -1.7515  0.2842  4.1723
 2298SOL    HW218531   1.401   3.412   4.696 -2.4533 -1.3656  0.7957
 2299SOL     OW18532   2.044   3.152   8.462 -0.1079  0.2073  0.8797
 2299SOL    HW118533   2.126   3.108   8.483  1.8990  2.5233 -2.1538
 2299SOL    HW218534   2.041   3.212   8.537 -0.5997  1.3587 -0.0509
 2300SOL     OW18535   2.941   2.524   7.545 -0.5585 -0.2426 -0.0598
 2300SOL    HW118536   2.958   2.599   7.487  1.0170 -0.6438 -0.1104
 2300SOL    HW218537   3.022   2.474   7.534  0.4585  1.2505  0.7216
 2301SOL     OW18538   0.261   4.627  11.195 -0.0810 -0.3659 -0.5460
 2301SOL    HW118539   0.298   4.554  11.246 -0.4801 -0.4450 -0.3700
 2301SOL    HW218540   0.188   4.578  11.158 -1.4568  1.5594 -0.3835
 2302SOL     OW18541   0.313   1.631   4.086  0.4891 -0.0733 -0.8581
 2302SOL    HW118542   0.251   1.645   4.157  0.3159 -0.5865 -0.9113
 2302SOL    HW218543   0.378   1.579   4.134  1.1417  2.0656  0.5992
 2303SOL     OW18544   0.431   2.935  10.407 -0.3715  0.3816 -0.3240
 2303SOL    HW118545   0.498   2.898  10.465 -0.0201  0.4021 -0.7205
 2303SOL    HW218546   0.352   2.889  10.437  0.5366 -1.7614 -1.2291
 2304SOL     OW18547   3.789   2.456   1.578 -0.0591  0.5690  0.6635
 2304SOL    HW118548   3.863   2.420   1.530 -1.8330 -0.4551 -1.2706
 2304SOL    HW218549   3.721   2.468   1.512 -0.8282 -1.7042  1.0145
 2305SOL     OW18550   0.565   1.690  13.382 -0.4938 -0.0896 -0.1964
 2305SOL    HW118551   0.629   1.669  13.450  0.5162  1.4875 -0.6354
 2305SOL    HW218552   0.593   1.774  13.346  2.0210 -0.0259  1.8872
 2306SOL     OW18553   0.067   3.114  16.881 -0.0468  0.0547 -0.1687
 2306SOL    HW118554   0.084   3.022  16.900  0.8068  0.0519 -0.9733
 2306SOL    HW218555   0.127   3.151  16.946  0.9112 -2.6364  0.4879
 2307SOL     OW18556   4.200   0.738  14.917  0.4088  0.1595 -0.3778
 2307SOL    HW118557   4.249   0.814  14.949  2.4714 -1.8431  1.1967
 2307SOL    HW218558   4.218   0.757  14.825 -1.7503  0.9350 -0.6382
 2308SOL     OW18559   3.775   1.013   9.090  0.0405  0.3289 -0.2456
 2308SOL    HW118560   3.736   1.006   9.178  0.1388 -1.6804 -0.3629
 2308SOL    HW218561   3.807   1.102   9.098 -0.3518  0.4162  0.3740
 2309SOL     OW18562   1.823   0.388   3.145 -0.0314  0.2672 -0.6200
 2309SOL    HW118563   1.855   0.337   3.070  1.7761  0.5539 -0.0398
 2309SOL    HW218564   1.909   0.417   3.175  0.1837 -1.8874  0.8276
 2310SOL     OW18565   1.944   3.636   7.360  0.2791  0.5622 -0.1509
 2310SOL    HW118566   1.993   3.566   7.316 -0.6315 -0.7524  0.9115
 2310SOL    HW218567   2.004   3.709   7.346  0.9585 -0.6261 -3.6095
 2311SOL     OW18568   0.038   2.568   2.696  0.8991  0.7050 -0.1355
 2311SOL    HW118569   0.039   2.653   2.740  0.7703  1.1853 -1.0593
 2311SOL    HW218570   0.083   2.584   2.613  1.1473 -1.2447 -0.3789
 2312SOL     OW18571   0.400   4.120   6.648  0.1414  0.3500  0.0693
 2312SOL    HW118572   0.437   4.208   6.646 -0.1077  0.4701  0.8500
 2312SOL    HW218573   0.448   4.082   6.721 -1.3845  0.0687  0.9150
 2313SOL     OW18574   2.572   4.464   6.652  0.2565  0.8239  0.2538
 2313SOL    HW118575   2.537   4.376   6.636  0.6099  0.9551 -1.1754
 2313SOL    HW218576   2.580   4.470   6.748  1.9491 -1.5949  0.2733
 2314SOL     OW18577   2.414   0.734  10.676 -0.0329  0.6245  0.8243
 2314SOL    HW118578   2.507   0.711  10.671 -0.2554  0.1222 -0.9481
 2314SOL    HW218579   2.421   0.822  10.712  1.2860  0.1449  1.7487
 2315SOL     OW18580   1.424   1.513   2.276  0.0994  0.3342 -0.0173
 2315SOL    HW118581   1.457   1.603   2.273  2.0021 -0.3978 -1.1031
 2315SOL    HW218582   1.353   1.533   2.337 -0.3599  0.9344 -0.7439
 2316SOL     OW18583   3.265   3.386   1.845  0.2629 -0.2919 -0.0956
 2316SOL    HW118584   3.275   3.385   1.749 -4.2281  0.3249 -0.6052
 2316SOL    HW218585   3.304   3.473   1.857 -0.0451 -0.3721  1.3850
 2317SOL     OW18586   3.106   2.036  12.739 -0.1481 -0.2403 -0.2218
 2317SOL    HW118587   3.081   1.974  12.671 -1.4964  0.5575 -0.4426
 2317SOL    HW218588   3.047   2.110  12.721  0.1243 -0.3826 -1.7186
 2318SOL     OW18589   3.004   1.330  12.486  0.4214  0.4588  0.2096
 2318SOL    HW118590   3.064   1.351  12.557  0.0254  1.0879  0.3532
 2318SOL    HW218591   3.060   1.285  12.422  1.2162  0.4321  0.9142
 2319SOL     OW18592   1.591   4.726  13.097  0.2711 -0.4369 -0.3596
 2319SOL    HW118593   1.521   0.041  13.137  3.1180  0.4762  3.4360
 2319SOL    HW218594   1.663   4.730  13.160 -0.5963  1.4465  0.4852
 2320SOL     OW18595   0.609   0.334   9.441  0.3130 -0.3204 -0.3210
 2320SOL    HW118596   0.664   0.280   9.498  1.2122  3.2493  2.1252
 2320SOL    HW218597   0.676   0.395   9.410 -0.7513 -0.2595 -2.5207
 2321SOL     OW18598   2.862   2.880   9.390  0.4657  0.4728  0.0988
 2321SOL    HW118599   2.869   2.867   9.295  4.3953 -0.1588  0.4737
 2321SOL    HW218600   2.857   2.975   9.385  1.1671  0.5479  0.9948
 2322SOL     OW18601   1.589   1.285  10.651  0.0463  0.1986 -0.0458
 2322SOL    HW118602   1.678   1.316  10.671  0.0297 -0.0438  0.4157
 2322SOL    HW218603   1.552   1.280  10.739  1.8148  1.0653  0.7481
 2323SOL     OW18604   0.188   2.216   6.233 -0.4723  0.7031  0.2789
 2323SOL    HW118605   0.212   2.195   6.143 -1.7509  0.7521 -0.0796
 2323SOL    HW218606   0.275   2.201   6.270 -1.0196 -0.1353  1.2053
 2324SOL     OW18607   0.441   2.345  16.208  0.0205  1.3333  0.5379
 2324SOL    HW118608   0.490   2.400  16.269  1.5657 -0.2635  0.7233
 2324SOL    HW218609   0.391   2.296  16.274  0.9350 -0.0300  0.1940
 2325SOL     OW18610   3.264   0.711  12.988  0.4008  0.1851 -0.0140
 2325SOL    HW118611   3.333   0.651  13.016  0.7594  0.4946 -0.2320
 2325SOL    HW218612   3.242   0.689  12.897  0.7916  1.4298 -0.4150
 2326SOL     OW18613   1.663   3.155   8.553  0.4766  0.0507 -0.2259
 2326SOL    HW118614   1.609   3.076   8.555  1.5629 -0.6629  0.7882
 2326SOL    HW218615   1.604   3.224   8.523  0.8310  1.4474  2.2751
 2327SOL     OW18616   0.924   2.668   7.688  0.1844 -0.1822 -0.2041
 2327SOL    HW118617   0.861   2.739   7.697  1.0529  0.8980 -2.7188
 2327SOL    HW218618   0.873   2.605   7.740 -0.5703  0.8808  0.3399
 2328SOL     OW18619   0.982   0.320   1.741  0.2905  0.5037 -0.1834
 2328SOL    HW118620   0.898   0.310   1.786  1.2172  0.8045  1.6196
 2328SOL    HW218621   1.004   0.230   1.717  3.2039  1.3512 -0.7044
 2329SOL     OW18622   3.037   1.745   4.401  0.0864 -0.2568  0.0490
 2329SOL    HW118623   2.976   1.711   4.467 -0.4345  1.1161  0.2747
 2329SOL    HW218624   3.113   1.690   4.420 -0.4679 -0.7057  0.9506
 2330SOL     OW18625   3.810   3.926   7.651  1.2984 -0.3433  0.0784
 2330SOL    HW118626   3.821   3.834   7.677 -1.3412 -1.0285 -1.1946
 2330SOL    HW218627   3.758   3.967   7.719  0.8486 -0.4072 -0.2223
 2331SOL     OW18628   0.957   0.215   6.324  0.0365  0.5958 -0.2353
 2331SOL    HW118629   0.941   0.130   6.284 -1.8264 -0.2715  2.3547
 2331SOL    HW218630   0.923   0.202   6.413 -1.6856  1.1898 -0.8104
 2332SOL     OW18631   2.617   2.779   2.100 -0.1167  0.3987  0.3383
 2332SOL    HW118632   2.710   2.777   2.120 -0.2538  0.4036  0.9743
 2332SOL    HW218633   2.579   2.747   2.182 -1.0681 -1.6369 -0.8724
 2333SOL     OW18634   1.074   4.176   7.847 -0.1571  0.2575  0.0614
 2333SOL    HW118635   0.997   4.133   7.808  0.2873  0.1128 -0.6671
 2333SOL    HW218636   1.071   4.262   7.805 -0.4002 -0.2941 -1.0605
 2334SOL     OW18637   4.689   1.708   3.780  0.2425 -0.0839 -0.0092
 2334SOL    HW118638   4.604   1.704   3.737  0.4157 -2.6743 -0.1403
 2334SOL    HW218639   4.661   1.728   3.869 -0.9646  0.1223 -0.4413
 2335SOL     OW18640   1.806   2.757  12.928  0.1683  0.4391 -0.3445
 2335SOL    HW118641   1.842   2.832  12.881 -0.7246  0.8251 -0.4062
 2335SOL    HW218642   1.869   2.695  12.891 -0.2770 -0.1407 -0.1313
 2336SOL     OW18643   1.395   2.834  12.147  0.0042  0.5181  0.0936
 2336SOL    HW118644   1.470   2.843  12.205 -0.6238 -0.9122  1.1370
 2336SOL    HW218645   1.399   2.922  12.110  0.5438 -0.8530 -3.0355
 2337SOL     OW18646   2.585   4.323   3.422 -0.0263 -0.2436 -0.0552
 2337SOL    HW118647   2.501   4.298   3.459 -1.2717  0.2936 -2.4996
 2337SOL    HW218648   2.650   4.269   3.467 -0.1016 -0.9190 -0.7418
 2338SOL     OW18649   1.684   2.213   2.810  0.0545  0.6339  0.0822
 2338SOL    HW118650   1.684   2.295   2.860 -0.8019  0.3197  0.5991
 2338SOL    HW218651   1.693   2.148   2.880  1.1185  1.1919  0.4641
 2339SOL     OW18652   4.231   4.079   0.689  0.0535 -0.0467 -0.1971
 2339SOL    HW118653   4.309   4.043   0.730  1.3002 -0.5253 -2.9939
 2339SOL    HW218654   4.199   4.000   0.646  0.6268  0.1348 -0.9574
 2340SOL     OW18655   3.731   0.278   3.778 -0.2737 -0.0043 -0.4162
 2340SOL    HW118656   3.726   0.342   3.848 -0.1794 -2.2666  1.6800
 2340SOL    HW218657   3.644   0.274   3.739 -0.2407  0.5873 -0.5405
 2341SOL     OW18658   4.288   4.650   6.989 -0.1049 -0.2287  0.0970
 2341SOL    HW118659   4.228   4.592   6.942 -0.9714  0.6604  0.1074
 2341SOL    HW218660   4.292   4.730   6.938  1.8382 -0.6342 -0.3866
 2342SOL     OW18661   2.886   2.310   5.941  0.0983  0.8257 -0.4279
 2342SOL    HW118662   2.801   2.326   5.982  0.8427  0.8088  1.1009
 2342SOL    HW218663   2.934   2.390   5.917  1.5265 -1.1556 -4.2758
 2343SOL     OW18664   0.224   2.261   7.751 -0.1706 -0.2003 -0.6735
 2343SOL    HW118665   0.282   2.226   7.818 -0.1058 -2.2614 -1.8034
 2343SOL    HW218666   0.151   2.200   7.739 -0.5056  0.0843 -0.0956
 2344SOL     OW18667   3.849   0.995   4.262 -0.3190 -0.7854  0.8964
 2344SOL    HW118668   3.778   0.931   4.258  0.3925 -1.5259 -0.0824
 2344SOL    HW218669   3.898   0.975   4.182 -0.1949  0.6162  0.6209
 2345SOL     OW18670   1.723   0.693   7.267  0.2145  0.0547 -0.3067
 2345SOL    HW118671   1.713   0.634   7.342  1.4176 -0.8682 -0.8676
 2345SOL    HW218672   1.770   0.762   7.313  0.8282 -0.0945 -0.7113
 2346SOL     OW18673   0.504   0.672   4.861  0.0556 -0.0006 -0.7697
 2346SOL    HW118674   0.505   0.759   4.900 -3.2314 -0.4407  0.3336
 2346SOL    HW218675   0.545   0.636   4.939 -0.3109  1.2930  0.0171
 2347SOL     OW18676   4.471   0.601  12.346  0.2137 -0.1897  0.3077
 2347SOL    HW118677   4.460   0.528  12.408 -0.8059 -0.4967 -0.2296
 2347SOL    HW218678   4.556   0.630  12.377  0.2133  1.6018 -1.3845
 2348SOL     OW18679   0.933   2.705   2.073  0.1303  0.1289 -0.2223
 2348SOL    HW118680   1.022   2.710   2.106 -0.0495 -1.2722  0.4948
 2348SOL    HW218681   0.892   2.788   2.094 -1.9879 -1.4583  1.9674
 2349SOL     OW18682   1.864   1.689   2.564 -0.4607  0.4619 -0.1143
 2349SOL    HW118683   1.893   1.598   2.578  0.1324  0.7863  0.7740
 2349SOL    HW218684   1.931   1.720   2.502  0.7730 -2.4749 -0.2740
 2350SOL     OW18685   1.267   3.532   4.376 -1.0732  0.2111  0.0043
 2350SOL    HW118686   1.346   3.501   4.332  0.0161  2.1432  0.6367
 2350SOL    HW218687   1.212   3.556   4.301 -0.8013 -1.2601 -0.6750
 2351SOL     OW18688   0.478   0.601   8.706 -0.2069 -0.0377  0.4108
 2351SOL    HW118689   0.475   0.604   8.802 -0.1924  3.9778  0.2823
 2351SOL    HW218690   0.567   0.569   8.694  0.5103  1.3505  2.0390
 2352SOL     OW18691   2.365   3.964  10.815 -0.1099  0.2723  0.4636
 2352SOL    HW118692   2.288   4.007  10.850 -0.1445  0.0159  0.7058
 2352SOL    HW218693   2.338   3.947  10.725 -0.0003  1.7660  0.1592
 2353SOL     OW18694   4.423   2.810   6.103  0.3275 -0.2842  0.2839
 2353SOL    HW118695   4.452   2.720   6.117  1.3250 -0.1672 -0.9753
 2353SOL    HW218696   4.451   2.851   6.185  0.7456  1.0684 -0.5390
 2354SOL     OW18697   1.942   1.215   7.814  0.0928 -0.5280  0.0535
 2354SOL    HW118698   1.966   1.169   7.894  0.3385 -0.9444 -0.2617
 2354SOL    HW218699   1.856   1.255   7.831  0.0319 -1.4407  1.8512
 2355SOL     OW18700   2.552   3.011  17.698  0.1744 -0.1529  0.3742
 2355SOL    HW118701   2.590   2.952  17.633  1.1013  0.8869 -0.0191
 2355SOL    HW218702   2.550   2.966   0.044 -1.5663 -1.6894 -0.4749
 2356SOL     OW18703   2.748   1.935   1.885  0.3054 -0.0691 -0.9786
 2356SOL    HW118704   2.678   1.904   1.943 -0.7073  0.9633 -1.6429
 2356SOL    HW218705   2.828   1.892   1.915 -1.6138 -1.7682  1.7002
 2357SOL     OW18706   0.633   3.218   7.876 -0.2304  0.5699  0.0561
 2357SOL    HW118707   0.607   3.194   7.787 -1.8802 -1.6407  1.1533
 2357SOL    HW218708   0.549   3.192   7.913 -0.7786  1.1906 -0.7417
 2358SOL     OW18709   0.993   0.170   2.973 -0.1964  0.3541 -0.4438
 2358SOL    HW118710   1.080   0.148   2.941 -0.9316 -1.4177 -1.2050
 2358SOL    HW218711   0.972   0.080   3.001  1.1592  0.2390  0.2397
 2359SOL     OW18712   3.091   3.826   3.833 -0.3035 -0.4976  0.2754
 2359SOL    HW118713   3.080   3.878   3.913  0.2309 -0.0500  0.0604
 2359SOL    HW218714   3.105   3.886   3.760  0.8310 -2.1562 -0.8544
 2360SOL     OW18715   2.648   0.887   4.497  0.3009  0.1627 -0.5267
 2360SOL    HW118716   2.614   0.800   4.478 -2.2042  1.1480 -0.5967
 2360SOL    HW218717   2.614   0.938   4.424  0.1469 -1.0722 -1.3141
 2361SOL     OW18718   0.016   2.507   5.010  0.2321 -0.2186 -0.0847
 2361SOL    HW118719   0.026   2.420   5.049  0.3508 -0.9121 -1.6684
 2361SOL    HW218720   0.108   2.523   4.990  0.9507 -2.2975  1.5824
 2362SOL     OW18721   3.440   3.166   4.968  0.0021 -0.2030  0.0428
 2362SOL    HW118722   3.479   3.119   4.894 -2.4546  0.3446 -1.5867
 2362SOL    HW218723   3.346   3.147   4.974 -0.1556  0.2061 -1.1378
 2363SOL     OW18724   2.774   2.876  10.017 -0.0215 -0.6183  0.0287
 2363SOL    HW118725   2.757   2.825  10.097 -0.4935  2.6772  2.0242
 2363SOL    HW218726   2.845   2.832   9.971 -0.0696 -0.2945 -0.3555
 2364SOL     OW18727   2.447   3.876  12.135  0.1251 -0.3158  0.1606
 2364SOL    HW118728   2.367   3.876  12.188  0.4039  3.8424  0.5715
 2364SOL    HW218729   2.519   3.883  12.198  1.0262  0.9889 -1.0105
 2365SOL     OW18730   1.091   2.836   2.804 -0.0813 -0.1525 -0.3289
 2365SOL    HW118731   1.021   2.896   2.778  0.2449  0.4644  0.2091
 2365SOL    HW218732   1.057   2.751   2.778 -0.4138 -0.6352  1.6328
 2366SOL     OW18733   3.009   0.375   5.906 -0.1531 -0.2824  0.0959
 2366SOL    HW118734   2.915   0.360   5.917 -0.2272  0.2962  0.2285
 2366SOL    HW218735   3.052   0.290   5.911  0.6293  0.0791 -0.5975
 2367SOL     OW18736   3.899   4.559   5.522  0.1820  0.4324  0.0378
 2367SOL    HW118737   3.952   4.539   5.598 -0.2160 -1.5703 -0.2181
 2367SOL    HW218738   3.855   4.642   5.542 -1.1130 -0.1665 -0.2904
 2368SOL     OW18739   3.729   1.573  16.600 -0.2283 -0.3550 -0.3187
 2368SOL    HW118740   3.758   1.658  16.568  0.0636  0.2420  1.5489
 2368SOL    HW218741   3.635   1.583  16.608 -0.2164 -1.0424  0.7123
 2369SOL     OW18742   0.920   0.386  11.207 -1.0730  0.1935  0.2821
 2369SOL    HW118743   0.944   0.454  11.144 -1.2254 -1.5938 -1.6818
 2369SOL    HW218744   0.998   0.332  11.202  0.6547  2.7372 -0.4183
 2370SOL     OW18745   1.198   2.970   9.876 -0.2119  0.0651  0.1495
 2370SOL    HW118746   1.188   3.050   9.825  0.8960  2.0770  3.1370
 2370SOL    HW218747   1.220   2.920   9.797  1.1365  0.1389  0.4872
 2371SOL     OW18748   3.719   1.649   5.244 -0.0562 -0.4407 -0.2122
 2371SOL    HW118749   3.671   1.617   5.320  4.0407 -0.2520  2.4198
 2371SOL    HW218750   3.665   1.725   5.222  0.6095  0.6948  2.0560
 2372SOL     OW18751   1.524   1.088  17.510  0.4045  0.6999 -0.3864
 2372SOL    HW118752   1.582   1.023  17.550 -0.9801 -1.0678 -1.2943
 2372SOL    HW218753   1.489   1.140  17.582 -1.1636  1.2516 -1.5598
 2373SOL     OW18754   3.827   3.832  16.209 -0.2637 -0.1587  0.1533
 2373SOL    HW118755   3.790   3.918  16.227  0.2574  0.8539 -3.6870
 2373SOL    HW218756   3.905   3.850  16.156 -0.2418  0.9486  0.5711
 2374SOL     OW18757   4.089   0.680   5.312 -0.2712 -0.1832 -0.6378
 2374SOL    HW118758   4.128   0.766   5.297  0.5853 -0.9084 -2.5398
 2374SOL    HW218759   3.998   0.708   5.321  0.0661  1.5011 -2.3987
 2375SOL     OW18760   1.620   2.120  17.311  0.1843 -0.4696 -0.5715
 2375SOL    HW118761   1.599   2.129  17.404 -0.8687 -0.0754 -0.8425
 2375SOL    HW218762   1.704   2.075  17.317 -0.1605 -1.3331 -2.1411
 2376SOL     OW18763   1.182   0.830  14.749  0.0616 -0.1859 -0.6457
 2376SOL    HW118764   1.113   0.875  14.700 -0.7357 -0.9628 -0.2359
 2376SOL    HW218765   1.258   0.857  14.697 -2.5648  1.4740 -3.6255
 2377SOL     OW18766   0.751   4.374  11.450  0.3509 -0.3215 -0.4365
 2377SOL    HW118767   0.717   4.454  11.409 -1.1631  0.9517  3.3434
 2377SOL    HW218768   0.813   4.396  11.519  1.2598 -1.8090 -0.7678
 2378SOL     OW18769   0.134   1.105   4.020 -0.0833 -0.4444  0.3571
 2378SOL    HW118770   0.139   1.040   3.951  2.5400 -0.0224  0.1356
 2378SOL    HW218771   0.101   1.179   3.968  2.3033  0.1534 -0.3163
 2379SOL     OW18772   0.074   3.781  16.067 -0.3747  0.2281  0.2023
 2379SOL    HW118773   0.091   3.861  16.118 -2.5269  0.9832 -0.2597
 2379SOL    HW218774   0.012   3.816  16.003  2.2075  3.1420 -0.6903
 2380SOL     OW18775   3.316   2.569   5.274 -0.5073 -0.0464 -0.1491
 2380SOL    HW118776   3.398   2.572   5.323 -0.7900  2.5616  0.1877
 2380SOL    HW218777   3.258   2.570   5.351  0.7647 -1.3531  0.8188
 2381SOL     OW18778   0.788   2.814  15.314 -0.4469 -0.5330 -0.1838
 2381SOL    HW118779   0.815   2.789  15.402 -1.6284  0.2438  0.3965
 2381SOL    HW218780   0.694   2.797  15.312 -0.0846 -2.5845 -0.3529
 2382SOL     OW18781   3.315   2.675  14.391  0.6300  0.3483 -0.2427
 2382SOL    HW118782   3.395   2.624  14.403  1.3213  1.7228  0.9940
 2382SOL    HW218783   3.346   2.747  14.335  1.1129 -0.8795 -1.5549
 2383SOL     OW18784   1.337   1.272   6.719  0.1854  0.0233 -0.1780
 2383SOL    HW118785   1.289   1.215   6.659  1.3444  1.4628 -2.4554
 2383SOL    HW218786   1.412   1.289   6.662  0.6047  1.1273  0.6957
 2384SOL     OW18787   0.432   3.364   5.144  0.0768  0.0483  0.1944
 2384SOL    HW118788   0.387   3.399   5.221 -1.3823 -1.0516 -0.1504
 2384SOL    HW218789   0.418   3.437   5.083  1.0775  0.6196  0.6381
 2385SOL     OW18790   0.086   0.922   8.366 -0.2731  0.0053  0.1982
 2385SOL    HW118791   0.149   0.984   8.330  1.2999 -0.0058  2.9536
 2385SOL    HW218792   0.125   0.839   8.339  2.0343  0.4738  2.1226
 2386SOL     OW18793   3.717   1.877  11.031 -0.3834  0.3446 -0.3650
 2386SOL    HW118794   3.723   1.946  11.098 -0.0209 -0.0706  0.0309
 2386SOL    HW218795   3.641   1.825  11.057 -0.7492  1.0626  0.0231
 2387SOL     OW18796   1.803   2.051   1.548  0.3458 -0.4639 -0.4105
 2387SOL    HW118797   1.738   2.120   1.543  0.5304 -0.3299 -0.9214
 2387SOL    HW218798   1.869   2.087   1.489 -0.3295  0.5506 -0.5318
 2388SOL     OW18799   2.262   3.231  15.004 -0.7022 -0.2499 -0.4117
 2388SOL    HW118800   2.167   3.231  14.994 -1.0317  1.1235  2.5216
 2388SOL    HW218801   2.278   3.142  14.974 -0.4591 -0.6731  0.9616
 2389SOL     OW18802   1.252   3.213   2.589 -0.3402 -0.5637 -0.1886
 2389SOL    HW118803   1.336   3.251   2.612  1.3076 -3.7225 -0.9940
 2389SOL    HW218804   1.263   3.166   2.506 -1.9905  0.0382 -0.7441
 2390SOL     OW18805   2.624   4.585  14.688  0.0848  0.2160  0.5297
 2390SOL    HW118806   2.591   4.674  14.697  0.7819  0.6170 -0.8190
 2390SOL    HW218807   2.559   4.560  14.622  0.1563  2.8834 -0.5433
 2391SOL     OW18808   2.638   0.306  15.246  0.1543 -0.4455 -0.1873
 2391SOL    HW118809   2.630   0.226  15.194 -1.5148 -2.9068  3.8790
 2391SOL    HW218810   2.595   0.374  15.195  1.5595  0.5453 -0.0673
 2392SOL     OW18811   2.193   1.507   3.342  0.0822  0.5415  0.2628
 2392SOL    HW118812   2.131   1.555   3.287  2.5934  3.2805 -0.1826
 2392SOL    HW218813   2.148   1.423   3.351  2.6450 -0.8167  0.1560
 2393SOL     OW18814   3.589   2.962   7.547  0.1323  0.1351 -0.1428
 2393SOL    HW118815   3.562   2.873   7.569 -0.0196  0.3843  0.6843
 2393SOL    HW218816   3.564   3.012   7.625 -0.0606  0.1781 -0.2322
 2394SOL     OW18817   4.388   4.167   3.686  0.5486  0.3006 -0.3753
 2394SOL    HW118818   4.358   4.153   3.596  0.2426 -0.6604 -0.1272
 2394SOL    HW218819   4.477   4.200   3.680  0.0634  1.7657  0.4093
 2395SOL     OW18820   3.803   3.867   0.633  0.1595 -0.5357  0.1357
 2395SOL    HW118821   3.802   3.937   0.697  0.2984 -0.3048 -0.1161
 2395SOL    HW218822   3.717   3.828   0.648  0.2347 -0.1662  1.4634
 2396SOL     OW18823   3.049   4.380   9.744  0.1508  0.3339 -0.6837
 2396SOL    HW118824   3.006   4.396   9.660  0.9836  0.9200 -0.9947
 2396SOL    HW218825   3.112   4.313   9.719 -0.3575  0.0850 -1.3060
 2397SOL     OW18826   0.175   4.025  10.923  0.2722 -0.2791 -0.0139
 2397SOL    HW118827   0.088   3.990  10.904  0.8808 -1.6755 -0.2790
 2397SOL    HW218828   0.226   3.956  10.879  2.3416  0.6972  0.8704
 2398SOL     OW18829   3.993   2.511   7.385  0.3126 -0.3100 -0.1591
 2398SOL    HW118830   3.937   2.501   7.308  1.3769 -2.8050 -0.6171
 2398SOL    HW218831   3.986   2.601   7.416  1.3266 -0.6763  1.1146
 2399SOL     OW18832   1.804   3.261   6.530 -0.1301  0.0788  0.1182
 2399SOL    HW118833   1.788   3.305   6.447 -0.3029 -0.2254 -0.0098
 2399SOL    HW218834   1.850   3.184   6.496  0.2232  1.4349 -2.4728
 2400SOL     OW18835   1.114   3.503  12.766  0.0673 -0.1100  0.4248
 2400SOL    HW118836   1.144   3.590  12.737 -1.0941  0.6231  1.3981
 2400SOL    HW218837   1.078   3.529  12.851 -0.5365 -0.6823  0.3374
 2401SOL     OW18838   1.858   1.454   3.548  0.1637  0.1773  0.2024
 2401SOL    HW118839   1.925   1.410   3.497  0.3181  3.3853 -2.3136
 2401SOL    HW218840   1.799   1.386   3.581 -0.1871 -1.3570 -3.5998
 2402SOL     OW18841   1.324   1.061  13.793  0.1804  0.1219  0.5330
 2402SOL    HW118842   1.279   1.108  13.723 -0.5386  2.6492  2.7127
 2402SOL    HW218843   1.334   0.982  13.739  1.2966  1.6680 -1.5163
 2403SOL     OW18844   1.219   2.363   4.295  0.2085  0.3018  0.4644
 2403SOL    HW118845   1.198   2.451   4.326  0.9698  0.5291  0.3278
 2403SOL    HW218846   1.140   2.334   4.250  0.3361  0.6311  0.0334
 2404SOL     OW18847   1.974   1.793   7.467  0.5507  0.1259  0.3007
 2404SOL    HW118848   2.010   1.812   7.381 -1.0443  1.3441 -0.0882
 2404SOL    HW218849   1.928   1.710   7.455 -0.1588  0.8347 -1.7903
 2405SOL     OW18850   1.732   0.315   8.940 -0.5868 -0.1408  0.2356
 2405SOL    HW118851   1.760   0.238   8.990 -0.3036  0.1579  0.5368
 2405SOL    HW218852   1.787   0.383   8.980 -0.1728  1.2184 -2.6797
 2406SOL     OW18853   1.099   0.585   4.589  0.1715  0.7981  0.6666
 2406SOL    HW118854   1.128   0.543   4.508  1.4338  0.5621  1.2512
 2406SOL    HW218855   1.108   0.507   4.645  0.4137  0.5860  0.3310
 2407SOL     OW18856   2.671   1.789   2.786  0.8834 -0.1854 -0.3322
 2407SOL    HW118857   2.721   1.845   2.846  0.4548 -0.0555 -0.0986
 2407SOL    HW218858   2.618   1.735   2.845  0.8234  1.5316  1.2179
 2408SOL     OW18859   4.493   3.203   3.468  0.0301  0.2944 -0.1907
 2408SOL    HW118860   4.419   3.156   3.507 -0.5867  2.0491  0.7741
 2408SOL    HW218861   4.532   3.144   3.404  0.5585  0.5862 -0.1425
 2409SOL     OW18862   3.264   4.542   5.632 -0.3676 -0.4842 -0.4053
 2409SOL    HW118863   3.209   4.527   5.555 -0.9689 -0.2391 -0.0249
 2409SOL    HW218864   3.198   4.540   5.701 -0.1196  1.7440 -0.0977
 2410SOL     OW18865   1.312   1.271   4.228  0.0194  0.8122 -0.7223
 2410SOL    HW118866   1.225   1.246   4.258  0.7742  0.2084  1.0168
 2410SOL    HW218867   1.378   1.225   4.281 -0.7200 -1.8281 -2.1391
 2411SOL     OW18868   3.012   1.976  14.301 -0.3594  0.0961  0.5420
 2411SOL    HW118869   2.986   1.923  14.376 -1.0135  1.7692  1.4784
 2411SOL    HW218870   3.023   2.055  14.355  0.4550 -0.8782  1.8135
 2412SOL     OW18871   1.898   2.184   5.702  0.2924  0.0153 -0.0995
 2412SOL    HW118872   1.851   2.217   5.778  0.0152 -1.6510  0.4565
 2412SOL    HW218873   1.868   2.244   5.634  0.3871  2.1129  1.7212
 2413SOL     OW18874   0.468   3.824   8.008 -0.0255 -0.4906  0.1742
 2413SOL    HW118875   0.423   3.880   8.072  0.0934  1.0119 -1.0669
 2413SOL    HW218876   0.417   3.808   7.929 -2.4768  0.9568  1.4293
 2414SOL     OW18877   2.110   2.438   5.585  0.2534  0.6906 -0.5967
 2414SOL    HW118878   2.019   2.467   5.580  0.2414  0.7834  0.2506
 2414SOL    HW218879   2.109   2.377   5.511  1.1244  1.2490 -1.0660
 2415SOL     OW18880   1.623   3.943   5.657 -0.0741 -0.3026 -0.1527
 2415SOL    HW118881   1.703   3.993   5.639 -0.9820  1.4087  0.5577
 2415SOL    HW218882   1.608   3.894   5.577 -0.5699  1.5928 -1.2266
 2416SOL     OW18883   1.409   2.039   1.674  0.3387 -0.2953 -0.7476
 2416SOL    HW118884   1.441   2.082   1.595  1.6814 -0.1246 -0.1157
 2416SOL    HW218885   1.476   2.074   1.733  0.6269 -0.9934 -0.6595
 2417SOL     OW18886   3.712   0.699   1.685  0.6524  0.7851  0.1399
 2417SOL    HW118887   3.764   0.753   1.745 -0.1260  1.4968  0.1733
 2417SOL    HW218888   3.751   0.725   1.602 -0.5758 -0.4936 -0.8397
 2418SOL     OW18889   2.316   0.016   4.457 -0.3422  0.3497 -0.3284
 2418SOL    HW118890   2.400   0.057   4.478 -0.4483  0.4223 -0.0467
 2418SOL    HW218891   2.337   4.658   4.460 -0.6337  0.2873 -0.2924
 2419SOL     OW18892   3.938   0.433   0.392  0.3710  0.1837 -0.0215
 2419SOL    HW118893   3.969   0.475   0.312  0.6092  0.2727  0.1178
 2419SOL    HW218894   3.944   0.512   0.444 -1.5128  1.1968 -1.3315
 2420SOL     OW18895   1.035   4.620   9.118 -0.0490  0.6786  0.3150
 2420SOL    HW118896   1.037   4.582   9.030  1.0970  0.1891  0.5576
 2420SOL    HW218897   1.100   4.689   9.110  1.2062 -0.3050  2.0549
 2421SOL     OW18898   3.290   0.207   8.387  0.3528  0.2575  0.5251
 2421SOL    HW118899   3.331   0.270   8.328 -2.3365  2.1078  0.6306
 2421SOL    HW218900   3.201   0.236   8.408  1.0538  0.8690  2.5978
 2422SOL     OW18901   3.175   1.889   1.763  0.3604 -0.2007 -0.0824
 2422SOL    HW118902   3.167   1.933   1.678 -1.1549 -0.4746 -0.0709
 2422SOL    HW218903   3.194   1.801   1.731 -1.6116 -1.6209  2.6802
 2423SOL     OW18904   3.567   1.992   6.124 -0.3534 -0.4949 -0.4099
 2423SOL    HW118905   3.551   1.901   6.099  0.4024 -0.6915 -0.1707
 2423SOL    HW218906   3.644   1.994   6.181  0.7374  2.1019 -1.9542
 2424SOL     OW18907   4.269   0.302   6.037  0.0979 -0.5401  0.1779
 2424SOL    HW118908   4.202   0.270   6.097 -0.8795 -1.1236 -1.2206
 2424SOL    HW218909   4.228   0.373   5.987  1.0151  0.4516  0.8363
 2425SOL     OW18910   0.503   4.114  11.504  0.3648  0.2986 -0.7533
 2425SOL    HW118911   0.555   4.055  11.449 -0.5226  0.8295 -2.1676
 2425SOL    HW218912   0.434   4.131  11.439  0.7782  0.6793 -1.0966
 2426SOL     OW18913   4.690   2.057   7.840 -0.5032  0.3011 -0.3088
 2426SOL    HW118914   0.019   2.007   7.790 -0.9086 -0.1729 -0.3572
 2426SOL    HW218915   4.617   2.000   7.864  0.8873 -1.2052  0.3053
 2427SOL     OW18916   2.949   2.438   1.833 -0.2736 -0.0707 -0.1728
 2427SOL    HW118917   3.010   2.397   1.771 -1.5155 -0.6783 -0.9799
 2427SOL    HW218918   2.875   2.380   1.818  0.6642 -0.9061 -1.5745
 2428SOL     OW18919   1.810   4.064   3.778 -0.3513  0.5779 -0.3517
 2428SOL    HW118920   1.899   4.030   3.789 -0.2531  0.4960 -1.3479
 2428SOL    HW218921   1.794   4.026   3.691  1.8982 -0.9582 -0.0860
 2429SOL     OW18922   4.078   1.843   7.456 -0.0430 -0.7323  0.3830
 2429SOL    HW118923   4.007   1.878   7.511 -0.5471 -0.6862 -0.2939
 2429SOL    HW218924   4.125   1.925   7.444 -1.2600 -0.2956 -1.5592
 2430SOL     OW18925   3.968   0.734   9.112 -0.3606 -0.1555 -0.3311
 2430SOL    HW118926   3.933   0.751   9.199  1.9321 -0.9905  0.7493
 2430SOL    HW218927   3.996   0.821   9.086  0.0172 -0.4980 -1.0816
 2431SOL     OW18928   2.688   2.495   9.290  0.2343 -0.3318 -0.3331
 2431SOL    HW118929   2.761   2.443   9.256  0.6500  0.0003  0.0459
 2431SOL    HW218930   2.680   2.548   9.210  1.8310  0.2344 -0.1201
 2432SOL     OW18931   2.466   4.355   2.534  0.1162  0.2675  0.3884
 2432SOL    HW118932   2.450   4.264   2.558  2.3228 -0.4275 -0.7549
 2432SOL    HW218933   2.382   4.392   2.562 -0.2649  0.1180 -0.5619
 2433SOL     OW18934   3.103   4.179   4.590  0.2760 -0.1126  0.3937
 2433SOL    HW118935   3.038   4.247   4.570  0.8392 -0.1049 -1.3525
 2433SOL    HW218936   3.086   4.158   4.682 -1.0548  0.0600  0.1804
 2434SOL     OW18937   4.139   1.473   9.415  0.0021  0.7428  0.7556
 2434SOL    HW118938   4.157   1.440   9.503  0.6490 -3.3478 -0.8991
 2434SOL    HW218939   4.225   1.463   9.373 -0.0309  0.1332  0.8310
 2435SOL     OW18940   1.153   0.544   5.688  0.6952  0.4699  0.5020
 2435SOL    HW118941   1.162   0.532   5.594  0.0721  2.7105  0.1612
 2435SOL    HW218942   1.118   0.461   5.722  1.3736  0.8531  2.1432
 2436SOL     OW18943   4.249   3.926   8.030 -0.6919 -0.4874 -0.1699
 2436SOL    HW118944   4.323   3.967   7.987 -1.8275 -0.0045 -1.6736
 2436SOL    HW218945   4.252   3.967   8.116 -0.6410  0.9002 -0.8320
 2437SOL     OW18946   3.936   2.640   4.230 -0.2968 -0.3829 -0.2357
 2437SOL    HW118947   3.875   2.702   4.190  0.0469 -0.8599 -1.5016
 2437SOL    HW218948   4.020   2.685   4.224 -0.4298  0.0017  0.8269
 2438SOL     OW18949   4.018   4.687  14.162  0.1122  0.3777 -0.3000
 2438SOL    HW118950   3.969   4.621  14.212 -0.1123  0.1748 -0.7929
 2438SOL    HW218951   4.109   4.676  14.191  0.7511  2.3687 -1.5876
 2439SOL     OW18952   2.182   2.107   1.639 -0.3226 -0.7764 -0.3524
 2439SOL    HW118953   2.222   2.121   1.553 -1.0254  2.1950 -0.1861
 2439SOL    HW218954   2.088   2.118   1.623 -0.3983  0.3935  0.8645
 2440SOL     OW18955   2.362   3.370  15.615 -0.2895  0.0903  0.1639
 2440SOL    HW118956   2.325   3.303  15.673  1.7511 -1.2832 -0.1103
 2440SOL    HW218957   2.297   3.366  15.545 -1.4158 -2.8958  1.3665
 2441SOL     OW18958   2.652   3.069  10.259  0.1876 -0.6604 -0.5049
 2441SOL    HW118959   2.657   3.053  10.353  1.1514 -1.5185 -0.7002
 2441SOL    HW218960   2.596   3.146  10.267 -0.3581 -1.1149 -0.0355
 2442SOL     OW18961   3.479   2.669   2.729 -0.6610  0.0490  0.0514
 2442SOL    HW118962   3.446   2.758   2.736 -0.0037  0.1958  1.4138
 2442SOL    HW218963   3.400   2.618   2.748  1.1959 -3.0307 -0.4387
 2443SOL     OW18964   2.508   3.991   5.602 -0.6433  0.0463 -0.5122
 2443SOL    HW118965   2.470   4.013   5.517 -0.6660 -0.4200 -0.6205
 2443SOL    HW218966   2.591   3.954   5.573 -0.7585 -0.7459  0.1418
 2444SOL     OW18967   1.811   3.160  10.897  0.0995  0.7080  0.3342
 2444SOL    HW118968   1.782   3.069  10.896  1.0157  0.4204 -0.2006
 2444SOL    HW218969   1.900   3.141  10.867 -0.2510 -0.9478  0.3134
 2445SOL     OW18970   3.373   2.933  15.516 -0.3339 -0.3815 -0.4720
 2445SOL    HW118971   3.336   2.949  15.429 -0.1684 -0.2426 -0.5159
 2445SOL    HW218972   3.317   2.993  15.566  0.4438 -0.0573  0.0033
 2446SOL     OW18973   1.103   4.422   5.396  0.1137 -0.1782 -0.1160
 2446SOL    HW118974   1.079   4.329   5.396  0.1271 -0.1817 -0.7842
 2446SOL    HW218975   1.022   4.465   5.368  0.7513  0.1550 -1.4875
 2447SOL     OW18976   1.457   2.948   8.160  0.2044 -0.0029  0.5152
 2447SOL    HW118977   1.508   2.880   8.115  1.6078  2.3412 -1.4756
 2447SOL    HW218978   1.448   3.003   8.082 -2.7616 -1.4516 -0.1349
 2448SOL     OW18979   1.721   4.514   4.930 -0.7010 -0.0192 -0.1999
 2448SOL    HW118980   1.664   4.577   4.885 -3.0328 -0.9945  1.3893
 2448SOL    HW218981   1.668   4.435   4.931  0.3001 -0.6933 -0.4652
 2449SOL     OW18982   3.490   2.357   3.945  0.2770  0.0363 -0.1970
 2449SOL    HW118983   3.534   2.277   3.916  2.4919  0.4937  1.8738
 2449SOL    HW218984   3.566   2.402   3.982  0.0102  1.2534 -1.1077
 2450SOL     OW18985   1.955   4.090   2.561  0.0572 -0.3591  0.4344
 2450SOL    HW118986   1.968   4.184   2.551  0.2102 -0.4015  0.2325
 2450SOL    HW218987   2.030   4.061   2.613 -0.9039 -0.2791  1.8736
 2451SOL     OW18988   0.240   4.445   2.665 -0.1886 -0.5922  0.1688
 2451SOL    HW118989   0.180   4.432   2.739  1.1681 -0.8073  1.2447
 2451SOL    HW218990   0.260   4.539   2.666 -0.1800 -0.5944  0.2063
 2452SOL     OW18991   4.161   2.324   7.098  0.3115  0.1097 -0.2482
 2452SOL    HW118992   4.218   2.275   7.157  0.3281  1.2961  0.7303
 2452SOL    HW218993   4.079   2.294   7.138  1.6687 -0.5212  2.0742
 2453SOL     OW18994   2.661   3.761  16.556  0.2478  0.2922  0.2000
 2453SOL    HW118995   2.698   3.840  16.517  0.0095  0.4690  0.3346
 2453SOL    HW218996   2.731   3.739  16.617  0.8167  2.6716  0.3661
 2454SOL     OW18997   0.728   1.554  10.017  0.3333 -0.6892  0.1635
 2454SOL    HW118998   0.798   1.617  10.036  0.5940 -0.5531 -1.3043
 2454SOL    HW218999   0.677   1.603   9.952 -2.0076 -2.7104  0.4582
 2455SOL     OW19000   0.580   1.282  10.283  0.4927  0.1869  1.1087
 2455SOL    HW119001   0.534   1.202  10.309 -0.5849  0.3755 -0.2321
 2455SOL    HW219002   0.596   1.317  10.370 -0.0678 -2.0779  2.1258
 2456SOL     OW19003   2.980   1.723   9.011  0.4548 -0.1763 -0.3284
 2456SOL    HW119004   3.066   1.761   9.031  0.6183 -1.2364  0.9214
 2456SOL    HW219005   2.948   1.800   8.964  0.7752  0.2976  0.2308
 2457SOL     OW19006   2.575   0.032   5.798  0.7653 -0.3168 -0.1419
 2457SOL    HW119007   2.491   0.042   5.843  0.5043  0.5158 -0.8152
 2457SOL    HW219008   2.559   4.687   5.750 -2.0656 -0.5205  1.1160
 2458SOL     OW19009   2.886   0.824   5.552 -0.2742  0.2512 -0.4289
 2458SOL    HW119010   2.947   0.832   5.479  0.2716 -0.2779 -0.0300
 2458SOL    HW219011   2.940   0.859   5.624  1.2986 -0.0060 -1.5000
 2459SOL     OW19012   3.194   0.867   8.679  0.0570 -0.4199  0.1979
 2459SOL    HW119013   3.144   0.943   8.650  2.6622  0.1777 -2.6951
 2459SOL    HW219014   3.127   0.799   8.672  0.3348 -0.7818  1.1495
 2460SOL     OW19015   1.230   4.086   4.903 -0.3317 -0.4001 -0.4718
 2460SOL    HW119016   1.230   4.076   4.807  0.8817  1.1547 -0.6366
 2460SOL    HW219017   1.269   4.000   4.917  1.6963  0.3976 -1.1924
 2461SOL     OW19018   0.615   1.169   5.150 -0.3292 -0.0860 -0.4805
 2461SOL    HW119019   0.700   1.189   5.190 -2.7479  2.1743  3.4584
 2461SOL    HW219020   0.619   1.074   5.154  0.4264  0.0143  1.1792
 2462SOL     OW19021   3.281   0.746   6.568 -0.4933 -0.0127 -0.5117
 2462SOL    HW119022   3.217   0.681   6.597 -2.3590  2.3633  0.7013
 2462SOL    HW219023   3.230   0.797   6.505 -0.6368  0.8797  0.3175
 2463SOL     OW19024   3.382   4.156   4.301 -0.2444 -0.0608  0.4050
 2463SOL    HW119025   3.429   4.085   4.344  2.3384  2.3063  1.4863
 2463SOL    HW219026   3.428   4.149   4.218  0.2936  1.5067  0.5655
 2464SOL     OW19027   4.233   1.836  16.843 -0.0452 -0.2350  0.3933
 2464SOL    HW119028   4.234   1.932  16.850 -1.5009 -0.0888 -1.4341
 2464SOL    HW219029   4.305   1.808  16.900  0.5388 -0.2302 -0.3394
 2465SOL     OW19030   2.710   0.141  14.431 -0.1856  0.0154 -0.0227
 2465SOL    HW119031   2.720   0.198  14.508  0.9176  0.6637 -0.6426
 2465SOL    HW219032   2.619   0.156  14.407  0.6767  3.6819 -0.9662
 2466SOL     OW19033   1.181   3.228   1.817 -0.0235 -0.2498 -0.1341
 2466SOL    HW119034   1.234   3.153   1.845 -0.9184 -1.2906 -1.2069
 2466SOL    HW219035   1.243   3.285   1.772 -1.1679 -0.7310 -2.3475
 2467SOL     OW19036   3.583   4.162   2.335  0.2851 -0.0334  0.2593
 2467SOL    HW119037   3.648   4.214   2.383 -0.6448  1.5951 -0.2333
 2467SOL    HW219038   3.593   4.187   2.243 -0.7898  1.0555  0.4351
 2468SOL     OW19039   4.261   0.721   9.825 -0.5478 -0.9431  0.3432
 2468SOL    HW119040   4.354   0.704   9.812 -0.4448  0.5685 -0.9452
 2468SOL    HW219041   4.243   0.639   9.871  2.5834 -0.6017  2.1396
 2469SOL     OW19042   0.888   0.130   7.248 -0.0952 -0.2530 -0.5439
 2469SOL    HW119043   0.806   0.172   7.222 -0.6714 -1.0241  0.0573
 2469SOL    HW219044   0.849   0.052   7.286 -1.0033  0.4409 -0.0338
 2470SOL     OW19045   1.629   2.854  16.434  0.0620 -0.2453  0.6590
 2470SOL    HW119046   1.624   2.929  16.375 -1.7609 -0.5250  0.4330
 2470SOL    HW219047   1.605   2.892  16.518 -3.0694 -0.5145 -0.0927
 2471SOL     OW19048   2.627   3.984  13.565  0.0728  0.1938  0.0117
 2471SOL    HW119049   2.616   3.936  13.647  1.9414  1.5283  1.0349
 2471SOL    HW219050   2.656   4.068  13.601 -0.1527  1.4989 -2.7843
 2472SOL     OW19051   0.375   1.275   9.890  0.3689 -0.0060  0.0138
 2472SOL    HW119052   0.330   1.219   9.953  0.2555 -0.6111 -0.6042
 2472SOL    HW219053   0.460   1.279   9.933  0.1005 -1.0023  0.6421
 2473SOL     OW19054   3.304   2.777   3.334 -0.1038  0.5482 -0.1039
 2473SOL    HW119055   3.275   2.850   3.390  2.2292  1.2714  0.1311
 2473SOL    HW219056   3.317   2.824   3.252  0.1046  1.6619  0.5709
 2474SOL     OW19057   3.635   2.176  15.222  0.5969  0.3847 -0.5626
 2474SOL    HW119058   3.677   2.100  15.183 -0.7446 -1.4015  1.4171
 2474SOL    HW219059   3.711   2.232  15.237 -0.4115  1.6248 -0.0472
 2475SOL     OW19060   1.233   1.702   8.490 -0.1120  0.3460  0.6389
 2475SOL    HW119061   1.225   1.757   8.568 -1.5516 -0.5188  1.1181
 2475SOL    HW219062   1.140   1.681   8.481  0.1032 -0.2977 -0.1155
 2476SOL     OW19063   1.166   0.833   4.980  0.3412  0.0641 -0.1590
 2476SOL    HW119064   1.079   0.796   4.991  0.1468  1.0076  1.4840
 2476SOL    HW219065   1.222   0.756   4.996  0.2096 -0.2180 -1.0298
 2477SOL     OW19066   1.884   1.551   7.378 -0.8690 -0.4386 -0.0705
 2477SOL    HW119067   1.908   1.543   7.286  0.0247  2.8802 -0.1528
 2477SOL    HW219068   1.789   1.552   7.386 -0.8279  0.2183  0.3697
 2478SOL     OW19069   4.550   1.407   1.195 -0.5284 -0.7811 -0.0398
 2478SOL    HW119070   4.640   1.392   1.167 -0.8544  1.7039 -2.3610
 2478SOL    HW219071   4.507   1.436   1.115  1.0235  2.2846  0.2323
 2479SOL     OW19072   4.087   1.625   7.298 -0.2460 -0.5004  0.0937
 2479SOL    HW119073   4.166   1.578   7.327 -0.6592 -2.4783 -1.9429
 2479SOL    HW219074   4.093   1.702   7.354  0.0853  0.5604 -1.4180
 2480SOL     OW19075   1.572   1.380   5.108 -0.5067 -0.1007 -0.0868
 2480SOL    HW119076   1.541   1.304   5.058  0.4909 -0.0932 -0.7169
 2480SOL    HW219077   1.568   1.348   5.198 -0.9582  1.0960  0.3209
 2481SOL     OW19078   0.130   2.036   7.620  0.1809  0.1886  0.2009
 2481SOL    HW119079   0.109   2.038   7.527 -0.7027  0.3119  0.4031
 2481SOL    HW219080   0.201   1.972   7.627 -2.9951 -3.3063  0.3059
 2482SOL     OW19081   3.278   3.428   2.225  1.1443 -0.1938  0.1052
 2482SOL    HW119082   3.370   3.427   2.199  0.9250  1.4989 -0.7636
 2482SOL    HW219083   3.249   3.338   2.240 -1.6676  1.4710  4.7011
 2483SOL     OW19084   4.288   3.167   5.523  0.0059 -0.5705  0.0191
 2483SOL    HW119085   4.261   3.082   5.559  0.6935 -0.7605  0.0717
 2483SOL    HW219086   4.380   3.151   5.505 -0.9955 -2.4618 -3.3771
 2484SOL     OW19087   4.386   2.954  10.139  0.2355  0.8887 -0.5574
 2484SOL    HW119088   4.372   2.864  10.168  3.3209  0.0783 -1.6352
 2484SOL    HW219089   4.436   2.948  10.057 -1.0585 -0.5404 -1.2662
 2485SOL     OW19090   1.260   1.644  11.852  0.1761 -0.0345 -0.3126
 2485SOL    HW119091   1.193   1.645  11.920  1.1176  0.6081  0.6083
 2485SOL    HW219092   1.273   1.550  11.836  2.1288 -0.0881  1.4759
 2486SOL     OW19093   4.578   1.169   3.817 -0.4545 -0.1863 -0.6783
 2486SOL    HW119094   4.661   1.207   3.788 -0.0172 -1.2393 -0.8387
 2486SOL    HW219095   4.579   1.080   3.780  0.9319 -0.6192  0.3858
 2487SOL     OW19096   3.770   0.959   2.623  0.2131  0.0964 -0.2374
 2487SOL    HW119097   3.850   0.995   2.585  0.0715  0.6242 -0.0280
 2487SOL    HW219098   3.751   1.016   2.697 -0.3232 -2.3931  1.5695
 2488SOL     OW19099   2.700   3.689  17.513 -0.2593  0.2587  0.8955
 2488SOL    HW119100   2.631   3.660  17.572 -1.0248 -1.7991 -1.0229
 2488SOL    HW219101   2.780   3.710  17.562  0.4097 -0.1240 -0.0133
 2489SOL     OW19102   2.044   2.301   8.040 -0.0045 -0.1123  0.3622
 2489SOL    HW119103   1.975   2.299   7.974 -0.8918 -3.2168  1.3739
 2489SOL    HW219104   2.084   2.387   8.026 -0.5717  0.3964  1.8091
 2490SOL     OW19105   3.541   0.653   9.183 -0.5156 -0.7675 -0.0620
 2490SOL    HW119106   3.487   0.728   9.161  0.8350  0.5680  1.1791
 2490SOL    HW219107   3.601   0.659   9.109  1.1681 -0.2732  1.3315
 2491SOL     OW19108   2.247   4.155   2.871 -0.2956  0.0148 -0.5601
 2491SOL    HW119109   2.230   4.084   2.809  0.1341 -0.4988 -0.0785
 2491SOL    HW219110   2.241   4.105   2.952  2.7190 -1.2418 -1.1469
 2492SOL     OW19111   2.219   0.867   7.436 -0.0346  0.0651  0.5517
 2492SOL    HW119112   2.264   0.784   7.423  0.3029  0.5578 -1.4228
 2492SOL    HW219113   2.160   0.875   7.361  0.6071  0.7839  0.1061
 2493SOL     OW19114   1.996   3.776   0.584  1.1266 -0.0780  0.0464
 2493SOL    HW119115   2.018   3.858   0.627 -0.9352  1.1363 -1.2066
 2493SOL    HW219116   1.924   3.751   0.642  0.1103 -0.5112 -1.3792
 2494SOL     OW19117   0.598   1.231  12.891  0.0294  0.0142  0.1108
 2494SOL    HW119118   0.638   1.317  12.904 -0.5238  0.2111  0.4666
 2494SOL    HW219119   0.546   1.229  12.971 -0.2401  2.4629  0.0075
 2495SOL     OW19120   1.717   0.045  10.943  0.0665 -0.2551  0.0407
 2495SOL    HW119121   1.741   0.088  11.025  1.3938 -2.0194  0.5898
 2495SOL    HW219122   1.754   4.696  10.972  1.1046 -0.0042 -0.5464
 2496SOL     OW19123   0.379   3.153   2.548  0.4564  0.1974 -0.1537
 2496SOL    HW119124   0.345   3.067   2.573  2.5301 -1.3180 -2.5680
 2496SOL    HW219125   0.397   3.144   2.455  0.0273  2.5407 -0.4622
 2497SOL     OW19126   3.001   1.704   8.020  0.3396 -0.2647  0.0544
 2497SOL    HW119127   3.082   1.653   8.032  0.2824  0.3256  2.9023
 2497SOL    HW219128   3.045   1.786   8.044 -0.0728 -0.7117  2.3727
 2498SOL     OW19129   4.090   1.321   5.109 -0.0170  0.0421  0.0318
 2498SOL    HW119130   4.102   1.285   5.021  1.6632 -0.9275  0.6444
 2498SOL    HW219131   4.031   1.394   5.091 -1.5182 -1.4737 -1.2170
 2499SOL     OW19132   3.676   4.676   8.995  0.4648  0.4715 -0.2714
 2499SOL    HW119133   3.767   4.687   8.968  0.3420 -2.2673 -1.7819
 2499SOL    HW219134   3.688   4.609   9.063 -1.1123  1.4620  0.9674
 2500SOL     OW19135   4.634   0.391   1.494  0.8715  0.5493  0.3762
 2500SOL    HW119136   4.701   0.421   1.556  1.0691 -0.0566  0.4593
 2500SOL    HW219137   4.556   0.406   1.547  0.6684 -0.5610  0.3880
 2501SOL     OW19138   2.417   0.595   7.109 -0.0138 -0.1590  0.3257
 2501SOL    HW119139   2.375   0.517   7.145  0.3727 -0.0748  0.9457
 2501SOL    HW219140   2.492   0.592   7.168  0.2896  2.5805  0.0633
 2502SOL     OW19141   2.748   3.138  13.402 -0.3184 -0.3266 -0.4077
 2502SOL    HW119142   2.770   3.123  13.310 -2.6191 -0.8655 -0.8885
 2502SOL    HW219143   2.654   3.159  13.403  0.0527  1.2008  1.9015
 2503SOL     OW19144   2.710   2.000   7.581  0.2762  0.7513  0.0623
 2503SOL    HW119145   2.774   2.062   7.616  1.4413  0.0589 -0.8157
 2503SOL    HW219146   2.745   1.983   7.494 -0.3412 -2.7315  0.4688
 2504SOL     OW19147   3.628   1.697  10.694 -0.1217 -0.1060 -0.5709
 2504SOL    HW119148   3.558   1.742  10.741 -0.8693 -0.5260 -1.2913
 2504SOL    HW219149   3.687   1.678  10.767 -1.8016  0.6993  0.9830
 2505SOL     OW19150   4.722   1.600   8.129 -0.8269  0.2379  0.4292
 2505SOL    HW119151   4.658   1.669   8.111  0.0557  1.3145  1.4525
 2505SOL    HW219152   4.690   1.518   8.092  0.1054 -0.7688  1.8984
 2506SOL     OW19153   1.910   1.789   4.967 -0.4035  0.5509  0.4015
 2506SOL    HW119154   1.894   1.846   4.892 -2.1630 -0.3972  0.0683
 2506SOL    HW219155   1.991   1.833   4.995 -0.4178  0.5211  0.4900
 2507SOL     OW19156   4.725   3.104  14.653 -0.2861 -0.1741  0.0440
 2507SOL    HW119157   4.658   3.095  14.585  0.5683  0.2954 -0.8523
 2507SOL    HW219158   4.725   3.020  14.699  0.5546  0.6548  1.5235
 2508SOL     OW19159   1.407   0.434   5.874  0.8983 -0.4244  0.0279
 2508SOL    HW119160   1.341   0.482   5.824 -0.1454 -0.8959  0.9434
 2508SOL    HW219161   1.349   0.375   5.922 -1.2480  0.9090 -0.9547
 2509SOL     OW19162   1.618   1.491   1.785 -0.5361 -0.1998 -0.5798
 2509SOL    HW119163   1.591   1.582   1.797 -1.7889 -0.1807 -3.5643
 2509SOL    HW219164   1.532   1.452   1.769 -0.5970  0.8745 -2.7811
 2510SOL     OW19165   1.635   4.102   4.018 -0.0468  0.0884  0.5959
 2510SOL    HW119166   1.694   4.103   4.093 -0.5628  1.9515  0.9821
 2510SOL    HW219167   1.696   4.085   3.946 -0.2901 -0.3360  0.4918
 2511SOL     OW19168   4.386   0.239  10.618 -0.2593 -0.1761 -0.1227
 2511SOL    HW119169   4.475   0.274  10.625 -0.3215  0.0607 -0.5471
 2511SOL    HW219170   4.375   0.221  10.712 -1.2257 -1.3338 -0.4532
 2512SOL     OW19171   1.603   2.722   8.107 -0.3673 -0.7509  0.4263
 2512SOL    HW119172   1.655   2.659   8.056  0.0122 -0.5365  0.5475
 2512SOL    HW219173   1.596   2.676   8.191 -1.2203  0.3447  0.9456
 2513SOL     OW19174   2.597   4.469   6.933  0.4328  0.7253  0.0600
 2513SOL    HW119175   2.677   4.450   6.981  0.2130  3.4256  1.4488
 2513SOL    HW219176   2.550   4.518   7.000 -0.0581 -1.1561  1.1083
 2514SOL     OW19177   0.022   1.359   4.671  0.2096 -0.2787 -0.3622
 2514SOL    HW119178   4.671   1.398   4.683  1.3052  1.8702  0.4799
 2514SOL    HW219179   0.033   1.372   4.576 -0.0469  3.1911  0.0861
 2515SOL     OW19180   1.928   0.760   2.539  0.2933 -0.0274 -0.1283
 2515SOL    HW119181   1.886   0.780   2.623  1.3235  0.3542  0.3002
 2515SOL    HW219182   1.905   0.836   2.487  1.2883  1.1574  1.1539
 2516SOL     OW19183   4.188   1.919   6.224 -0.0060  0.2257  0.1432
 2516SOL    HW119184   4.174   1.840   6.276  0.3629  0.0587 -0.0104
 2516SOL    HW219185   4.272   1.913   6.179  0.4310 -1.2141  1.1525
 2517SOL     OW19186   4.447   4.259   7.339  0.3859  0.0527  0.2701
 2517SOL    HW119187   4.413   4.338   7.298  0.7428 -0.8901 -1.8881
 2517SOL    HW219188   4.399   4.192   7.290  1.8757 -0.6456 -0.2565
 2518SOL     OW19189   1.361   0.501   8.000  0.2446  0.4526 -0.0577
 2518SOL    HW119190   1.315   0.426   7.963  0.7615 -1.3518  2.9123
 2518SOL    HW219191   1.426   0.528   7.935  1.5387 -0.1141  0.9926
 2519SOL     OW19192   2.115   2.093  16.637 -0.1012 -0.0788 -0.3634
 2519SOL    HW119193   2.156   2.077  16.722 -0.1443 -2.1441 -0.7282
 2519SOL    HW219194   2.058   2.169  16.653  0.6514  0.5577 -0.7306
 2520SOL     OW19195   1.373   3.366  10.446 -0.1299  0.6274 -0.2735
 2520SOL    HW119196   1.438   3.426  10.483  1.5888 -0.1675 -2.0527
 2520SOL    HW219197   1.425   3.290  10.419  0.6846  0.9704  0.3189
 2521SOL     OW19198   3.877   4.025   1.746  0.2645  0.2003  0.5119
 2521SOL    HW119199   3.851   3.977   1.825  1.3127 -0.1307  0.6566
 2521SOL    HW219200   3.874   4.116   1.775  2.3160  1.4308 -3.2500
 2522SOL     OW19201   1.229   2.620   8.173 -0.6161 -0.5814 -0.3100
 2522SOL    HW119202   1.255   2.550   8.232 -0.4688  0.2337  0.5871
 2522SOL    HW219203   1.314   2.624   8.128 -0.8703 -0.1419 -0.7578
 2523SOL     OW19204   2.037   3.750   4.827 -0.2095  0.1905  0.1568
 2523SOL    HW119205   1.989   3.685   4.775 -0.6206  0.0651  0.6979
 2523SOL    HW219206   1.962   3.799   4.860 -1.0645 -1.2562  0.3943
 2524SOL     OW19207   4.566   2.647   8.989 -0.2955 -0.5486  0.6119
 2524SOL    HW119208   4.478   2.660   8.952 -0.2183 -0.0837  0.5940
 2524SOL    HW219209   4.622   2.711   8.945  1.4182  0.4192  4.2478
 2525SOL     OW19210   2.139   0.670  15.074  0.1452 -0.5479  0.4560
 2525SOL    HW119211   2.168   0.617  15.148  1.3481 -1.6472 -0.8174
 2525SOL    HW219212   2.089   0.612  15.017 -1.7059  1.4851  0.0007
 2526SOL     OW19213   0.603   1.684   7.901 -0.7530 -0.8577  0.1977
 2526SOL    HW119214   0.660   1.691   7.824 -2.3389  0.5144 -0.8353
 2526SOL    HW219215   0.516   1.703   7.867  0.6694  1.9993 -1.8970
 2527SOL     OW19216   1.299   4.175  12.648  0.4138  0.0172 -0.3890
 2527SOL    HW119217   1.379   4.143  12.691  0.2993  0.4142  0.1177
 2527SOL    HW219218   1.329   4.256  12.606  1.9040  0.0444  0.7241
 2528SOL     OW19219   1.120   2.795  13.463 -0.0098 -0.4617 -0.7501
 2528SOL    HW119220   1.148   2.884  13.485 -4.6343  0.1852  2.5829
 2528SOL    HW219221   1.204   2.753  13.446  0.2692  0.1249 -0.8573
 2529SOL     OW19222   2.966   3.594   7.512  0.6715 -0.0191 -0.0915
 2529SOL    HW119223   2.900   3.542   7.557  2.3470  0.5949  3.0771
 2529SOL    HW219224   2.969   3.677   7.561  0.1985  0.1386 -0.3307
 2530SOL     OW19225   2.297   1.174   3.177  0.2951 -0.0017  0.1375
 2530SOL    HW119226   2.251   1.154   3.096 -2.3620  1.2769  1.3151
 2530SOL    HW219227   2.272   1.100   3.233  1.6572 -1.5832 -1.3595
 2531SOL     OW19228   1.370   2.508   1.959 -1.0691 -0.2563  0.0843
 2531SOL    HW119229   1.317   2.469   2.027 -1.2901  1.8257  1.1118
 2531SOL    HW219230   1.448   2.515   2.014 -0.9377  0.4739 -0.1889
 2532SOL     OW19231   1.117   0.761   6.913  0.9611  0.0427  0.1452
 2532SOL    HW119232   1.053   0.765   6.984  1.0954 -1.2749  0.3490
 2532SOL    HW219233   1.198   0.800   6.944  0.7211  1.6003 -1.1909
 2533SOL     OW19234   3.204   4.070  15.747  0.0634 -0.2680  0.0608
 2533SOL    HW119235   3.122   4.074  15.796 -2.3016 -0.6325 -3.8066
 2533SOL    HW219236   3.174   4.101  15.661 -0.8548 -0.3816  0.3441
 2534SOL     OW19237   3.410   2.593   3.500  0.0438  0.1189 -0.6485
 2534SOL    HW119238   3.409   2.666   3.562 -1.7673 -0.8901  0.5122
 2534SOL    HW219239   3.385   2.653   3.429 -0.1574  0.6375 -0.1455
 2535SOL     OW19240   3.393   0.512  12.636 -0.3297 -0.0481 -0.0217
 2535SOL    HW119241   3.338   0.443  12.599  0.4390 -0.4276 -0.4367
 2535SOL    HW219242   3.436   0.466  12.708  0.8635  2.4994  0.9153
 2536SOL     OW19243   4.684   3.402   0.725  0.3687  0.2637 -0.3118
 2536SOL    HW119244   0.003   3.465   0.772  0.2777 -1.1451  1.6638
 2536SOL    HW219245   0.015   3.332   0.732  0.2737  0.1645 -0.4150
 2537SOL     OW19246   3.280   1.570   2.227 -0.4407 -0.6102  0.5953
 2537SOL    HW119247   3.304   1.653   2.267 -0.6516  0.2281 -1.0145
 2537SOL    HW219248   3.365   1.530   2.207 -1.1985 -1.1902 -1.4903
 2538SOL     OW19249   1.075   1.385   1.965 -0.6327  0.0389  0.4402
 2538SOL    HW119250   1.166   1.402   1.990  0.0572 -2.0132 -0.7070
 2538SOL    HW219251   1.079   1.369   1.870 -2.6921  4.2585 -0.3888
 2539SOL     OW19252   2.207   1.866   5.390 -0.0328  0.4479  0.4282
 2539SOL    HW119253   2.175   1.956   5.402  0.8160  1.2704 -3.5195
 2539SOL    HW219254   2.132   1.809   5.401 -1.1712  1.5671 -1.5167
 2540SOL     OW19255   2.794   4.320   6.058  0.1328  0.3907 -0.0148
 2540SOL    HW119256   2.775   4.302   6.150  2.1119  0.7407  0.4644
 2540SOL    HW219257   2.710   4.298   6.018  0.1405  0.5539 -0.1237
 2541SOL     OW19258   4.133   0.943   5.136 -0.0822  0.2956 -0.2048
 2541SOL    HW119259   4.070   1.011   5.156 -0.0966  0.2077  0.0393
 2541SOL    HW219260   4.076   0.887   5.082  0.5385  0.4686 -1.0455
 2542SOL     OW19261   4.129   1.626   0.787 -0.5414  0.0808 -0.3503
 2542SOL    HW119262   4.102   1.537   0.810 -0.5408  0.8010  2.4920
 2542SOL    HW219263   4.107   1.631   0.694  1.5997  4.6355 -0.6276
 2543SOL     OW19264   2.037   4.004   8.791  0.5249  0.2434  0.2883
 2543SOL    HW119265   2.027   3.928   8.848  2.7161  0.5462  1.0644
 2543SOL    HW219266   2.002   4.071   8.851 -3.8857 -3.0286  1.3635
 2544SOL     OW19267   1.740   3.944   8.661  0.1467  0.0802 -0.1748
 2544SOL    HW119268   1.741   4.040   8.662 -2.5158  0.1154  0.4767
 2544SOL    HW219269   1.680   3.938   8.736 -1.0634 -3.6291 -1.4487
 2545SOL     OW19270   3.146   1.841   6.276 -0.2106 -0.1137  0.4476
 2545SOL    HW119271   3.099   1.817   6.197 -1.1248 -1.5600  1.4319
 2545SOL    HW219272   3.229   1.798   6.254 -1.1022 -1.7565  0.2629
 2546SOL     OW19273   1.212   4.249   3.112 -0.4620 -0.0006  0.2682
 2546SOL    HW119274   1.225   4.321   3.173  1.4476 -0.3980  0.3565
 2546SOL    HW219275   1.293   4.263   3.062 -1.1624 -2.1090 -1.4317
 2547SOL     OW19276   1.643   0.362   7.695  0.0234 -0.4220  0.0807
 2547SOL    HW119277   1.607   0.310   7.767  0.2704  0.1866  0.6442
 2547SOL    HW219278   1.605   0.317   7.620 -0.9893 -0.5931  0.6956
 2548SOL     OW19279   0.643   2.364  16.588  0.1646 -0.3309  0.3259
 2548SOL    HW119280   0.717   2.409  16.629 -0.9211  1.1783  0.6485
 2548SOL    HW219281   0.673   2.320  16.508  0.7222  2.8416 -1.2265
 2549SOL     OW19282   1.309   3.376   4.917 -0.1630  0.5708  0.3774
 2549SOL    HW119283   1.376   3.356   4.982 -0.8600 -1.9024  0.3493
 2549SOL    HW219284   1.265   3.442   4.969  0.6591  1.8438 -0.5545
 2550SOL     OW19285   3.456   1.569   8.936 -0.0354 -0.0991  0.1017
 2550SOL    HW119286   3.441   1.558   8.842 -0.8083  0.7541  0.1215
 2550SOL    HW219287   3.372   1.544   8.976 -0.0033 -0.7214 -0.2240
 2551SOL     OW19288   3.089   4.278   3.605 -0.0109 -0.3519  0.0594
 2551SOL    HW119289   3.157   4.326   3.558 -0.1840  0.0456  0.2157
 2551SOL    HW219290   3.055   4.337   3.673  2.7942  0.8973  0.3631
 2552SOL     OW19291   2.568   4.220   4.768 -0.0974  0.1569 -0.2247
 2552SOL    HW119292   2.581   4.149   4.831  1.8271  0.8066  0.1114
 2552SOL    HW219293   2.656   4.259   4.771  0.1651 -0.3976 -0.8650
 2553SOL     OW19294   1.263   3.953   7.942 -0.3517  0.7585  0.3586
 2553SOL    HW119295   1.348   3.997   7.936 -0.1168  0.3379  0.5837
 2553SOL    HW219296   1.215   4.026   7.903 -0.0844  0.6380 -0.1876
 2554SOL     OW19297   1.894   1.489   1.780  0.3805 -0.2657  0.3249
 2554SOL    HW119298   1.918   1.459   1.692 -0.7084 -0.1213 -0.0313
 2554SOL    HW219299   1.798   1.495   1.771  0.3323 -0.5710  0.6442
 2555SOL     OW19300   2.554   1.877   9.818  0.2006  0.0145  0.6251
 2555SOL    HW119301   2.490   1.937   9.856  0.0679 -0.7647  1.6442
 2555SOL    HW219302   2.542   1.796   9.868 -0.5698 -0.2669 -0.0342
 2556SOL     OW19303   4.420   0.353   2.877 -0.5781  0.0707  0.3970
 2556SOL    HW119304   4.487   0.288   2.898 -0.7873  0.3194  1.8428
 2556SOL    HW219305   4.412   0.332   2.784 -0.1971  0.1118  0.3561
 2557SOL     OW19306   1.767   3.009   9.507  0.3206 -0.8164 -0.7342
 2557SOL    HW119307   1.696   3.058   9.549  1.1602  1.0317 -1.4747
 2557SOL    HW219308   1.821   2.997   9.585 -0.6675  0.0291  0.0988
 2558SOL     OW19309   0.043   1.703   6.435  0.1894 -0.2752 -0.1148
 2558SOL    HW119310   4.716   1.655   6.380 -0.1314 -0.3465  0.3121
 2558SOL    HW219311   4.715   1.763   6.474  0.2117 -0.4623  0.2039
 2559SOL     OW19312   1.207   0.630   0.437  0.2353 -1.3833 -0.0764
 2559SOL    HW119313   1.218   0.649   0.530 -1.7679  1.3694 -0.4117
 2559SOL    HW219314   1.158   0.705   0.404  2.0563  0.8198  2.1638
 2560SOL     OW19315   1.216   1.136   1.886  0.1584 -0.0891  0.3427
 2560SOL    HW119316   1.147   1.112   1.824 -0.5320  1.0198  0.6801
 2560SOL    HW219317   1.287   1.161   1.827  0.4045  0.6452  0.9528
 2561SOL     OW19318   0.357   2.881   3.799  0.1347 -0.1525 -0.4056
 2561SOL    HW119319   0.279   2.866   3.852 -1.2282  0.4129 -2.2613
 2561SOL    HW219320   0.415   2.812   3.833 -0.9722  0.3310  2.5213
 2562SOL     OW19321   3.394   0.232   5.209  0.6650  0.4730 -0.0789
 2562SOL    HW119322   3.451   0.185   5.148 -0.5656 -0.9729 -0.1209
 2562SOL    HW219323   3.418   0.321   5.184 -0.7264  0.1534 -2.5640
 2563SOL     OW19324   0.981   1.208  12.997  0.3730  0.3760  0.5624
 2563SOL    HW119325   0.906   1.268  12.996  0.1353  0.0598 -0.5956
 2563SOL    HW219326   0.978   1.172  12.908 -3.1430  1.2586  0.3099
 2564SOL     OW19327   0.831   2.998   1.890 -0.1005 -0.1578 -0.3792
 2564SOL    HW119328   0.873   2.988   1.804  0.1457  1.7240 -0.4849
 2564SOL    HW219329   0.881   3.067   1.933  2.3249 -2.3045  0.2081
 2565SOL     OW19330   0.198   3.866   5.098  0.1050  0.3990  0.2683
 2565SOL    HW119331   0.252   3.885   5.175 -2.7810  1.1645  2.0973
 2565SOL    HW219332   0.255   3.824   5.034 -0.6638  0.4080 -0.4215
 2566SOL     OW19333   1.795   0.442  16.114 -0.2380 -0.0369  0.0331
 2566SOL    HW119334   1.816   0.390  16.192  0.6546  1.0714  0.5253
 2566SOL    HW219335   1.702   0.455  16.129 -0.2916 -2.7495  2.1570
 2567SOL     OW19336   1.412   3.915   8.635  0.5767  0.2270  0.0850
 2567SOL    HW119337   1.474   3.907   8.707  0.1511  0.8372  0.5278
 2567SOL    HW219338   1.461   3.907   8.554 -1.5229 -2.8395 -0.8866
 2568SOL     OW19339   1.764   2.811   2.726 -0.1058 -0.2798 -0.0667
 2568SOL    HW119340   1.736   2.880   2.786  0.9817 -1.7581  2.1303
 2568SOL    HW219341   1.720   2.733   2.759  1.1560 -1.3353 -0.9214
 2569SOL     OW19342   4.382   0.863   4.544  0.2574 -0.2957 -0.4833
 2569SOL    HW119343   4.344   0.944   4.511 -1.9525 -2.2864 -2.8814
 2569SOL    HW219344   4.465   0.891   4.582 -0.7021 -0.0176  1.3967
 2570SOL     OW19345   1.985   2.962   8.743  0.3992 -0.2368  0.8598
 2570SOL    HW119346   1.904   2.920   8.714 -0.4360  0.8746  1.5794
 2570SOL    HW219347   1.960   3.054   8.751 -1.5622 -0.6526 -0.8302
 2571SOL     OW19348   2.933   0.639   6.110 -0.1984  0.6210 -0.5146
 2571SOL    HW119349   2.949   0.587   6.189 -0.8136  0.9054 -0.2022
 2571SOL    HW219350   3.019   0.642   6.067  0.8179 -1.1073  1.3614
 2572SOL     OW19351   3.675   1.354  17.440 -0.2346 -0.5832  0.2505
 2572SOL    HW119352   3.605   1.415  17.419  1.3810  1.4114  0.6639
 2572SOL    HW219353   3.661   1.297  17.364 -1.9301  0.5775 -0.3066
 2573SOL     OW19354   2.812   3.671   5.551 -0.2232  0.4438  0.7099
 2573SOL    HW119355   2.871   3.630   5.614 -1.3617  0.7790  1.9901
 2573SOL    HW219356   2.735   3.624   5.583 -1.3506  0.7325 -1.5762
 2574SOL     OW19357   4.527   3.984   2.259  0.1973 -0.1575 -0.4103
 2574SOL    HW119358   4.526   4.071   2.298  1.9871 -0.5308  0.4681
 2574SOL    HW219359   4.609   3.996   2.211  0.2313 -0.0361 -0.3210
 2575SOL     OW19360   2.186   3.323   4.009 -0.0730  0.1466  0.8049
 2575SOL    HW119361   2.250   3.333   3.939  1.8473 -0.6909  2.4433
 2575SOL    HW219362   2.224   3.253   4.062 -2.2606 -2.0813 -0.5511
 2576SOL     OW19363   3.527   3.809  10.195  0.3506  0.5575 -0.5599
 2576SOL    HW119364   3.547   3.805  10.102 -3.3777  0.2859 -1.3699
 2576SOL    HW219365   3.432   3.799  10.185  0.2346  0.0091  0.9396
 2577SOL     OW19366   1.994   3.129  10.489 -0.1052  0.1760  0.7992
 2577SOL    HW119367   2.006   3.066  10.560  1.3479 -0.9864 -0.5002
 2577SOL    HW219368   2.019   3.213  10.529 -0.5459  1.5543 -1.8106
 2578SOL     OW19369   2.598   3.703   3.313 -0.2994  0.0407 -0.5586
 2578SOL    HW119370   2.535   3.642   3.273 -1.4233 -0.3017  1.7235
 2578SOL    HW219371   2.569   3.787   3.277  1.1700  0.3432 -1.0108
 2579SOL     OW19372   2.139   1.852   5.702  1.0347  0.3750 -0.3346
 2579SOL    HW119373   2.074   1.899   5.755  0.4775  0.7282 -1.3269
 2579SOL    HW219374   2.175   1.917   5.641  0.3079  0.4772 -0.6576
 2580SOL     OW19375   3.349   3.831  13.870 -0.5859 -0.0387 -0.5265
 2580SOL    HW119376   3.373   3.790  13.787 -1.6325  0.3479 -1.0141
 2580SOL    HW219377   3.386   3.766  13.930  0.7087 -0.0288 -1.3214
 2581SOL     OW19378   2.925   3.144   7.517  0.1192 -0.1862 -0.7317
 2581SOL    HW119379   2.839   3.140   7.559  1.4067  0.2868  1.9943
 2581SOL    HW219380   2.902   3.212   7.454  0.4270 -0.5021 -1.1861
 2582SOL     OW19381   2.347   0.833   5.104  0.9104  0.3350 -0.2263
 2582SOL    HW119382   2.381   0.744   5.106 -1.0421 -0.3954  0.0516
 2582SOL    HW219383   2.384   0.861   5.020  0.1442 -0.7397 -0.9056
 2583SOL     OW19384   2.737   3.633   9.350 -0.2271  0.0523 -0.4959
 2583SOL    HW119385   2.720   3.542   9.376  1.7291  0.1944  1.2212
 2583SOL    HW219386   2.717   3.678   9.431  1.9497 -1.8333  1.0881
 2584SOL     OW19387   3.203   3.130   2.159  0.3324  0.5407  0.3083
 2584SOL    HW119388   3.271   3.068   2.189  0.0242  0.0084 -0.1046
 2584SOL    HW219389   3.224   3.142   2.067 -0.9306  0.3205 -0.0026
 2585SOL     OW19390   0.732   0.506   3.885 -0.5774 -0.3006  0.7814
 2585SOL    HW119391   0.644   0.497   3.849 -0.6857  0.2979  0.9015
 2585SOL    HW219392   0.776   0.438   3.833  0.7478 -0.5160  2.1955
 2586SOL     OW19393   2.862   4.208   9.116 -0.1913 -0.1595 -0.2596
 2586SOL    HW119394   2.807   4.265   9.062  0.8236  2.4434  1.4774
 2586SOL    HW219395   2.929   4.178   9.055  0.1496  1.9215 -0.9078
 2587SOL     OW19396   0.546   1.571   5.450  0.2096 -0.4249  0.4759
 2587SOL    HW119397   0.515   1.646   5.401 -1.1933 -0.3687  1.4471
 2587SOL    HW219398   0.497   1.498   5.413 -1.7938 -0.7598  3.7509
 2588SOL     OW19399   0.479   1.196   0.088 -0.4667  0.1117  0.2578
 2588SOL    HW119400   0.451   1.287   0.074 -1.5814 -0.0229  1.5658
 2588SOL    HW219401   0.540   1.174   0.018 -0.7718  1.2430 -0.3665
 2589SOL     OW19402   2.715   2.389   0.912 -0.0235  0.0549  0.1771
 2589SOL    HW119403   2.669   2.313   0.948  1.9237 -0.7378  0.9852
 2589SOL    HW219404   2.702   2.464   0.971  2.4299  0.9435 -0.4010
 2590SOL     OW19405   2.793   3.926   8.963  0.1881  0.2759 -0.1876
 2590SOL    HW119406   2.763   3.840   8.934 -2.0899  0.9582  0.1167
 2590SOL    HW219407   2.713   3.974   8.983 -0.1967 -1.1805  1.8147
 2591SOL     OW19408   4.347   3.105   0.973  0.0827 -0.3426  0.4344
 2591SOL    HW119409   4.298   3.025   0.957 -3.5683  1.8992  0.4895
 2591SOL    HW219410   4.281   3.154   1.021 -1.8850 -0.8365 -1.7620
 2592SOL     OW19411   3.989   4.309   0.646  0.1564  0.2323  0.1593
 2592SOL    HW119412   3.959   4.350   0.566  1.3998  1.5585  0.3784
 2592SOL    HW219413   4.071   4.355   0.665 -0.9089  2.4658 -0.7415
 2593SOL     OW19414   4.110   0.942   9.805  0.3589 -0.0206 -0.0408
 2593SOL    HW119415   4.037   0.887   9.774  0.1229  0.3374 -0.1192
 2593SOL    HW219416   4.173   0.870   9.802  0.0558 -0.2478 -1.2410
 2594SOL     OW19417   3.394   1.421   2.481 -0.7615  0.1044 -0.1795
 2594SOL    HW119418   3.429   1.463   2.402 -0.9034  0.8000  0.1322
 2594SOL    HW219419   3.446   1.447   2.557 -0.7306  0.3976 -0.3005
 2595SOL     OW19420   0.135   0.547   3.390  0.0788 -0.4823  0.9972
 2595SOL    HW119421   0.049   0.575   3.360  0.6545  0.8605  0.6421
 2595SOL    HW219422   0.194   0.570   3.319 -0.8935 -1.2857 -0.0630
 2596SOL     OW19423   4.291   4.434   8.295 -0.6888  0.3608 -0.3347
 2596SOL    HW119424   4.350   4.384   8.352 -2.2883  0.3026  1.2895
 2596SOL    HW219425   4.231   4.483   8.353 -0.6026 -2.6972  2.3356
 2597SOL     OW19426   1.875   3.750  12.942  0.2148  0.0103 -0.2701
 2597SOL    HW119427   1.969   3.742  12.933  0.3515  0.7388  0.4526
 2597SOL    HW219428   1.870   3.788  13.030 -0.1946 -1.3661  0.3056
 2598SOL     OW19429   2.922   4.432   9.487  0.1759 -0.3695 -0.2679
 2598SOL    HW119430   2.904   4.351   9.439  0.2640 -0.5869  0.0657
 2598SOL    HW219431   2.911   4.480   9.405  0.6183 -0.8213 -0.5924
 2599SOL     OW19432   0.138   4.730   9.711  0.3680 -0.3851  0.1566
 2599SOL    HW119433   0.118   0.076   9.664 -1.0678 -0.4497  0.6444
 2599SOL    HW219434   0.232   4.731   9.695 -0.0688 -3.3017 -2.8391
 2600SOL     OW19435   0.684   2.997   4.102 -0.4200 -0.1079  0.7301
 2600SOL    HW119436   0.670   2.966   4.013 -0.8974  1.9249  0.0908
 2600SOL    HW219437   0.748   2.933   4.133  1.7549  0.3577 -2.9044
 2601SOL     OW19438   1.192   1.911   5.645 -0.1898  0.2692  0.1390
 2601SOL    HW119439   1.174   1.919   5.552  1.2273 -1.8576 -0.3294
 2601SOL    HW219440   1.149   1.827   5.662  0.7761  0.4000  3.3153
 2602SOL     OW19441   2.394   2.772   9.877 -0.2345 -0.7108 -0.6594
 2602SOL    HW119442   2.418   2.828   9.952  0.1393 -0.4801 -0.9491
 2602SOL    HW219443   2.405   2.687   9.919  0.4280 -0.6918 -0.7929
 2603SOL     OW19444   4.456   3.288   1.726 -0.7228  0.2807 -0.2568
 2603SOL    HW119445   4.379   3.329   1.766  0.1408 -0.7910  2.5543
 2603SOL    HW219446   4.502   3.360   1.683 -1.9734  1.2471  0.0176
 2604SOL     OW19447   0.471   2.156   3.549 -0.2351 -0.7368 -0.3858
 2604SOL    HW119448   0.439   2.081   3.499  0.7662 -1.2430 -0.2827
 2604SOL    HW219449   0.395   2.172   3.604  0.8473  0.5421  0.7219
 2605SOL     OW19450   0.533   0.388   0.179 -0.1302  1.0672 -0.5210
 2605SOL    HW119451   0.603   0.325   0.201  0.5473  2.6121  1.7340
 2605SOL    HW219452   0.467   0.362   0.243  0.3633  2.4485  0.5383
 2606SOL     OW19453   3.027   1.052  11.922 -0.1357 -0.0909 -0.1196
 2606SOL    HW119454   3.007   1.047  12.016 -1.1652 -2.1937 -0.4485
 2606SOL    HW219455   3.005   1.142  11.897  0.9380 -0.1009 -1.0696
 2607SOL     OW19456   2.658   1.451   6.173 -0.2178  0.5359  0.1094
 2607SOL    HW119457   2.689   1.361   6.181  0.9305  0.8861 -0.3016
 2607SOL    HW219458   2.610   1.457   6.091  0.4934 -3.4564 -0.5910
 2608SOL     OW19459   2.235   0.217   2.776 -0.1572 -0.2661 -0.0070
 2608SOL    HW119460   2.250   0.289   2.838  2.4190 -0.1240 -0.8113
 2608SOL    HW219461   2.319   0.172   2.774  1.3067  2.4991 -1.1700
 2609SOL     OW19462   0.908   3.303   1.875  0.6352 -0.3589 -0.0512
 2609SOL    HW119463   1.003   3.297   1.870  0.5769 -1.1156 -0.4368
 2609SOL    HW219464   0.887   3.284   1.966  0.5819 -3.2915 -0.6533
 2610SOL     OW19465   0.328   1.124   7.306  1.0628  0.4267  0.4158
 2610SOL    HW119466   0.389   1.071   7.254  0.5056  0.2153 -0.0249
 2610SOL    HW219467   0.383   1.180   7.361  1.3601 -1.7224  2.2798
 2611SOL     OW19468   4.059   4.090   8.686  0.3214  0.1944  0.2265
 2611SOL    HW119469   4.014   4.082   8.770 -0.5995  1.5219 -0.1399
 2611SOL    HW219470   3.986   4.109   8.627 -1.4169 -0.5992  2.1070
 2612SOL     OW19471   4.259   3.442   5.533 -0.6345  0.0123 -0.3352
 2612SOL    HW119472   4.272   3.348   5.521 -2.2830 -0.1949 -0.5081
 2612SOL    HW219473   4.347   3.479   5.542  0.0325 -1.4915 -0.6636
 2613SOL     OW19474   0.330   3.722   6.241  0.0382 -0.7725 -0.0022
 2613SOL    HW119475   0.406   3.712   6.184  1.0536 -1.3184  1.4459
 2613SOL    HW219476   0.303   3.811   6.220 -1.3865 -0.6582  2.3045
 2614SOL     OW19477   4.069   2.163   6.113 -0.1036  0.8234 -0.0811
 2614SOL    HW119478   4.110   2.089   6.157  1.1698  0.4806 -1.8187
 2614SOL    HW219479   3.982   2.125   6.105  1.3194 -2.4344 -0.0049
 2615SOL     OW19480   4.184   0.995  12.771 -0.2198  0.2039 -0.0995
 2615SOL    HW119481   4.159   0.948  12.692  0.6468 -0.2536 -0.1109
 2615SOL    HW219482   4.109   1.048  12.798 -0.0751  1.5012 -2.2667
 2616SOL     OW19483   0.607   2.739   6.234  0.6624 -0.2226  0.4287
 2616SOL    HW119484   0.584   2.701   6.150 -0.3602 -1.1144  1.1131
 2616SOL    HW219485   0.688   2.785   6.212  0.3863 -1.1207 -2.4239
 2617SOL     OW19486   1.905   2.163   6.174  0.4589 -0.2675 -0.3046
 2617SOL    HW119487   1.932   2.233   6.115  0.3775  0.5844  0.6716
 2617SOL    HW219488   1.812   2.156   6.150  0.5295 -1.7512 -0.1439
 2618SOL     OW19489   4.204   3.678   9.616  0.6427 -0.4594  0.1971
 2618SOL    HW119490   4.137   3.728   9.663 -1.3877 -1.9964 -1.0526
 2618SOL    HW219491   4.161   3.615   9.558  0.2578 -0.1473  0.1433
 2619SOL     OW19492   3.924   4.488  16.628  0.6419  0.0726  0.1978
 2619SOL    HW119493   3.892   4.561  16.576 -0.9861 -0.4600  0.4186
 2619SOL    HW219494   3.916   4.521  16.717  1.4589 -1.2036  0.7487
 2620SOL     OW19495   0.438   0.425   2.400  0.2165  0.0604 -0.1260
 2620SOL    HW119496   0.489   0.367   2.457 -2.5617 -1.8806  0.3712
 2620SOL    HW219497   0.454   0.508   2.446 -2.3794  0.3413  0.2278
 2621SOL     OW19498   4.338   3.177   7.960 -0.4332 -0.1767  0.4483
 2621SOL    HW119499   4.390   3.164   8.040 -0.9416 -3.2245  0.2965
 2621SOL    HW219500   4.254   3.210   7.993 -0.0505  0.6455  0.6026
 2622SOL     OW19501   1.768   4.702  15.391  0.3727 -0.4258 -0.0843
 2622SOL    HW119502   1.705   0.017  15.340 -2.0101 -2.2497  1.0804
 2622SOL    HW219503   1.713   4.674  15.464  0.7372 -1.1614 -0.0942
 2623SOL     OW19504   4.250   1.270   9.616 -0.3653  0.1422  0.2323
 2623SOL    HW119505   4.320   1.231   9.669 -0.1191  1.3904  0.8226
 2623SOL    HW219506   4.263   1.228   9.531  1.2946 -0.6845  0.9025
 2624SOL     OW19507   4.154   0.297   7.625  0.1319  0.1414 -0.2384
 2624SOL    HW119508   4.146   0.284   7.720  0.9305 -0.1320 -0.2095
 2624SOL    HW219509   4.245   0.275   7.607 -0.3525 -1.2464 -0.9371
 2625SOL     OW19510   3.845   4.718   6.156  0.3803  0.5941 -0.1989
 2625SOL    HW119511   3.774   0.047   6.153 -0.7143 -0.5151  1.7645
 2625SOL    HW219512   3.825   4.685   6.068 -0.2471 -3.6886  1.5543
 2626SOL     OW19513   3.993   1.045  15.381 -0.4249  0.0602 -0.0608
 2626SOL    HW119514   4.035   0.960  15.393  1.1474  0.6828 -1.1736
 2626SOL    HW219515   4.053   1.114  15.409  0.2110 -1.1058  1.4425
 2627SOL     OW19516   1.063   1.464   9.431 -0.2027 -0.1352  0.0563
 2627SOL    HW119517   1.154   1.467   9.462 -0.2926 -2.8509  0.6095
 2627SOL    HW219518   1.018   1.451   9.515 -1.2080  1.2503 -0.2647
 2628SOL     OW19519   0.399   2.714   1.126  0.2179  0.2818  0.2554
 2628SOL    HW119520   0.467   2.731   1.191 -1.6134  1.2999  1.9194
 2628SOL    HW219521   0.317   2.711   1.176  0.1112 -0.3027  0.0469
 2629SOL     OW19522   3.400   2.941   1.668  0.1275  0.2381  0.1753
 2629SOL    HW119523   3.478   2.888   1.654 -0.1894 -0.0728 -0.3931
 2629SOL    HW219524   3.414   3.014   1.607  2.5188  0.3563  0.8449
 2630SOL     OW19525   2.028   1.812  16.720  0.1409  0.5852 -0.3423
 2630SOL    HW119526   2.049   1.903  16.703  0.7496  0.8265  1.7430
 2630SOL    HW219527   1.932   1.818  16.713 -0.0625  1.1360  3.0307
 2631SOL     OW19528   2.156   3.251   6.091 -0.5112 -0.1806  0.7404
 2631SOL    HW119529   2.211   3.252   6.170 -0.4668  1.0450  0.6931
 2631SOL    HW219530   2.120   3.340   6.090  1.1922  0.5438  2.3080
 2632SOL     OW19531   0.413   4.714   6.940 -0.3104  0.1163  0.2692
 2632SOL    HW119532   0.446   0.064   6.969 -2.0312  0.6486  0.6770
 2632SOL    HW219533   0.337   4.697   6.996 -0.6881 -3.3606 -1.3501
 2633SOL     OW19534   1.533   4.205   3.625 -0.0020  0.4007  0.0975
 2633SOL    HW119535   1.602   4.245   3.678  1.1156 -0.9128 -0.3619
 2633SOL    HW219536   1.543   4.259   3.547 -0.4854  2.2071  1.2779
 2634SOL     OW19537   1.907   4.331   2.295  0.0314  0.1890  0.9181
 2634SOL    HW119538   1.987   4.291   2.329  0.5129 -0.3763 -0.8748
 2634SOL    HW219539   1.842   4.311   2.362  1.2890  0.1445  2.1315
 2635SOL     OW19540   2.639   3.374   1.841  0.1578 -0.4948 -0.2051
 2635SOL    HW119541   2.643   3.415   1.755  0.4959  1.3582  0.7052
 2635SOL    HW219542   2.573   3.311   1.812  0.9225 -1.1018 -0.6454
 2636SOL     OW19543   2.391   3.963   9.641 -0.2346  0.0344  0.1452
 2636SOL    HW119544   2.362   3.875   9.665 -0.8574 -0.1601 -1.3140
 2636SOL    HW219545   2.474   3.947   9.595 -0.2373  2.1182 -0.5970
 2637SOL     OW19546   2.517   4.101   9.331  0.4922  0.2733 -0.4031
 2637SOL    HW119547   2.521   4.096   9.236 -0.0136 -0.3454 -0.3899
 2637SOL    HW219548   2.424   4.091   9.348  0.6555  0.0411  0.3554
 2638SOL     OW19549   3.150   1.094   6.598 -0.0814  0.2982 -0.4135
 2638SOL    HW119550   3.179   1.051   6.678 -1.4468 -4.0105 -2.2509
 2638SOL    HW219551   3.157   1.186   6.625 -0.8746  0.2636 -0.0816
 2639SOL     OW19552   1.225   1.747  14.871  0.1703  0.0518 -0.1866
 2639SOL    HW119553   1.135   1.725  14.893 -0.3240  0.2174 -2.0483
 2639SOL    HW219554   1.221   1.800  14.791 -0.8330 -0.8747 -0.7415
 2640SOL     OW19555   3.817   2.921   9.113 -0.1307  0.0605  0.3252
 2640SOL    HW119556   3.835   2.829   9.131  0.2838  0.0334 -0.2213
 2640SOL    HW219557   3.755   2.933   9.184 -0.0564 -0.5431  0.4925
 2641SOL     OW19558   2.820   3.289  17.642 -0.5675  0.0591 -0.1977
 2641SOL    HW119559   2.830   3.353  17.572  0.8564 -0.7595 -0.7385
 2641SOL    HW219560   2.887   3.226  17.616  1.2915  2.6345 -1.7081
 2642SOL     OW19561   1.826   3.802  13.637  0.0251  0.0288  0.0231
 2642SOL    HW119562   1.806   3.862  13.565 -1.7682 -1.1555 -0.4540
 2642SOL    HW219563   1.752   3.824  13.693 -1.2444 -1.0911 -1.2151
 2643SOL     OW19564   1.883   0.199   9.431 -0.3856 -0.1872  0.5799
 2643SOL    HW119565   1.954   0.191   9.496 -0.6847 -2.1299  0.6480
 2643SOL    HW219566   1.808   0.194   9.491 -1.6881 -0.5950 -1.1089
 2644SOL     OW19567   3.269   4.355   2.579  0.0708 -0.2395  0.0965
 2644SOL    HW119568   3.193   4.298   2.584  0.7278 -0.9671  1.7131
 2644SOL    HW219569   3.249   4.391   2.492 -0.7183  0.1247  0.4259
 2645SOL     OW19570   0.411   4.237   2.640  0.4749 -0.7003  0.4887
 2645SOL    HW119571   0.329   4.285   2.653 -0.6167 -1.4684 -3.5998
 2645SOL    HW219572   0.473   4.286   2.694  0.9668  0.3702 -1.0671
 2646SOL     OW19573   4.418   1.079   4.046 -0.2024  0.3325 -0.4418
 2646SOL    HW119574   4.480   1.012   4.076  0.5375 -0.8229 -4.6612
 2646SOL    HW219575   4.464   1.120   3.974 -0.9076  0.9395 -0.5462
 2647SOL     OW19576   4.309   0.098   8.902  0.0001 -0.4466  0.1385
 2647SOL    HW119577   4.319   0.007   8.874 -1.0310 -0.9538  1.4600
 2647SOL    HW219578   4.243   0.087   8.970  0.7587  3.1210  1.4670
 2648SOL     OW19579   0.800   0.906   8.433 -0.6191 -0.2951 -0.0287
 2648SOL    HW119580   0.840   0.936   8.514  1.0531 -1.4380 -0.4498
 2648SOL    HW219581   0.873   0.916   8.372 -0.7829  2.5349  0.2507
 2649SOL     OW19582   4.591   3.602   3.631  0.1815  0.2090 -0.3201
 2649SOL    HW119583   4.518   3.606   3.693 -0.8853 -1.3754 -1.4921
 2649SOL    HW219584   4.635   3.520   3.654 -0.0799  0.3621  0.7251
 2650SOL     OW19585   1.880   3.441   8.504  0.4401 -0.3715 -0.2949
 2650SOL    HW119586   1.848   3.507   8.566  2.4068  0.4969 -0.2056
 2650SOL    HW219587   1.906   3.370   8.562  0.6495  0.7708  0.9863
 2651SOL     OW19588   1.671   3.400   3.981 -0.1986  0.2412 -0.3599
 2651SOL    HW119589   1.656   3.479   3.929  0.1320  0.9987  0.6751
 2651SOL    HW219590   1.760   3.410   4.015 -0.6667  2.4209  0.2237
 2652SOL     OW19591   1.467   3.280   4.386 -0.0940 -0.2738 -0.3388
 2652SOL    HW119592   1.453   3.312   4.476  3.0566 -1.2104  0.4900
 2652SOL    HW219593   1.413   3.201   4.389  0.0534 -0.2977  1.7283
 2653SOL     OW19594   1.350   0.009   6.690 -0.2628 -0.1103 -0.0806
 2653SOL    HW119595   1.270   0.055   6.716 -1.2422 -1.6412 -0.3076
 2653SOL    HW219596   1.421   0.065   6.721  0.7182 -1.5918  0.3445
 2654SOL     OW19597   2.525   4.400   8.804  0.3868  0.0761  0.2950
 2654SOL    HW119598   2.437   4.383   8.839 -0.2375  0.3481 -1.1401
 2654SOL    HW219599   2.511   4.482   8.757 -1.6995 -1.7424 -2.2988
 2655SOL     OW19600   2.277   1.004   4.356  0.2476 -0.2562  0.3579
 2655SOL    HW119601   2.363   1.019   4.318 -0.6922  0.8113 -1.3198
 2655SOL    HW219602   2.282   1.030   4.448 -1.0668 -0.0116  0.3637
 2656SOL     OW19603   3.752   1.020  10.236 -0.5852 -0.0266 -0.2615
 2656SOL    HW119604   3.843   1.046  10.225 -0.9739  1.3994 -0.1126
 2656SOL    HW219605   3.742   0.939  10.184  0.5187 -0.5920  0.4174
 2657SOL     OW19606   4.531   4.329   8.386 -0.5106  0.3385  0.5777
 2657SOL    HW119607   4.581   4.349   8.465  1.9182  0.5552 -1.0024
 2657SOL    HW219608   4.500   4.239   8.397  0.4038 -0.0624 -0.0606
 2658SOL     OW19609   2.718   4.670   2.787 -0.3330  0.7899  0.2444
 2658SOL    HW119610   2.753   0.024   2.779 -0.7274  1.0367  1.3743
 2658SOL    HW219611   2.794   4.614   2.806 -1.2555  0.1571  1.9656
 2659SOL     OW19612   1.596   0.020   9.133  0.2731 -0.1971  0.1201
 2659SOL    HW119613   1.692   0.016   9.125  0.1583 -0.4370 -1.1100
 2659SOL    HW219614   1.570   4.674   9.177 -2.7547 -0.4232 -2.1211
 2660SOL     OW19615   3.012   2.221   8.142  0.1074  0.0880  0.6336
 2660SOL    HW119616   2.952   2.276   8.193 -0.2566  1.6116 -1.4042
 2660SOL    HW219617   3.056   2.289   8.092  2.7032 -0.8251  1.7095
 2661SOL     OW19618   2.266   0.910  14.345  0.0403 -0.7137 -0.7189
 2661SOL    HW119619   2.199   0.852  14.381 -1.8049  1.8744  0.0185
 2661SOL    HW219620   2.351   0.872  14.369 -1.5945 -2.3588  2.4517
 2662SOL     OW19621   3.218   1.719   7.587 -0.3907 -0.1602  0.7177
 2662SOL    HW119622   3.236   1.690   7.676  0.7787  0.2228  0.6028
 2662SOL    HW219623   3.139   1.774   7.592 -0.4110 -0.1101 -0.1860
 2663SOL     OW19624   3.701   0.058   5.501 -0.2913  0.2188  0.0457
 2663SOL    HW119625   3.722   0.051   5.594 -0.8933  2.4653  0.3638
 2663SOL    HW219626   3.765   0.126   5.481  0.4771 -1.3185 -2.8067
 2664SOL     OW19627   3.088   2.456   5.415  0.6269  0.2033 -0.0195
 2664SOL    HW119628   3.066   2.519   5.484 -0.2474  0.2685 -0.3580
 2664SOL    HW219629   3.005   2.457   5.367  0.0065 -1.8235  1.0495
 2665SOL     OW19630   4.247   2.383   6.862  0.2823  0.0599 -0.0298
 2665SOL    HW119631   4.206   2.359   6.944  1.4420  2.2259  1.1935
 2665SOL    HW219632   4.215   2.473   6.856  0.6741  0.1195 -1.2635
 2666SOL     OW19633   0.532   1.243  12.494  0.6780  0.0193  0.1390
 2666SOL    HW119634   0.488   1.291  12.565  0.0665  1.8842 -1.5260
 2666SOL    HW219635   0.623   1.256  12.520  0.6738  2.1066 -0.9874
 2667SOL     OW19636   2.382   2.204   2.387  0.4851  0.0917 -0.0556
 2667SOL    HW119637   2.406   2.129   2.442  0.6171 -0.9268 -1.5120
 2667SOL    HW219638   2.425   2.188   2.303 -0.7203  0.4628 -0.7362
 2668SOL     OW19639   4.217   1.415   8.989  0.0359 -0.4237  0.7775
 2668SOL    HW119640   4.217   1.497   9.038 -2.4749 -0.3202  0.6027
 2668SOL    HW219641   4.136   1.426   8.939  1.8477 -0.7350 -2.2381
 2669SOL     OW19642   3.984   0.917  11.736  0.0509  0.0681 -0.6188
 2669SOL    HW119643   3.950   0.928  11.647 -1.5750  3.1767  0.3756
 2669SOL    HW219644   3.918   0.955  11.794  0.1780  1.1083 -1.1607
 2670SOL     OW19645   4.590   1.189   7.665 -0.0094  0.2011 -0.0592
 2670SOL    HW119646   4.543   1.259   7.710  1.3622 -0.2270  2.0657
 2670SOL    HW219647   4.662   1.232   7.620  1.5285 -0.8261  1.3829
 2671SOL     OW19648   2.055   1.004   8.010  0.8879  0.5732  0.2930
 2671SOL    HW119649   2.092   0.970   8.092 -2.3728 -1.2411  0.9832
 2671SOL    HW219650   1.983   0.942   8.002  0.4064  1.2733 -0.7270
 2672SOL     OW19651   0.681   2.219   1.990 -0.0984  1.0023  0.7498
 2672SOL    HW119652   0.622   2.294   1.997  1.3797  2.3116 -0.8040
 2672SOL    HW219653   0.763   2.254   2.024  0.3963 -1.4427  1.9978
 2673SOL     OW19654   1.912   4.117   3.485  0.1374 -0.5517 -0.0031
 2673SOL    HW119655   1.904   4.182   3.415 -2.4898  1.7241  2.4070
 2673SOL    HW219656   1.944   4.177   3.552 -2.0283  1.9690 -1.1956
 2674SOL     OW19657   0.096   4.484   8.900  0.3131 -0.1920 -0.4188
 2674SOL    HW119658   0.184   4.495   8.864 -0.1328  0.9316 -1.1632
 2674SOL    HW219659   0.079   4.393   8.876  0.6531 -0.7991  1.6840
 2675SOL     OW19660   1.157   3.320   3.463  0.2352  0.1029  0.0836
 2675SOL    HW119661   1.075   3.284   3.497  0.5910 -0.2269  0.5875
 2675SOL    HW219662   1.172   3.278   3.378 -1.4118 -0.2659 -0.0251
 2676SOL     OW19663   2.356   3.778  17.684  0.4736 -0.2139 -0.1776
 2676SOL    HW119664   2.286   3.724  17.721 -0.9194  0.9328 -1.1370
 2676SOL    HW219665   2.419   3.707  17.671 -0.2783 -1.0516  0.7412
 2677SOL     OW19666   0.409   2.773   6.797 -0.4770  0.3778 -0.3334
 2677SOL    HW119667   0.502   2.767   6.818 -0.9332 -0.8893  1.3159
 2677SOL    HW219668   0.410   2.705   6.730  0.9793  1.6630 -1.6190
 2678SOL     OW19669   2.733   2.504   9.889 -0.1834  0.0362  0.1012
 2678SOL    HW119670   2.774   2.426   9.927 -2.3503 -1.6465 -0.9880
 2678SOL    HW219671   2.645   2.503   9.926  0.7539  0.7519  2.3073
 2679SOL     OW19672   4.416   3.931   6.431  0.2682  0.0600  0.0818
 2679SOL    HW119673   4.490   3.922   6.491 -0.7871  0.8077  1.5062
 2679SOL    HW219674   4.449   4.008   6.383 -0.7055  0.3707 -0.0794
 2680SOL     OW19675   3.808   0.390   5.166 -0.3867  0.3346  0.1059
 2680SOL    HW119676   3.799   0.477   5.126 -0.3417 -0.0108 -0.6542
 2680SOL    HW219677   3.842   0.342   5.091 -0.1843 -0.8607  0.9564
 2681SOL     OW19678   1.596   3.966   5.244  0.0801 -0.0901  0.0474
 2681SOL    HW119679   1.637   4.014   5.172 -1.2347  1.1355  0.1126
 2681SOL    HW219680   1.547   4.042   5.277 -1.4239 -1.3546  0.7271
 2682SOL     OW19681   0.275   2.365   5.623  0.0156 -0.1331  0.2138
 2682SOL    HW119682   0.206   2.426   5.648 -0.4786 -1.2581  1.5351
 2682SOL    HW219683   0.294   2.322   5.707  3.1376  0.5831 -0.0958
 2683SOL     OW19684   3.769   1.203  15.457  0.5733  0.1762  0.4308
 2683SOL    HW119685   3.697   1.152  15.421  0.3095  0.9989 -0.2235
 2683SOL    HW219686   3.852   1.156  15.456  0.0678 -0.6788 -2.0037
 2684SOL     OW19687   2.834   2.995   3.071  0.6928 -0.2409  0.0241
 2684SOL    HW119688   2.775   2.995   3.147  0.1754 -1.1449 -0.3682
 2684SOL    HW219689   2.810   3.082   3.040  0.8173 -0.5121 -0.8437
 2685SOL     OW19690   0.632   3.136  10.627  0.0412 -0.2401  0.0193
 2685SOL    HW119691   0.674   3.201  10.682 -1.3683  0.5617  0.1332
 2685SOL    HW219692   0.708   3.083  10.600 -0.4307  0.1457 -2.0980
 2686SOL     OW19693   4.052   4.673  13.477 -0.2923 -0.1123  0.6563
 2686SOL    HW119694   4.089   4.585  13.478 -0.6869 -0.2864  0.3146
 2686SOL    HW219695   3.959   4.666  13.452  0.4025 -0.4966 -1.8701
 2687SOL     OW19696   1.850   3.246   6.166 -0.2431 -0.3534  0.0705
 2687SOL    HW119697   1.789   3.314   6.195  0.1430 -0.2267  0.5860
 2687SOL    HW219698   1.932   3.295   6.172 -0.1597 -0.3673 -0.9953
 2688SOL     OW19699   1.719   0.938   7.758  0.0411  0.0275 -0.2863
 2688SOL    HW119700   1.742   0.893   7.839 -1.4138  1.0746  0.6892
 2688SOL    HW219701   1.808   0.950   7.724  0.2883 -1.4483 -0.1678
 2689SOL     OW19702   0.007   1.976   4.411  0.2283  0.6489 -0.3307
 2689SOL    HW119703   0.060   1.927   4.474  1.8639  1.1683 -1.3037
 2689SOL    HW219704   4.730   2.061   4.454  0.8173 -0.6040  2.3104
 2690SOL     OW19705   1.899   2.895   6.007  0.0540 -0.3533  0.0210
 2690SOL    HW119706   1.980   2.870   5.963  0.4809 -3.3629  2.5099
 2690SOL    HW219707   1.906   2.833   6.080  0.5462  0.2618  0.4916
 2691SOL     OW19708   4.312   4.183   2.471 -0.4954  1.3114 -0.2469
 2691SOL    HW119709   4.309   4.232   2.553  0.4031 -1.2907  1.3701
 2691SOL    HW219710   4.373   4.237   2.422  1.5685 -0.8470 -0.0783
 2692SOL     OW19711   4.308   2.404   2.766  0.2288 -0.0981  0.1592
 2692SOL    HW119712   4.278   2.430   2.679 -0.1107  1.7394  0.8216
 2692SOL    HW219713   4.402   2.420   2.767  0.4098 -1.1054 -1.8598
 2693SOL     OW19714   0.946   4.348   3.133 -0.0743  0.0400  0.3736
 2693SOL    HW119715   1.026   4.299   3.115 -1.6739 -1.8227 -1.6624
 2693SOL    HW219716   0.938   4.340   3.228 -2.0696  2.5555  0.4327
 2694SOL     OW19717   1.799   4.052   8.122 -0.5902  0.4489  0.0272
 2694SOL    HW119718   1.764   4.135   8.154 -2.6815  0.3524 -1.9544
 2694SOL    HW219719   1.768   3.981   8.179  1.5680 -0.6280 -0.1607
 2695SOL     OW19720   1.361   2.477   5.342  0.5171  0.0691  0.6689
 2695SOL    HW119721   1.339   2.519   5.259  3.0473  0.9446  0.4284
 2695SOL    HW219722   1.278   2.479   5.391 -0.7123  0.2027 -1.4371
 2696SOL     OW19723   3.691   1.790   5.654 -0.8303 -0.2357  0.4883
 2696SOL    HW119724   3.644   1.856   5.604 -0.5589 -2.4730 -2.7046
 2696SOL    HW219725   3.617   1.731   5.670  0.5590 -1.6028  1.8846
 2697SOL     OW19726   3.566   1.607   7.126  0.2622 -0.6923 -0.6262
 2697SOL    HW119727   3.513   1.532   7.152 -1.2847 -0.0287 -1.9087
 2697SOL    HW219728   3.654   1.574   7.147  0.2649 -0.9613 -1.0607
 2698SOL     OW19729   3.720   2.541   1.933 -0.6770 -0.0589  0.1679
 2698SOL    HW119730   3.704   2.497   2.017  1.4387  0.4413  0.8450
 2698SOL    HW219731   3.668   2.489   1.872  0.8713  0.8537 -1.9351
 2699SOL     OW19732   1.404   4.066   6.877 -0.5871  0.0475  0.5407
 2699SOL    HW119733   1.314   4.079   6.847 -0.9377  0.2647  1.6750
 2699SOL    HW219734   1.434   4.156   6.876  0.7479 -0.4074 -0.7355
 2700SOL     OW19735   4.030   4.619   2.591  0.0582 -0.1423 -0.1978
 2700SOL    HW119736   4.025   4.577   2.505 -2.5852 -0.2065 -0.0351
 2700SOL    HW219737   3.940   4.653   2.599  0.2881  0.4807 -0.2786
 2701SOL     OW19738   0.379   0.132   1.637 -0.8607  0.0047 -0.2565
 2701SOL    HW119739   0.364   0.113   1.544 -0.4925 -0.3720 -0.2403
 2701SOL    HW219740   0.460   0.082   1.645 -0.2429  1.2071  0.9195
 2702SOL     OW19741   4.384   0.489   3.271  0.3940 -0.3143 -0.1004
 2702SOL    HW119742   4.349   0.410   3.232 -0.4217 -0.7790  1.6044
 2702SOL    HW219743   4.312   0.511   3.330  0.9564  0.6389  0.2439
 2703SOL     OW19744   1.751   4.438   1.788 -0.1782 -0.1213 -0.0537
 2703SOL    HW119745   1.797   4.378   1.847 -1.6365  0.6595  1.8878
 2703SOL    HW219746   1.665   4.444   1.828 -0.0144 -0.5548  0.3703
 2704SOL     OW19747   0.180   2.459   1.447  0.4817  0.0181 -0.1739
 2704SOL    HW119748   0.192   2.538   1.395 -0.3586  1.2005  1.4319
 2704SOL    HW219749   0.089   2.448   1.419  0.4723 -1.4306  0.4016
 2705SOL     OW19750   1.933   1.816   6.647  0.5768 -0.4665  0.0462
 2705SOL    HW119751   1.878   1.888   6.616  0.0388  0.3651  2.9623
 2705SOL    HW219752   2.001   1.807   6.580  0.9164 -0.4651  0.3914
 2706SOL     OW19753   4.292   3.794   5.101 -0.2876 -0.2743 -0.4861
 2706SOL    HW119754   4.346   3.846   5.161  0.3911 -1.3589 -0.1569
 2706SOL    HW219755   4.249   3.868   5.059 -1.1097  0.0809  0.9654
 2707SOL     OW19756   4.619   1.267  16.531 -0.0489 -0.0156  0.4541
 2707SOL    HW119757   4.610   1.172  16.545 -3.1449  0.0150 -1.3670
 2707SOL    HW219758   4.559   1.277  16.458  0.9644  1.7990 -0.1144
 2708SOL     OW19759   2.380   2.488  16.872 -0.5825 -0.1139 -0.1782
 2708SOL    HW119760   2.353   2.445  16.791  0.0593 -4.5710  1.9911
 2708SOL    HW219761   2.313   2.553  16.891 -1.1434  0.0585 -2.6871
 2709SOL     OW19762   0.525   0.815  10.525 -0.3291  0.4978  0.0733
 2709SOL    HW119763   0.591   0.884  10.537 -0.7628  0.6587  1.6098
 2709SOL    HW219764   0.579   0.738  10.540 -1.2069 -0.1409 -0.0694
 2710SOL     OW19765   3.312   3.695   6.032 -0.0190  0.4797 -0.0781
 2710SOL    HW119766   3.308   3.605   6.001  0.5121  1.0027 -1.6408
 2710SOL    HW219767   3.344   3.738   5.953  0.5091 -1.0018 -0.6677
 2711SOL     OW19768   4.594   0.338   9.267 -0.0253 -0.2308  0.2968
 2711SOL    HW119769   4.627   0.319   9.179 -0.9555  0.5456 -0.2317
 2711SOL    HW219770   4.652   0.410   9.291 -1.0336  0.3017  1.1478
 2712SOL     OW19771   0.296   4.673  16.855 -0.2145  0.2536 -0.6447
 2712SOL    HW119772   0.300   4.582  16.825  1.0685  0.0772  0.0674
 2712SOL    HW219773   0.307   4.661  16.949  1.8840  0.2801 -0.8910
 2713SOL     OW19774   1.997   3.435   3.434  0.0416  0.4793 -0.6254
 2713SOL    HW119775   1.923   3.468   3.384 -1.1237 -1.1703 -0.0092
 2713SOL    HW219776   2.047   3.517   3.435 -1.0361  1.0932  1.8245
 2714SOL     OW19777   2.819   3.304   4.669  0.3262 -0.4180 -0.1649
 2714SOL    HW119778   2.727   3.326   4.684  0.9442  2.8113 -0.9765
 2714SOL    HW219779   2.803   3.210   4.669  0.4078 -0.4321 -0.3332
 2715SOL     OW19780   2.819   3.049   2.238 -0.8125  0.1077 -0.7573
 2715SOL    HW119781   2.841   2.965   2.199 -1.5309 -0.5282  0.2082
 2715SOL    HW219782   2.798   3.111   2.168  0.6387 -0.0703 -1.3499
 2716SOL     OW19783   2.692   2.155   4.501 -0.0220 -0.2867  0.2747
 2716SOL    HW119784   2.603   2.165   4.466 -0.8798  0.1808  2.5463
 2716SOL    HW219785   2.679   2.088   4.569 -0.4303 -2.1794 -1.6543
 2717SOL     OW19786   2.007   3.040  17.345 -0.0184  0.1081  0.2671
 2717SOL    HW119787   1.968   3.098  17.410 -1.0767  0.7158 -0.9118
 2717SOL    HW219788   2.076   2.998  17.397 -1.7441  0.0845  2.5237
 2718SOL     OW19789   3.196   4.627  14.124 -0.1293 -0.7427  0.0952
 2718SOL    HW119790   3.164   4.665  14.042  1.4413 -2.7426 -1.4306
 2718SOL    HW219791   3.250   4.700  14.153  0.2639 -1.1293  0.3223
 2719SOL     OW19792   2.520   3.362   2.625  0.1537 -0.3506  0.3675
 2719SOL    HW119793   2.578   3.372   2.549 -1.4184 -2.7519 -1.1373
 2719SOL    HW219794   2.583   3.391   2.691  0.2556 -0.7660  0.4518
 2720SOL     OW19795   4.663   2.508   3.333  0.0971  0.0332  0.2753
 2720SOL    HW119796   4.707   2.487   3.251 -0.1518  0.8787 -0.0806
 2720SOL    HW219797   4.624   2.593   3.309 -0.2399 -0.7054 -1.8086
 2721SOL     OW19798   3.362   0.838   0.174 -0.0438  0.0716 -0.0264
 2721SOL    HW119799   3.418   0.895   0.121  0.3022 -1.1062 -0.9206
 2721SOL    HW219800   3.405   0.860   0.257  0.6052  1.2414 -0.6780
 2722SOL     OW19801   1.322   3.628   3.731  0.1862 -0.3625  0.6383
 2722SOL    HW119802   1.397   3.577   3.700 -0.6050 -0.1700 -1.5917
 2722SOL    HW219803   1.360   3.654   3.814 -1.8905  3.3538  0.3905
 2723SOL     OW19804   2.511   4.594  12.362  0.3376  0.3536 -0.1854
 2723SOL    HW119805   2.449   4.608  12.290 -1.3993 -0.6799  1.1127
 2723SOL    HW219806   2.540   4.685  12.374  1.8242 -0.2037  0.3904
 2724SOL     OW19807   3.617   0.368  11.583  0.3838  0.4697  0.1583
 2724SOL    HW119808   3.598   0.415  11.665 -0.1445 -0.2553  0.4575
 2724SOL    HW219809   3.552   0.408  11.525 -1.0166 -1.2388  0.5239
 2725SOL     OW19810   0.701   2.068  15.886 -0.0581  0.3552 -0.3661
 2725SOL    HW119811   0.714   2.163  15.886 -1.1837  0.5004 -0.1088
 2725SOL    HW219812   0.690   2.065  15.791 -0.1192 -3.7775 -0.1954
 2726SOL     OW19813   1.515   1.158  16.947  0.2355  0.0001 -0.0372
 2726SOL    HW119814   1.493   1.219  16.877 -1.8793  1.0395  1.5346
 2726SOL    HW219815   1.587   1.209  16.985 -1.0820  2.0538 -0.3502
 2727SOL     OW19816   4.678   0.737   2.553 -0.1504 -0.6788 -0.0298
 2727SOL    HW119817   4.687   0.705   2.643 -0.5292 -0.3578  0.1257
 2727SOL    HW219818   0.029   0.710   2.522  0.4277  0.8404  0.2495
 2728SOL     OW19819   2.551   2.965   5.170  0.0582  0.6492  0.3746
 2728SOL    HW119820   2.583   3.046   5.130  1.3295  0.2505  0.6020
 2728SOL    HW219821   2.491   3.002   5.235 -2.1315 -2.9663  0.4126
 2729SOL     OW19822   1.391   0.652   7.511  0.4446 -0.1405  0.7667
 2729SOL    HW119823   1.314   0.629   7.459 -0.3855  1.8573  1.1367
 2729SOL    HW219824   1.420   0.730   7.465 -1.6573 -0.5569 -1.2241
 2730SOL     OW19825   2.388   0.718   5.671 -0.7679 -0.3581 -0.9889
 2730SOL    HW119826   2.462   0.755   5.719  0.6867 -1.4836 -2.3599
 2730SOL    HW219827   2.346   0.685   5.750 -0.1142  3.2210  0.8796
 2731SOL     OW19828   1.653   4.008   3.209  0.0106  0.1033  0.2985
 2731SOL    HW119829   1.568   3.977   3.177  0.2504  2.1231 -2.3009
 2731SOL    HW219830   1.637   4.098   3.235 -0.1933 -0.1242  0.9656
 2732SOL     OW19831   1.375   3.213   9.213 -0.3199  0.6083 -0.3167
 2732SOL    HW119832   1.379   3.289   9.156 -0.2696 -0.1504 -1.3245
 2732SOL    HW219833   1.451   3.158   9.194 -0.6896 -0.7861  2.1269
 2733SOL     OW19834   0.011   0.677   4.230 -0.5878  0.2850  0.0021
 2733SOL    HW119835   0.030   0.587   4.256 -1.0228  0.6254  1.4904
 2733SOL    HW219836   0.013   0.721   4.315 -1.1389  1.8635 -0.7994
 2734SOL     OW19837   3.656   2.314   2.480  0.5583  0.0185 -0.7961
 2734SOL    HW119838   3.625   2.238   2.430  0.3412  0.4799 -1.3702
 2734SOL    HW219839   3.571   2.356   2.496  0.9845  1.2068 -1.6699
 2735SOL     OW19840   1.149   3.006   3.759 -0.1219  0.4136  0.5968
 2735SOL    HW119841   1.123   3.098   3.765  0.3408  0.6272 -0.8045
 2735SOL    HW219842   1.091   2.963   3.821 -0.7360  1.4130  0.7271
 2736SOL     OW19843   2.767   0.985   3.809 -0.1499  0.5150  0.1549
 2736SOL    HW119844   2.769   1.022   3.721  1.2489 -0.0437 -0.0417
 2736SOL    HW219845   2.673   0.964   3.818 -0.3010  1.0366 -0.2291
 2737SOL     OW19846   2.522   3.368  17.199 -0.4543  0.3202 -0.0168
 2737SOL    HW119847   2.455   3.331  17.256 -1.0607  1.3419 -0.0567
 2737SOL    HW219848   2.473   3.443  17.165 -0.6857 -0.4155 -1.2947
 2738SOL     OW19849   3.159   1.693   7.075  0.4144  0.5125 -0.3978
 2738SOL    HW119850   3.134   1.676   7.166 -3.1532  2.6273 -0.9563
 2738SOL    HW219851   3.239   1.746   7.083 -0.5114  2.3794 -3.5327
 2739SOL     OW19852   0.262   4.564   2.123 -0.2007 -0.8759  0.5302
 2739SOL    HW119853   0.315   4.492   2.157  0.6286 -0.5823 -0.1446
 2739SOL    HW219854   0.223   4.592   2.205 -1.4941  1.0589 -0.7322
 2740SOL     OW19855   0.039   3.544   5.070  0.2574  0.2918 -0.2971
 2740SOL    HW119856   0.117   3.590   5.040  0.9943 -1.3178 -0.8855
 2740SOL    HW219857   4.714   3.552   4.995  0.2048 -1.4449 -0.4428
 2741SOL     OW19858   0.396   0.575   5.697 -0.4589 -0.1015 -0.0462
 2741SOL    HW119859   0.417   0.492   5.740 -0.2849 -1.2274 -2.3194
 2741SOL    HW219860   0.457   0.628   5.749  2.4780 -3.6250  0.1516
 2742SOL     OW19861   0.318   3.196   3.527 -0.0511  0.9643 -0.1804
 2742SOL    HW119862   0.365   3.121   3.492  0.1466  0.3141  1.4567
 2742SOL    HW219863   0.309   3.248   3.447 -0.2336  1.0320 -0.1163
 2743SOL     OW19864   0.622   2.577  15.231  0.2492 -0.0879  0.2378
 2743SOL    HW119865   0.693   2.557  15.171  1.2188  0.5155  1.1783
 2743SOL    HW219866   0.612   2.490  15.269  1.5934  0.2417  1.3494
 2744SOL     OW19867   0.388   2.430  10.221 -0.0367  0.2303 -0.2603
 2744SOL    HW119868   0.429   2.495  10.277 -1.1606 -1.0487  2.0152
 2744SOL    HW219869   0.462   2.377  10.192 -1.5801 -0.7630 -2.4059
 2745SOL     OW19870   0.310   1.396   1.075  0.0954  0.1894  0.6788
 2745SOL    HW119871   0.373   1.324   1.076 -0.2214 -0.0927  0.4333
 2745SOL    HW219872   0.350   1.452   1.141 -2.7252  0.9911  1.6956
 2746SOL     OW19873   3.426   1.241   4.451 -0.5248 -0.0400 -0.0865
 2746SOL    HW119874   3.503   1.276   4.407 -0.1731 -2.8793 -1.7598
 2746SOL    HW219875   3.431   1.307   4.520  0.5316  0.9359 -1.1118
 2747SOL     OW19876   0.711   0.332  12.638 -0.2942  0.0158 -0.2353
 2747SOL    HW119877   0.731   0.424  12.621  0.3003  0.3417  2.1608
 2747SOL    HW219878   0.749   0.298  12.558  1.6056  0.7093  0.3751
 2748SOL     OW19879   0.028   1.194   9.516  0.3624 -0.4764 -0.5842
 2748SOL    HW119880   4.681   1.243   9.520  1.6119  1.5397 -0.0159
 2748SOL    HW219881   0.062   1.188   9.605 -2.9852  0.7430  0.7547
 2749SOL     OW19882   0.607   2.209  17.087  0.5568  0.1348 -0.3190
 2749SOL    HW119883   0.604   2.210  16.991 -0.1677  1.1105 -0.2884
 2749SOL    HW219884   0.629   2.300  17.102  2.2445  0.0410 -2.2092
 2750SOL     OW19885   0.214   3.426   4.391  0.0843 -0.2845 -0.5981
 2750SOL    HW119886   0.152   3.370   4.437 -0.4132 -0.8201 -1.9242
 2750SOL    HW219887   0.236   3.373   4.314  0.0763 -2.9881  1.2420
 2751SOL     OW19888   0.591   2.434   5.780  0.3317  0.6110  0.5488
 2751SOL    HW119889   0.561   2.445   5.690  0.4620 -1.5099  0.2381
 2751SOL    HW219890   0.617   2.523   5.805  4.2385 -0.4849  0.3586
 2752SOL     OW19891   3.053   1.940   8.137 -0.9455  0.0493  0.2003
 2752SOL    HW119892   3.011   2.020   8.105 -2.4354 -1.1642 -0.8702
 2752SOL    HW219893   3.058   1.958   8.230  0.9122  2.7523 -0.4148
 2753SOL     OW19894   1.789   1.332   1.358  0.1082  0.0771 -0.0853
 2753SOL    HW119895   1.787   1.239   1.378 -3.0345 -0.2651 -1.9989
 2753SOL    HW219896   1.703   1.358   1.390 -0.1406 -0.7201 -0.1056
 2754SOL     OW19897   2.259   0.917   7.711 -0.4834 -0.5274 -0.2227
 2754SOL    HW119898   2.261   0.913   7.616 -3.2814  1.9871 -0.3814
 2754SOL    HW219899   2.166   0.921   7.734 -0.3932  1.2367 -0.1533
 2755SOL     OW19900   2.381   0.463   4.716  0.0306  0.6170  0.0305
 2755SOL    HW119901   2.379   0.452   4.621  2.5194 -0.8007  0.1351
 2755SOL    HW219902   2.408   0.554   4.727  0.2100  0.9451 -3.2631
 2756SOL     OW19903   0.822   2.984   5.642  0.0612 -0.2436  0.1785
 2756SOL    HW119904   0.845   2.998   5.734 -0.1469 -0.6610  0.2948
 2756SOL    HW219905   0.864   3.055   5.593  1.4815 -1.1656  0.0390
 2757SOL     OW19906   3.698   3.931  16.883 -0.3288  0.0484 -0.2199
 2757SOL    HW119907   3.607   3.919  16.857 -0.1996 -0.9368 -0.2204
 2757SOL    HW219908   3.719   3.866  16.949 -0.7853  0.4136  0.2831
 2758SOL     OW19909   1.173   4.582   8.070  0.0600  0.6207 -0.5537
 2758SOL    HW119910   1.160   4.672   8.099 -1.4656  0.4845 -0.8003
 2758SOL    HW219911   1.152   4.528   8.147  1.4002  2.4095  1.0575
 2759SOL     OW19912   0.034   0.558   2.743 -0.3759  0.5583 -0.6525
 2759SOL    HW119913   4.719   0.485   2.707 -1.1979  1.3583 -1.1379
 2759SOL    HW219914   0.126   0.531   2.748 -0.2343  0.6369 -3.0394
 2760SOL     OW19915   2.174   3.475   2.188 -0.1880  0.0611  0.5775
 2760SOL    HW119916   2.194   3.402   2.129 -0.0216  0.7616 -0.2313
 2760SOL    HW219917   2.154   3.428   2.268 -1.4792  1.8496  1.2890
 2761SOL     OW19918   2.756   2.630   6.769  1.0681 -0.1592  0.5119
 2761SOL    HW119919   2.741   2.614   6.676 -0.2138  1.6206  0.4050
 2761SOL    HW219920   2.817   2.561   6.795 -2.1169 -2.9298  0.6557
 2762SOL     OW19921   3.099   1.490   5.437  0.2892  0.1422  0.4839
 2762SOL    HW119922   3.152   1.482   5.516  0.0350  0.6347  0.6993
 2762SOL    HW219923   3.069   1.399   5.435 -1.7421  0.8406 -0.7292
 2763SOL     OW19924   0.181   0.297  10.124  0.0700  0.1125 -0.5134
 2763SOL    HW119925   0.090   0.270  10.108  0.0849 -1.0386  1.3366
 2763SOL    HW219926   0.213   0.326  10.039  2.2094  1.9384  0.9311
 2764SOL     OW19927   0.871   3.794   4.209 -0.3330  0.0922  0.0209
 2764SOL    HW119928   0.935   3.846   4.258 -0.5707  2.1180 -1.7871
 2764SOL    HW219929   0.823   3.755   4.282  0.9418 -0.7602  0.3991
 2765SOL     OW19930   1.881   4.563   6.475  0.0903 -0.0823 -0.2617
 2765SOL    HW119931   1.973   4.544   6.458  0.9577  2.0062  2.2095
 2765SOL    HW219932   1.851   4.477   6.503  2.1305 -0.1955  1.5553
 2766SOL     OW19933   2.278   1.882   6.701  0.6474 -0.4894  0.1057
 2766SOL    HW119934   2.217   1.944   6.661 -0.7001 -1.0850  1.2241
 2766SOL    HW219935   2.350   1.940   6.725  0.6352 -0.9984  1.3955
 2767SOL     OW19936   3.388   2.767   1.329 -0.1865  0.3466 -0.3944
 2767SOL    HW119937   3.353   2.855   1.314 -2.4287 -0.6274 -0.8256
 2767SOL    HW219938   3.316   2.718   1.369 -0.3382  0.5854 -0.3730
 2768SOL     OW19939   4.034   3.856   7.873 -0.1425 -0.3519 -0.5874
 2768SOL    HW119940   3.963   3.881   7.932 -0.1372 -1.6963  0.0033
 2768SOL    HW219941   4.117   3.887   7.909 -0.2984  0.6582 -1.1210
 2769SOL     OW19942   4.284   1.826   1.989  0.4606 -0.2157 -0.2900
 2769SOL    HW119943   4.330   1.879   2.054 -0.7836 -0.4196  0.7451
 2769SOL    HW219944   4.223   1.789   2.053  1.4032 -1.5470 -0.1559
 2770SOL     OW19945   0.758   1.531  15.093 -0.1790  0.0108  0.7655
 2770SOL    HW119946   0.723   1.479  15.021  1.3465 -0.6523  0.5011
 2770SOL    HW219947   0.834   1.481  15.124 -0.7579 -0.9953  0.5675
 2771SOL     OW19948   1.790   0.641   1.661  0.0566 -0.0115  0.2245
 2771SOL    HW119949   1.806   0.735   1.658 -3.7204  0.6410  0.2370
 2771SOL    HW219950   1.876   0.606   1.683 -1.2324 -2.8031  0.9247
 2772SOL     OW19951   0.989   3.169   5.483 -0.6551  0.5931 -0.6946
 2772SOL    HW119952   0.990   3.248   5.429  0.5737  2.1511  1.6192
 2772SOL    HW219953   1.018   3.210   5.564 -3.5691  0.6968  0.3095
 2773SOL     OW19954   2.292   2.826   2.678  0.4859 -0.1213 -0.8717
 2773SOL    HW119955   2.205   2.809   2.641 -0.0818 -0.5052  0.6727
 2773SOL    HW219956   2.302   2.760   2.746  1.7696  1.8937  0.8844
 2774SOL     OW19957   2.981   2.002   6.701  0.2323  0.5775 -0.1543
 2774SOL    HW119958   3.030   1.932   6.744 -0.6498  0.6906  1.0223
 2774SOL    HW219959   3.013   2.003   6.610 -1.4754  1.8827 -0.7332
 2775SOL     OW19960   0.869   0.094  11.122  0.4190 -0.4945 -0.3743
 2775SOL    HW119961   0.834   0.160  11.062 -1.4648 -1.2288 -0.0843
 2775SOL    HW219962   0.955   0.126  11.151  0.8910 -2.4476  0.3470
 2776SOL     OW19963   3.217   1.908   0.599 -0.1878 -0.0684 -0.4944
 2776SOL    HW119964   3.311   1.902   0.617 -0.2084  1.5271  0.1862
 2776SOL    HW219965   3.193   1.912   0.692  5.0115 -2.3350  0.9530
 2777SOL     OW19966   1.296   4.443   9.821 -0.1970 -0.0665 -0.3422
 2777SOL    HW119967   1.221   4.478   9.870 -0.4010  0.4458 -1.0185
 2777SOL    HW219968   1.247   4.375   9.775 -1.7554  1.2751 -0.6808
 2778SOL     OW19969   4.484   3.655  11.663  0.3917 -0.0717  0.2779
 2778SOL    HW119970   4.482   3.595  11.737 -1.3163  0.5047  0.6947
 2778SOL    HW219971   4.531   3.726  11.706 -0.5544 -0.0920  1.3421
 2779SOL     OW19972   3.150   0.341   0.125  0.1075 -0.5328 -0.0732
 2779SOL    HW119973   3.156   0.310   0.215  0.5284 -0.3403 -0.0406
 2779SOL    HW219974   3.160   0.435   0.136 -2.0070 -0.3163  0.0456
 2780SOL     OW19975   2.834   1.764  16.967 -0.0387  0.4384 -0.2360
 2780SOL    HW119976   2.823   1.783  17.060  2.4827 -1.0340  0.3786
 2780SOL    HW219977   2.796   1.677  16.956  2.5136 -0.8790  1.2097
 2781SOL     OW19978   0.623   3.535   2.593  0.0367 -0.6255  0.1122
 2781SOL    HW119979   0.645   3.625   2.569 -0.1025 -1.3259 -2.6654
 2781SOL    HW219980   0.705   3.507   2.633  0.1980 -0.2714  0.0239
 2782SOL     OW19981   4.058   0.780   8.831  0.0480 -0.5687  0.2409
 2782SOL    HW119982   4.147   0.779   8.867  0.3452  1.9508 -0.3880
 2782SOL    HW219983   4.039   0.700   8.784 -2.4782  1.1841 -1.7302
 2783SOL     OW19984   2.381   1.637   6.587 -0.5937 -0.2934 -0.1096
 2783SOL    HW119985   2.320   1.572   6.553 -1.1390  0.6028 -0.8395
 2783SOL    HW219986   2.324   1.708   6.619  0.0692  1.1428 -2.1608
 2784SOL     OW19987   2.973   0.094   7.607  0.0915  0.0279 -0.4325
 2784SOL    HW119988   2.938   0.182   7.621 -1.3785 -0.8963  1.7324
 2784SOL    HW219989   3.012   0.108   7.521 -1.3503  1.4158 -0.8610
 2785SOL     OW19990   3.753   2.970   9.435  0.0269 -0.4860  0.4271
 2785SOL    HW119991   3.713   3.017   9.508 -2.0559 -1.0840 -0.3122
 2785SOL    HW219992   3.840   2.950   9.470  0.2311  0.0164  0.1979
 2786SOL     OW19993   2.912   3.235   2.797  0.5105  0.0977 -0.8685
 2786SOL    HW119994   2.844   3.281   2.846  2.1607 -1.2840  2.7598
 2786SOL    HW219995   2.994   3.259   2.841  0.9203 -0.5687 -1.2652
 2787SOL     OW19996   0.493   1.259  13.980  0.6446 -0.7996  0.2803
 2787SOL    HW119997   0.480   1.287  13.890 -0.1092  1.4355  1.0862
 2787SOL    HW219998   0.496   1.347  14.018 -1.3853  0.0938 -1.6404
 2788SOL     OW19999   4.278   3.785   5.593  0.3764  0.4989 -0.2253
 2788SOL    HW120000   4.206   3.819   5.539  0.7058  1.2950 -0.1649
 2788SOL    HW220001   4.344   3.765   5.526  0.6811  0.2071  0.1650
 2789SOL     OW20002   0.110   0.108   3.840  0.1906  0.4443  0.4109
 2789SOL    HW120003   0.118   0.109   3.745 -1.3316 -1.4669  0.2737
 2789SOL    HW220004   0.017   0.098   3.862 -0.2022 -0.2879 -1.6732
 2790SOL     OW20005   3.145   3.436   8.162  0.2009  0.3356 -0.2936
 2790SOL    HW120006   3.072   3.491   8.133  0.6703  2.8784  3.2692
 2790SOL    HW220007   3.167   3.487   8.240 -2.7924  0.5640  0.3741
 2791SOL     OW20008   0.548   1.725   8.545 -0.3231 -0.3953  0.7016
 2791SOL    HW120009   0.597   1.671   8.606 -1.1767  0.3700  2.0578
 2791SOL    HW220010   0.457   1.705   8.568 -0.5702 -1.8155 -1.4680
 2792SOL     OW20011   3.035   1.788  17.494  0.3378  0.3092  0.6973
 2792SOL    HW120012   3.032   1.722  17.424  0.1702  0.9116  0.1402
 2792SOL    HW220013   3.084   1.754  17.569 -0.0920 -0.3837  0.6665
 2793SOL     OW20014   1.992   2.998   7.468 -0.0390 -0.0236  0.2710
 2793SOL    HW120015   1.972   3.077   7.519  0.0738 -0.4547  0.9823
 2793SOL    HW220016   2.079   3.018   7.434 -0.2008 -0.1760 -0.2278
 2794SOL     OW20017   3.937   1.741  13.273 -0.1121  0.4242 -0.4032
 2794SOL    HW120018   3.951   1.764  13.181  1.2419  0.5781 -0.1686
 2794SOL    HW220019   4.011   1.786  13.313 -0.5092  1.2951 -0.6501
 2795SOL     OW20020   0.734   0.265   5.050 -0.1510 -0.3293 -0.4945
 2795SOL    HW120021   0.765   0.348   5.015 -1.4760  0.5646  0.4447
 2795SOL    HW220022   0.686   0.227   4.976 -0.6071  2.5589 -1.6632
 2796SOL     OW20023   1.990   0.553   7.106 -0.5269 -0.0078  0.1311
 2796SOL    HW120024   1.902   0.566   7.072 -0.1996  1.9369  0.0161
 2796SOL    HW220025   1.989   0.459   7.123 -0.9091  0.4674  2.7351
 2797SOL     OW20026   2.086   3.767  12.061 -0.5036  0.3115 -0.6815
 2797SOL    HW120027   2.086   3.671  12.065 -0.6354  0.3992  1.1678
 2797SOL    HW220028   2.140   3.788  12.137 -0.0217 -3.1892 -0.0536
 2798SOL     OW20029   2.472   0.063   2.753  0.1449 -0.1814  0.2655
 2798SOL    HW120030   2.532   4.734   2.792 -1.1456 -1.5044  0.0692
 2798SOL    HW220031   2.531   0.131   2.721  1.1085 -0.5193  1.3394
 2799SOL     OW20032   3.281   1.498   3.179 -0.1266  0.1097 -0.1533
 2799SOL    HW120033   3.246   1.581   3.210  1.2519  0.4070  0.6096
 2799SOL    HW220034   3.317   1.457   3.258 -2.4011  0.5376  1.0943
 2800SOL     OW20035   2.540   1.852   0.953  0.2360  0.0141  0.1756
 2800SOL    HW120036   2.463   1.823   0.903 -1.2797  2.1437  1.2816
 2800SOL    HW220037   2.615   1.816   0.905 -2.1366 -1.1943 -2.6638
 2801SOL     OW20038   2.286   2.496   4.519  0.0443 -0.4182  0.3169
 2801SOL    HW120039   2.349   2.539   4.461 -0.4636  1.5429  1.2544
 2801SOL    HW220040   2.324   2.408   4.523 -0.7289 -0.6730  1.9538
 2802SOL     OW20041   4.651   2.835   7.616  0.4025  0.2414  0.1209
 2802SOL    HW120042   4.722   2.854   7.555  1.1930  0.1219  0.9938
 2802SOL    HW220043   4.684   2.765   7.672 -0.9527 -0.3276  0.1993
 2803SOL     OW20044   2.961   1.143   4.036  0.1373 -0.1044 -0.0106
 2803SOL    HW120045   2.868   1.122   4.031  0.1130  0.3513 -1.4816
 2803SOL    HW220046   2.964   1.237   4.018 -0.9846 -0.0652 -0.0012
 2804SOL     OW20047   3.318   4.607  16.537  0.4265  0.5815  0.0518
 2804SOL    HW120048   3.305   4.697  16.566  4.8785  1.9201 -2.1261
 2804SOL    HW220049   3.346   4.624  16.448  0.9574 -1.6055 -0.1934
 2805SOL     OW20050   0.179   0.374  14.064 -0.2365 -0.1600 -0.0258
 2805SOL    HW120051   0.101   0.334  14.101  0.1879 -0.3207  0.7096
 2805SOL    HW220052   0.150   0.460  14.035  0.1765  0.6645  2.0358
 2806SOL     OW20053   0.419   2.416   3.984 -0.2739 -0.2523 -0.0068
 2806SOL    HW120054   0.401   2.325   4.005  1.5218 -1.2535 -2.9317
 2806SOL    HW220055   0.413   2.420   3.889  0.0947 -1.9458 -0.0961
 2807SOL     OW20056   2.116   4.591   2.708 -0.4785  0.1831 -0.6393
 2807SOL    HW120057   2.177   4.523   2.734  0.6079  1.6889  0.7278
 2807SOL    HW220058   2.120   4.661   2.774  2.4284  0.2990 -0.9491
 2808SOL     OW20059   2.248   2.262   7.765 -0.6554 -0.0467 -0.0033
 2808SOL    HW120060   2.237   2.356   7.775 -0.0643 -0.0036  0.2192
 2808SOL    HW220061   2.295   2.266   7.681  1.5981 -1.1879  1.1986
 2809SOL     OW20062   0.598   0.337  17.631 -0.2087 -0.0571  0.3742
 2809SOL    HW120063   0.524   0.371  17.682 -0.7778 -1.5263  0.5564
 2809SOL    HW220064   0.661   0.395  17.672 -0.5085 -0.9894  2.1648
 2810SOL     OW20065   2.229   4.353  15.004 -0.5939  0.2750  0.2996
 2810SOL    HW120066   2.143   4.336  15.043  0.1703  0.3510  1.9883
 2810SOL    HW220067   2.237   4.447  15.022 -0.8885  0.3261  0.1675
 2811SOL     OW20068   2.881   2.472   9.653 -0.0602 -0.1079 -0.2005
 2811SOL    HW120069   2.860   2.564   9.639 -0.2956 -0.0854  0.3126
 2811SOL    HW220070   2.834   2.467   9.736 -2.1575  5.0495 -1.1007
 2812SOL     OW20071   4.339   2.696   4.825 -0.2375  0.3747 -0.4052
 2812SOL    HW120072   4.397   2.623   4.848  0.0913  0.6324 -0.4035
 2812SOL    HW220073   4.313   2.721   4.914  1.9674  0.5515  0.2064
 2813SOL     OW20074   2.484   1.644   9.957 -0.0551  0.1924 -0.2233
 2813SOL    HW120075   2.470   1.582  10.029 -0.9193 -1.8560 -2.1562
 2813SOL    HW220076   2.557   1.597   9.916 -0.1134 -2.4754  2.7104
 2814SOL     OW20077   2.158   3.476   8.422  0.1256  0.4111  0.1140
 2814SOL    HW120078   2.147   3.559   8.468  0.6153 -0.9087  2.5531
 2814SOL    HW220079   2.079   3.426   8.442  0.7231 -0.6241 -0.1149
 2815SOL     OW20080   1.072   0.403   4.052 -0.1757  0.2046 -0.2875
 2815SOL    HW120081   1.074   0.481   3.996  2.1019 -1.2895 -2.2694
 2815SOL    HW220082   1.161   0.369   4.041  0.2115  1.2019 -0.2762
 2816SOL     OW20083   1.316   3.708   3.460 -0.0953 -0.5046  0.2187
 2816SOL    HW120084   1.303   3.649   3.534  1.1114  1.1743  1.7562
 2816SOL    HW220085   1.341   3.791   3.501 -1.4513  0.1779 -0.3421
 2817SOL     OW20086   0.373   0.268   6.243 -0.0051  0.0225  0.0988
 2817SOL    HW120087   0.315   0.205   6.286 -1.6426 -0.5462 -2.9456
 2817SOL    HW220088   0.452   0.243   6.292 -1.3237 -2.6675  0.8721
 2818SOL     OW20089   4.110   3.861   1.430  0.1825 -0.1377  0.7691
 2818SOL    HW120090   4.027   3.907   1.439 -1.5648 -2.6066 -2.7172
 2818SOL    HW220091   4.139   3.861   1.521 -0.5515  2.3588  0.9966
 2819SOL     OW20092   1.069   3.125   8.186  0.4435 -0.2322 -0.1318
 2819SOL    HW120093   1.102   3.184   8.254 -0.1171 -1.3674  1.1204
 2819SOL    HW220094   1.094   3.039   8.220  0.9342 -0.2075 -0.4286
 2820SOL     OW20095   0.015   0.427   4.592  0.0286  0.2559 -0.0559
 2820SOL    HW120096   0.082   0.373   4.635  0.2652  0.8368  0.3087
 2820SOL    HW220097   4.668   0.397   4.631 -0.5980  0.8869 -0.8756
 2821SOL     OW20098   4.021   1.983  14.303 -0.1099  0.1346 -0.3183
 2821SOL    HW120099   4.048   2.034  14.227 -0.5796 -1.2227 -1.4066
 2821SOL    HW220100   4.027   1.894  14.268 -1.6244 -0.5663  1.1786
 2822SOL     OW20101   1.273   3.790   5.938  0.1999 -0.1110  0.0966
 2822SOL    HW120102   1.364   3.811   5.959  0.3583  0.5782 -1.2872
 2822SOL    HW220103   1.253   3.858   5.873  1.7398 -1.1550 -1.4732
 2823SOL     OW20104   1.720   4.281   3.171  0.6232 -0.6240 -0.0797
 2823SOL    HW120105   1.806   4.243   3.187  0.7465 -0.4694 -0.3749
 2823SOL    HW220106   1.738   4.316   3.084  2.7429 -2.3073 -0.3074
 2824SOL     OW20107   1.641   2.870   1.705  0.7917  0.1520  0.9290
 2824SOL    HW120108   1.732   2.891   1.725  0.9124  1.6477 -1.1271
 2824SOL    HW220109   1.603   2.948   1.663  1.4823  0.3018  0.5779
 2825SOL     OW20110   1.493   0.940   2.977  0.6625 -0.1713  0.2924
 2825SOL    HW120111   1.408   0.915   2.940  1.1047 -0.4240 -0.5355
 2825SOL    HW220112   1.549   0.864   2.995 -1.2107 -1.5223  0.4417
 2826SOL     OW20113   0.218   4.095  11.381  0.0845  0.4508 -0.5997
 2826SOL    HW120114   0.195   4.014  11.336 -1.5372  1.2386 -1.1974
 2826SOL    HW220115   0.134   4.141  11.384 -1.7525 -3.0156  0.9430
 2827SOL     OW20116   2.044   0.564   4.589  0.2844  0.4034  0.9529
 2827SOL    HW120117   2.052   0.652   4.625  2.9123 -0.1681  1.8106
 2827SOL    HW220118   1.963   0.577   4.541  1.5001  1.6344 -0.7542
 2828SOL     OW20119   2.762   4.291   3.117 -0.0773  0.3196 -0.4249
 2828SOL    HW120120   2.839   4.285   3.060 -1.0255  0.0411 -1.6777
 2828SOL    HW220121   2.707   4.220   3.086 -0.7487 -0.0567  1.6281
 2829SOL     OW20122   0.325   2.692  14.943  0.0660 -0.8214  0.8198
 2829SOL    HW120123   0.312   2.787  14.949  2.4791 -0.4208 -0.2519
 2829SOL    HW220124   0.330   2.676  14.849  2.1048  1.1237  0.5941
 2830SOL     OW20125   4.370   3.044   5.072  0.2360  0.2643  0.5610
 2830SOL    HW120126   4.446   3.065   5.127  1.3389 -2.3826  0.0385
 2830SOL    HW220127   4.369   3.110   5.003 -0.8702  1.2422  1.5265
 2831SOL     OW20128   0.081   2.895   6.933 -0.0915  0.0649  0.2447
 2831SOL    HW120129   0.055   2.900   6.841 -0.8680 -3.2077  0.2796
 2831SOL    HW220130   0.025   2.826   6.970  0.8035 -1.2357 -0.8374
 2832SOL     OW20131   0.472   2.722   4.204  0.3227 -0.5252  0.3439
 2832SOL    HW120132   0.508   2.662   4.269  2.5913  0.2823 -0.1871
 2832SOL    HW220133   0.452   2.802   4.253 -2.1474 -0.3207 -1.0143
 2833SOL     OW20134   2.005   2.117  12.789  0.2321 -0.1197 -0.2123
 2833SOL    HW120135   2.021   2.023  12.797  0.5637 -0.1442 -1.0786
 2833SOL    HW220136   1.942   2.125  12.717  0.3086  0.7162 -0.1930
 2834SOL     OW20137   1.305   4.377   3.333  0.5625  0.3488 -0.3059
 2834SOL    HW120138   1.398   4.366   3.354  0.2971 -0.1195  0.6323
 2834SOL    HW220139   1.267   4.381   3.421 -0.0281 -1.6597 -0.4680
 2835SOL     OW20140   3.720   3.149   4.004  0.3060 -0.0316  0.0513
 2835SOL    HW120141   3.687   3.067   3.967  2.7331 -0.5317 -0.9970
 2835SOL    HW220142   3.652   3.209   3.971  0.0273 -1.2884 -1.6883
 2836SOL     OW20143   1.446   0.565  14.188 -0.2701 -0.6552  0.4901
 2836SOL    HW120144   1.373   0.624  14.168 -1.6381 -2.5711 -0.1389
 2836SOL    HW220145   1.503   0.617  14.244  0.0236 -0.4885  0.0344
 2837SOL     OW20146   4.299   0.227   1.515  0.2097 -0.3344 -0.0142
 2837SOL    HW120147   4.343   0.293   1.568 -0.2934  0.1502 -0.2062
 2837SOL    HW220148   4.314   0.266   1.429  2.9758  3.1369  2.0747
 2838SOL     OW20149   3.680   4.580   7.935  0.3385  0.2012 -0.0130
 2838SOL    HW120150   3.692   4.485   7.931 -0.1728  0.0440  2.6216
 2838SOL    HW220151   3.762   4.614   7.971  0.4984 -0.6352  0.4251
 2839SOL     OW20152   1.645   4.491   7.510  0.7199 -0.2544  0.5281
 2839SOL    HW120153   1.671   4.437   7.585 -1.4388 -2.3091 -0.1816
 2839SOL    HW220154   1.714   4.553   7.487  2.2841 -1.0213  3.1683
 2840SOL     OW20155   0.089   1.693   9.517 -0.2117  0.7259 -0.1938
 2840SOL    HW120156   0.105   1.742   9.437 -0.2458  0.1009 -0.5871
 2840SOL    HW220157   4.731   1.700   9.538 -0.1193 -0.0602  0.4896
 2841SOL     OW20158   2.638   3.812  14.890 -0.2699  0.3853  0.0915
 2841SOL    HW120159   2.667   3.849  14.974  3.7726 -1.3854 -0.5124
 2841SOL    HW220160   2.544   3.803  14.904 -0.4407  1.4164 -0.3834
 2842SOL     OW20161   3.458   2.375   5.123  0.2826  0.0340  0.5276
 2842SOL    HW120162   3.536   2.428   5.141 -0.1129  0.5453  0.7118
 2842SOL    HW220163   3.396   2.427   5.173  0.3258  0.9919 -0.4230
 2843SOL     OW20164   0.284   2.847   5.481  0.1157 -0.3187  0.6217
 2843SOL    HW120165   0.344   2.902   5.431 -0.5592 -0.6523 -0.5492
 2843SOL    HW220166   0.196   2.885   5.480  0.0928 -0.3874 -0.1062
 2844SOL     OW20167   0.318   2.484   9.712 -0.3420  0.0003  0.0556
 2844SOL    HW120168   0.261   2.427   9.765 -0.0978 -2.1333 -1.9822
 2844SOL    HW220169   0.256   2.521   9.650 -1.2864 -0.5602  0.6578
 2845SOL     OW20170   2.260   1.111   1.567  0.2081  0.0344 -0.0133
 2845SOL    HW120171   2.220   1.184   1.519 -0.9516  0.3406  1.4184
 2845SOL    HW220172   2.354   1.126   1.557  0.2128 -0.6296 -0.9548
 2846SOL     OW20173   2.623   2.737   5.284  0.5936 -0.1168 -0.1173
 2846SOL    HW120174   2.617   2.817   5.232  1.1919 -0.9538 -1.4981
 2846SOL    HW220175   2.574   2.761   5.363 -2.5296  0.0262 -2.1022
 2847SOL     OW20176   0.924   1.011   6.171 -0.4815 -0.4108  0.1649
 2847SOL    HW120177   0.964   0.984   6.088 -1.4863 -1.1828 -0.0717
 2847SOL    HW220178   0.832   1.028   6.153 -0.2780  1.8366  1.2483
 2848SOL     OW20179   3.184   2.252  16.385  0.0722  0.0855 -0.2320
 2848SOL    HW120180   3.245   2.323  16.407 -1.4415  1.2899  0.0929
 2848SOL    HW220181   3.225   2.209  16.310  0.5803 -0.3307  0.2802
 2849SOL     OW20182   2.144   3.957  10.205  0.0186 -0.0999 -0.0294
 2849SOL    HW120183   2.190   4.037  10.231 -0.7808  0.0204  0.9844
 2849SOL    HW220184   2.209   3.897  10.168  2.4488  0.6940  2.9263
 2850SOL     OW20185   2.683   0.319  14.609 -0.2268 -0.1718 -0.5823
 2850SOL    HW120186   2.642   0.404  14.595 -0.1575  0.3528  2.2630
 2850SOL    HW220187   2.743   0.349  14.677 -4.0653 -0.0745  2.7805
 2851SOL     OW20188   2.238   2.783  15.974  0.0177  0.3968  0.5786
 2851SOL    HW120189   2.198   2.787  15.887  1.2766 -0.3089 -0.0353
 2851SOL    HW220190   2.204   2.863  16.015  2.3146  2.2729 -1.1687
 2852SOL     OW20191   1.591   4.219  12.363  0.1053 -0.3178  0.0703
 2852SOL    HW120192   1.545   4.135  12.361 -3.2556  1.5369 -0.2845
 2852SOL    HW220193   1.663   4.190  12.306 -0.8137 -2.9688  0.2300
 2853SOL     OW20194   1.151   2.209   7.828 -0.2444 -0.6535  0.6371
 2853SOL    HW120195   1.099   2.142   7.784 -0.6058 -0.1017  0.2121
 2853SOL    HW220196   1.156   2.162   7.911  1.8228  0.6819  1.2692
 2854SOL     OW20197   4.478   4.157   9.223 -0.5294 -0.4639 -0.2932
 2854SOL    HW120198   4.484   4.083   9.283 -0.6218 -0.9693 -0.9078
 2854SOL    HW220199   4.539   4.222   9.257 -0.0060 -1.8483  1.3999
 2855SOL     OW20200   3.259   0.994   5.078 -0.1692 -0.3578 -0.0260
 2855SOL    HW120201   3.223   0.913   5.042 -1.0514 -0.8492  1.9593
 2855SOL    HW220202   3.348   0.966   5.100 -0.8437 -1.4674  1.2930
 2856SOL     OW20203   4.108   0.604  11.175 -0.2544 -0.4713  0.3694
 2856SOL    HW120204   4.038   0.644  11.124  0.1194 -1.0429 -0.5950
 2856SOL    HW220205   4.183   0.621  11.118  0.8637 -1.2871  1.5919
 2857SOL     OW20206   1.610   2.504   2.108 -0.4149  0.3928 -0.1846
 2857SOL    HW120207   1.700   2.484   2.085 -0.5681  1.3614 -1.6208
 2857SOL    HW220208   1.614   2.489   2.203  0.8122  0.3864 -0.2482
 2858SOL     OW20209   3.271   3.640  11.561 -0.2469 -0.0570  0.0853
 2858SOL    HW120210   3.294   3.551  11.588  0.1631  0.3605  1.1150
 2858SOL    HW220211   3.349   3.680  11.523  1.0589 -1.9542  0.7570
 2859SOL     OW20212   0.281   3.739  10.827  0.0081  0.1847 -0.1218
 2859SOL    HW120213   0.245   3.719  10.740 -0.1693 -2.1654  0.4957
 2859SOL    HW220214   0.375   3.753  10.811  0.0761 -0.1698 -0.0366
 2860SOL     OW20215   0.409   4.110   4.951 -0.3400 -0.9365 -0.2333
 2860SOL    HW120216   0.360   4.188   4.923  1.7778  1.1961  1.9612
 2860SOL    HW220217   0.488   4.114   4.898  0.3280 -0.2735  0.8162
 2861SOL     OW20218   4.611   0.933  16.747  0.5585 -0.3180 -0.1997
 2861SOL    HW120219   4.559   0.958  16.670  0.2406 -1.1440 -0.2535
 2861SOL    HW220220   4.573   0.991  16.813  0.6181 -0.1448 -0.3164
 2862SOL     OW20221   4.528   2.548   3.599 -0.1661  0.0183 -0.1661
 2862SOL    HW120222   4.519   2.629   3.648  2.4351  0.0285  0.2955
 2862SOL    HW220223   4.595   2.566   3.533  0.4327  0.1395  0.4661
 2863SOL     OW20224   2.927   3.314  16.260  0.0037  0.1505 -0.3783
 2863SOL    HW120225   2.918   3.370  16.337  2.8541 -2.3893  1.8318
 2863SOL    HW220226   2.887   3.233  16.292 -1.1851  1.3196  1.0601
 2864SOL     OW20227   2.284   4.326   7.309 -0.1667 -0.0128  0.0133
 2864SOL    HW120228   2.368   4.288   7.284 -0.6303 -0.2487 -1.1875
 2864SOL    HW220229   2.296   4.331   7.404 -1.1971  2.3472  0.0190
 2865SOL     OW20230   3.946   0.584  10.204  0.1552 -0.6373 -0.2202
 2865SOL    HW120231   3.929   0.540  10.287 -1.9866 -0.5602 -0.6129
 2865SOL    HW220232   3.862   0.630  10.199  0.7122  0.3106 -0.7839
 2866SOL     OW20233   3.160   4.204   4.940 -0.5935  0.0362 -0.5939
 2866SOL    HW120234   3.179   4.280   4.996  0.8880 -0.2740 -0.6571
 2866SOL    HW220235   3.208   4.239   4.865  0.3628 -1.3231 -0.6195
 2867SOL     OW20236   2.024   1.413  12.953 -0.2683  0.3705 -0.4434
 2867SOL    HW120237   1.972   1.368  13.019 -0.2151 -0.9513 -1.2861
 2867SOL    HW220238   2.110   1.373  12.968  1.1681  4.1852  1.4423
 2868SOL     OW20239   2.909   1.099   9.231  0.5163 -0.4383  0.3226
 2868SOL    HW120240   2.990   1.099   9.282  0.0110 -1.6755  1.1050
 2868SOL    HW220241   2.907   1.192   9.207 -2.9162 -0.3397  1.0152
 2869SOL     OW20242   2.351   2.938   1.739 -0.2597  0.0277  0.0913
 2869SOL    HW120243   2.425   2.951   1.799 -3.4136  1.1975  3.7666
 2869SOL    HW220244   2.296   2.873   1.784 -1.8949  2.7477  2.0552
 2870SOL     OW20245   1.219   0.077   9.069 -0.2985  0.1967 -0.8935
 2870SOL    HW120246   1.299   0.088   9.017  0.0572 -1.9683 -0.8265
 2870SOL    HW220247   1.165   0.140   9.021 -0.8785  1.7126  1.7780
 2871SOL     OW20248   3.542   1.732   3.256 -0.2657 -0.7941 -0.2534
 2871SOL    HW120249   3.450   1.711   3.271 -0.2259  0.5866  1.8477
 2871SOL    HW220250   3.587   1.717   3.339 -1.2804 -0.0959  0.4240
 2872SOL     OW20251   1.561   4.318   5.257  0.2584  0.0951 -0.2760
 2872SOL    HW120252   1.535   4.277   5.339 -0.1537 -0.9631 -0.9356
 2872SOL    HW220253   1.653   4.291   5.251  0.2621  0.0207  0.1284
 2873SOL     OW20254   3.978   0.707   5.823  0.0523  1.0983 -0.1543
 2873SOL    HW120255   4.069   0.737   5.822  0.2425  0.5948  1.1014
 2873SOL    HW220256   3.954   0.714   5.731  1.6338 -0.4740 -0.6896
 2874SOL     OW20257   4.121   4.308   7.640  0.2095 -0.0880  0.4698
 2874SOL    HW120258   4.050   4.330   7.579 -0.5139  0.5434  1.5266
 2874SOL    HW220259   4.098   4.216   7.654  0.4919  0.0187  1.6116
 2875SOL     OW20260   1.118   2.847   4.726  0.3367 -0.1064 -0.2251
 2875SOL    HW120261   1.113   2.881   4.815 -0.7501  2.0315 -1.1137
 2875SOL    HW220262   1.088   2.758   4.746 -0.2979 -0.3022 -1.9860
 2876SOL     OW20263   0.080   3.440   2.917 -0.1086  0.1743 -0.4969
 2876SOL    HW120264   0.044   3.397   2.995  3.5706 -2.6510 -0.3868
 2876SOL    HW220265   0.110   3.374   2.854  0.3825  2.4009 -2.5868
 2877SOL     OW20266   4.311   0.855   7.027  0.3317  0.1137 -0.3408
 2877SOL    HW120267   4.387   0.878   6.973  0.5194 -0.1657 -0.2024
 2877SOL    HW220268   4.238   0.882   6.972  1.3797  2.2188 -0.6811
 2878SOL     OW20269   4.713   1.696   3.084 -0.1438  0.2956 -0.4033
 2878SOL    HW120270   0.035   1.744   3.023  1.8082 -0.6503  0.6855
 2878SOL    HW220271   4.691   1.618   3.034  1.0393 -0.5293  0.3705
 2879SOL     OW20272   2.386   0.750  12.559  0.0868 -0.0035 -0.5621
 2879SOL    HW120273   2.327   0.706  12.498  0.8608 -0.7905 -0.7387
 2879SOL    HW220274   2.418   0.676  12.610  0.2924  0.3100 -0.2330
 2880SOL     OW20275   3.378   1.327   3.381 -0.5030 -0.0419  0.3698
 2880SOL    HW120276   3.453   1.345   3.438 -0.4974 -0.9180  0.6498
 2880SOL    HW220277   3.421   1.293   3.302 -2.5958  0.2932 -0.9083
 2881SOL     OW20278   3.609   4.280   0.421 -0.2123 -0.2144  0.3446
 2881SOL    HW120279   3.696   4.241   0.416  0.5237  1.4878 -0.1634
 2881SOL    HW220280   3.620   4.338   0.345  2.6034 -0.5441  0.5050
 2882SOL     OW20281   1.054   4.526  10.375 -0.0551 -0.8270 -0.2009
 2882SOL    HW120282   1.005   4.597  10.334  0.9357  1.0724  1.8545
 2882SOL    HW220283   1.139   4.567  10.389 -1.2133  1.4124  0.3357
 2883SOL     OW20284   3.820   4.343   3.685 -0.3990  0.3519  0.4847
 2883SOL    HW120285   3.815   4.390   3.602 -1.9345  1.1762  1.0431
 2883SOL    HW220286   3.914   4.326   3.691 -0.6447 -0.3411  2.4231
 2884SOL     OW20287   1.980   1.240   1.892 -0.7778  0.0558  0.3239
 2884SOL    HW120288   1.938   1.324   1.911 -2.8685 -1.0052  0.4184
 2884SOL    HW220289   1.979   1.211   1.983  0.4169 -0.1471  0.2745
 2885SOL     OW20290   4.643   3.216  13.597 -0.2088 -0.4756  0.1446
 2885SOL    HW120291   4.672   3.208  13.688  1.3640  2.6674 -0.1109
 2885SOL    HW220292   4.688   3.288  13.554 -1.9724 -0.8669 -2.3405
 2886SOL     OW20293   4.340   1.681   4.876 -0.2040  0.4175 -0.5521
 2886SOL    HW120294   4.376   1.629   4.805 -0.4420 -1.3514  0.6171
 2886SOL    HW220295   4.271   1.719   4.823 -1.0008 -1.3974 -0.8271
 2887SOL     OW20296   2.040   1.509  10.098 -0.0608 -0.6497 -0.1338
 2887SOL    HW120297   2.077   1.597  10.096 -0.1135 -0.6031  1.0064
 2887SOL    HW220298   1.958   1.522  10.146  1.1249  1.3897  1.3528
 2888SOL     OW20299   2.324   0.910   2.211 -0.1097  0.1824  0.5573
 2888SOL    HW120300   2.349   0.819   2.197  0.6510  0.5819 -0.6965
 2888SOL    HW220301   2.263   0.922   2.138  1.8166  0.7838 -0.9602
 2889SOL     OW20302   2.232   2.845   7.429  0.4562  0.2319 -0.0162
 2889SOL    HW120303   2.150   2.798   7.415 -0.3410  0.7869  2.7116
 2889SOL    HW220304   2.256   2.813   7.516  0.0568  0.0135  0.0119
 2890SOL     OW20305   1.229   4.594   2.107 -0.2975  0.5570 -0.7533
 2890SOL    HW120306   1.198   4.554   2.189 -1.5196  2.1993 -0.4298
 2890SOL    HW220307   1.144   4.610   2.067 -0.1458  3.7647  0.2025
 2891SOL     OW20308   4.480   1.105   7.125  0.2485  0.1073 -0.5102
 2891SOL    HW120309   4.418   1.117   7.198 -0.1351 -1.5039 -0.5762
 2891SOL    HW220310   4.565   1.109   7.168 -0.3488  3.1128  0.4023
 2892SOL     OW20311   2.335   2.777   7.772 -0.4975 -0.5607  0.5074
 2892SOL    HW120312   2.375   2.800   7.856 -1.1300  0.1120  0.6268
 2892SOL    HW220313   2.256   2.828   7.790 -1.9394 -2.3392 -0.7563
 2893SOL     OW20314   0.882   2.192   4.867  0.1778 -0.2898  0.3057
 2893SOL    HW120315   0.791   2.173   4.889 -0.4033  2.9188  0.5815
 2893SOL    HW220316   0.896   2.277   4.908  0.6579  0.0622 -0.5987
 2894SOL     OW20317   2.303   1.710   4.928 -0.3179  0.4748  0.3301
 2894SOL    HW120318   2.259   1.773   4.986 -0.0303 -0.3420  1.4465
 2894SOL    HW220319   2.235   1.687   4.865 -0.1655 -1.5074  0.8863
 2895SOL     OW20320   4.408   2.455   9.849  0.3995 -0.2098  0.0222
 2895SOL    HW120321   4.358   2.449   9.768  1.4482  0.4131 -0.6830
 2895SOL    HW220322   4.443   2.544   9.837 -1.3230  0.3257 -1.0142
 2896SOL     OW20323   1.348   0.273   9.519 -0.3191 -0.3396 -0.3517
 2896SOL    HW120324   1.404   0.209   9.562 -0.1737  0.1008  0.1180
 2896SOL    HW220325   1.339   0.250   9.427  1.0085 -0.1395 -0.5280
 2897SOL     OW20326   2.578   1.711   4.441 -0.4236  0.0784  0.0093
 2897SOL    HW120327   2.644   1.684   4.504 -0.1852 -0.2391 -0.3746
 2897SOL    HW220328   2.619   1.795   4.416 -0.2040  0.6302  2.2370
 2898SOL     OW20329   2.879   1.960   3.685  0.1428 -0.0594 -0.0472
 2898SOL    HW120330   2.859   2.051   3.707  0.1922 -0.2280  0.7115
 2898SOL    HW220331   2.855   1.911   3.764  2.1220  2.3025  1.9921
 2899SOL     OW20332   1.333   3.390  13.294 -0.2332  0.2963  0.0651
 2899SOL    HW120333   1.285   3.370  13.374 -0.4844 -1.2360 -0.4746
 2899SOL    HW220334   1.289   3.329  13.236  0.5564 -1.0737  0.9025
 2900SOL     OW20335   0.313   1.211   6.188  0.0961 -0.1751 -0.7349
 2900SOL    HW120336   0.372   1.136   6.185 -0.1199 -0.5532  4.3020
 2900SOL    HW220337   0.282   1.198   6.278  0.2413  1.9728 -0.3570
 2901SOL     OW20338   4.294   0.309   7.024 -1.0720 -0.1291 -0.0002
 2901SOL    HW120339   4.344   0.250   6.968  0.3004 -0.7344  1.8355
 2901SOL    HW220340   4.249   0.251   7.085  1.1998 -0.3162  1.5265
 2902SOL     OW20341   1.976   0.716   2.918  0.3569  0.3545  0.3539
 2902SOL    HW120342   2.042   0.785   2.923 -0.0907  0.8974 -1.4975
 2902SOL    HW220343   1.989   0.658   2.994  0.9247  2.0418  1.5405
 2903SOL     OW20344   3.671   4.604   6.813  0.0816 -0.6822 -0.2474
 2903SOL    HW120345   3.709   4.518   6.793  1.2038 -0.1038 -0.6471
 2903SOL    HW220346   3.737   4.669   6.788 -0.1345 -1.2777 -2.4429
 2904SOL     OW20347   0.869   3.421   2.324  0.1455  0.2718 -0.0122
 2904SOL    HW120348   0.885   3.409   2.417 -0.4715  2.1596  0.3257
 2904SOL    HW220349   0.879   3.331   2.292  2.9481  0.5204  0.1486
 2905SOL     OW20350   2.730   2.476   4.364  0.0195  0.5273  0.0623
 2905SOL    HW120351   2.800   2.525   4.322 -1.4284  0.9131 -1.8954
 2905SOL    HW220352   2.687   2.420   4.300  1.0750 -0.8540  0.5651
 2906SOL     OW20353   0.880   0.053   7.660  0.8080 -0.0552  0.7319
 2906SOL    HW120354   0.839   0.139   7.665  0.3627 -0.1167 -1.7592
 2906SOL    HW220355   0.947   0.078   7.596  0.6747 -0.1396  0.5613
 2907SOL     OW20356   2.549   1.879   4.959 -0.2039  0.7581  0.0982
 2907SOL    HW120357   2.607   1.816   4.918 -0.6137 -0.8931  2.0433
 2907SOL    HW220358   2.468   1.833   4.935  1.6462 -2.5171  0.1633
 2908SOL     OW20359   3.412   2.516   8.996  0.2852 -0.0784 -0.1559
 2908SOL    HW120360   3.418   2.593   8.938 -2.2149  1.5405  1.7326
 2908SOL    HW220361   3.494   2.470   8.979 -0.7085 -1.6641 -0.6263
 2909SOL     OW20362   0.184   3.553   5.459 -0.3255  0.4351 -0.4893
 2909SOL    HW120363   0.269   3.591   5.438  0.2676 -1.7470 -2.0477
 2909SOL    HW220364   0.180   3.564   5.554  0.3845  0.1883 -0.4306
 2910SOL     OW20365   4.442   2.551   6.202 -0.0283 -0.6464 -0.0003
 2910SOL    HW120366   4.400   2.527   6.284  0.7153 -0.3795  0.4601
 2910SOL    HW220367   4.425   2.474   6.148  0.3220 -0.4496 -0.3943
 2911SOL     OW20368   3.551   2.111   1.728 -0.0854 -0.2963 -0.5521
 2911SOL    HW120369   3.521   2.167   1.657  0.5936 -0.1059 -0.6814
 2911SOL    HW220370   3.472   2.103   1.781 -0.0854  0.7156 -0.3938
 2912SOL     OW20371   0.059   4.273   5.566 -0.0640  0.0446  0.1148
 2912SOL    HW120372   0.005   4.352   5.577 -0.2394  0.0183 -0.5063
 2912SOL    HW220373   0.039   4.241   5.478  0.0811 -2.6178  1.0601
 2913SOL     OW20374   0.119   2.868  16.973 -0.0499 -0.1809  0.0141
 2913SOL    HW120375   0.214   2.862  16.975 -0.2184 -2.8976 -0.1433
 2913SOL    HW220376   0.098   2.795  17.031 -1.5200 -1.2743 -1.8892
 2914SOL     OW20377   4.671   2.949  15.462 -0.0233  0.1587  0.3308
 2914SOL    HW120378   4.615   2.942  15.384 -1.1666 -0.8567  1.2538
 2914SOL    HW220379   4.629   3.026  15.501  1.1069 -0.6167  3.0942
 2915SOL     OW20380   3.817   0.351   1.880 -0.4558 -0.7816  0.1508
 2915SOL    HW120381   3.723   0.330   1.882 -1.0590  2.0424  0.9238
 2915SOL    HW220382   3.824   0.410   1.955 -1.6297  1.2321 -1.3240
 2916SOL     OW20383   0.801   0.176  11.456 -0.6511 -0.1586  0.6191
 2916SOL    HW120384   0.735   0.219  11.510  0.5944  1.8870  0.5059
 2916SOL    HW220385   0.869   0.243  11.443  0.6150 -1.4988  0.3267
 2917SOL     OW20386   2.279   3.257   6.355 -0.0378  0.2199  0.2910
 2917SOL    HW120387   2.333   3.301   6.421 -0.7947  0.9136  0.4506
 2917SOL    HW220388   2.288   3.165   6.380  0.0016  0.0413 -0.3862
 2918SOL     OW20389   2.020   3.247   9.551  0.3219 -0.7844  0.1683
 2918SOL    HW120390   2.026   3.245   9.456  0.7453 -1.3632  0.2060
 2918SOL    HW220391   2.108   3.222   9.579  0.8471  0.7270 -0.1236
 2919SOL     OW20392   0.298   2.530   6.183  0.1560  0.2671  0.6351
 2919SOL    HW120393   0.373   2.516   6.241 -0.4627 -0.1754  1.3338
 2919SOL    HW220394   0.331   2.499   6.099 -0.1146  0.1869  0.5606
 2920SOL     OW20395   2.853   4.489   2.202 -0.6697  0.1855  0.3797
 2920SOL    HW120396   2.899   4.525   2.127 -2.4172  0.4869 -0.5358
 2920SOL    HW220397   2.794   4.420   2.172 -1.7009  1.1604  0.1662
 2921SOL     OW20398   3.939   2.638   9.173 -0.0641  0.5879 -0.5494
 2921SOL    HW120399   3.867   2.592   9.216  0.2888  1.0942  0.5773
 2921SOL    HW220400   4.011   2.575   9.172 -0.5555  0.0553 -2.7745
 2922SOL     OW20401   4.533   0.741   5.429  0.0895 -0.4521 -0.0485
 2922SOL    HW120402   4.583   0.804   5.481 -1.1135 -0.9206  1.6583
 2922SOL    HW220403   4.446   0.762   5.462  0.0368 -1.0867  0.2172
 2923SOL     OW20404   0.856   3.850   8.483 -0.0355 -0.0070 -0.4017
 2923SOL    HW120405   0.808   3.931   8.501 -1.1141 -1.0077  1.2369
 2923SOL    HW220406   0.885   3.867   8.394 -2.0666  0.5834 -0.9575
 2924SOL     OW20407   0.422   2.540   8.269 -0.3182  0.0969 -0.3042
 2924SOL    HW120408   0.388   2.585   8.192 -1.3799 -1.3145 -0.6655
 2924SOL    HW220409   0.337   2.510   8.303  0.0313  1.0062  1.3823
 2925SOL     OW20410   0.877   1.316  10.196 -0.5895  0.0446 -0.0407
 2925SOL    HW120411   0.851   1.380  10.130 -0.5507  1.0985  0.9550
 2925SOL    HW220412   0.803   1.308  10.256 -2.0548 -1.0200 -2.0143
 2926SOL     OW20413   1.146   2.603   7.126  0.2904 -0.6384 -0.0105
 2926SOL    HW120414   1.190   2.661   7.187  0.6768  0.0914 -0.9840
 2926SOL    HW220415   1.058   2.597   7.164  1.5432  0.6239  3.1075
 2927SOL     OW20416   2.016   0.179   4.652  0.3027 -0.2150  0.4114
 2927SOL    HW120417   1.924   0.191   4.629  0.2188 -2.0048 -0.1956
 2927SOL    HW220418   2.010   0.113   4.721 -0.5433 -1.4974 -0.8723
 2928SOL     OW20419   0.294   0.569   3.589 -0.1283  0.1351  0.3009
 2928SOL    HW120420   0.346   0.518   3.527 -0.9264  0.8746 -0.9787
 2928SOL    HW220421   0.228   0.603   3.529  1.7875 -0.3790 -2.1290
 2929SOL     OW20422   3.546   3.711   6.984 -0.0061 -0.3888 -0.1019
 2929SOL    HW120423   3.585   3.647   6.925  0.9538  0.3834 -0.2951
 2929SOL    HW220424   3.611   3.708   7.054  1.2276  2.2143 -1.1578
 2930SOL     OW20425   2.274   3.691   5.949 -0.6730 -0.7356 -0.4505
 2930SOL    HW120426   2.344   3.751   5.924 -0.2602 -1.3789 -0.8545
 2930SOL    HW220427   2.274   3.709   6.043 -1.1861 -1.9215 -0.2265
 2931SOL     OW20428   0.882   1.013   5.100 -0.2872 -0.5647 -0.7769
 2931SOL    HW120429   0.903   0.922   5.121  1.8139  0.1245  0.1697
 2931SOL    HW220430   0.891   1.049   5.188 -1.1073 -0.0412 -0.9111
 2932SOL     OW20431   3.665   2.494  13.317  0.2897  0.2758  0.1870
 2932SOL    HW120432   3.624   2.417  13.355  1.7974 -1.9768 -2.7242
 2932SOL    HW220433   3.690   2.464  13.230  1.7299  0.1691  0.6495
 2933SOL     OW20434   3.222   0.286   2.509 -0.5673 -0.8966 -0.2672
 2933SOL    HW120435   3.306   0.314   2.546 -1.5403  0.6047  0.8090
 2933SOL    HW220436   3.244   0.236   2.430 -1.0300  1.5371 -1.9231
 2934SOL     OW20437   2.614   0.354  13.880 -0.1778 -0.0394 -0.3036
 2934SOL    HW120438   2.661   0.307  13.811  0.6204  0.8446 -0.3798
 2934SOL    HW220439   2.675   0.422  13.911 -0.6979  0.3287 -0.0985
 2935SOL     OW20440   2.261   2.943   9.314  0.0517 -0.5595  0.4408
 2935SOL    HW120441   2.206   2.933   9.392  0.7136 -1.8722  0.7308
 2935SOL    HW220442   2.325   2.872   9.319  1.0951  0.3665  0.4046
 2936SOL     OW20443   2.760   1.214   0.536 -0.3352  0.2927  0.5575
 2936SOL    HW120444   2.744   1.120   0.544 -1.8735  0.5543  0.4320
 2936SOL    HW220445   2.825   1.222   0.466 -1.3415  0.6431 -0.3369
 2937SOL     OW20446   1.646   2.703   7.732 -0.2202  0.0286  0.2546
 2937SOL    HW120447   1.712   2.749   7.679  1.4577 -2.2279  0.4087
 2937SOL    HW220448   1.702   2.673   7.803  0.0573  0.1180  0.0716
 2938SOL     OW20449   1.072   4.156  11.198 -0.2960 -0.7023 -0.2807
 2938SOL    HW120450   0.980   4.158  11.227 -0.8068 -1.7404 -1.8580
 2938SOL    HW220451   1.060   4.181  11.107  0.3805 -0.3102 -0.2603
 2939SOL     OW20452   3.913   3.254   6.133  0.3988  0.0654  0.2654
 2939SOL    HW120453   3.960   3.210   6.204  2.4203  0.2533 -0.9517
 2939SOL    HW220454   3.916   3.189   6.063  1.3947  1.0640 -0.6082
 2940SOL     OW20455   0.655   2.290   3.406  0.0833  0.4944  0.0348
 2940SOL    HW120456   0.589   2.256   3.467 -1.4352 -2.5825 -3.3193
 2940SOL    HW220457   0.686   2.205   3.373 -1.3782 -0.1161  0.2334
 2941SOL     OW20458   4.640   0.773   5.183 -0.3491  0.8856 -0.3122
 2941SOL    HW120459   4.564   0.823   5.151 -1.6789  0.4467  2.1517
 2941SOL    HW220460   4.619   0.759   5.275  1.1171  2.0288  0.1833
 2942SOL     OW20461   4.162   2.273  12.910 -0.4222  0.6083 -0.9149
 2942SOL    HW120462   4.250   2.236  12.903 -0.2664  0.6790  0.6483
 2942SOL    HW220463   4.188   2.365  12.907 -1.4758  0.9809  1.8832
 2943SOL     OW20464   0.732   2.768   1.193  0.6557 -0.0622 -0.5198
 2943SOL    HW120465   0.744   2.860   1.216 -0.6329 -0.0906  0.2587
 2943SOL    HW220466   0.681   2.729   1.264  1.9683 -1.0248 -0.1087
 2944SOL     OW20467   2.886   2.785   2.176  0.2587  0.2608 -0.1129
 2944SOL    HW120468   2.895   2.760   2.268  0.2361  2.3706  0.4548
 2944SOL    HW220469   2.956   2.732   2.138  0.0201 -0.1095 -0.0386
 2945SOL     OW20470   1.102   3.433  10.453  0.5281 -0.5454  0.1997
 2945SOL    HW120471   1.087   3.406  10.362  0.9814  2.8750 -0.8627
 2945SOL    HW220472   1.187   3.396  10.479  0.5847 -0.3769  0.2501
 2946SOL     OW20473   3.575   1.576  15.616  0.3772  0.1827 -0.4933
 2946SOL    HW120474   3.629   1.654  15.626  0.1703 -0.0338  2.3041
 2946SOL    HW220475   3.509   1.591  15.684  0.4269  0.2243 -0.4551
 2947SOL     OW20476   1.867   4.733   1.272  0.2740  0.0847  0.4473
 2947SOL    HW120477   1.776   4.734   1.243 -0.0811 -0.4656  1.5345
 2947SOL    HW220478   1.844   0.019   1.363 -1.1799 -0.2184  0.1547
 2948SOL     OW20479   3.723   0.459   7.586 -0.7264 -0.3860 -0.3078
 2948SOL    HW120480   3.808   0.461   7.542 -0.8621  1.1607 -0.4982
 2948SOL    HW220481   3.734   0.451   7.681  1.1226  0.9627 -0.4188
 2949SOL     OW20482   0.035   1.982   2.908  0.0694  0.5248 -0.0345
 2949SOL    HW120483   0.102   1.969   2.841 -0.5178 -0.8902 -0.3643
 2949SOL    HW220484   0.094   2.020   2.973 -0.9178  1.6788  0.1822
 2950SOL     OW20485   2.167   3.901   7.748 -0.4958 -0.4805  0.2154
 2950SOL    HW120486   2.072   3.914   7.759 -0.3742 -0.4184  1.1596
 2950SOL    HW220487   2.175   3.809   7.722 -0.3631 -0.2840 -0.4414
 2951SOL     OW20488   1.742   1.763  10.590  0.2463  0.4070 -0.0498
 2951SOL    HW120489   1.759   1.696  10.657  1.2080  1.5775  0.8938
 2951SOL    HW220490   1.712   1.839  10.640  1.9082  0.9527  0.1269
 2952SOL     OW20491   0.796   3.761   1.515 -0.5275  0.2251  0.2323
 2952SOL    HW120492   0.703   3.781   1.506 -0.4114 -0.0758 -1.5188
 2952SOL    HW220493   0.828   3.844   1.552 -1.3290 -0.2850  2.0472
 2953SOL     OW20494   1.554   1.248   8.129  0.2957  0.2068 -0.4734
 2953SOL    HW120495   1.502   1.308   8.076  0.2774  0.5867 -0.0194
 2953SOL    HW220496   1.637   1.252   8.082  0.4559  0.4355 -0.1701
 2954SOL     OW20497   3.261   1.487   9.221  0.1804  0.1390 -0.2759
 2954SOL    HW120498   3.285   1.579   9.209 -2.4256  0.4560 -3.2038
 2954SOL    HW220499   3.344   1.465   9.262  0.0898  0.9765  0.3490
 2955SOL     OW20500   0.328   1.019   3.044  0.2524  0.6419 -0.0102
 2955SOL    HW120501   0.386   1.087   3.077  0.0385  0.1600  1.3642
 2955SOL    HW220502   0.257   1.045   3.103  1.4531  2.4702  0.5954
 2956SOL     OW20503   2.204   4.677  15.429 -0.0832  0.1677 -0.3058
 2956SOL    HW120504   2.163   4.603  15.473  3.6052 -2.5626 -1.4998
 2956SOL    HW220505   2.140   4.684  15.358  1.9298 -1.0574 -2.2632
 2957SOL     OW20506   0.251   2.534   8.652 -0.4961 -0.6035 -0.1828
 2957SOL    HW120507   0.287   2.615   8.617  0.5640 -0.6278  0.8362
 2957SOL    HW220508   0.158   2.556   8.660  0.0632  1.2516  1.1669
 2958SOL     OW20509   3.165   1.918  16.404 -0.7078  0.0929 -0.7146
 2958SOL    HW120510   3.081   1.882  16.375 -0.3781  0.7390 -2.5078
 2958SOL    HW220511   3.182   1.991  16.344 -2.7943  1.0202 -0.2063
 2959SOL     OW20512   2.481   4.613  16.104 -0.0612 -0.0032 -0.3938
 2959SOL    HW120513   2.520   4.698  16.126 -2.4700  1.5545 -2.1670
 2959SOL    HW220514   2.540   4.555  16.152  0.9020  0.9379 -0.4360
 2960SOL     OW20515   1.627   2.928   9.248 -0.0927 -0.0355  0.0794
 2960SOL    HW120516   1.645   2.839   9.218 -1.6160 -0.1090 -0.6196
 2960SOL    HW220517   1.698   2.938   9.312  0.2298  1.2290 -0.4896
 2961SOL     OW20518   2.521   2.156   8.594 -0.4078 -0.1641 -0.9263
 2961SOL    HW120519   2.547   2.248   8.586 -1.5423  0.4069  1.9098
 2961SOL    HW220520   2.450   2.146   8.530  0.7881 -1.5819 -2.0319
 2962SOL     OW20521   4.252   1.404   7.330  0.2155 -0.1944 -0.0907
 2962SOL    HW120522   4.289   1.316   7.323 -1.5432 -0.7843 -1.8416
 2962SOL    HW220523   4.243   1.434   7.239 -1.8413 -0.6585 -0.0276
 2963SOL     OW20524   3.809   3.906   8.035 -0.5795 -0.2016  0.0154
 2963SOL    HW120525   3.805   3.811   8.028 -2.0005 -0.1488  0.2179
 2963SOL    HW220526   3.772   3.925   8.121 -1.5101  0.3167 -0.5018
 2964SOL     OW20527   3.108   4.017   7.635  0.1611 -0.0125 -0.0559
 2964SOL    HW120528   3.116   4.093   7.577 -0.2175  1.2213  1.5045
 2964SOL    HW220529   3.128   3.949   7.571 -1.7479 -0.8489  0.2263
 2965SOL     OW20530   3.787   4.527   4.412  0.1106 -0.1819  0.0557
 2965SOL    HW120531   3.776   4.510   4.319 -0.4060  2.2243 -0.3157
 2965SOL    HW220532   3.695   4.524   4.436  0.4916  0.5954  1.6239
 2966SOL     OW20533   4.564   0.970   8.502 -0.0435 -0.4929 -0.0147
 2966SOL    HW120534   4.583   0.935   8.589  0.8411 -2.5544 -1.0433
 2966SOL    HW220535   4.653   0.955   8.472 -0.2800 -0.7811 -0.5787
 2967SOL     OW20536   4.287   2.250  13.862  0.2215 -0.1985  0.0155
 2967SOL    HW120537   4.325   2.336  13.845 -2.7372  1.2685  0.7991
 2967SOL    HW220538   4.244   2.223  13.780 -0.3610  0.9125 -0.0491
 2968SOL     OW20539   3.488   1.184   6.003 -0.1565 -0.1679  0.2740
 2968SOL    HW120540   3.490   1.135   6.084  0.6427  0.3057  0.5432
 2968SOL    HW220541   3.540   1.125   5.948 -0.6427  0.3528 -0.7592
 2969SOL     OW20542   1.064   4.106   5.146  0.2244 -0.0389 -0.2422
 2969SOL    HW120543   1.128   4.085   5.078  1.2762  1.2540  0.3373
 2969SOL    HW220544   1.038   4.026   5.191 -1.1497  0.3021 -0.4315
 2970SOL     OW20545   3.306   1.198   2.025  0.1832 -0.1223 -0.3668
 2970SOL    HW120546   3.292   1.230   1.936  1.0686  0.4695 -0.2976
 2970SOL    HW220547   3.402   1.195   2.027  0.2817  1.5568 -1.9603
 2971SOL     OW20548   3.707   3.921  10.926  0.4445  0.3651  0.1368
 2971SOL    HW120549   3.800   3.903  10.935  0.3022 -0.4659 -0.1061
 2971SOL    HW220550   3.704   4.005  10.972  0.5488  1.1686 -1.3352
 2972SOL     OW20551   2.545   1.366   1.671  0.1423  0.3953 -0.4116
 2972SOL    HW120552   2.598   1.364   1.751  0.6900 -0.2226 -0.7816
 2972SOL    HW220553   2.545   1.458   1.647 -0.6757  1.0153  1.9617
 2973SOL     OW20554   0.351   0.400  11.751  0.5186 -0.1597 -0.0124
 2973SOL    HW120555   0.400   0.450  11.686  2.2332 -1.0957  0.5740
 2973SOL    HW220556   0.282   0.355  11.702  0.1529  1.6650 -1.1731
 2974SOL     OW20557   2.158   2.714   1.765 -0.1393 -0.3395  0.7271
 2974SOL    HW120558   2.075   2.667   1.757  0.7208 -1.6837 -0.2456
 2974SOL    HW220559   2.216   2.638   1.773 -1.0387 -0.7573  3.3596
 2975SOL     OW20560   1.710   1.092   3.100  0.4665  0.2035  0.6245
 2975SOL    HW120561   1.664   1.056   3.025 -0.5230 -0.1378  1.3992
 2975SOL    HW220562   1.684   1.184   3.097  0.6000  0.1993 -0.8463
 2976SOL     OW20563   1.589   4.604   4.240  0.2887 -0.3314 -0.1263
 2976SOL    HW120564   1.631   4.574   4.159 -2.0416 -2.1657 -0.6681
 2976SOL    HW220565   1.653   4.584   4.307 -0.7309  0.3787  1.0648
 2977SOL     OW20566   1.675   1.613  14.046 -0.0191 -0.5268 -0.0785
 2977SOL    HW120567   1.640   1.526  14.061  1.6484 -1.0033  1.0637
 2977SOL    HW220568   1.618   1.681  14.082  1.3706 -1.1510  3.2274
 2978SOL     OW20569   1.621   3.623   3.811 -0.0779 -0.0765 -0.5677
 2978SOL    HW120570   1.597   3.714   3.828 -1.4514 -0.1858 -1.9795
 2978SOL    HW220571   1.656   3.628   3.722 -1.2833  1.5172 -0.9374
 2979SOL     OW20572   0.769   1.771   7.674 -0.0259  0.1657 -0.3045
 2979SOL    HW120573   0.832   1.841   7.695 -1.2680  1.5367 -1.1420
 2979SOL    HW220574   0.730   1.805   7.594  0.0106 -3.3426 -1.7977
 2980SOL     OW20575   0.256   4.673   7.365 -0.1202 -0.0390 -0.3540
 2980SOL    HW120576   0.244   4.634   7.452 -0.3990  3.7376  1.3299
 2980SOL    HW220577   0.350   4.689   7.369  0.0258 -0.9721 -0.0159
 2981SOL     OW20578   2.077   1.953   2.820  0.1214 -0.3104 -0.0534
 2981SOL    HW120579   2.100   1.894   2.748 -0.6338 -1.5059  0.7114
 2981SOL    HW220580   2.007   1.908   2.867 -2.3134  2.1698 -1.2565
 2982SOL     OW20581   0.410   2.761   7.258  0.0516 -0.0042  0.3842
 2982SOL    HW120582   0.431   2.812   7.180  2.6194  0.8571  1.6408
 2982SOL    HW220583   0.320   2.732   7.249  0.3841 -0.9804  0.1851
 2983SOL     OW20584   4.696   2.854  16.381 -0.0450 -0.2716  0.3951
 2983SOL    HW120585   4.722   2.945  16.396 -2.7185  0.5222  0.2894
 2983SOL    HW220586   4.630   2.849  16.450 -0.9125  0.6567 -0.3453
 2984SOL     OW20587   3.212   1.688   9.798  0.3564  0.8492  0.1750
 2984SOL    HW120588   3.253   1.641   9.726 -0.1892  0.6790 -0.0269
 2984SOL    HW220589   3.177   1.770   9.761 -1.3104 -0.7167 -1.7568
 2985SOL     OW20590   4.353   4.374  13.298  0.5522  0.2178 -0.4150
 2985SOL    HW120591   4.286   4.401  13.235  1.2171  0.9683 -0.8034
 2985SOL    HW220592   4.421   4.387  13.232 -2.0133  3.4859 -2.3856
 2986SOL     OW20593   1.751   0.361   8.565  0.2257 -0.1761  0.3160
 2986SOL    HW120594   1.747   0.444   8.518 -2.3133 -1.0313 -0.9601
 2986SOL    HW220595   1.688   0.307   8.517  0.8356 -1.1131  0.5595
 2987SOL     OW20596   0.961   4.384   2.164  0.1333 -0.0161  0.6589
 2987SOL    HW120597   0.921   4.470   2.155  1.0395  0.3411  0.1089
 2987SOL    HW220598   1.029   4.414   2.225 -0.0537  1.8243 -0.0534
 2988SOL     OW20599   1.803   3.551   2.223  0.7640  0.3631  0.0298
 2988SOL    HW120600   1.828   3.483   2.161  0.6338 -0.4484  0.8736
 2988SOL    HW220601   1.717   3.563   2.183  1.0953 -0.4521 -0.9151
 2989SOL     OW20602   3.252   4.669   8.942 -0.5454 -0.0365  0.0842
 2989SOL    HW120603   3.284   4.599   8.885  1.6590  1.1611 -0.1340
 2989SOL    HW220604   3.323   4.731   8.925 -1.0634  0.9553  1.5364
 2990SOL     OW20605   4.261   1.926  16.276 -0.0373  0.5110  1.1159
 2990SOL    HW120606   4.278   1.905  16.185 -2.8288  1.0264  0.4679
 2990SOL    HW220607   4.284   1.839  16.307 -2.0194 -0.2779  0.3120
 2991SOL     OW20608   4.143   3.306  17.240  0.3669 -0.2652 -0.4034
 2991SOL    HW120609   4.182   3.299  17.327  0.1398  1.1090 -0.1914
 2991SOL    HW220610   4.202   3.249  17.190 -0.2141 -2.4643  1.4114
 2992SOL     OW20611   2.933   3.473  17.439 -0.7394 -0.1306  0.5870
 2992SOL    HW120612   3.028   3.462  17.429 -0.3697  2.1781  1.6631
 2992SOL    HW220613   2.917   3.535  17.511  0.7615  0.5197  0.3704
 2993SOL     OW20614   0.203   3.365   6.040  0.1963  0.1375 -0.1392
 2993SOL    HW120615   0.137   3.344   5.974 -0.7046 -0.1458  0.8354
 2993SOL    HW220616   0.145   3.417   6.096  1.1232  1.1351 -0.1039
 2994SOL     OW20617   0.617   4.359  11.156  0.5858  0.2247  0.3108
 2994SOL    HW120618   0.685   4.307  11.199 -0.3665 -2.2390 -1.0965
 2994SOL    HW220619   0.553   4.290  11.137  1.0976  0.1130 -1.0107
 2995SOL     OW20620   0.858   4.050   1.233  0.0405  0.2372 -0.3315
 2995SOL    HW120621   0.943   4.005   1.230  0.0591  0.1577  1.2514
 2995SOL    HW220622   0.883   4.142   1.235  1.2109 -0.0865  0.0052
 2996SOL     OW20623   1.923   2.686   3.970  0.0551  0.0552  0.1718
 2996SOL    HW120624   1.979   2.670   3.894  2.0011 -0.0325  1.6183
 2996SOL    HW220625   1.848   2.640   3.932  0.7543 -1.8715  1.0736
 2997SOL     OW20626   3.896   1.792   5.478  0.2115 -0.0460  0.5038
 2997SOL    HW120627   3.828   1.810   5.543  1.2283  3.2067  0.6635
 2997SOL    HW220628   3.853   1.717   5.438  1.5385 -0.5803  0.0820
 2998SOL     OW20629   1.986   0.875   6.564 -0.2137  0.0481  0.0410
 2998SOL    HW120630   1.899   0.871   6.523 -0.3135  0.8800  0.1708
 2998SOL    HW220631   1.969   0.867   6.658  0.7093  0.4570  0.2423
 2999SOL     OW20632   3.581   3.996   8.681  0.0514 -0.0624  0.2548
 2999SOL    HW120633   3.600   3.915   8.633 -0.4865  0.9765 -1.7380
 2999SOL    HW220634   3.490   3.980   8.703 -0.4505  0.8109 -1.1390
 3000SOL     OW20635   3.495   0.483  10.324 -0.4773 -0.2259  0.0184
 3000SOL    HW120636   3.427   0.455  10.263  0.0928 -1.1051 -0.2283
 3000SOL    HW220637   3.455   0.566  10.347  1.6347  0.6227  0.6792
 3001SOL     OW20638   0.427   0.694   8.237 -0.0946  0.2092  0.0067
 3001SOL    HW120639   0.359   0.695   8.304 -0.7111  1.0397 -0.6217
 3001SOL    HW220640   0.501   0.679   8.295  0.5817 -0.2324 -0.9638
 3002SOL     OW20641   0.429   4.193   5.220 -0.3760  0.1791  0.1315
 3002SOL    HW120642   0.445   4.151   5.135 -1.2902 -1.8655  0.9825
 3002SOL    HW220643   0.357   4.255   5.212 -0.4169 -0.0367 -1.2488
 3003SOL     OW20644   0.193   0.198   6.889 -0.1105  0.1037  0.1200
 3003SOL    HW120645   0.160   0.168   6.974 -2.9025  1.9218 -0.3340
 3003SOL    HW220646   0.238   0.279   6.913 -1.6931  0.2200  2.6722
 3004SOL     OW20647   2.880   0.982   6.376 -0.1925  0.4003 -0.2940
 3004SOL    HW120648   2.815   0.929   6.329 -0.0041  0.0604 -0.1752
 3004SOL    HW220649   2.844   0.977   6.465 -0.5792 -2.2601 -0.5851
 3005SOL     OW20650   2.462   2.525   5.269 -0.4808 -0.0204 -0.0541
 3005SOL    HW120651   2.533   2.463   5.285  0.1545  0.2784 -1.6420
 3005SOL    HW220652   2.516   2.603   5.278  0.0067 -0.4421  0.5905
 3006SOL     OW20653   3.278   0.526   3.280  0.0462  0.3812  0.2851
 3006SOL    HW120654   3.220   0.533   3.357 -0.3507 -1.3413  0.1320
 3006SOL    HW220655   3.306   0.618   3.284  0.7729  0.1932 -0.4996
 3007SOL     OW20656   2.090   1.517   2.147 -0.4231  1.0332 -0.2470
 3007SOL    HW120657   2.029   1.454   2.185  0.6952 -1.1176 -1.9633
 3007SOL    HW220658   2.067   1.510   2.054  1.5699  1.4383 -0.7723
 3008SOL     OW20659   0.891   0.154   6.575  0.3968  0.1328  0.5470
 3008SOL    HW120660   0.815   0.167   6.631  0.5779 -0.0916  0.8467
 3008SOL    HW220661   0.969   0.167   6.629  0.1901  0.5640  0.7384
 3009SOL     OW20662   0.099   1.056   4.889 -1.0591  0.4553 -0.0078
 3009SOL    HW120663   0.116   0.964   4.870 -2.1100  0.7146 -2.1891
 3009SOL    HW220664   0.024   1.071   4.831 -3.4660 -2.1268  2.3895
 3010SOL     OW20665   3.872   0.050   8.515 -0.0838  0.2010 -0.3151
 3010SOL    HW120666   3.855   4.727   8.441 -2.3432  0.8402 -0.2952
 3010SOL    HW220667   3.833   0.131   8.480 -0.0811 -0.0316 -0.8528
 3011SOL     OW20668   3.951   0.270   8.214  0.5530  0.2737 -0.1216
 3011SOL    HW120669   3.995   0.212   8.153  0.6582  0.0165  0.1957
 3011SOL    HW220670   4.021   0.275   8.280  0.0815  0.6042  0.3530
 3012SOL     OW20671   1.044   0.653   6.494  0.6664  0.9538 -0.2086
 3012SOL    HW120672   1.077   0.730   6.540  4.2063  0.6132 -2.1385
 3012SOL    HW220673   0.954   0.668   6.467  0.5624 -1.0441 -0.9539
 3013SOL     OW20674   0.819   1.884   6.834 -0.0473 -0.4828 -0.0353
 3013SOL    HW120675   0.768   1.963   6.849  0.0791 -0.3170 -0.4696
 3013SOL    HW220676   0.822   1.847   6.922  0.2825 -0.2575  0.0516
 3014SOL     OW20677   4.252   3.026   6.542 -0.3408  0.0284  0.1389
 3014SOL    HW120678   4.311   2.968   6.494  0.7992  1.4484 -0.1851
 3014SOL    HW220679   4.162   2.992   6.546 -0.2243 -0.5407 -1.9125
 3015SOL     OW20680   0.117   1.509   7.738  0.0864 -0.2604  0.3117
 3015SOL    HW120681   0.068   1.589   7.722  2.6738  1.8867  3.1825
 3015SOL    HW220682   0.057   1.442   7.705 -2.6071  2.0957  0.4394
 3016SOL     OW20683   2.067   0.531   7.593 -0.0531  0.1584 -0.3539
 3016SOL    HW120684   2.044   0.500   7.505  2.6733 -2.1465 -0.2787
 3016SOL    HW220685   1.991   0.584   7.614  0.7032  0.4433  1.7400
 3017SOL     OW20686   3.824   0.685  13.335 -0.2718  0.6204 -0.1520
 3017SOL    HW120687   3.881   0.614  13.307  0.2848  0.6468  0.9132
 3017SOL    HW220688   3.871   0.754  13.288 -1.5437  0.3362 -1.8295
 3018SOL     OW20689   2.427   4.482  15.863  0.4039 -0.0381  0.4130
 3018SOL    HW120690   2.461   4.540  15.931  0.7783  1.0405 -0.6972
 3018SOL    HW220691   2.486   4.502  15.790  1.2820 -2.1891  0.5177
 3019SOL     OW20692   2.036   0.207   5.243  0.8700 -0.1078  0.4643
 3019SOL    HW120693   2.131   0.216   5.250  0.8500  0.2082  0.3272
 3019SOL    HW220694   1.997   0.240   5.324  0.5997 -0.7741  0.6043
 3020SOL     OW20695   0.086   1.690   4.229  0.7916  0.2427  0.2068
 3020SOL    HW120696   0.001   1.724   4.202  2.1528  2.8741 -0.7874
 3020SOL    HW220697   0.108   1.742   4.306 -1.3196  0.5684  0.6021
 3021SOL     OW20698   0.496   1.281  15.608 -0.0434 -0.7676 -0.0125
 3021SOL    HW120699   0.503   1.196  15.650 -1.2527 -0.0989  1.5403
 3021SOL    HW220700   0.493   1.267  15.513  2.6789 -2.5761  0.1807
 3022SOL     OW20701   3.411   0.438   6.640 -0.6741  0.0254  0.6912
 3022SOL    HW120702   3.329   0.392   6.626  1.0286 -3.3802  2.0339
 3022SOL    HW220703   3.458   0.394   6.570  0.0121 -0.3010  1.3487
 3023SOL     OW20704   4.541   1.660   4.645  0.2942  0.5809  0.6679
 3023SOL    HW120705   4.552   1.753   4.626 -1.1042  0.4454 -0.7578
 3023SOL    HW220706   4.511   1.618   4.565 -1.4317  0.7264  1.2428
 3024SOL     OW20707   2.774   0.011   3.131  0.3655 -0.4995 -0.1298
 3024SOL    HW120708   2.851   4.691   3.145  1.7292  1.3274 -0.4541
 3024SOL    HW220709   2.813   0.051   3.054 -1.1432 -1.1576 -1.2301
 3025SOL     OW20710   3.802   0.162   7.425 -0.4894 -0.6076  0.1466
 3025SOL    HW120711   3.880   0.106   7.429 -0.3414 -0.5009 -1.4677
 3025SOL    HW220712   3.786   0.168   7.520 -0.8333 -3.8909  0.2765
 3026SOL     OW20713   3.022   0.950   5.270 -0.1651 -0.0722 -0.4152
 3026SOL    HW120714   2.973   1.032   5.279 -0.6248 -0.6327  2.0473
 3026SOL    HW220715   3.101   0.979   5.225 -1.5411  1.6762 -1.7071
 3027SOL     OW20716   0.942   3.254   5.151  0.4553 -0.2274 -0.8986
 3027SOL    HW120717   1.014   3.196   5.127  0.3208  0.4160 -2.8484
 3027SOL    HW220718   0.919   3.288   5.064  0.2546  4.4045  0.9341
 3028SOL     OW20719   4.422   1.682   5.689  0.0064  0.4052  0.1647
 3028SOL    HW120720   4.381   1.759   5.728 -0.3487  0.4727 -0.3349
 3028SOL    HW220721   4.349   1.625   5.665  1.2411 -0.8602 -0.5927
 3029SOL     OW20722   3.815   1.302  11.292 -0.2219 -0.2798  0.1345
 3029SOL    HW120723   3.766   1.237  11.241  0.7161  1.6304 -3.1855
 3029SOL    HW220724   3.901   1.268  11.270 -0.7599 -0.4607 -1.6727
 3030SOL     OW20725   4.146   3.723  11.213 -0.2825  0.3696 -0.5199
 3030SOL    HW120726   4.235   3.700  11.184  0.5697 -1.1488  3.3547
 3030SOL    HW220727   4.113   3.635  11.229  1.2622 -0.3956 -1.5171
 3031SOL     OW20728   4.492   1.930   1.865  0.5134  0.0103 -0.0165
 3031SOL    HW120729   4.400   1.918   1.890 -1.0531  2.0115 -4.7890
 3031SOL    HW220730   4.487   2.026   1.874  2.4299  0.0447  0.6519
 3032SOL     OW20731   4.675   3.739   5.940 -0.1674 -0.2742  0.1393
 3032SOL    HW120732   4.681   3.739   5.845  0.3159 -0.6680  0.1718
 3032SOL    HW220733   4.599   3.796   5.952 -0.2465 -0.1048 -1.2043
 3033SOL     OW20734   3.851   3.967   2.027 -0.3686 -0.6868  0.0050
 3033SOL    HW120735   3.807   3.887   2.055 -2.3466  0.7612  1.0317
 3033SOL    HW220736   3.929   3.943   2.078 -1.0487  0.5692  1.6609
 3034SOL     OW20737   4.367   1.091   6.323  0.3980 -0.4937  0.4563
 3034SOL    HW120738   4.444   1.079   6.378 -1.1626 -0.1554  2.7668
 3034SOL    HW220739   4.302   1.090   6.394  0.0633  2.3186  0.2184
 3035SOL     OW20740   0.851   0.732   1.080  0.1423  0.1417 -0.0400
 3035SOL    HW120741   0.835   0.809   1.134 -0.8670 -0.2302  0.1867
 3035SOL    HW220742   0.844   0.675   1.157  2.4069 -0.8479 -0.5474
 3036SOL     OW20743   1.182   2.648   4.338 -0.2939 -0.2469  0.3726
 3036SOL    HW120744   1.107   2.706   4.331  1.2730  1.8861  1.3976
 3036SOL    HW220745   1.216   2.688   4.418  0.6988 -1.1135  0.3909
 3037SOL     OW20746   4.274   4.039   4.951 -0.3416  0.4942  0.9345
 3037SOL    HW120747   4.360   4.076   4.969  0.1006  0.2264 -0.6268
 3037SOL    HW220748   4.285   3.977   4.879 -1.0078 -2.0454  3.0384
 3038SOL     OW20749   3.164   3.925   8.404 -0.0045  0.5531 -0.1960
 3038SOL    HW120750   3.181   4.019   8.412 -2.2962  0.8478  1.1573
 3038SOL    HW220751   3.125   3.913   8.491 -0.7288  1.0178 -0.4589
 3039SOL     OW20752   0.629   0.849   1.595  0.0379  0.5445 -0.2297
 3039SOL    HW120753   0.603   0.763   1.627  0.6099  0.0778 -1.0392
 3039SOL    HW220754   0.548   0.889   1.563 -0.5386  2.1091  3.1981
 3040SOL     OW20755   0.657   4.400   7.486  0.7875  0.8699 -0.0389
 3040SOL    HW120756   0.698   4.318   7.511  0.6096 -0.2565 -3.3877
 3040SOL    HW220757   0.563   4.384   7.499  1.3410 -2.2922 -0.1566
 3041SOL     OW20758   0.217   2.224   6.852 -0.2673 -0.1250  0.0889
 3041SOL    HW120759   0.268   2.213   6.933  1.5353  0.8093 -0.9046
 3041SOL    HW220760   0.192   2.132   6.845  0.0935 -0.3790  2.1352
 3042SOL     OW20761   3.063   3.835  13.758 -0.1262  0.0912  0.0110
 3042SOL    HW120762   3.113   3.888  13.695  1.7577 -2.2013 -0.4128
 3042SOL    HW220763   3.135   3.835  13.821 -0.9895 -1.1407  0.9861
 3043SOL     OW20764   3.346   1.584   6.418 -0.0661  0.5681 -0.2648
 3043SOL    HW120765   3.350   1.604   6.324  0.5680 -0.9998 -0.5885
 3043SOL    HW220766   3.287   1.650   6.452  0.3580  1.7276 -1.7619
 3044SOL     OW20767   0.640   0.190   5.313  0.2155 -0.1559  0.2650
 3044SOL    HW120768   0.689   0.221   5.236  0.7908 -0.3724  0.5430
 3044SOL    HW220769   0.601   0.272   5.342 -0.0517 -0.4757  0.7896
 3045SOL     OW20770   3.496   4.261   1.700  0.1859 -0.0552  0.2213
 3045SOL    HW120771   3.557   4.294   1.634 -1.0170 -0.3010 -1.0334
 3045SOL    HW220772   3.519   4.314   1.776  1.2914 -0.8328  0.4247
 3046SOL     OW20773   2.643   4.124   5.312 -0.0162  0.4983 -0.1291
 3046SOL    HW120774   2.549   4.103   5.308  0.6112 -2.6963  1.3736
 3046SOL    HW220775   2.690   4.045   5.286 -1.2268  0.1587 -1.2853
 3047SOL     OW20776   1.677   4.287   8.183  0.1453  0.0570  0.8935
 3047SOL    HW120777   1.593   4.295   8.139  0.5709  1.5163  0.3493
 3047SOL    HW220778   1.675   4.372   8.228  2.4246  0.1406  0.8266
 3048SOL     OW20779   2.048   4.557   6.170  0.0500 -0.0756 -0.1476
 3048SOL    HW120780   2.013   4.487   6.225  0.0293 -0.2456 -0.3811
 3048SOL    HW220781   2.137   4.523   6.162  0.0434 -0.3721  0.9301
 3049SOL     OW20782   0.180   4.691   0.961 -0.5863  0.1164 -0.5558
 3049SOL    HW120783   0.124   4.635   0.907 -1.9568 -0.6666  1.6643
 3049SOL    HW220784   0.249   4.631   0.990 -0.1224  1.0420  0.2720
 3050SOL     OW20785   3.759   0.443   6.411  0.4752  0.0498  0.0815
 3050SOL    HW120786   3.669   0.455   6.384  1.1979 -0.1578 -2.4028
 3050SOL    HW220787   3.799   0.473   6.329  0.3303 -0.4700 -0.1759
 3051SOL     OW20788   0.487   2.814  14.429  0.2678  0.1236  0.2017
 3051SOL    HW120789   0.445   2.733  14.400  0.4362 -0.2367  0.9519
 3051SOL    HW220790   0.579   2.794  14.410  1.1284  2.5763  1.8136
 3052SOL     OW20791   3.388   2.203   6.743  0.2840 -0.1255 -0.3791
 3052SOL    HW120792   3.406   2.118   6.783  1.2097  0.6343  0.8306
 3052SOL    HW220793   3.339   2.249   6.812  0.7677 -0.7364  0.3665
 3053SOL     OW20794   1.454   0.268   3.063 -0.1180  0.7704 -0.0821
 3053SOL    HW120795   1.368   0.283   3.102 -0.5192  0.0013 -0.6566
 3053SOL    HW220796   1.488   0.214   3.135  1.0826  1.2150 -0.3156
 3054SOL     OW20797   1.735   4.006   2.670 -0.1044  0.2306  0.2056
 3054SOL    HW120798   1.764   4.035   2.757  0.3868  1.7067 -0.4616
 3054SOL    HW220799   1.816   4.007   2.618  0.0920 -2.3595  0.4270
 3055SOL     OW20800   1.481   3.097   1.666 -0.4378  0.4378  0.4912
 3055SOL    HW120801   1.405   3.066   1.716 -0.9373  1.0287  0.1006
 3055SOL    HW220802   1.492   3.174   1.722 -1.3817  0.4679  0.6485
 3056SOL     OW20803   4.734   3.808   0.149  0.1218 -0.7075 -0.6709
 3056SOL    HW120804   4.699   3.897   0.152  1.1127 -0.3658  0.7945
 3056SOL    HW220805   4.730   3.788   0.055  1.5051  0.4227 -0.9517
 3057SOL     OW20806   2.171   1.463   5.221 -0.0951 -0.8195  0.2766
 3057SOL    HW120807   2.173   1.392   5.285 -0.6442 -0.6510  0.4867
 3057SOL    HW220808   2.166   1.541   5.276 -0.1017 -1.5250  1.2827
 3058SOL     OW20809   2.434   3.280   6.613 -0.3092  0.4406  0.3702
 3058SOL    HW120810   2.364   3.263   6.676  0.3106  0.1496  0.9845
 3058SOL    HW220811   2.440   3.375   6.628  1.3519  0.3459  0.2631
 3059SOL     OW20812   3.250   1.875   3.875 -0.1371 -0.0137 -0.7488
 3059SOL    HW120813   3.217   1.791   3.906 -0.6915  0.2597 -0.5959
 3059SOL    HW220814   3.339   1.870   3.911 -0.2120 -2.1247 -0.8715
 3060SOL     OW20815   3.038   3.873   5.768  0.2658  0.0843 -0.1365
 3060SOL    HW120816   3.093   3.896   5.692 -2.5864 -1.0611 -2.5362
 3060SOL    HW220817   3.075   3.932   5.834 -1.1884  1.2342 -0.3493
 3061SOL     OW20818   4.549   3.307   2.743 -0.3386 -0.1924 -0.0182
 3061SOL    HW120819   4.640   3.325   2.719 -0.4242  3.1226  2.1026
 3061SOL    HW220820   4.520   3.398   2.746 -0.6627 -0.2674 -0.9464
 3062SOL     OW20821   2.568   3.701  16.253  0.1960 -0.1451 -0.0462
 3062SOL    HW120822   2.530   3.629  16.303  0.6945  0.9371  1.9063
 3062SOL    HW220823   2.662   3.683  16.254  0.2471  0.3732  3.1904
 3063SOL     OW20824   1.331   2.860   9.667 -0.2930 -0.1954 -0.2437
 3063SOL    HW120825   1.287   2.785   9.625  0.0055 -1.3260  1.4699
 3063SOL    HW220826   1.378   2.905   9.597  0.5575 -0.7806 -0.0526
 3064SOL     OW20827   3.825   1.044   5.502 -0.2724 -0.0514  0.6864
 3064SOL    HW120828   3.864   1.094   5.430 -0.7039  2.8099  2.4066
 3064SOL    HW220829   3.737   1.046   5.463  0.3047  0.4769 -0.5686
 3065SOL     OW20830   3.450   3.197   4.457  0.2636 -0.2985  0.4985
 3065SOL    HW120831   3.373   3.233   4.413 -0.3265  1.0701  2.6314
 3065SOL    HW220832   3.506   3.179   4.382  0.0397 -0.5671  0.3929
 3066SOL     OW20833   1.835   4.576   2.518  0.0369  0.1785  0.1235
 3066SOL    HW120834   1.861   4.668   2.525  0.2151 -0.0645  2.4081
 3066SOL    HW220835   1.790   4.579   2.433  0.2265  0.5004  0.0338
 3067SOL     OW20836   1.690   2.907   7.158 -0.2884 -0.1834  0.0809
 3067SOL    HW120837   1.703   2.888   7.065 -1.7874  3.1138 -0.7999
 3067SOL    HW220838   1.595   2.894   7.166 -0.2725  1.9736  3.3983
 3068SOL     OW20839   1.538   1.008   4.296 -0.0104  0.5154  0.1674
 3068SOL    HW120840   1.598   0.992   4.370 -0.8950  2.5822  1.3224
 3068SOL    HW220841   1.582   0.952   4.232  1.8846  2.0174  0.1684
 3069SOL     OW20842   3.744   0.365   8.501 -0.0406  0.1121 -0.2752
 3069SOL    HW120843   3.751   0.339   8.409  2.0872 -3.9694  1.0748
 3069SOL    HW220844   3.650   0.363   8.521 -0.0542 -0.5000 -0.4006
 3070SOL     OW20845   2.144   1.425  11.079  0.1542  0.4149 -0.1056
 3070SOL    HW120846   2.171   1.517  11.079  0.2236  0.3891 -1.2173
 3070SOL    HW220847   2.174   1.407  11.168 -0.6777  0.9177  0.2827
 3071SOL     OW20848   4.540   3.391   3.105  0.2819 -0.3863  0.0850
 3071SOL    HW120849   4.488   3.395   3.185  0.8945 -0.4669  0.4859
 3071SOL    HW220850   4.491   3.448   3.046  1.5304 -2.8964 -3.4065
 3072SOL     OW20851   3.642   4.316   6.257 -0.3747  0.2866 -0.7031
 3072SOL    HW120852   3.608   4.319   6.167  0.6446  0.7130 -1.0790
 3072SOL    HW220853   3.595   4.243   6.296 -1.0672  1.1478  0.0613
 3073SOL     OW20854   2.932   4.584   6.083  0.4528  0.0420 -0.0884
 3073SOL    HW120855   2.858   4.537   6.044 -1.1539  1.1884  1.5706
 3073SOL    HW220856   2.899   4.672   6.062 -0.9229  0.1994  2.7778
 3074SOL     OW20857   0.348   0.277   8.199 -0.0054  0.3480 -0.6176
 3074SOL    HW120858   0.329   0.356   8.149  1.0442  2.0976  1.7325
 3074SOL    HW220859   0.270   0.271   8.254 -1.7644  0.1298 -3.1346
 3075SOL     OW20860   2.394   0.618   7.480 -0.2549  0.1989 -0.0049
 3075SOL    HW120861   2.488   0.629   7.474  0.0310 -1.7184  0.7491
 3075SOL    HW220862   2.377   0.525   7.461  1.1159 -0.2995  1.1738
 3076SOL     OW20863   4.381   1.014  16.233  0.4427  0.9643 -0.2208
 3076SOL    HW120864   4.380   1.045  16.143 -1.6005  0.0622 -0.5114
 3076SOL    HW220865   4.337   0.929  16.223  0.4221  1.3179 -3.1424
 3077SOL     OW20866   0.206   0.490   9.487 -0.0927 -0.0011 -0.2047
 3077SOL    HW120867   0.293   0.456   9.507 -0.2519 -0.7565 -0.8100
 3077SOL    HW220868   0.209   0.577   9.526  3.4743 -0.5693  0.8059
 3078SOL     OW20869   3.254   0.092   5.688 -0.0757  0.0738 -0.6025
 3078SOL    HW120870   3.245   0.144   5.608  0.5418  0.6856 -0.2788
 3078SOL    HW220871   3.262   0.006   5.648 -1.4452 -1.2348  1.9740
 3079SOL     OW20872   4.291   1.146   5.417  0.2845  0.5665  0.0894
 3079SOL    HW120873   4.332   1.164   5.332 -0.5869  1.4945 -0.1252
 3079SOL    HW220874   4.366   1.142   5.476  1.3417  2.3171 -1.1492
 3080SOL     OW20875   3.841   0.452   6.974 -0.2052  0.1258  0.3961
 3080SOL    HW120876   3.869   0.399   6.899 -0.4579 -2.6399  2.2462
 3080SOL    HW220877   3.806   0.379   7.026  1.3142 -0.8868  0.0228
 3081SOL     OW20878   0.062   0.904   3.857  0.1662  0.1112  0.1627
 3081SOL    HW120879   0.053   0.937   3.768 -0.6951  0.0952  0.2485
 3081SOL    HW220880   0.066   0.809   3.846  1.5994  0.0396  1.2587
 3082SOL     OW20881   4.674   0.112  16.089  0.1749 -0.3455 -0.4409
 3082SOL    HW120882   0.008   0.170  16.121  0.9538 -1.2837 -0.4315
 3082SOL    HW220883   4.636   0.087  16.173 -0.9482  0.5042 -0.7033
 3083SOL     OW20884   3.372   3.877   4.073  0.1615  0.2964 -0.3822
 3083SOL    HW120885   3.288   3.918   4.095 -0.2702  0.3073 -2.0531
 3083SOL    HW220886   3.430   3.949   4.098 -1.5778  0.8116  2.1313
 3084SOL     OW20887   3.060   0.335   8.467  0.0957 -0.6069 -0.1822
 3084SOL    HW120888   3.020   0.268   8.523  2.1966 -0.9182  0.9660
 3084SOL    HW220889   2.979   0.384   8.459 -0.8690 -2.4406 -1.6257
 3085SOL     OW20890   4.194   4.449  13.790  0.2986  0.0725  0.4762
 3085SOL    HW120891   4.230   4.446  13.701 -2.9701  1.0822 -0.8677
 3085SOL    HW220892   4.247   4.380  13.830 -1.2796 -0.0450  2.3561
 3086SOL     OW20893   2.054   1.980   2.442 -0.0225 -0.4190  0.2682
 3086SOL    HW120894   2.107   1.953   2.368  1.4876  1.7722  0.5632
 3086SOL    HW220895   2.103   1.929   2.506 -1.1568 -0.5514  1.0333
 3087SOL     OW20896   2.871   0.373   6.911 -0.6412  0.4682  0.6603
 3087SOL    HW120897   2.847   0.400   7.000 -0.6380  0.2598  0.7246
 3087SOL    HW220898   2.966   0.369   6.923 -0.7182 -1.0901  0.7239
 3088SOL     OW20899   3.138   3.958   5.008 -0.5358 -0.0516  0.4531
 3088SOL    HW120900   3.144   4.051   4.989 -0.3254 -0.0691  0.4367
 3088SOL    HW220901   3.150   3.922   4.920 -0.1608 -0.8270  0.8190
 3089SOL     OW20902   2.252   2.972   1.487  0.4422  0.4871 -0.7008
 3089SOL    HW120903   2.247   2.932   1.574 -1.8496 -1.2591 -1.6261
 3089SOL    HW220904   2.327   3.030   1.497  2.3113 -2.2654  1.3578
 3090SOL     OW20905   0.343   0.425   7.238  0.4342 -0.1678 -0.1684
 3090SOL    HW120906   0.425   0.470   7.216 -1.3327  2.7693 -0.6982
 3090SOL    HW220907   0.304   0.403   7.153  1.5210 -0.0402 -0.7031
 3091SOL     OW20908   4.624   1.427   0.614  0.2851  0.0299  0.0511
 3091SOL    HW120909   4.594   1.336   0.615 -0.6326  0.3422  0.6606
 3091SOL    HW220910   4.632   1.442   0.708 -0.6266 -0.3914  0.1954
 3092SOL     OW20911   2.709   2.574   5.612  0.2616 -0.3161  0.2294
 3092SOL    HW120912   2.757   2.657   5.612 -0.1798 -0.0613 -1.1842
 3092SOL    HW220913   2.627   2.607   5.575 -0.1797 -1.1222  0.4985
 3093SOL     OW20914   0.487   4.620   3.201 -0.3032  0.3723  0.0214
 3093SOL    HW120915   0.407   4.575   3.229  0.1606 -2.0058 -2.4282
 3093SOL    HW220916   0.552   4.554   3.175 -0.4771 -0.1471  0.9177
 3094SOL     OW20917   4.482   0.664  10.050  0.2648  0.4086 -0.0805
 3094SOL    HW120918   4.526   0.660  10.136  3.0455  1.2201 -1.4642
 3094SOL    HW220919   4.397   0.624  10.065 -0.2061  1.6172  0.4536
 3095SOL     OW20920   3.295   0.520  16.226 -0.5029  0.1507  0.1195
 3095SOL    HW120921   3.299   0.616  16.228 -0.7489  0.1582  0.2644
 3095SOL    HW220922   3.380   0.498  16.263  0.4689 -0.3856 -2.4183
 3096SOL     OW20923   4.437   4.507   3.962  0.2114  0.1409  0.3298
 3096SOL    HW120924   4.343   4.505   3.980  0.4463  2.6628  1.7914
 3096SOL    HW220925   4.466   4.416   3.971 -0.7414 -0.1676  0.3034
 3097SOL     OW20926   1.924   0.539  14.051 -0.1626 -0.2668  0.2111
 3097SOL    HW120927   1.864   0.570  14.119  0.3676 -1.7786  1.3758
 3097SOL    HW220928   1.879   0.563  13.970  1.2904  0.6515 -0.3254
 3098SOL     OW20929   0.638   1.713   4.335  0.0906  0.4478  0.5746
 3098SOL    HW120930   0.551   1.697   4.372  0.0880  0.2793  0.4942
 3098SOL    HW220931   0.694   1.715   4.413  0.5123  1.4358  0.2359
 3099SOL     OW20932   1.219   4.380   3.580 -0.1433  0.1715 -0.2468
 3099SOL    HW120933   1.215   4.331   3.662  1.6774 -1.3208 -1.0484
 3099SOL    HW220934   1.164   4.452   3.611 -0.5702 -0.7954  1.2360
 3100SOL     OW20935   2.124   1.101  14.224 -0.1060 -0.1214  0.4513
 3100SOL    HW120936   2.083   1.072  14.142  3.0726 -0.2060 -1.0922
 3100SOL    HW220937   2.186   1.033  14.252 -0.1017  0.0616  0.8881
 3101SOL     OW20938   1.856   2.900   2.243 -0.4566  0.4948 -0.2332
 3101SOL    HW120939   1.783   2.884   2.303 -0.7623 -0.7157 -0.9258
 3101SOL    HW220940   1.932   2.926   2.296  0.3785 -0.5051 -0.9274
 3102SOL     OW20941   3.679   2.227   4.298 -0.1405 -1.1187 -0.2881
 3102SOL    HW120942   3.706   2.143   4.335  1.6410 -0.9206 -1.1213
 3102SOL    HW220943   3.598   2.190   4.265  0.8526 -3.2503 -0.3404
 3103SOL     OW20944   2.041   1.668   3.181  0.1132  0.0283 -0.4142
 3103SOL    HW120945   1.989   1.695   3.257 -0.4391  1.2537 -1.2275
 3103SOL    HW220946   2.095   1.747   3.180  1.3903 -0.8465 -1.4397
 3104SOL     OW20947   2.660   3.499   1.563 -0.0376 -0.1752  0.3221
 3104SOL    HW120948   2.593   3.556   1.526 -0.0763  0.2822  1.0957
 3104SOL    HW220949   2.665   3.437   1.491  1.2617  0.4685 -0.1357
 3105SOL     OW20950   1.268   2.301   1.016  0.0185  0.3348  0.4142
 3105SOL    HW120951   1.329   2.245   1.065 -1.0626 -2.7530 -1.7937
 3105SOL    HW220952   1.185   2.270   1.051 -1.1771  0.7191 -2.1120
 3106SOL     OW20953   0.059   1.551   5.271 -0.3717  0.7285  0.5869
 3106SOL    HW120954   0.075   1.462   5.302  1.5358  1.5431  1.9645
 3106SOL    HW220955   0.021   1.590   5.349 -0.7909  1.6899 -0.1001
 3107SOL     OW20956   1.524   2.846   9.868  0.0294 -0.0851 -0.3141
 3107SOL    HW120957   1.541   2.755   9.892 -2.0370 -0.9209 -2.0535
 3107SOL    HW220958   1.465   2.838   9.794 -0.7753  0.9357  0.2099
 3108SOL     OW20959   3.041   1.906   8.442 -0.0725  0.2091  0.0951
 3108SOL    HW120960   3.074   1.995   8.456  3.0072 -0.2883 -3.7397
 3108SOL    HW220961   2.953   1.914   8.478  0.6678  1.1087  1.6835
 3109SOL     OW20962   4.160   3.029   2.383  0.2839  0.2257 -0.0848
 3109SOL    HW120963   4.158   3.107   2.327 -0.0131  0.3128  0.0509
 3109SOL    HW220964   4.164   3.084   2.461  1.7126  2.0905 -1.4750
 3110SOL     OW20965   0.864   4.512   8.095  0.1991 -0.5873  0.6463
 3110SOL    HW120966   0.888   4.443   8.157  0.7937 -1.4498 -0.5541
 3110SOL    HW220967   0.898   4.595   8.127 -1.2089 -0.5669  2.0854
 3111SOL     OW20968   1.582   3.458   5.378 -0.7668 -0.1726  0.1824
 3111SOL    HW120969   1.615   3.368   5.378 -0.9546 -0.2403  0.4466
 3111SOL    HW220970   1.650   3.505   5.427  0.6606  1.3551 -3.2574
 3112SOL     OW20971   0.964   0.949  12.520 -0.2254  0.2441  0.0345
 3112SOL    HW120972   0.982   0.882  12.455  0.3917  1.1093 -0.6919
 3112SOL    HW220973   1.032   1.016  12.512  0.3924 -0.4820 -0.7326
 3113SOL     OW20974   3.761   4.476   1.368  0.2600 -0.3137  0.2154
 3113SOL    HW120975   3.806   4.490   1.285  0.5865 -2.3922  0.0352
 3113SOL    HW220976   3.797   4.555   1.408  1.4332 -0.9564  0.4276
 3114SOL     OW20977   0.402   1.346   7.659 -0.0232 -0.4399 -0.2314
 3114SOL    HW120978   0.397   1.420   7.718  0.9060 -1.3244  0.9670
 3114SOL    HW220979   0.357   1.375   7.580  1.8245 -2.0717 -1.9048
 3115SOL     OW20980   1.889   1.918   4.727 -0.1147 -1.0075  0.5879
 3115SOL    HW120981   1.927   1.854   4.667  1.0484 -0.7184  1.0075
 3115SOL    HW220982   1.815   1.951   4.676  0.4839  2.5331  2.0131
 3116SOL     OW20983   1.981   1.223  15.914  0.8288  0.1110 -0.1333
 3116SOL    HW120984   1.961   1.292  15.851 -1.0348  0.4495  0.8318
 3116SOL    HW220985   2.026   1.161  15.857  0.4144 -0.7259  0.4466
 3117SOL     OW20986   2.968   3.657  17.149 -0.4343 -0.5397 -0.0595
 3117SOL    HW120987   2.991   3.648  17.056 -0.1619  0.2007 -0.0583
 3117SOL    HW220988   2.910   3.581  17.158 -2.2903  0.9263  0.2544
 3118SOL     OW20989   0.246   0.650   3.150  0.0736  0.2465  0.4721
 3118SOL    HW120990   0.175   0.681   3.093  0.2702 -0.9819 -0.4400
 3118SOL    HW220991   0.319   0.712   3.144  0.7233 -0.2446  3.1682
 3119SOL     OW20992   4.065   0.362   1.289  0.0234 -0.6649 -0.2104
 3119SOL    HW120993   3.992   0.394   1.236  1.4684 -0.1034 -1.8358
 3119SOL    HW220994   4.070   0.424   1.362 -2.2302  0.8509 -1.3394
 3120SOL     OW20995   1.809   4.567   4.429  0.1954  0.3331  0.0033
 3120SOL    HW120996   1.879   4.631   4.418 -1.5678  1.9243 -1.8511
 3120SOL    HW220997   1.818   4.562   4.525 -1.8428  0.7208  0.2226
 3121SOL     OW20998   1.101   2.171   2.568 -0.2837 -0.1466 -0.2155
 3121SOL    HW120999   1.169   2.104   2.560 -0.4118 -0.3376  0.2851
 3121SOL    HW221000   1.019   2.126   2.550 -0.1530 -1.1737  1.8031
 3122SOL     OW21001   4.047   1.189  11.224  0.2490 -0.2297 -0.1289
 3122SOL    HW121002   4.094   1.140  11.157  0.1696 -1.6764  0.8827
 3122SOL    HW221003   4.115   1.205  11.289  0.0469  1.4448 -0.3307
 3123SOL     OW21004   2.859   2.963   4.778 -0.2276  0.6761 -0.6453
 3123SOL    HW121005   2.870   3.028   4.848  1.3437 -0.4066  0.1279
 3123SOL    HW221006   2.835   2.889   4.834 -3.8181  0.3539 -2.6468
 3124SOL     OW21007   3.358   4.426   4.308 -0.1790  0.1044 -0.0204
 3124SOL    HW121008   3.418   4.437   4.235  0.8255 -0.5964  0.7056
 3124SOL    HW221009   3.340   4.331   4.311 -1.7431  0.4043  0.3055
 3125SOL     OW21010   2.065   0.641   1.603  0.3909 -0.2069 -0.0562
 3125SOL    HW121011   2.124   0.573   1.634 -0.7408 -1.0303  0.3096
 3125SOL    HW221012   2.094   0.657   1.513 -0.6312  0.1249 -0.3252
 3126SOL     OW21013   3.184   1.007  11.068  1.0871  0.3879 -0.3763
 3126SOL    HW121014   3.230   1.050  11.140 -1.3939  0.7636  0.9561
 3126SOL    HW221015   3.144   1.084  11.028 -2.2803 -0.6572  0.9810
 3127SOL     OW21016   1.963   2.411   4.112 -0.2966  0.7684  0.3297
 3127SOL    HW121017   1.932   2.496   4.082  0.7087  0.3904 -1.7922
 3127SOL    HW221018   2.049   2.406   4.071 -1.1528  1.6180 -1.5875
 3128SOL     OW21019   3.167   1.510   5.171  0.5738 -0.0185 -0.1894
 3128SOL    HW121020   3.107   1.450   5.126  0.3497 -0.4940  0.7298
 3128SOL    HW221021   3.127   1.500   5.258  0.5760 -4.2163 -0.6694
 3129SOL     OW21022   0.423   3.147   8.037  0.6714  0.4592 -0.3446
 3129SOL    HW121023   0.450   3.108   8.119 -2.4462  2.7036  1.7527
 3129SOL    HW221024   0.359   3.217   8.050  0.5590  0.3571 -0.3450
 3130SOL     OW21025   1.607   0.034   1.256 -0.1722 -0.1653  0.1749
 3130SOL    HW121026   1.576   0.115   1.296 -1.1249 -0.5531  0.2181
 3130SOL    HW221027   1.524   4.726   1.237 -1.3333  1.3246  1.9714
 3131SOL     OW21028   4.653   3.867   5.100 -0.2093 -0.7564  0.3740
 3131SOL    HW121029   0.009   3.890   5.084  0.2673 -1.0618  2.5341
 3131SOL    HW221030   4.636   3.777   5.072 -2.9756 -0.5233  1.2392
 3132SOL     OW21031   0.445   3.631   3.680 -0.4546 -0.0241  0.2656
 3132SOL    HW121032   0.481   3.719   3.693  0.7707 -0.6442  1.0718
 3132SOL    HW221033   0.446   3.597   3.769  2.3971  1.4271  0.8006
 3133SOL     OW21034   1.913   0.239   5.720  0.1332  0.1697 -0.7478
 3133SOL    HW121035   1.961   0.171   5.767 -1.2135 -0.4413 -0.2437
 3133SOL    HW221036   1.977   0.308   5.703 -0.7577  0.9308 -1.0596
 3134SOL     OW21037   3.529   3.226   9.404 -0.2078 -0.4932 -0.5074
 3134SOL    HW121038   3.515   3.290   9.473  2.8347  1.0111 -1.3160
 3134SOL    HW221039   3.621   3.201   9.397  0.1435  0.7460 -0.3022
 3135SOL     OW21040   2.916   1.431   5.952  0.1126 -0.2318 -0.4726
 3135SOL    HW121041   2.989   1.375   5.925  0.7915 -0.6465  2.1810
 3135SOL    HW221042   2.845   1.367   5.945  1.4427 -2.1390  3.3326
 3136SOL     OW21043   4.055   2.496   6.574  0.4017  0.2535  0.1804
 3136SOL    HW121044   3.971   2.498   6.528  0.0716  0.5324  0.8026
 3136SOL    HW221045   4.044   2.413   6.620 -0.5528 -0.5883 -1.5678
 3137SOL     OW21046   1.176   4.179   1.495 -0.3998  0.7025  0.0755
 3137SOL    HW121047   1.142   4.133   1.418  0.8557 -2.2540  1.2977
 3137SOL    HW221048   1.141   4.135   1.572 -1.8204  0.2303 -0.8378
 3138SOL     OW21049   0.884   0.839  11.059 -0.4013  0.8326 -0.2430
 3138SOL    HW121050   0.793   0.853  11.086 -0.1733 -1.3772  1.6559
 3138SOL    HW221051   0.933   0.854  11.140  0.2817 -0.1340 -0.4823
 3139SOL     OW21052   2.883   0.476  17.556  0.4233  0.4532  0.2359
 3139SOL    HW121053   2.941   0.553  17.557  0.6856  0.2680 -0.7423
 3139SOL    HW221054   2.849   0.472  17.645  1.3635 -0.9000  0.5337
 3140SOL     OW21055   3.001   0.099   3.655 -0.1513  0.1729 -0.5482
 3140SOL    HW121056   2.954   0.173   3.694  1.8493  0.4262  1.3460
 3140SOL    HW221057   3.019   0.141   3.571 -0.5112 -1.5732 -1.5058
 3141SOL     OW21058   2.293   2.562   0.023  0.0837 -0.4943 -0.2962
 3141SOL    HW121059   2.267   2.598   0.107 -0.2624  0.6464 -0.8917
 3141SOL    HW221060   2.357   2.500   0.059  0.9254  0.7179  0.2822
 3142SOL     OW21061   3.939   4.707   2.212 -0.1539  0.2760 -0.8525
 3142SOL    HW121062   3.931   0.047   2.272 -3.1718 -0.5840 -0.2144
 3142SOL    HW221063   3.848   4.694   2.188  0.0522 -0.0140 -1.4672
 3143SOL     OW21064   4.536   2.650   4.057  0.0004 -0.5612  0.0242
 3143SOL    HW121065   4.444   2.640   4.036 -0.7473 -1.6477  3.8673
 3143SOL    HW221066   4.557   2.744   4.052 -1.3428 -0.2134  1.0837
 3144SOL     OW21067   1.386   3.802   1.947 -0.1585 -0.3759  0.4741
 3144SOL    HW121068   1.313   3.741   1.956  0.6289 -1.3299  0.3070
 3144SOL    HW221069   1.345   3.882   1.980  1.5376  0.2607  1.0483
 3145SOL     OW21070   4.422   2.774   0.733 -0.0931 -0.3708 -0.3216
 3145SOL    HW121071   4.342   2.722   0.737 -0.1850 -0.1533  0.7416
 3145SOL    HW221072   4.386   2.863   0.735  0.9681  0.0334  0.6003
 3146SOL     OW21073   3.346   2.747   7.357 -0.2086 -0.2914 -0.2717
 3146SOL    HW121074   3.291   2.825   7.346 -1.5580 -1.2196 -0.0440
 3146SOL    HW221075   3.347   2.714   7.447 -0.4292  3.2273  1.0339
 3147SOL     OW21076   3.946   1.091   5.737 -0.1713  0.2357  0.1412
 3147SOL    HW121077   3.905   1.064   5.655 -3.2738  1.0075  1.4204
 3147SOL    HW221078   4.003   1.158   5.699  2.3948 -1.7278  0.4999
 3148SOL     OW21079   3.822   0.226  13.377 -0.0771  0.3897  0.0584
 3148SOL    HW121080   3.907   0.246  13.416  0.4614  0.9935 -1.4148
 3148SOL    HW221081   3.766   0.301  13.395 -0.0674  0.1427  1.1327
 3149SOL     OW21082   3.714   2.787  10.669  0.6489  0.3255 -0.4501
 3149SOL    HW121083   3.654   2.834  10.610 -0.9314 -3.0273 -1.5301
 3149SOL    HW221084   3.659   2.787  10.747  0.4660 -0.7837 -0.5732
 3150SOL     OW21085   4.302   4.345   0.021 -0.2557 -0.7397  0.0850
 3150SOL    HW121086   4.221   4.313   0.060 -1.2400 -1.1756 -2.3325
 3150SOL    HW221087   4.347   4.265  17.731  1.8210  0.6382 -0.4993
 3151SOL     OW21088   2.327   3.345   4.377  0.1051  0.8662 -0.3069
 3151SOL    HW121089   2.266   3.273   4.397  1.9395 -0.4083  0.7596
 3151SOL    HW221090   2.409   3.298   4.396 -1.0996 -1.1531 -0.0594
 3152SOL     OW21091   1.912   4.421   7.049 -0.6220  0.1041 -0.2142
 3152SOL    HW121092   1.921   4.455   7.138  0.7265  1.7279 -0.9653
 3152SOL    HW221093   2.003   4.407   7.023 -0.2478  0.4984  0.8827
 3153SOL     OW21094   2.139   3.677  17.309  0.0737  0.3964  0.2678
 3153SOL    HW121095   2.120   3.735  17.383 -2.0828  0.8207 -0.6221
 3153SOL    HW221096   2.125   3.594  17.354  0.1513  0.4316  0.3587
 3154SOL     OW21097   2.600   0.994  16.675 -0.4202  0.7566  0.5187
 3154SOL    HW121098   2.633   1.015  16.763  2.1770  0.3156 -0.3334
 3154SOL    HW221099   2.622   1.069  16.620  1.2319 -1.2645 -1.5980
 3155SOL     OW21100   3.511   1.555   9.285 -0.0563  0.0117  0.0736
 3155SOL    HW121101   3.594   1.512   9.305  1.1535  1.1228 -2.5020
 3155SOL    HW221102   3.534   1.643   9.317  0.5666  0.3177 -1.1923
 3156SOL     OW21103   1.553   0.774   5.010 -0.0671  0.0026 -0.0441
 3156SOL    HW121104   1.584   0.752   5.098  1.3471  1.3905 -0.2019
 3156SOL    HW221105   1.466   0.735   5.012 -0.1175  0.1644  0.6442
 3157SOL     OW21106   3.835   2.855   7.769 -0.7001 -0.5128  0.4704
 3157SOL    HW121107   3.919   2.884   7.732 -0.0101  0.8538  3.1059
 3157SOL    HW221108   3.838   2.765   7.735 -2.2423 -0.0593 -0.8549
 3158SOL     OW21109   2.418   0.191   1.030  0.1051  0.5162 -0.1716
 3158SOL    HW121110   2.427   0.283   1.005  0.4946  0.9151  1.4455
 3158SOL    HW221111   2.445   0.162   0.942 -1.8829 -1.0092 -0.2637
 3159SOL     OW21112   4.616   0.410   5.582  0.5344  0.2187 -0.6884
 3159SOL    HW121113   4.669   0.483   5.613  0.1474 -0.5913  1.9857
 3159SOL    HW221114   4.662   0.336   5.623 -0.6113  0.4141  0.9647
 3160SOL     OW21115   2.848   2.698   8.256  0.2612  0.0007  0.5102
 3160SOL    HW121116   2.914   2.747   8.207  0.3093  1.2265  1.7886
 3160SOL    HW221117   2.895   2.615   8.255 -0.6320 -0.4799 -1.0880
 3161SOL     OW21118   3.794   3.764   4.433  0.4465  0.0863  0.4832
 3161SOL    HW121119   3.724   3.710   4.469  1.6648 -1.6969  0.1752
 3161SOL    HW221120   3.815   3.812   4.513 -0.5857  0.0911  0.7450
 3162SOL     OW21121   2.496   0.943  10.033  0.1027  0.4015  0.0259
 3162SOL    HW121122   2.449   0.979   9.958  0.3458  2.1629  0.7025
 3162SOL    HW221123   2.572   0.904   9.991 -0.5024 -1.1988  0.3916
 3163SOL     OW21124   0.570   2.491   7.979 -0.1151 -0.4056  0.1739
 3163SOL    HW121125   0.521   2.438   8.041 -1.2076  0.7112  0.2724
 3163SOL    HW221126   0.521   2.573   7.982 -2.6405 -1.9615  0.7169
 3164SOL     OW21127   0.965   2.212  11.888 -0.2935 -0.9826 -0.2643
 3164SOL    HW121128   0.906   2.284  11.909  0.6163 -0.5400  0.7214
 3164SOL    HW221129   1.049   2.253  11.906 -1.4485  0.6599  1.3209
 3165SOL     OW21130   0.670   0.027   2.962  0.8911  0.0288  0.1587
 3165SOL    HW121131   0.697   4.694   3.024 -0.5228  0.3531  1.1469
 3165SOL    HW221132   0.629   0.089   3.023 -1.4470 -1.8687  0.4921
 3166SOL     OW21133   1.630   1.516   6.744 -0.1473 -0.2988 -0.3774
 3166SOL    HW121134   1.561   1.568   6.784  0.1441 -1.0687  1.0927
 3166SOL    HW221135   1.591   1.486   6.661 -3.2450  0.5706  0.7692
 3167SOL     OW21136   0.610   2.310   2.453 -0.3168  0.0659  0.5917
 3167SOL    HW121137   0.598   2.400   2.484  0.7742 -0.3887  2.3032
 3167SOL    HW221138   0.672   2.309   2.381 -1.2535 -3.8937 -0.1552
 3168SOL     OW21139   2.392   4.161  16.183 -0.0132 -0.3255  0.3617
 3168SOL    HW121140   2.321   4.098  16.169  0.6315 -0.9257 -0.1691
 3168SOL    HW221141   2.350   4.238  16.146  1.0238  0.1203  0.1298
 3169SOL     OW21142   1.972   1.344   3.776 -0.0851 -0.2115  0.1005
 3169SOL    HW121143   1.975   1.410   3.845 -1.3886  2.2810 -2.2137
 3169SOL    HW221144   1.955   1.391   3.694 -0.5497  2.2857  1.6185
 3170SOL     OW21145   2.876   2.984   3.655  0.1572 -0.3879 -0.1555
 3170SOL    HW121146   2.946   2.932   3.695 -0.9937 -1.7004  0.1505
 3170SOL    HW221147   2.847   2.919   3.591 -0.7574 -1.3344  1.2267
 3171SOL     OW21148   4.316   3.986   8.657 -0.7236  0.8382  0.2710
 3171SOL    HW121149   4.226   4.016   8.669 -0.5935  0.4908  2.1512
 3171SOL    HW221150   4.303   3.900   8.617  2.7696 -0.2640  1.4755
 3172SOL     OW21151   0.752   4.027  12.170 -0.4195  0.0953 -0.1342
 3172SOL    HW121152   0.679   4.068  12.122 -0.8283 -0.3518  0.1038
 3172SOL    HW221153   0.752   4.092  12.241 -0.5848  0.0483 -0.0891
 3173SOL     OW21154   3.652   3.935   3.738  0.2274 -0.6630 -0.2618
 3173SOL    HW121155   3.653   3.984   3.819  1.7353  2.3536 -2.1045
 3173SOL    HW221156   3.628   4.001   3.673  0.5809 -0.0898  0.1937
 3174SOL     OW21157   0.030   4.716   9.974  0.0401 -0.2628 -0.3207
 3174SOL    HW121158   0.002   0.044   9.908  1.6885  0.6350 -0.1480
 3174SOL    HW221159   0.061   4.638   9.927 -0.0213 -1.0628  0.9722
 3175SOL     OW21160   3.471   3.403   7.616 -0.7350 -0.2624  0.2961
 3175SOL    HW121161   3.520   3.418   7.536  0.8388 -0.2157  1.2600
 3175SOL    HW221162   3.379   3.421   7.597  0.0681  2.4857 -0.8940
 3176SOL     OW21163   0.287   0.414   2.744 -0.1776  0.6788 -0.4686
 3176SOL    HW121164   0.362   0.471   2.760  1.7945 -2.0131 -0.1717
 3176SOL    HW221165   0.329   0.331   2.764 -1.3692  0.0505 -0.5729
 3177SOL     OW21166   1.665   1.330   7.603  0.9492 -0.3722 -0.0443
 3177SOL    HW121167   1.676   1.322   7.508  2.0816  0.6084 -0.0025
 3177SOL    HW221168   1.643   1.423   7.615 -0.9973 -0.8694  0.2378
 3178SOL     OW21169   0.410   2.131   6.336  0.4349  0.0132  0.0972
 3178SOL    HW121170   0.497   2.150   6.302 -0.5049  0.8888 -1.7966
 3178SOL    HW221171   0.395   2.042   6.307  0.2709  0.6839 -1.8513
 3179SOL     OW21172   1.528   0.594   4.432  0.3805 -0.3670  0.1732
 3179SOL    HW121173   1.462   0.663   4.429  1.5836  0.7560 -0.5768
 3179SOL    HW221174   1.494   0.522   4.378 -0.4863  1.3754 -1.6106
 3180SOL     OW21175   2.539   3.300   8.139  0.0385 -0.2447 -0.7900
 3180SOL    HW121176   2.531   3.265   8.228 -1.2289  2.9004  0.3145
 3180SOL    HW221177   2.512   3.391   8.149  1.7209  0.4169 -2.1800
 3181SOL     OW21178   4.632   4.189   2.068  0.7049 -0.0333 -0.5121
 3181SOL    HW121179   4.672   4.170   1.983  0.7914  2.0826 -0.9400
 3181SOL    HW221180   4.649   4.283   2.063 -1.3288  0.4057  0.7602
 3182SOL     OW21181   3.752   4.526  17.709  0.6293  0.3021 -0.1426
 3182SOL    HW121182   3.735   4.529  17.615 -1.4677  1.3612  0.2775
 3182SOL    HW221183   3.734   4.433  17.727 -0.6253  0.4391 -0.6920
 3183SOL     OW21184   4.171   1.393   3.045 -0.1527 -0.0149  0.5360
 3183SOL    HW121185   4.189   1.410   3.137  0.9790 -1.2798  0.5460
 3183SOL    HW221186   4.207   1.465   2.994 -1.9695  0.0149 -0.7345
 3184SOL     OW21187   0.756   3.839   1.070 -0.3732 -0.5245  0.3844
 3184SOL    HW121188   0.674   3.806   1.106  0.4997 -1.9365  1.0786
 3184SOL    HW221189   0.779   3.915   1.124  0.0818 -0.4666  0.1127
 3185SOL     OW21190   0.694   2.590   6.438 -0.3404 -0.7743 -0.1856
 3185SOL    HW121191   0.770   2.556   6.392 -0.1724 -1.5569  0.6806
 3185SOL    HW221192   0.655   2.650   6.373 -0.1209  0.0060  0.4008
 3186SOL     OW21193   0.081   3.092   3.668  0.4370  0.2029 -0.2089
 3186SOL    HW121194   0.164   3.109   3.622  1.1014 -1.0573  0.5276
 3186SOL    HW221195   0.039   3.178   3.669  1.1603  0.5349  3.8531
 3187SOL     OW21196   1.918   4.656   7.555 -0.6191 -0.0152 -0.0619
 3187SOL    HW121197   1.943   0.009   7.582 -1.8272  0.3316 -0.0739
 3187SOL    HW221198   1.999   4.610   7.577  0.4737  2.0895  0.2827
 3188SOL     OW21199   1.201   2.306   9.356  0.2314  0.8257  0.4369
 3188SOL    HW121200   1.154   2.386   9.332 -0.4396 -0.0443 -1.0923
 3188SOL    HW221201   1.279   2.350   9.391  1.3757 -1.4816  0.7403
 3189SOL     OW21202   1.368   2.074   4.016  0.0607  0.2884  0.0405
 3189SOL    HW121203   1.369   1.979   4.003 -2.1446  0.6551 -2.7863
 3189SOL    HW221204   1.462   2.091   4.006 -0.3212  2.0284 -0.5605
 3190SOL     OW21205   1.529   3.924   6.285 -0.6797 -0.3911 -0.0952
 3190SOL    HW121206   1.554   3.867   6.357  2.2445  0.6853 -0.2180
 3190SOL    HW221207   1.504   4.000   6.337  1.1036  0.3164 -0.2669
 3191SOL     OW21208   1.964   0.336   2.683  0.4704  0.0383  0.0727
 3191SOL    HW121209   2.055   0.327   2.654  0.1428 -1.9862 -0.3460
 3191SOL    HW221210   1.930   0.295   2.603  0.6698  1.4474 -0.7296
 3192SOL     OW21211   3.810   2.283   3.349  0.4458  0.0915  0.3392
 3192SOL    HW121212   3.755   2.327   3.415 -0.6519 -0.7814  0.0015
 3192SOL    HW221213   3.758   2.210   3.316  2.2316 -0.4540 -1.2538
 3193SOL     OW21214   3.644   2.512  15.574  0.0053  0.5698  0.1016
 3193SOL    HW121215   3.665   2.425  15.608 -2.4279 -0.4313 -0.9195
 3193SOL    HW221216   3.644   2.499  15.479 -0.7789  0.5848  0.0942
 3194SOL     OW21217   0.716   0.186   0.130  0.5968  0.3492  0.3739
 3194SOL    HW121218   0.684   0.213   0.044  1.4930  0.5198  0.0947
 3194SOL    HW221219   0.759   0.105   0.104  0.3435  0.1830  0.4744
 3195SOL     OW21220   4.653   3.300   7.910  0.3046  0.3629 -0.2173
 3195SOL    HW121221   0.006   3.295   7.872  0.6388  0.7041  0.4957
 3195SOL    HW221222   4.612   3.225   7.867 -1.6950  0.3418  1.7287
 3196SOL     OW21223   3.160   0.538  11.121  0.2703  0.2640 -0.3551
 3196SOL    HW121224   3.179   0.581  11.205  0.2244 -1.2523  0.4295
 3196SOL    HW221225   3.148   0.616  11.067  0.4429  0.3934 -0.2096
 3197SOL     OW21226   1.366   2.541   5.694  0.3252  0.1383  0.1126
 3197SOL    HW121227   1.327   2.590   5.622 -0.0490  2.8227  2.1064
 3197SOL    HW221228   1.386   2.611   5.757 -3.3287  0.4790  0.9394
 3198SOL     OW21229   4.632   3.042   3.267  0.7650 -0.1169  0.5828
 3198SOL    HW121230   4.711   2.997   3.296  1.2705 -0.3315 -1.1165
 3198SOL    HW221231   4.569   2.970   3.267  0.6917 -0.0543 -1.1183
 3199SOL     OW21232   1.093   2.650   3.655 -0.1067  0.2471  0.4016
 3199SOL    HW121233   1.102   2.580   3.719  0.5527  2.3678  2.6217
 3199SOL    HW221234   0.998   2.658   3.653  0.0436  1.6221 -1.3800
 3200SOL     OW21235   1.279   1.457   2.994  0.2567  0.3880  0.4959
 3200SOL    HW121236   1.264   1.370   3.030  0.8451  0.0305 -0.1097
 3200SOL    HW221237   1.239   1.456   2.907  0.2647  1.8444  0.4783
 3201SOL     OW21238   1.146   0.053  10.446  0.3466 -0.1721  0.4198
 3201SOL    HW121239   1.099   0.136  10.446  1.8722  0.7024  0.9219
 3201SOL    HW221240   1.106   0.015  10.524 -0.5743  0.4806  0.2556
 3202SOL     OW21241   1.212   3.063  12.033  0.1293  0.4052  0.3608
 3202SOL    HW121242   1.196   3.020  11.948 -1.4544 -0.1144  0.9150
 3202SOL    HW221243   1.149   3.025  12.093 -0.5221 -0.6930 -1.0027
 3203SOL     OW21244   2.916   4.082  15.831  1.0742  0.2064  0.0164
 3203SOL    HW121245   2.866   4.154  15.792  0.5478 -0.0320  0.2455
 3203SOL    HW221246   2.850   4.016  15.855  1.8987 -0.6352 -0.0292
 3204SOL     OW21247   3.753   0.843   0.280  0.7695  0.0419  0.1313
 3204SOL    HW121248   3.665   0.875   0.295 -0.0483 -2.1779  0.1306
 3204SOL    HW221249   3.725   0.783   0.210  0.6235  1.0896 -0.7091
 3205SOL     OW21250   3.233   2.810   8.446  0.2475  0.8031  0.1551
 3205SOL    HW121251   3.202   2.848   8.364  0.0525  1.8631  0.7153
 3205SOL    HW221252   3.155   2.758   8.467  0.6609  0.2844  0.4348
 3206SOL     OW21253   0.399   0.899   1.361  0.5414  0.3435 -0.2477
 3206SOL    HW121254   0.457   0.827   1.335 -0.4010 -0.8375  0.9480
 3206SOL    HW221255   0.322   0.871   1.312  1.4028 -1.4441 -0.5717
 3207SOL     OW21256   3.231   4.364   5.382  0.0600  0.0035 -0.0678
 3207SOL    HW121257   3.137   4.369   5.400  0.2581 -0.9735  1.2412
 3207SOL    HW221258   3.254   4.294   5.443 -0.7218 -0.0630  0.1610
 3208SOL     OW21259   3.862   4.663   3.492 -0.0924  0.5429 -1.0289
 3208SOL    HW121260   3.955   4.655   3.514 -0.6793 -0.6274  1.0150
 3208SOL    HW221261   3.852   0.021   3.513  1.0785  0.5972 -0.7070
 3209SOL     OW21262   2.930   1.124  11.388  0.5652 -0.1337  0.0477
 3209SOL    HW121263   2.966   1.097  11.304  1.8728 -2.0695  1.2384
 3209SOL    HW221264   2.899   1.039  11.420 -1.8357  0.8158  0.2377
 3210SOL     OW21265   2.471   1.587   1.958 -0.1749 -0.2721 -0.0417
 3210SOL    HW121266   2.491   1.496   1.980  0.3411  0.2099  1.4334
 3210SOL    HW221267   2.388   1.587   1.910  1.2189  0.9662 -2.5045
 3211SOL     OW21268   0.703   3.255   2.969 -0.4676 -0.1013  0.1422
 3211SOL    HW121269   0.696   3.167   3.005  0.2729 -0.0112  0.5110
 3211SOL    HW221270   0.695   3.309   3.048  0.5291  0.5366 -0.1979
 3212SOL     OW21271   3.413   0.475   9.508  0.0915  0.2467 -0.2215
 3212SOL    HW121272   3.450   0.391   9.536 -0.7175  0.0738  0.3154
 3212SOL    HW221273   3.374   0.500   9.591  0.1954 -1.4711  0.3448
 3213SOL     OW21274   0.131   2.443   1.922  0.0393  0.0799  0.4034
 3213SOL    HW121275   0.216   2.453   1.879 -2.0517  2.5440 -3.1187
 3213SOL    HW221276   0.147   2.435   2.016 -3.8103  1.8404  1.2078
 3214SOL     OW21277   0.359   0.159  14.120  0.0796 -0.7354 -0.2337
 3214SOL    HW121278   0.424   0.158  14.049 -0.6135 -0.6745 -0.8648
 3214SOL    HW221279   0.298   0.230  14.102 -2.0682 -2.3737  0.7177
 3215SOL     OW21280   4.599   0.810   6.433 -0.2846  0.0042 -0.4989
 3215SOL    HW121281   4.631   0.887   6.481 -2.6162  0.6398  0.0399
 3215SOL    HW221282   4.614   0.736   6.493 -1.0470  0.7893  0.6644
 3216SOL     OW21283   3.282   2.544   7.753 -0.6095  0.3699  0.3038
 3216SOL    HW121284   3.369   2.582   7.765 -0.7976  1.2668 -1.2866
 3216SOL    HW221285   3.294   2.497   7.671  1.6030  2.4601 -0.5481
 3217SOL     OW21286   2.736   4.640   1.669  0.8070 -0.1767  0.0263
 3217SOL    HW121287   2.797   4.679   1.732  1.3894  1.9017 -1.7992
 3217SOL    HW221288   2.692   4.721   1.641  0.6270  0.0533  0.9868
 3218SOL     OW21289   2.359   1.039   7.236 -0.1496  0.0467 -0.5000
 3218SOL    HW121290   2.335   1.125   7.202 -1.1892 -1.2515 -3.0672
 3218SOL    HW221291   2.286   0.981   7.212 -0.0190 -0.7845  1.1258
 3219SOL     OW21292   0.060   4.692   4.750  0.2046 -0.3374  0.0335
 3219SOL    HW121293   0.123   4.724   4.686  0.1946 -1.7438 -0.6918
 3219SOL    HW221294   0.115   4.690   4.828  0.0762  1.8198  0.1838
 3220SOL     OW21295   2.720   3.643   1.006  0.1364 -0.0767 -0.2017
 3220SOL    HW121296   2.650   3.578   1.009 -2.6883  2.9996  0.2421
 3220SOL    HW221297   2.686   3.705   0.942 -1.8844 -1.1109 -0.1548
 3221SOL     OW21298   4.556   3.183   8.142 -0.1932  1.0841  0.4915
 3221SOL    HW121299   4.595   3.226   8.066  0.6625 -0.2256  0.2068
 3221SOL    HW221300   4.584   3.092   8.130 -0.2880  0.9315  1.4466
 3222SOL     OW21301   0.295   0.692   2.145 -0.3602 -0.3909 -0.9788
 3222SOL    HW121302   0.365   0.645   2.192  1.3136 -0.2037 -3.2939
 3222SOL    HW221303   0.348   0.719   2.071  2.0551 -0.7711  0.5956
 3223SOL     OW21304   2.546   2.184   1.061 -0.0054  0.4388 -0.3361
 3223SOL    HW121305   2.517   2.111   1.008 -0.9277  0.2844  0.3796
 3223SOL    HW221306   2.603   2.139   1.123 -0.1137  3.5777  2.0940
 3224SOL     OW21307   2.763   0.566  14.744  0.0191  0.0023  0.5246
 3224SOL    HW121308   2.709   0.644  14.748 -1.9530 -1.4153  1.6901
 3224SOL    HW221309   2.780   0.548  14.836 -2.1154 -1.0929  0.6936
 3225SOL     OW21310   2.724   4.280   0.218 -0.2490  0.0518  0.0167
 3225SOL    HW121311   2.800   4.255   0.271 -0.0997 -1.2380 -0.8222
 3225SOL    HW221312   2.756   4.265   0.129  1.6939  1.6084  0.4516
 3226SOL     OW21313   3.568   3.253   5.735  0.1446  0.1102 -1.0132
 3226SOL    HW121314   3.655   3.290   5.753  0.0473 -0.0390 -0.2131
 3226SOL    HW221315   3.539   3.321   5.674 -2.0199  0.2365  0.1316
 3227SOL     OW21316   2.429   3.404   8.419  0.1646 -0.7057 -0.7398
 3227SOL    HW121317   2.455   3.407   8.511  1.3140  3.2959 -1.1986
 3227SOL    HW221318   2.351   3.459   8.411  0.4995 -0.4904 -2.5936
 3228SOL     OW21319   4.632   1.315   5.248 -0.0090 -0.6017  0.3639
 3228SOL    HW121320   4.548   1.288   5.213  0.6901 -3.6867  1.0947
 3228SOL    HW221321   4.640   1.403   5.210 -1.7847  0.2451  1.9330
 3229SOL     OW21322   0.559   0.709   9.368  0.3853 -0.0118 -0.1397
 3229SOL    HW121323   0.588   0.686   9.456 -0.5631 -1.1177 -0.1161
 3229SOL    HW221324   0.574   0.628   9.320  1.1520  1.3741 -2.2012
 3230SOL     OW21325   2.271   2.724   9.627  0.2879 -0.1213 -0.1163
 3230SOL    HW121326   2.346   2.667   9.611  0.8630 -0.0433  2.2809
 3230SOL    HW221327   2.308   2.752   9.711 -2.6123  1.6043  0.5799
 3231SOL     OW21328   4.442   0.523   8.652  0.0958 -0.0249 -0.3128
 3231SOL    HW121329   4.506   0.487   8.590  0.3707  1.4435 -0.8947
 3231SOL    HW221330   4.448   0.445   8.706  0.4209 -0.1072 -0.4651
 3232SOL     OW21331   4.602   3.308  14.806 -0.6591  0.0698 -0.4671
 3232SOL    HW121332   4.633   3.231  14.758 -2.5828  0.1602 -1.8466
 3232SOL    HW221333   4.605   3.367  14.731 -1.3449  0.6436 -0.0461
 3233SOL     OW21334   0.788   2.462   3.890 -0.0174 -0.0908 -0.1423
 3233SOL    HW121335   0.856   2.398   3.870  0.8208  0.3375  1.2937
 3233SOL    HW221336   0.777   2.450   3.984  0.5081 -0.9709 -0.1907
 3234SOL     OW21337   3.826   4.021   4.572  0.1610 -0.4274 -0.2287
 3234SOL    HW121338   3.751   4.080   4.583  2.1750  2.2622 -0.8205
 3234SOL    HW221339   3.851   4.000   4.662  0.5018 -1.2217 -0.5129
 3235SOL     OW21340   1.056   1.419   9.842  0.1274  0.2284 -0.0507
 3235SOL    HW121341   0.997   1.471   9.787 -1.1099 -0.7910  0.3209
 3235SOL    HW221342   1.064   1.479   9.916  1.1778  1.0998 -0.8653
 3236SOL     OW21343   4.067   3.566  17.554 -0.6355  0.1704  0.3478
 3236SOL    HW121344   4.146   3.527  17.516 -2.7204 -1.5884 -2.1814
 3236SOL    HW221345   4.029   3.500  17.611 -2.2554  0.3381 -0.5311
 3237SOL     OW21346   0.204   1.107  13.370 -0.6329 -0.8628 -0.5381
 3237SOL    HW121347   0.273   1.041  13.378  1.4239  1.5128  1.1415
 3237SOL    HW221348   0.225   1.153  13.289  0.8016  1.1858  1.0014
 3238SOL     OW21349   1.330   4.328   4.363 -0.1320 -0.2671  0.4076
 3238SOL    HW121350   1.369   4.415   4.359  0.2224 -0.4978 -0.9278
 3238SOL    HW221351   1.408   4.273   4.372 -1.5977 -2.2433  1.0629
 3239SOL     OW21352   3.588   3.777  15.797  0.2947  0.2127 -0.3096
 3239SOL    HW121353   3.675   3.751  15.767  0.6733  0.8787  0.2197
 3239SOL    HW221354   3.546   3.693  15.814  1.3684 -0.2660 -0.0291
 3240SOL     OW21355   1.012   2.492   9.683  0.1396  0.4764  0.4583
 3240SOL    HW121356   1.007   2.397   9.671 -1.0375  0.6625 -0.5310
 3240SOL    HW221357   0.997   2.491   9.777  3.0068 -0.4376  0.9097
 3241SOL     OW21358   0.851   1.745   6.595  0.3803 -0.1457 -0.0842
 3241SOL    HW121359   0.863   1.815   6.530  0.4545  1.3595  1.5241
 3241SOL    HW221360   0.858   1.790   6.679  3.5963 -0.1449 -0.3611
 3242SOL     OW21361   0.590   3.438   2.263 -0.6428  0.0644 -0.2646
 3242SOL    HW121362   0.551   3.456   2.349  0.1175 -3.7460  0.8785
 3242SOL    HW221363   0.681   3.422   2.288 -0.2996  1.3774 -0.6770
 3243SOL     OW21364   4.465   3.014   1.707  0.1123  0.6309  0.5101
 3243SOL    HW121365   4.436   3.103   1.727 -0.8141  0.1975  1.0657
 3243SOL    HW221366   4.526   2.997   1.779  1.0898  2.2768  0.0664
 3244SOL     OW21367   0.759   0.471   9.813 -0.0399 -0.3096 -0.4095
 3244SOL    HW121368   0.806   0.395   9.778  0.5298 -0.3029  0.3312
 3244SOL    HW221369   0.735   0.440   9.901  0.1893  0.5345 -0.0504
 3245SOL     OW21370   4.348   2.425   5.947  0.2550  0.1947 -0.0958
 3245SOL    HW121371   4.272   2.368   5.931 -0.4079  2.3839 -4.5512
 3245SOL    HW221372   4.307   2.510   5.937 -2.0896 -0.7471  1.5194
 3246SOL     OW21373   2.676   1.997   5.207  0.1271  0.0183  0.4628
 3246SOL    HW121374   2.651   1.942   5.133  0.2281  1.9503 -0.9941
 3246SOL    HW221375   2.598   1.994   5.264 -0.2283 -2.4353 -0.1878
 3247SOL     OW21376   3.697   1.458   6.104 -0.6069 -0.1033  0.0959
 3247SOL    HW121377   3.760   1.388   6.118  1.2657  1.6507  0.4288
 3247SOL    HW221378   3.648   1.434   6.025  0.2454  0.3892 -0.5785
 3248SOL     OW21379   0.522   2.203  16.829 -0.0432 -0.0884 -0.0481
 3248SOL    HW121380   0.459   2.150  16.876  0.6319 -0.2427  0.6914
 3248SOL    HW221381   0.557   2.145  16.762  0.5033 -0.4638  0.5572
 3249SOL     OW21382   2.971   1.352   3.513  0.3832  0.0341 -0.3453
 3249SOL    HW121383   3.044   1.291   3.506  2.3740  2.5842 -1.9135
 3249SOL    HW221384   3.011   1.428   3.555 -0.4738  0.1062  0.3296
 3250SOL     OW21385   2.779   0.325   7.417  0.4739  0.2919 -0.4793
 3250SOL    HW121386   2.774   0.270   7.495  2.4830 -1.9499 -1.9381
 3250SOL    HW221387   2.693   0.302   7.382  0.5942 -0.7470 -0.0785
 3251SOL     OW21388   2.348   1.360  12.899  0.2323 -0.5139 -0.3119
 3251SOL    HW121389   2.309   1.357  12.811  1.1078 -5.6742 -0.5147
 3251SOL    HW221390   2.379   1.271  12.914  1.6941 -0.0202 -0.3803
 3252SOL     OW21391   4.547   3.607   7.174 -0.4653 -0.2712  0.5160
 3252SOL    HW121392   4.509   3.663   7.106 -1.2572  0.0206  1.1924
 3252SOL    HW221393   4.564   3.522   7.133  1.1523  0.3069  0.0027
 3253SOL     OW21394   0.032   4.182  14.188  0.7795 -0.5786  0.4289
 3253SOL    HW121395   4.678   4.183  14.153  0.8094 -1.3888  0.3390
 3253SOL    HW221396   0.030   4.217  14.277  2.2089 -1.6360  0.8664
 3254SOL     OW21397   1.781   3.499   5.990 -0.2301 -0.1942 -0.3837
 3254SOL    HW121398   1.868   3.492   5.952 -0.2102 -1.8936 -0.0281
 3254SOL    HW221399   1.741   3.574   5.945 -3.0416 -1.5503 -0.1446
 3255SOL     OW21400   1.135   4.062   6.786  0.1272  0.1317 -0.0282
 3255SOL    HW121401   1.088   4.090   6.708  1.5645 -1.5332 -1.5044
 3255SOL    HW221402   1.059   4.050   6.843  0.1456 -0.0309 -0.0373
 3256SOL     OW21403   1.874   1.463  10.995  0.4162 -0.2545 -0.1319
 3256SOL    HW121404   1.965   1.472  11.024 -0.0386  0.1591  1.1458
 3256SOL    HW221405   1.837   1.412  11.066 -0.3780  2.4794  1.4455
 3257SOL     OW21406   0.446   0.964   6.219  0.1039  0.1255 -0.9659
 3257SOL    HW121407   0.443   0.875   6.183 -1.9532 -0.0837 -0.2648
 3257SOL    HW221408   0.404   0.950   6.304  2.5592 -2.1966 -0.1102
 3258SOL     OW21409   4.027   4.579   6.304  0.1371 -0.2804  0.5449
 3258SOL    HW121410   3.953   4.628   6.267  1.2022  0.6861 -0.2814
 3258SOL    HW221411   4.050   4.517   6.235 -2.5950 -2.2127  1.3744
 3259SOL     OW21412   3.121   0.869   4.762 -0.2997 -0.4054 -0.3963
 3259SOL    HW121413   3.033   0.908   4.765  0.5489  1.5183 -0.8155
 3259SOL    HW221414   3.137   0.840   4.852 -1.7938 -0.7780 -0.2456
 3260SOL     OW21415   3.403   4.419   3.133 -0.1057 -0.2051 -0.1828
 3260SOL    HW121416   3.330   4.479   3.114  1.3259  0.4299 -3.7037
 3260SOL    HW221417   3.365   4.344   3.089 -0.7940 -0.9578  1.6931
 3261SOL     OW21418   2.204   0.795  11.002 -0.1114 -0.2376  0.0700
 3261SOL    HW121419   2.258   0.814  11.079  1.5012 -0.3114 -1.0473
 3261SOL    HW221420   2.248   0.719  10.964 -0.2705 -0.5959  0.5870
 3262SOL     OW21421   1.357   0.840   4.394 -0.0143 -0.4520 -0.0158
 3262SOL    HW121422   1.367   0.855   4.489 -2.1312  0.9031 -0.0162
 3262SOL    HW221423   1.408   0.914   4.360  1.6515 -1.3550  0.4665
 3263SOL     OW21424   2.552   4.156   1.563 -0.2697 -0.3566  0.4137
 3263SOL    HW121425   2.471   4.207   1.564  0.3949  0.6655  1.3700
 3263SOL    HW221426   2.608   4.233   1.563 -0.7408 -0.0081 -0.6356
 3264SOL     OW21427   0.095   3.985  16.882  0.2508 -0.1708  0.2415
 3264SOL    HW121428   0.099   3.914  16.947  2.4740  0.8200  1.1895
 3264SOL    HW221429   0.115   3.939  16.800 -1.4456 -0.5595  0.0414
 3265SOL     OW21430   2.035   1.845  13.313 -0.0405  0.0950 -0.2064
 3265SOL    HW121431   1.955   1.887  13.280  1.1725  3.3515  0.9769
 3265SOL    HW221432   2.100   1.846  13.243 -2.0138 -1.0798 -2.0503
 3266SOL     OW21433   3.678   1.198   4.292 -0.3931 -0.3776  0.4644
 3266SOL    HW121434   3.715   1.284   4.274  3.7632 -2.0657  0.8505
 3266SOL    HW221435   3.748   1.135   4.273  0.8641  1.3927 -0.7355
 3267SOL     OW21436   4.060   2.248   7.461  0.0813  0.0396  0.2319
 3267SOL    HW121437   4.056   2.344   7.461  0.2084  0.0433 -0.7782
 3267SOL    HW221438   4.023   2.227   7.375 -0.1435 -1.6057  0.7225
 3268SOL     OW21439   1.615   4.655  11.208 -0.0056 -0.1953 -0.3449
 3268SOL    HW121440   1.626   4.686  11.298 -0.4612  2.2385 -1.1305
 3268SOL    HW221441   1.677   4.583  11.203 -0.0070 -0.2445  0.4053
 3269SOL     OW21442   2.616   4.597  10.289 -1.1243  0.4387 -0.0267
 3269SOL    HW121443   2.523   4.574  10.292 -0.6728 -1.2877  1.7546
 3269SOL    HW221444   2.623   4.692  10.285 -0.8489  0.3612 -1.3299
 3270SOL     OW21445   2.347   0.087   5.947  0.2056  0.3884  0.1773
 3270SOL    HW121446   2.289   0.161   5.934 -0.7775 -0.2647  0.8096
 3270SOL    HW221447   2.331   0.081   6.041  1.4816 -1.2646  0.3076
 3271SOL     OW21448   2.513   3.557  17.652  0.7003 -0.3609 -0.3805
 3271SOL    HW121449   2.516   3.510  17.735 -0.3680  1.6647  0.7911
 3271SOL    HW221450   2.504   3.485  17.589  1.0520  0.5709 -1.5040
 3272SOL     OW21451   3.390   4.011  17.047 -0.2661 -0.5041  0.4813
 3272SOL    HW121452   3.433   3.931  17.076  0.0018 -0.5439 -0.0412
 3272SOL    HW221453   3.450   4.079  17.078 -0.0139 -1.0178  1.1161
 3273SOL     OW21454   0.852   1.514   9.639  0.3731 -0.1061 -0.6654
 3273SOL    HW121455   0.835   1.577   9.569  0.7961  2.2045  1.3542
 3273SOL    HW221456   0.781   1.451   9.626  0.7277 -1.0064  1.7247
 3274SOL     OW21457   1.337   3.126   6.985  0.8193 -0.5313 -0.5324
 3274SOL    HW121458   1.346   3.154   6.893  1.0228  1.0404 -0.0373
 3274SOL    HW221459   1.276   3.189   7.023 -0.7516 -2.8556  0.7489
 3275SOL     OW21460   4.662   0.502   8.914  0.3570  0.0675  0.1633
 3275SOL    HW121461   4.580   0.475   8.874  1.3064 -2.8899  0.2050
 3275SOL    HW221462   4.663   0.597   8.926 -1.7834  0.2588 -1.3418
 3276SOL     OW21463   2.628   3.999   4.033 -0.1753  0.0629  0.5323
 3276SOL    HW121464   2.711   3.956   4.016 -2.1522 -2.8873 -1.5408
 3276SOL    HW221465   2.583   4.001   3.949  1.2613 -3.9346 -0.3302
 3277SOL     OW21466   3.921   3.472  12.439  0.4700  0.3680 -0.4542
 3277SOL    HW121467   3.961   3.505  12.519 -0.1086 -1.2568  0.5037
 3277SOL    HW221468   3.896   3.387  12.475  1.8772 -0.0601 -0.5076
 3278SOL     OW21469   2.707   2.156  15.050 -0.7747 -0.5751 -0.4027
 3278SOL    HW121470   2.689   2.062  15.044 -0.6853 -0.7358  1.8964
 3278SOL    HW221471   2.615   2.181  15.045 -0.3027  1.0092 -1.0467
 3279SOL     OW21472   0.492   3.174  16.790  0.1172  0.2222  0.1381
 3279SOL    HW121473   0.570   3.205  16.743  1.0054 -1.4312  0.4979
 3279SOL    HW221474   0.422   3.230  16.759  0.0586 -0.2302 -0.5360
 3280SOL     OW21475   1.662   1.903  16.991  0.3239 -0.2513  0.2000
 3280SOL    HW121476   1.703   1.989  16.989 -1.1397  0.4425  0.3213
 3280SOL    HW221477   1.630   1.893  17.081 -0.8281 -0.9055 -0.2867
 3281SOL     OW21478   0.424   1.838   8.213  0.3059 -0.0690 -0.3456
 3281SOL    HW121479   0.375   1.918   8.228 -0.9310 -0.9448  0.2659
 3281SOL    HW221480   0.504   1.852   8.162 -1.6868  1.3547 -3.0931
 3282SOL     OW21481   3.582   1.036   5.394 -0.2712  0.5174  0.1764
 3282SOL    HW121482   3.507   1.016   5.450 -0.7203  0.1832 -0.5546
 3282SOL    HW221483   3.555   0.997   5.311 -0.7534 -0.6726  0.8936
 3283SOL     OW21484   2.306   3.697  16.812 -0.2539  0.0390 -0.5282
 3283SOL    HW121485   2.217   3.692  16.776 -0.0361  0.1725 -1.0882
 3283SOL    HW221486   2.300   3.671  16.903 -1.9440  0.2698 -0.5845
 3284SOL     OW21487   2.163   3.196   9.246  0.4190  0.5430  0.0001
 3284SOL    HW121488   2.211   3.122   9.283 -0.5033 -0.2560 -0.3980
 3284SOL    HW221489   2.205   3.206   9.161  1.2152 -0.0083  0.3213
 3285SOL     OW21490   0.878   0.968   8.682  0.0975  0.6906  0.8333
 3285SOL    HW121491   0.943   1.036   8.699 -1.3722  2.4473 -0.5472
 3285SOL    HW221492   0.912   0.897   8.737 -0.9571 -2.0024 -2.0106
 3286SOL     OW21493   0.367   1.495  11.597  0.3123  0.0966 -0.0329
 3286SOL    HW121494   0.279   1.518  11.627 -0.2635 -0.3416 -1.3531
 3286SOL    HW221495   0.355   1.443  11.517 -0.9099 -0.2428  0.3725
 3287SOL     OW21496   3.204   0.614   0.135 -0.0119 -0.3723  0.3152
 3287SOL    HW121497   3.243   0.700   0.124 -0.6615  0.1426  2.0724
 3287SOL    HW221498   3.113   0.633   0.113 -0.3321  1.2681  3.0845
 3288SOL     OW21499   4.010   0.493   8.060 -0.1019  0.0568 -0.0627
 3288SOL    HW121500   3.988   0.454   8.144 -0.7880  2.3513  0.8198
 3288SOL    HW221501   3.966   0.577   8.072 -0.8936 -0.5548  1.3629
 3289SOL     OW21502   0.810   3.587   8.541  0.8480  0.6654  0.0346
 3289SOL    HW121503   0.867   3.573   8.616 -2.0365  1.8650  2.4491
 3289SOL    HW221504   0.824   3.680   8.523 -1.8495  0.7813 -1.4537
 3290SOL     OW21505   4.592   2.762   5.171  0.0659  0.1812 -0.6327
 3290SOL    HW121506   4.664   2.700   5.168  1.0050  1.2255  0.2456
 3290SOL    HW221507   4.634   2.841   5.138  0.5092  1.0264  1.9777
 3291SOL     OW21508   0.999   4.489   0.191 -0.2737 -0.0379 -0.1905
 3291SOL    HW121509   0.965   4.413   0.237 -1.5413  1.4029  1.2511
 3291SOL    HW221510   1.053   4.458   0.118  0.5382 -0.8172  0.7531
 3292SOL     OW21511   0.814   1.366  17.689  0.3820 -0.1034 -0.6415
 3292SOL    HW121512   0.880   1.423  17.730  1.4467 -0.0153 -2.4340
 3292SOL    HW221513   0.729   1.398  17.718 -0.4022 -1.4804 -1.4101
 3293SOL     OW21514   2.237   3.215   1.128  0.0849 -0.4014  0.5510
 3293SOL    HW121515   2.331   3.219   1.108  0.0871 -1.2651  0.3902
 3293SOL    HW221516   2.233   3.271   1.205  0.5837 -0.9034  0.9441
 3294SOL     OW21517   3.106   3.583   6.271  0.5364  0.2128 -0.1737
 3294SOL    HW121518   3.123   3.548   6.358  0.6103 -0.0278 -0.2855
 3294SOL    HW221519   3.060   3.509   6.233 -2.0374  1.4295  0.5864
 3295SOL     OW21520   2.732   3.829  10.609  0.3623 -0.3986  0.4374
 3295SOL    HW121521   2.720   3.857  10.699  2.2020  0.8658  0.2821
 3295SOL    HW221522   2.813   3.778  10.604  0.0919 -0.8501  0.6403
 3296SOL     OW21523   3.277   1.644   4.431  0.2308  0.2153  0.2280
 3296SOL    HW121524   3.344   1.599   4.379  0.3623  0.4573  0.1857
 3296SOL    HW221525   3.328   1.710   4.478 -2.1204  1.9551  0.2809
 3297SOL     OW21526   3.979   0.939  11.434 -0.1658  0.2152 -0.4896
 3297SOL    HW121527   3.973   1.015  11.376  0.0449 -1.0311 -2.1741
 3297SOL    HW221528   4.042   0.884  11.387  1.4886 -0.1206  2.1487
 3298SOL     OW21529   0.760   2.621   1.873  0.3314  0.0462 -0.1054
 3298SOL    HW121530   0.801   2.679   1.937  0.5904 -0.1472 -0.0928
 3298SOL    HW221531   0.826   2.552   1.857  1.3539  0.7624  0.9744
 3299SOL     OW21532   3.980   1.189  16.777 -0.1436  0.0470 -0.2638
 3299SOL    HW121533   3.898   1.229  16.806 -0.3870 -0.3244 -0.4470
 3299SOL    HW221534   3.982   1.224  16.688  0.2615 -0.3669 -0.4183
 3300SOL     OW21535   3.494   4.069   7.630 -0.4435  0.0474  0.2950
 3300SOL    HW121536   3.486   4.159   7.661  0.1498 -0.4272  1.8357
 3300SOL    HW221537   3.536   4.025   7.704 -1.7966 -3.0517 -0.7587
 3301SOL     OW21538   3.599   0.696   4.669  0.3793 -0.4500 -0.6435
 3301SOL    HW121539   3.663   0.743   4.616  1.8837 -1.0111  0.6805
 3301SOL    HW221540   3.532   0.761   4.686  0.1808 -1.6210  3.1009
 3302SOL     OW21541   4.056   4.105   2.468 -0.0600  0.7199  0.4418
 3302SOL    HW121542   4.043   4.013   2.444 -1.9779  0.3783  2.7107
 3302SOL    HW221543   4.135   4.124   2.418 -0.0334  0.5520  0.4185
 3303SOL     OW21544   0.192   3.604   7.670  0.1220 -0.3114  0.1431
 3303SOL    HW121545   0.265   3.600   7.607 -0.9483 -1.6849 -1.0216
 3303SOL    HW221546   0.116   3.612   7.612  0.1665 -0.8805  0.0012
 3304SOL     OW21547   0.043   4.268  10.791 -0.1456  0.4153  0.2961
 3304SOL    HW121548   0.117   4.325  10.774  0.2579 -0.3053 -0.3454
 3304SOL    HW221549   0.089   4.186  10.809 -0.6111  0.9541  3.9627
 3305SOL     OW21550   2.297   0.951  15.036  0.6882 -0.4806  0.0870
 3305SOL    HW121551   2.266   0.986  14.952 -0.1732 -0.1515  0.5442
 3305SOL    HW221552   2.290   0.856  15.027 -1.3781 -0.2952 -0.1212
 3306SOL     OW21553   3.743   4.360   8.748  0.1341  0.9092  0.1738
 3306SOL    HW121554   3.704   4.309   8.820 -1.2802  0.8850 -0.6050
 3306SOL    HW221555   3.663   4.394   8.706 -0.4580 -1.8236 -0.9260
 3307SOL     OW21556   4.420   4.541   6.105 -0.2687 -0.1943  0.3021
 3307SOL    HW121557   4.428   4.455   6.145  2.6227 -0.2112 -0.2913
 3307SOL    HW221558   4.426   4.519   6.012 -1.1917 -0.8373  0.3949
 3308SOL     OW21559   3.121   1.980  15.396  0.5927  0.0399 -0.4177
 3308SOL    HW121560   3.208   2.013  15.373 -0.1739  1.8546 -0.6885
 3308SOL    HW221561   3.080   2.057  15.434  0.5495  0.2282 -0.8478
 3309SOL     OW21562   0.262   2.185   8.828 -0.2425  0.5233  0.5017
 3309SOL    HW121563   0.281   2.273   8.860  0.9678 -0.1704  1.6681
 3309SOL    HW221564   0.206   2.158   8.900 -0.4260  0.4837  0.3449
 3310SOL     OW21565   0.898   3.973   6.285 -0.3350 -0.4564  0.1746
 3310SOL    HW121566   0.982   3.979   6.238 -0.5226  1.7080  0.1562
 3310SOL    HW221567   0.857   3.909   6.227  2.0875 -0.8390 -1.1401
 3311SOL     OW21568   1.730   0.161   6.000  0.4721 -0.0323 -0.4213
 3311SOL    HW121569   1.818   0.197   5.995 -0.3418  2.1842  1.0096
 3311SOL    HW221570   1.700   0.166   6.090 -0.9645 -2.3377 -0.7581
 3312SOL     OW21571   0.651   1.865   5.891 -0.1254 -0.0083 -0.1385
 3312SOL    HW121572   0.653   1.909   5.806  0.0266  1.5754  0.6772
 3312SOL    HW221573   0.744   1.845   5.899  0.0294  0.8395  0.3105
 3313SOL     OW21574   0.668   1.052   3.905  0.3008 -0.1270  0.2438
 3313SOL    HW121575   0.618   0.999   3.844 -0.6794  0.2011  0.7701
 3313SOL    HW221576   0.705   0.980   3.957  0.4957  0.2512  0.6321
 3314SOL     OW21577   0.915   3.932   5.724 -0.4186 -0.4433  0.0192
 3314SOL    HW121578   0.864   3.889   5.656 -2.0116  4.2359 -1.7233
 3314SOL    HW221579   0.950   3.855   5.769 -0.4086 -0.0777  0.6412
 3315SOL     OW21580   0.475   4.626   4.071  0.0203  0.1314 -0.2834
 3315SOL    HW121581   0.428   4.672   4.001 -1.8102  2.3551  2.4351
 3315SOL    HW221582   0.398   4.575   4.096  0.3293 -0.3928 -0.4131
 3316SOL     OW21583   3.018   2.648   5.620 -0.0843  0.2754 -0.2553
 3316SOL    HW121584   3.092   2.688   5.573 -1.2732  1.5129 -1.0733
 3316SOL    HW221585   2.948   2.711   5.605 -0.7725 -0.7926 -1.4985
 3317SOL     OW21586   1.536   1.837   6.179  0.5312 -0.1796  0.1723
 3317SOL    HW121587   1.465   1.802   6.126 -1.0154 -0.0121  2.1364
 3317SOL    HW221588   1.607   1.800   6.127  1.2318  0.7654  0.4452
 3318SOL     OW21589   0.848   1.183   5.314 -0.1438  0.0709  0.0897
 3318SOL    HW121590   0.787   1.161   5.385  1.2727 -1.2477  0.9033
 3318SOL    HW221591   0.916   1.227   5.365  1.5252 -2.4908  0.0838
 3319SOL     OW21592   3.977   3.412   6.569 -0.1937 -0.3741  0.1066
 3319SOL    HW121593   3.966   3.503   6.541 -0.6073 -0.5772 -0.3831
 3319SOL    HW221594   3.892   3.387   6.606  0.5451 -1.2463  1.2236
 3320SOL     OW21595   2.980   3.603   5.760  0.0900  0.3966 -0.0349
 3320SOL    HW121596   2.996   3.694   5.786 -0.4400  0.2010  0.9769
 3320SOL    HW221597   3.068   3.573   5.739  0.1160 -0.7021  1.6401
 3321SOL     OW21598   3.786   2.236   8.305  0.1098 -0.1657 -0.5929
 3321SOL    HW121599   3.866   2.285   8.287 -0.7940  1.7304  0.4824
 3321SOL    HW221600   3.785   2.164   8.242 -0.5926  0.9166 -1.8535
 3322SOL     OW21601   0.202   4.413   6.373 -0.0298 -0.6559  0.3153
 3322SOL    HW121602   0.257   4.469   6.428 -0.7022  1.8873 -1.5860
 3322SOL    HW221603   0.194   4.331   6.421  2.2029 -1.5137 -0.7714
 3323SOL     OW21604   2.052   0.060   6.990  0.0625  0.1899 -0.3598
 3323SOL    HW121605   2.099   0.141   6.970  2.4254 -0.8862  0.8234
 3323SOL    HW221606   2.087   0.002   6.922 -2.7389 -3.5881  1.4506
 3324SOL     OW21607   4.617   2.491   4.634  0.0003 -0.1245  0.0931
 3324SOL    HW121608   4.554   2.554   4.597 -0.3367 -0.4177  0.1749
 3324SOL    HW221609   4.571   2.474   4.716 -1.6846 -1.0391 -1.0594
 3325SOL     OW21610   2.889   2.344  16.098 -0.3481 -0.0019 -0.0987
 3325SOL    HW121611   2.916   2.305  16.015 -1.7169  0.1712 -0.6316
 3325SOL    HW221612   2.849   2.274  16.151 -0.4434 -0.4405 -0.7473
 3326SOL     OW21613   4.301   1.333   7.001 -0.4077 -0.4290 -0.1920
 3326SOL    HW121614   4.271   1.242   6.998 -0.7996 -0.2973 -0.3016
 3326SOL    HW221615   4.229   1.369   6.949 -0.5158 -1.0093 -0.4405
 3327SOL     OW21616   1.789   0.369   5.040 -0.2548 -0.1098 -0.8862
 3327SOL    HW121617   1.772   0.445   4.984  0.2919 -0.6269 -1.7504
 3327SOL    HW221618   1.700   0.336   5.044  0.6067 -2.1855  0.9085
 3328SOL     OW21619   2.707   4.257   2.006 -0.6665 -0.3428 -0.3538
 3328SOL    HW121620   2.798   4.268   1.978 -0.4764  1.0160  0.7806
 3328SOL    HW221621   2.727   4.177   2.054 -0.8252 -0.1961 -0.0414
 3329SOL     OW21622   1.010   2.565   4.120 -0.0412  0.4872 -0.2825
 3329SOL    HW121623   1.089   2.599   4.162  0.4850 -0.0439 -0.8513
 3329SOL    HW221624   1.032   2.549   4.029  0.7508  1.2336 -0.2245
 3330SOL     OW21625   0.810   4.141   0.673  0.1856  0.1893  0.5715
 3330SOL    HW121626   0.852   4.110   0.593  0.4737 -0.5608  1.0150
 3330SOL    HW221627   0.744   4.072   0.683  0.5291  0.1376  2.3414
 3331SOL     OW21628   4.652   0.579   6.567  0.2870 -0.2621  0.0900
 3331SOL    HW121629   4.661   0.506   6.506 -1.2614 -1.1865  0.9557
 3331SOL    HW221630   4.686   0.537   6.646  0.4150  0.9944  0.6970
 3332SOL     OW21631   3.542   3.707  11.517 -0.1358  0.0333 -0.1649
 3332SOL    HW121632   3.618   3.723  11.573  0.5747  0.9526 -1.3936
 3332SOL    HW221633   3.569   3.731  11.428  1.2400 -1.0158 -0.0384
 3333SOL     OW21634   2.683   3.097   7.612 -0.3918 -0.2860  0.6152
 3333SOL    HW121635   2.640   3.012   7.621 -1.9142  0.3713 -0.5738
 3333SOL    HW221636   2.659   3.145   7.692 -0.7369  0.9178 -0.2218
 3334SOL     OW21637   3.822   4.605   2.908 -0.5794  0.1769 -0.8193
 3334SOL    HW121638   3.882   4.618   2.981  0.8976  1.2999 -2.2543
 3334SOL    HW221639   3.734   4.603   2.947  0.4908 -2.6422  1.4483
 3335SOL     OW21640   4.061   2.924  14.272  0.4199  0.0655  0.2535
 3335SOL    HW121641   4.068   2.930  14.177  0.5153 -0.1501  0.2464
 3335SOL    HW221642   4.000   2.851  14.279 -0.6900  0.7896 -2.0563
 3336SOL     OW21643   0.451   1.793   0.277  0.4539  0.1357 -0.0518
 3336SOL    HW121644   0.390   1.723   0.300  0.2642  0.3872  0.2085
 3336SOL    HW221645   0.442   1.803   0.182 -1.6716  3.3721  0.5247
 3337SOL     OW21646   3.462   0.639   6.054  0.0089 -0.2416  0.2303
 3337SOL    HW121647   3.512   0.694   5.994  1.9539 -1.7838  0.4367
 3337SOL    HW221648   3.467   0.555   6.009 -2.5423 -0.1155 -0.3104
 3338SOL     OW21649   0.163   3.970   9.239  0.1245  0.5356 -0.4205
 3338SOL    HW121650   0.124   4.049   9.202 -0.4323  0.5372  0.1724
 3338SOL    HW221651   0.206   4.004   9.318  1.1675 -0.2507 -0.6357
 3339SOL     OW21652   0.520   4.532   8.945 -0.4530  0.2964  0.4383
 3339SOL    HW121653   0.580   4.588   8.995 -1.3525  4.3997 -3.0991
 3339SOL    HW221654   0.458   4.506   9.013  2.1849  0.6828  2.9836
 3340SOL     OW21655   1.051   2.815   4.992 -0.1394 -0.6549  0.2217
 3340SOL    HW121656   1.097   2.767   5.060 -0.1561 -1.3372 -0.2551
 3340SOL    HW221657   0.972   2.765   4.975  0.3757 -1.5186  0.4004
 3341SOL     OW21658   2.932   4.002   0.102 -0.7507  0.1873 -0.2233
 3341SOL    HW121659   2.957   4.083   0.148  0.4089 -0.1061 -0.3445
 3341SOL    HW221660   2.888   3.955   0.173 -0.7132  0.5935  0.0733
 3342SOL     OW21661   3.362   2.620  15.561  0.1571 -0.2778  0.4751
 3342SOL    HW121662   3.367   2.697  15.617  1.4472  0.4570 -0.6711
 3342SOL    HW221663   3.448   2.581  15.578  1.1557  1.3785 -0.7766
 3343SOL     OW21664   1.201   1.538   1.456 -0.1053 -1.2146  0.2013
 3343SOL    HW121665   1.207   1.625   1.417  3.0890 -1.4754  0.0755
 3343SOL    HW221666   1.244   1.490   1.386  1.0299  0.2767 -0.1264
 3344SOL     OW21667   3.354   3.876   9.444  0.3882  0.4874  0.8588
 3344SOL    HW121668   3.352   3.870   9.348 -0.6203 -2.1700  1.0705
 3344SOL    HW221669   3.421   3.812   9.465 -0.2604 -0.4881 -0.0501
 3345SOL     OW21670   4.162   4.595  17.043  0.3991 -0.1774 -0.2362
 3345SOL    HW121671   4.180   4.502  17.032 -0.5789 -0.3227 -0.6575
 3345SOL    HW221672   4.169   4.627  16.953  0.8668 -0.6556 -0.3657
 3346SOL     OW21673   1.318   2.456   4.039  1.0037 -0.2312  0.1627
 3346SOL    HW121674   1.409   2.441   4.012  2.4275  4.5241  2.4401
 3346SOL    HW221675   1.322   2.418   4.127 -1.0415  1.8952  1.1392
 3347SOL     OW21676   1.458   2.765   3.060  0.1387  0.2577  0.0244
 3347SOL    HW121677   1.450   2.785   3.153 -2.0650  0.1208 -0.1432
 3347SOL    HW221678   1.462   2.856   3.030 -0.7680 -0.1841 -1.4425
 3348SOL     OW21679   0.967   1.802   4.082 -0.3668 -0.1270 -0.0157
 3348SOL    HW121680   0.876   1.829   4.087 -0.4367 -0.0611 -1.5513
 3348SOL    HW221681   0.983   1.820   3.990  0.2376 -2.0802 -0.2896
 3349SOL     OW21682   2.528   2.683  13.713 -0.0856 -0.1344 -0.2029
 3349SOL    HW121683   2.567   2.612  13.662 -0.9316  1.3046 -2.8694
 3349SOL    HW221684   2.596   2.691  13.780  0.2489 -0.4066 -0.5121
 3350SOL     OW21685   0.476   0.161   8.789 -0.1811  0.0423  0.5423
 3350SOL    HW121686   0.515   0.157   8.877 -0.9622  1.2972  0.9442
 3350SOL    HW221687   0.539   0.219   8.746 -0.8669  1.9185  2.0299
 3351SOL     OW21688   0.589   4.074  16.318  0.1259 -0.1727  0.4210
 3351SOL    HW121689   0.565   4.164  16.299  1.2132  0.4216  1.8190
 3351SOL    HW221690   0.666   4.059  16.263  0.1338  0.8897  0.1539
 3352SOL     OW21691   3.143   3.005   8.635 -0.5820 -0.1864 -0.1985
 3352SOL    HW121692   3.133   3.094   8.600 -0.4480 -0.5120 -1.0613
 3352SOL    HW221693   3.211   2.968   8.579  0.5019 -0.0290  1.0313
 3353SOL     OW21694   3.802   1.644  11.387 -0.1725 -0.0630  0.5210
 3353SOL    HW121695   3.794   1.722  11.442 -2.3405 -0.4760  0.7880
 3353SOL    HW221696   3.883   1.610  11.425 -0.7153 -1.8206  0.1490
 3354SOL     OW21697   4.618   3.645   1.778  0.5656  0.1253 -0.1109
 3354SOL    HW121698   4.612   3.652   1.873 -0.6201  1.0273 -0.2615
 3354SOL    HW221699   4.712   3.660   1.768  0.9996 -0.8282  2.3409
 3355SOL     OW21700   3.339   1.661   6.152  0.6576 -0.4961  0.5150
 3355SOL    HW121701   3.425   1.692   6.124  0.5595  1.6684  2.6616
 3355SOL    HW221702   3.338   1.573   6.113 -1.9855  0.3793 -1.4284
 3356SOL     OW21703   0.749   4.209   9.681  0.7314  0.0943  0.2062
 3356SOL    HW121704   0.787   4.152   9.614 -0.5373 -1.1274  0.5352
 3356SOL    HW221705   0.733   4.145   9.750 -2.5461 -1.7352 -2.2764
 3357SOL     OW21706   2.822   2.556   3.201  0.3909  0.3663 -0.1594
 3357SOL    HW121707   2.827   2.486   3.266  0.5869 -0.6859 -1.2988
 3357SOL    HW221708   2.891   2.613   3.234  0.7462 -0.1726  0.0326
 3358SOL     OW21709   0.882   3.013   2.670  0.6997 -1.2555 -0.2000
 3358SOL    HW121710   0.810   3.075   2.682  1.8890 -0.4235  2.6600
 3358SOL    HW221711   0.952   3.064   2.712  0.6796  0.7602 -2.6144
 3359SOL     OW21712   3.874   0.892   8.661  0.2156 -0.3955  0.0754
 3359SOL    HW121713   3.860   0.812   8.611  0.7020 -0.2801 -0.2434
 3359SOL    HW221714   3.939   0.864   8.725  0.9807  0.4439 -0.3300
 3360SOL     OW21715   1.261   0.231   7.833  0.5053  0.2126  0.2905
 3360SOL    HW121716   1.263   0.266   7.744  0.5177 -0.1657  0.1402
 3360SOL    HW221717   1.193   0.164   7.832  3.4369 -2.7360 -1.7500
 3361SOL     OW21718   0.068   0.201   5.749  0.6825 -0.0058 -0.2278
 3361SOL    HW121719   0.139   0.138   5.753 -1.0161 -1.8802  0.3850
 3361SOL    HW221720   0.087   0.258   5.823 -0.7925  4.2974 -3.0708
 3362SOL     OW21721   3.349   2.644  10.651 -0.4277 -0.2252 -0.5111
 3362SOL    HW121722   3.345   2.726  10.702 -1.3631  0.0762 -1.0790
 3362SOL    HW221723   3.366   2.580  10.720 -1.4035  2.3023  2.0832
 3363SOL     OW21724   0.565   1.959   1.975 -0.0533  1.2223  0.3913
 3363SOL    HW121725   0.647   1.909   1.978  0.7813  2.4565 -2.1628
 3363SOL    HW221726   0.594   2.050   1.973  0.4449  1.0546  0.0089
 3364SOL     OW21727   0.860   3.987   9.537 -0.1866 -0.3302  0.0733
 3364SOL    HW121728   0.953   3.988   9.514 -0.5261  1.0627 -1.2797
 3364SOL    HW221729   0.820   3.972   9.451 -1.7210  1.1783  0.5494
 3365SOL     OW21730   2.682   1.792   2.514 -0.5490 -0.7771  0.7131
 3365SOL    HW121731   2.762   1.741   2.519  2.0634  3.4195  1.7603
 3365SOL    HW221732   2.688   1.829   2.602  0.8454  0.6137  0.0187
 3366SOL     OW21733   0.381   2.451   1.810  0.0012 -0.1745  0.0636
 3366SOL    HW121734   0.421   2.521   1.758 -0.5086  0.0373 -0.0446
 3366SOL    HW221735   0.459   2.439   1.864 -0.5595  0.0602  0.9111
 3367SOL     OW21736   0.749   2.283   1.228 -1.3547 -0.4570  0.2265
 3367SOL    HW121737   0.685   2.353   1.219 -0.2495  0.3756 -1.0725
 3367SOL    HW221738   0.713   2.242   1.307  0.4080  0.3797  1.4746
 3368SOL     OW21739   3.422   4.309  15.881  0.3213 -0.6545  0.3107
 3368SOL    HW121740   3.370   4.370  15.828  0.1003 -1.5823 -0.5324
 3368SOL    HW221741   3.514   4.315  15.853  0.8597 -0.7993  2.0321
 3369SOL     OW21742   2.267   3.798   5.031 -0.2649 -0.1513 -0.3970
 3369SOL    HW121743   2.244   3.778   4.940 -2.3471  2.7987 -0.5234
 3369SOL    HW221744   2.311   3.880   5.011  0.2730 -0.5106 -0.7000
 3370SOL     OW21745   4.077   3.003   6.134  0.3247  0.7855 -0.4713
 3370SOL    HW121746   4.004   2.946   6.109  0.9916  0.8248 -2.4368
 3370SOL    HW221747   4.110   2.970   6.218  1.0785 -0.3019 -1.2098
 3371SOL     OW21748   2.968   4.664   2.023  0.4411  0.5129  0.5983
 3371SOL    HW121749   2.913   0.007   2.013  1.6102  1.0340 -1.6809
 3371SOL    HW221750   3.011   4.658   1.938  1.0925  1.3837  0.8666
 3372SOL     OW21751   1.591   2.929   6.178 -0.0635  0.0186  0.1211
 3372SOL    HW121752   1.660   2.954   6.239 -0.7793  2.8240 -0.2186
 3372SOL    HW221753   1.594   2.996   6.110 -3.1306 -0.8740 -0.9116
 3373SOL     OW21754   3.765   4.674   2.640 -0.1835  0.0940 -0.5072
 3373SOL    HW121755   3.762   4.633   2.726 -2.0232  0.1785 -0.5348
 3373SOL    HW221756   3.706   4.627   2.582  0.3926 -0.2366 -0.8295
 3374SOL     OW21757   1.639   1.615  16.532 -0.2791 -0.4631  0.2459
 3374SOL    HW121758   1.730   1.588  16.514  0.5833  3.6518 -1.5788
 3374SOL    HW221759   1.614   1.561  16.607 -0.7446  0.4861  0.7580
 3375SOL     OW21760   3.731   4.594   5.918 -0.0896  0.1296 -0.1414
 3375SOL    HW121761   3.643   4.613   5.887 -0.6787 -0.0011  1.4092
 3375SOL    HW221762   3.743   4.500   5.901  0.1519  0.1105  0.1125
 3376SOL     OW21763   3.714   1.348   3.794 -0.3803  0.3139  0.5081
 3376SOL    HW121764   3.652   1.411   3.831 -0.6223 -0.1241  0.8463
 3376SOL    HW221765   3.742   1.292   3.866 -3.9598  0.2442  1.8175
 3377SOL     OW21766   0.104   1.012   9.012  0.3137  0.3181  0.0936
 3377SOL    HW121767   0.050   1.090   9.000  1.1509  1.3274  2.9790
 3377SOL    HW221768   0.048   0.939   8.986  2.2149 -1.8165  1.9397
 3378SOL     OW21769   0.484   3.339  12.879 -0.0650 -0.1661  0.2606
 3378SOL    HW121770   0.421   3.269  12.865 -1.4552  0.2436  4.2014
 3378SOL    HW221771   0.554   3.315  12.940 -1.3677 -0.4281  1.6609
 3379SOL     OW21772   3.391   4.122  16.773  0.1150  0.0615  0.1354
 3379SOL    HW121773   3.388   4.119  16.869 -1.4998 -2.7792 -0.0118
 3379SOL    HW221774   3.381   4.216  16.757  0.4735  0.5829  3.0542
 3380SOL     OW21775   1.683   3.070  16.294  0.4679  0.5790 -0.0959
 3380SOL    HW121776   1.616   3.136  16.310 -0.2407 -1.2380  4.5722
 3380SOL    HW221777   1.769   3.113  16.294  0.7351  0.0637  2.0064
 3381SOL     OW21778   0.980   0.242   0.973  0.5118  0.2376  0.2921
 3381SOL    HW121779   0.953   0.278   0.888  0.1933  0.4639  0.4897
 3381SOL    HW221780   0.961   0.315   1.032  0.0456 -1.0410  1.7157
 3382SOL     OW21781   1.290   3.345   6.821 -0.2334 -0.0870 -0.3305
 3382SOL    HW121782   1.277   3.439   6.834 -0.7194 -0.0383 -1.1363
 3382SOL    HW221783   1.202   3.311   6.807  0.3877 -1.7193 -0.2027
 3383SOL     OW21784   0.037   1.412  11.478 -0.1667  0.3915  0.2547
 3383SOL    HW121785   0.047   1.472  11.552  1.7849 -1.6998  1.7039
 3383SOL    HW221786   0.086   1.340  11.517  0.7860  2.1646  2.3191
 3384SOL     OW21787   1.776   3.987   6.784 -0.0509 -0.4255  0.1352
 3384SOL    HW121788   1.806   3.899   6.764  3.3650  0.9588 -0.7401
 3384SOL    HW221789   1.841   4.021   6.845  0.9142 -0.7679 -0.7173
 3385SOL     OW21790   4.108   4.191  14.936  0.4138 -0.4970 -0.5724
 3385SOL    HW121791   4.076   4.113  14.982 -0.9899  0.9208  0.8627
 3385SOL    HW221792   4.052   4.251  14.985  0.2582 -3.4331  2.8585
 3386SOL     OW21793   0.198   3.433   9.128 -0.2090  0.2424 -0.4233
 3386SOL    HW121794   0.200   3.364   9.195 -2.5625  1.2432  0.6468
 3386SOL    HW221795   0.172   3.516   9.167  1.0619  1.9830 -3.3055
 3387SOL     OW21796   2.431   0.418   2.327  0.8300 -0.2228  0.2463
 3387SOL    HW121797   2.404   0.348   2.268  0.6486 -0.7163  0.9174
 3387SOL    HW221798   2.365   0.481   2.298  1.0228 -0.3678 -0.4841
 3388SOL     OW21799   3.770   2.760   4.587 -0.0389 -0.6798 -0.2475
 3388SOL    HW121800   3.759   2.835   4.529 -0.3528  0.4689  1.3117
 3388SOL    HW221801   3.690   2.710   4.572  0.1484 -0.5305 -1.7666
 3389SOL     OW21802   1.988   1.485   5.729 -0.3278  0.3298  0.4712
 3389SOL    HW121803   1.933   1.564   5.731 -0.0151  0.4751  2.9004
 3389SOL    HW221804   1.914   1.424   5.731 -0.8270  0.9027 -0.3848
 3390SOL     OW21805   1.508   1.112   8.625 -0.5020 -0.1388 -0.2424
 3390SOL    HW121806   1.466   1.194   8.651 -1.1764 -0.4844 -0.2441
 3390SOL    HW221807   1.601   1.132   8.637 -0.4277  0.0589 -1.1539
 3391SOL     OW21808   0.382   4.572   6.546  1.3408  0.6247  0.2316
 3391SOL    HW121809   0.350   4.656   6.579 -1.2263  0.2788 -1.4009
 3391SOL    HW221810   0.459   4.568   6.603  2.5440  0.2989 -1.4083
 3392SOL     OW21811   0.653   0.779   2.343 -0.1503  0.4168  0.6082
 3392SOL    HW121812   0.579   0.744   2.392 -1.2967  0.2612 -1.2321
 3392SOL    HW221813   0.727   0.730   2.378  0.1831  1.5665  1.5197
 3393SOL     OW21814   4.440   4.131  17.698  0.2813  0.0016 -0.3861
 3393SOL    HW121815   4.398   4.063  17.647  2.8910 -1.7882 -0.1838
 3393SOL    HW221816   4.496   4.074   0.013  0.9715  1.1986  0.1622
 3394SOL     OW21817   1.123   3.276   6.012  0.1881 -0.5019  0.2353
 3394SOL    HW121818   1.114   3.265   6.107 -0.2601  0.4282  0.3087
 3394SOL    HW221819   1.157   3.365   6.023  0.6104 -0.4235 -1.7293
 3395SOL     OW21820   4.332   4.057   2.951  0.1222  0.0270  0.4336
 3395SOL    HW121821   4.305   3.968   2.976  1.5987 -0.7740 -0.8547
 3395SOL    HW221822   4.267   4.073   2.882 -0.7643 -2.3382  0.6977
 3396SOL     OW21823   2.970   3.548   0.918 -0.7912 -0.0062 -0.1109
 3396SOL    HW121824   2.886   3.584   0.944 -0.3312  2.6281 -2.3351
 3396SOL    HW221825   2.954   3.455   0.935 -0.0647  0.0379  0.7748
 3397SOL     OW21826   0.544   1.296   9.434  0.4340  0.0353 -0.2510
 3397SOL    HW121827   0.472   1.333   9.485  0.2009 -1.4966  0.5290
 3397SOL    HW221828   0.569   1.228   9.497 -1.7009 -1.6156 -1.1883
 3398SOL     OW21829   4.316   3.683   6.557  0.2428  0.1719  0.4287
 3398SOL    HW121830   4.240   3.665   6.502  0.6718 -1.6503  0.4376
 3398SOL    HW221831   4.361   3.749   6.504  1.6277  0.2693  1.7314
 3399SOL     OW21832   1.932   0.743   6.146 -0.0617 -0.4174 -0.0299
 3399SOL    HW121833   1.935   0.677   6.215  2.2648 -0.7290 -0.4490
 3399SOL    HW221834   1.903   0.691   6.070  0.1862  1.4335 -1.3893
 3400SOL     OW21835   0.520   1.625   0.529 -0.7394 -0.3285  0.2408
 3400SOL    HW121836   0.453   1.668   0.583  0.4087  1.5122  0.2058
 3400SOL    HW221837   0.477   1.635   0.444  0.3101 -1.7019 -0.4344
 3401SOL     OW21838   0.314   0.059   5.879  0.3542 -0.5916 -0.0425
 3401SOL    HW121839   0.343   4.713   5.836 -0.8055 -0.0708 -1.7943
 3401SOL    HW221840   0.291   0.037   5.969 -2.1986  0.5682 -0.4055
 3402SOL     OW21841   2.545   4.202  16.416  0.4795  0.7026  0.1179
 3402SOL    HW121842   2.481   4.166  16.355  0.3999 -0.4485  0.8765
 3402SOL    HW221843   2.612   4.137  16.436 -0.3613 -0.5791 -1.2231
 3403SOL     OW21844   2.410   0.930   2.928 -0.3403 -0.1841 -0.1498
 3403SOL    HW121845   2.444   0.963   2.845 -0.0408 -0.6201 -0.2014
 3403SOL    HW221846   2.479   0.867   2.948 -0.1564  0.0376 -0.0895
 3404SOL     OW21847   2.404   2.766   6.327  0.3150 -0.1000 -0.0094
 3404SOL    HW121848   2.367   2.717   6.400 -0.9831  1.4764  0.3702
 3404SOL    HW221849   2.446   2.689   6.288  0.2162 -0.1253 -0.0643
 3405SOL     OW21850   4.602   4.585   6.860 -0.1214 -0.0792  0.1379
 3405SOL    HW121851   4.688   4.609   6.827 -0.2081 -1.8586 -1.3565
 3405SOL    HW221852   4.625   4.522   6.929  1.7603 -0.2862 -0.6936
 3406SOL     OW21853   3.450   4.416   4.055  0.1909  0.4361 -0.6724
 3406SOL    HW121854   3.400   4.364   3.992  1.1127 -3.2838  1.6918
 3406SOL    HW221855   3.526   4.451   4.008 -0.9072 -0.0875 -2.8524
 3407SOL     OW21856   0.517   3.781   1.193 -0.1450  0.1330 -0.5427
 3407SOL    HW121857   0.434   3.828   1.190 -1.0351 -1.4390 -0.9299
 3407SOL    HW221858   0.504   3.721   1.119  0.0920  0.7417 -1.0786
 3408SOL     OW21859   0.418   0.353   9.618  0.1990  0.2553  0.3027
 3408SOL    HW121860   0.497   0.352   9.564 -0.1253  1.1000 -0.1873
 3408SOL    HW221861   0.406   0.259   9.633 -1.8328  0.4669 -0.0481
 3409SOL     OW21862   2.983   3.578  16.783  0.1866  0.2138  0.1032
 3409SOL    HW121863   2.952   3.516  16.850  0.9363 -0.7592 -0.4515
 3409SOL    HW221864   3.009   3.506  16.725  1.5729  0.7051  0.1278
 3410SOL     OW21865   3.942   4.655   1.453 -0.1673 -0.0660 -0.4694
 3410SOL    HW121866   4.037   4.653   1.458 -0.2283  0.8623  1.1896
 3410SOL    HW221867   3.932   0.008   1.416 -2.2866  0.2280  0.8101
 3411SOL     OW21868   2.593   2.816  17.493 -0.3442  0.2974  0.0709
 3411SOL    HW121869   2.613   2.723  17.496  1.0376  0.5737 -0.6475
 3411SOL    HW221870   2.550   2.829  17.409  2.1736 -0.6763 -1.3623
 3412SOL     OW21871   1.235   1.832  12.974  0.3845 -0.2973 -0.0048
 3412SOL    HW121872   1.281   1.800  12.897 -0.0612 -0.6573 -0.1193
 3412SOL    HW221873   1.224   1.924  12.949  2.4733  0.0545  0.3767
 3413SOL     OW21874   3.736   1.443  17.110  0.1222 -0.7213  0.5510
 3413SOL    HW121875   3.806   1.472  17.050 -1.6392 -0.5952 -1.4487
 3413SOL    HW221876   3.753   1.495  17.189 -1.3425  0.6556 -0.0468
 3414SOL     OW21877   4.712   1.472   1.991  0.6343 -0.1425 -0.0733
 3414SOL    HW121878   4.700   1.452   1.898  0.9218  1.1888 -0.3856
 3414SOL    HW221879   0.072   1.484   1.993  0.5674  0.5959 -1.2614
 3415SOL     OW21880   0.331   4.520   8.749 -0.5032  0.3262  0.4016
 3415SOL    HW121881   0.388   4.534   8.825  0.2518  0.5747 -0.2095
 3415SOL    HW221882   0.371   4.589   8.696  0.0479 -0.6052 -0.4047
 3416SOL     OW21883   3.631   2.532  16.595  0.0825 -0.2233 -0.3609
 3416SOL    HW121884   3.547   2.557  16.633  0.5126 -1.3645  1.3248
 3416SOL    HW221885   3.636   2.584  16.515 -1.2461 -0.6506 -0.7174
 3417SOL     OW21886   1.995   3.222   3.591  0.0431 -0.4620 -0.1653
 3417SOL    HW121887   1.949   3.303   3.613  0.2339 -0.2576 -0.5389
 3417SOL    HW221888   2.003   3.245   3.499 -0.4924  0.0083 -0.0891
 3418SOL     OW21889   2.718   1.244  11.795 -0.1726 -0.1788 -0.4004
 3418SOL    HW121890   2.796   1.233  11.740  0.5459  2.0559  0.2143
 3418SOL    HW221891   2.659   1.265  11.722  0.9090  1.4501 -0.7869
 3419SOL     OW21892   2.051   4.350  10.685  0.2441  0.3098 -0.3275
 3419SOL    HW121893   2.009   4.396  10.612 -0.6693 -0.2876 -0.1867
 3419SOL    HW221894   2.029   4.407  10.758  2.7275 -1.2214  1.5920
 3420SOL     OW21895   0.045   4.134   8.423 -0.6111 -0.0730  0.3055
 3420SOL    HW121896   4.711   4.098   8.479  0.0715  0.3949  1.4339
 3420SOL    HW221897   0.001   4.206   8.378  0.5584 -0.3068 -1.2070
 3421SOL     OW21898   2.812   3.976   3.194  0.4082  0.3000  0.4610
 3421SOL    HW121899   2.883   3.940   3.142  1.4900  0.7753  1.5929
 3421SOL    HW221900   2.856   4.044   3.246  2.4903 -0.4061 -0.3736
 3422SOL     OW21901   3.045   3.919   9.054 -0.1169  0.1040  0.2494
 3422SOL    HW121902   3.025   3.874   9.136 -1.8095  1.2913  0.4879
 3422SOL    HW221903   2.961   3.939   9.012  0.7905 -1.0580 -2.1151
 3423SOL     OW21904   2.220   0.822  17.158  0.2476 -0.4874 -0.4971
 3423SOL    HW121905   2.286   0.765  17.118  0.4783 -1.1376  0.7947
 3423SOL    HW221906   2.228   0.901  17.106  0.7509  0.0346  0.3695
 3424SOL     OW21907   2.149   4.679   6.756  0.3553  0.1385  0.0318
 3424SOL    HW121908   2.108   4.594   6.737 -0.5165  0.4138  0.6648
 3424SOL    HW221909   2.214   4.681   6.686 -0.3066 -0.9413 -0.6105
 3425SOL     OW21910   4.089   2.954   4.214 -0.2378 -0.1149 -0.8026
 3425SOL    HW121911   4.124   2.993   4.134 -0.3336  1.6976  0.0449
 3425SOL    HW221912   4.138   2.872   4.218  0.5426  0.4447  0.9714
 3426SOL     OW21913   2.789   1.625   1.820 -0.1350  0.2403  0.0686
 3426SOL    HW121914   2.795   1.710   1.863  2.4102 -0.1679  0.4945
 3426SOL    HW221915   2.721   1.641   1.754 -1.2078  0.5467  1.2497
 3427SOL     OW21916   2.775   3.181  10.037  0.1617  0.6928  0.3608
 3427SOL    HW121917   2.820   3.120   9.978  0.3958  2.7641 -1.6499
 3427SOL    HW221918   2.744   3.129  10.111  1.2002 -0.9623 -0.3703
 3428SOL     OW21919   2.076   0.135   8.066 -0.5502 -0.6112  0.6229
 3428SOL    HW121920   2.013   0.099   8.004 -0.3938  2.1039 -1.0925
 3428SOL    HW221921   2.057   0.227   8.053 -0.3319 -0.7465 -0.6327
 3429SOL     OW21922   2.758   0.209   6.148  0.1032 -0.0827  0.0761
 3429SOL    HW121923   2.726   0.294   6.116  0.6362 -0.3942 -1.2962
 3429SOL    HW221924   2.708   0.202   6.229 -2.0416  2.8726 -0.9531
 3430SOL     OW21925   4.634   3.150   8.411 -0.6053 -0.6392 -0.6021
 3430SOL    HW121926   4.607   3.232   8.453 -1.1304  0.2605 -2.6932
 3430SOL    HW221927   4.644   3.176   8.320  0.1475 -1.0943 -0.6453
 3431SOL     OW21928   4.281   3.355  17.471 -0.2058  0.5607 -0.4782
 3431SOL    HW121929   4.333   3.360  17.552 -0.4767  2.3583 -0.4125
 3431SOL    HW221930   4.345   3.385  17.407 -0.7658 -0.8548 -1.6907
 3432SOL     OW21931   1.293   0.034   5.612 -0.1125  1.2103 -0.6971
 3432SOL    HW121932   1.357   0.087   5.659 -1.1529  2.9158 -1.2398
 3432SOL    HW221933   1.340   0.026   5.529  1.1183 -1.6322  0.2553
 3433SOL     OW21934   2.578   1.345   3.521 -0.3506 -0.2452 -0.3702
 3433SOL    HW121935   2.564   1.340   3.426 -2.0470 -0.4475 -0.1065
 3433SOL    HW221936   2.499   1.390   3.550 -0.2159 -0.7683  0.7929
 3434SOL     OW21937   4.565   1.742   9.568 -0.1335 -0.0660  0.2600
 3434SOL    HW121938   4.581   1.820   9.622 -1.1999  2.1240 -2.6236
 3434SOL    HW221939   4.512   1.691   9.630  0.6916  3.3337  3.7767
 3435SOL     OW21940   1.332   1.161  12.948  0.6743 -0.1836  0.0146
 3435SOL    HW121941   1.367   1.083  12.992  0.8223  0.4419  1.0111
 3435SOL    HW221942   1.331   1.118  12.863 -2.4498 -1.8653  0.9201
 3436SOL     OW21943   1.742   3.346  16.532 -0.0566  0.0229 -0.2299
 3436SOL    HW121944   1.689   3.424  16.522 -2.5637 -1.4142  1.9575
 3436SOL    HW221945   1.741   3.328  16.626 -0.5323  0.3687 -0.1733
 3437SOL     OW21946   1.534   0.157   8.174  0.5278  0.1829  0.7896
 3437SOL    HW121947   1.554   0.067   8.201 -0.8147 -1.2925 -3.0828
 3437SOL    HW221948   1.471   0.182   8.241  1.8909  1.7134  1.4922
 3438SOL     OW21949   3.914   1.258   5.982 -0.4852  0.3539  0.6723
 3438SOL    HW121950   3.934   1.197   5.910  0.1160  2.1736 -0.7019
 3438SOL    HW221951   3.961   1.201   6.043  0.9288  1.0110  0.2084
 3439SOL     OW21952   3.627   2.581   5.152 -0.5248  0.3814 -0.5365
 3439SOL    HW121953   3.713   2.616   5.126 -0.8747  1.6385  0.0086
 3439SOL    HW221954   3.576   2.653   5.115 -1.2892  0.3503  0.4635
 3440SOL     OW21955   2.760   0.462   6.299  0.0704  0.1112 -0.6992
 3440SOL    HW121956   2.753   0.384   6.355 -0.5994  1.1196  0.6083
 3440SOL    HW221957   2.724   0.529   6.356 -1.0449 -1.6551  0.6844
 3441SOL     OW21958   3.329   2.259   7.356 -0.2321 -0.0831 -0.3250
 3441SOL    HW121959   3.373   2.199   7.296  1.2074  0.0497  0.6057
 3441SOL    HW221960   3.352   2.346   7.324  1.5662  0.2806  1.9043
 3442SOL     OW21961   4.124   4.706  17.301 -0.1551 -0.2916  0.0859
 3442SOL    HW121962   4.145   4.654  17.224  0.0889 -0.3754  0.2094
 3442SOL    HW221963   4.033   4.734  17.294  0.0457  0.6211  1.0605
 3443SOL     OW21964   0.788   1.111  15.246 -0.8257  0.5005 -0.2339
 3443SOL    HW121965   0.695   1.133  15.238 -0.8076  1.2182  1.3451
 3443SOL    HW221966   0.830   1.169  15.183 -0.2651  2.0998  1.5922
 3444SOL     OW21967   3.586   2.568  11.017 -0.0122 -0.0048  0.4113
 3444SOL    HW121968   3.639   2.555  10.939  0.5772 -1.5324  1.0612
 3444SOL    HW221969   3.498   2.572  10.979 -0.0382  3.5810  0.8411
 3445SOL     OW21970   4.364   3.650   8.785  0.9768 -0.4775 -0.4658
 3445SOL    HW121971   4.271   3.647   8.805  1.0926 -4.2095 -0.3132
 3445SOL    HW221972   4.395   3.561   8.806 -0.3632 -0.6068  0.8902
 3446SOL     OW21973   2.530   0.827  14.481 -0.2371  0.7089 -0.2507
 3446SOL    HW121974   2.551   0.912  14.518  1.9636  0.5903 -1.2677
 3446SOL    HW221975   2.617   0.792  14.464 -0.9758 -1.4345  0.3721
 3447SOL     OW21976   2.766   4.158   7.734 -0.0578  0.0165  0.2188
 3447SOL    HW121977   2.726   4.210   7.664 -1.9796 -1.4130  0.2656
 3447SOL    HW221978   2.849   4.200   7.756 -0.8043  2.1556 -1.0946
 3448SOL     OW21979   1.949   2.533  15.802  0.4372 -0.2388  0.7346
 3448SOL    HW121980   1.901   2.491  15.730 -0.7930  0.6114  1.0482
 3448SOL    HW221981   1.977   2.457  15.852  0.5158 -1.2184 -0.8193
 3449SOL     OW21982   0.327   3.031   4.614  0.2856  0.1494  0.4593
 3449SOL    HW121983   0.252   2.973   4.631  1.3269 -0.9817  1.1494
 3449SOL    HW221984   0.372   2.998   4.536  1.7501  0.8301  1.0266
 3450SOL     OW21985   0.220   2.222   0.603 -0.1155  0.3293 -0.0440
 3450SOL    HW121986   0.189   2.134   0.623  0.4943  0.2571  0.5856
 3450SOL    HW221987   0.313   2.204   0.598 -0.3938 -1.5198  1.5305
 3451SOL     OW21988   0.458   3.350  14.769 -1.0029 -0.4815 -0.1586
 3451SOL    HW121989   0.507   3.359  14.687  0.1467 -0.0980  0.5695
 3451SOL    HW221990   0.415   3.266  14.754  1.5129 -1.3878 -2.1308
 3452SOL     OW21991   3.308   2.873  16.624 -0.7061  0.1866 -0.1580
 3452SOL    HW121992   3.322   2.787  16.665 -0.1893 -0.3132 -1.3875
 3452SOL    HW221993   3.312   2.939  16.694  0.1854 -1.1686  1.0832
 3453SOL     OW21994   3.985   3.934  15.872 -0.2730  0.2258  0.3991
 3453SOL    HW121995   3.953   4.005  15.928 -1.7265  1.7611 -2.3809
 3453SOL    HW221996   3.988   3.982  15.789 -0.8471 -0.5122 -0.0447
 3454SOL     OW21997   0.663   4.199   3.961  0.5561 -0.2415 -0.2982
 3454SOL    HW121998   0.688   4.284   3.998  0.0104 -0.3220  0.2623
 3454SOL    HW221999   0.612   4.219   3.883  0.0996  1.8108  0.5200
 3455SOL     OW22000   3.978   3.572  16.302 -0.1948 -0.7539  0.4614
 3455SOL    HW122001   3.979   3.535  16.214  1.3089  1.4379 -0.4475
 3455SOL    HW222002   4.070   3.563  16.325  0.2518  1.3052 -0.4771
 3456SOL     OW22003   0.419   3.067   9.311 -0.1143  0.0713 -0.5966
 3456SOL    HW122004   0.452   3.077   9.400 -0.1609  1.2536 -0.7164
 3456SOL    HW222005   0.493   3.077   9.251  0.7783  2.1204  0.8223
 3457SOL     OW22006   1.241   4.395  11.096 -0.0317  0.3526  0.0548
 3457SOL    HW122007   1.160   4.419  11.141 -0.5564 -0.1074 -0.6393
 3457SOL    HW222008   1.306   4.352  11.152 -1.0309 -1.9997 -0.6071
 3458SOL     OW22009   4.330   4.313  10.710 -0.5448  0.0506  0.2990
 3458SOL    HW122010   4.363   4.403  10.717 -0.5010 -0.0290  1.1237
 3458SOL    HW222011   4.242   4.331  10.744  0.7167  0.2756  3.4162
 3459SOL     OW22012   1.644   0.810   6.195  0.4391  0.1573 -0.1161
 3459SOL    HW122013   1.727   0.796   6.149  1.3121  1.3205  1.1165
 3459SOL    HW222014   1.617   0.721   6.219 -0.3470  0.1179 -1.1073
 3460SOL     OW22015   4.396   2.477   2.171  0.4667  0.1027 -0.1019
 3460SOL    HW122016   4.390   2.534   2.095 -1.6547  0.0277  0.0243
 3460SOL    HW222017   4.302   2.462   2.179  0.4903  0.2518  0.4781
 3461SOL     OW22018   1.917   1.041   2.454 -0.0561  0.2112 -0.1666
 3461SOL    HW122019   1.930   1.072   2.365 -1.1153  0.3493 -0.2728
 3461SOL    HW222020   2.006   1.011   2.474 -0.8610 -1.1143  1.3756
 3462SOL     OW22021   1.658   2.952   5.755 -0.0096  0.1510  0.2870
 3462SOL    HW122022   1.718   2.992   5.817  0.1355  1.4639 -0.6938
 3462SOL    HW222023   1.577   2.998   5.778  0.4375  0.0937  1.9357
 3463SOL     OW22024   1.886   2.688   7.138 -0.7067 -0.6943  0.6614
 3463SOL    HW122025   1.804   2.737   7.142 -0.7267 -0.5463 -1.7983
 3463SOL    HW222026   1.854   2.616   7.085  2.7171 -0.7148 -1.4016
 3464SOL     OW22027   3.108   3.749   1.073  1.2750  0.0481  0.1074
 3464SOL    HW122028   3.100   3.736   1.168  0.6064 -0.5566 -0.0320
 3464SOL    HW222029   3.048   3.677   1.054  2.6065 -0.9201 -0.4976
 3465SOL     OW22030   0.554   4.424  11.960 -0.3860 -0.0047  0.4656
 3465SOL    HW122031   0.554   4.396  11.868  0.9145 -0.1292  0.5113
 3465SOL    HW222032   0.643   4.402  11.986 -0.2101  2.4374  1.9232
 3466SOL     OW22033   2.933   0.634  16.722 -0.3952  0.0025 -0.0313
 3466SOL    HW122034   2.954   0.650  16.630 -0.9621  1.4877  0.1091
 3466SOL    HW222035   2.976   0.549  16.737  0.4289  0.4025 -0.1219
 3467SOL     OW22036   1.078   1.510   0.578  0.3576  0.4543  0.1196
 3467SOL    HW122037   1.138   1.443   0.611  0.5055  0.7876  0.5279
 3467SOL    HW222038   1.122   1.584   0.619 -1.3991  0.5787  1.8236
 3468SOL     OW22039   3.018   3.034   3.973  0.5885  0.6550  0.1245
 3468SOL    HW122040   3.057   3.009   4.057 -0.1987 -1.1162 -0.0419
 3468SOL    HW222041   2.927   3.014   3.992  0.5810  0.5080 -0.0667
 3469SOL     OW22042   4.702   3.586  15.538  0.2518  0.3598  0.0693
 3469SOL    HW122043   4.635   3.646  15.507  0.6427  1.0888  0.6290
 3469SOL    HW222044   0.030   3.592  15.467 -3.0265 -1.0837 -2.9406
 3470SOL     OW22045   2.330   4.147  11.870 -0.3841 -0.0736 -0.2389
 3470SOL    HW122046   2.379   4.120  11.792  0.2509 -3.6603  1.3893
 3470SOL    HW222047   2.255   4.194  11.834 -2.0556 -0.8592  2.2126
 3471SOL     OW22048   2.264   1.595   0.728 -0.0194 -0.6263  0.1837
 3471SOL    HW122049   2.269   1.684   0.764  0.7191 -0.7786  0.4521
 3471SOL    HW222050   2.322   1.594   0.651  1.0195 -0.8358  0.9648
 3472SOL     OW22051   3.815   2.779  14.305  0.0152  0.5929 -0.2532
 3472SOL    HW122052   3.797   2.704  14.363 -0.2258 -0.2905 -1.4700
 3472SOL    HW222053   3.744   2.766  14.243 -0.2098  0.7618 -0.0311
 3473SOL     OW22054   0.973   2.868  14.959 -0.6950 -0.2618  0.1058
 3473SOL    HW122055   0.894   2.920  14.944 -0.4808 -0.2346 -0.9346
 3473SOL    HW222056   1.043   2.928  14.985 -0.4156 -1.6425  2.5887
 3474SOL     OW22057   0.292   2.877   2.594  0.6239  0.7080 -0.2362
 3474SOL    HW122058   0.242   2.846   2.671 -1.6493  2.3872 -1.0310
 3474SOL    HW222059   0.263   2.828   2.518  0.3539  1.9366 -0.9171
 3475SOL     OW22060   2.526   2.033   5.983 -0.0948 -0.0363  0.3613
 3475SOL    HW122061   2.457   1.974   5.951 -1.2096  1.4096  0.1275
 3475SOL    HW222062   2.505   2.029   6.076 -0.9232  0.9220  0.2176
 3476SOL     OW22063   1.114   0.811   8.594 -0.4818 -0.6054  0.2041
 3476SOL    HW122064   1.132   0.809   8.688  0.5152 -0.7975  0.0086
 3476SOL    HW222065   1.190   0.865   8.572 -0.6626  0.3554  1.9735
 3477SOL     OW22066   1.384   2.814   5.228 -0.3440 -0.4637  0.8178
 3477SOL    HW122067   1.440   2.845   5.156 -1.5306 -0.4485 -0.0954
 3477SOL    HW222068   1.334   2.746   5.183 -0.5610  1.2286 -1.5072
 3478SOL     OW22069   4.083   1.148   3.142  0.1437  0.2661  0.3649
 3478SOL    HW122070   4.077   1.239   3.114  0.7535  0.2080  0.0539
 3478SOL    HW222071   4.065   1.106   3.057 -3.9497  0.7512  0.9638
 3479SOL     OW22072   2.395   1.561   3.534  0.3788  0.3252 -0.1667
 3479SOL    HW122073   2.357   1.533   3.451 -0.6505 -0.7600  0.6782
 3479SOL    HW222074   2.341   1.507   3.592  0.4221 -2.0848 -2.4166
 3480SOL     OW22075   3.670   2.052   3.015 -0.1798 -0.2336  0.6676
 3480SOL    HW122076   3.647   2.041   3.107 -1.0949 -0.7405  0.3788
 3480SOL    HW222077   3.634   2.137   2.993 -0.3040 -0.5022 -0.1676
 3481SOL     OW22078   2.852   2.945   6.915  0.5601  0.3478  0.2503
 3481SOL    HW122079   2.882   2.856   6.932 -2.1551 -0.5296  0.3897
 3481SOL    HW222080   2.811   2.930   6.830  1.1318 -1.5027  0.3010
 3482SOL     OW22081   4.606   3.894  15.902 -0.2712 -0.0865 -0.2817
 3482SOL    HW122082   4.520   3.853  15.902  0.7104 -2.1494  4.9750
 3482SOL    HW222083   4.633   3.879  15.812 -1.1622 -0.3699 -0.4974
 3483SOL     OW22084   4.388   1.182   5.150 -0.3917  0.1095  0.0239
 3483SOL    HW122085   4.303   1.198   5.107 -0.7488  1.3999  1.2392
 3483SOL    HW222086   4.415   1.091   5.139 -0.5898  0.2046 -1.3248
 3484SOL     OW22087   2.116   4.577  11.584  0.4131  0.1531  0.3181
 3484SOL    HW122088   2.103   4.626  11.503  1.3965 -0.6180 -0.3116
 3484SOL    HW222089   2.204   4.607  11.608 -0.2019  1.8291  0.4993
 3485SOL     OW22090   3.225   2.477   2.748  0.1071 -1.1041 -0.3445
 3485SOL    HW122091   3.226   2.435   2.834 -0.6387  0.6674  0.5244
 3485SOL    HW222092   3.183   2.559   2.774  1.0835 -0.2280 -1.5227
 3486SOL     OW22093   4.697   4.364   4.941 -0.1129  0.4058 -0.3569
 3486SOL    HW122094   4.654   4.399   5.019  1.9362 -2.1984  1.9776
 3486SOL    HW222095   0.052   4.359   4.974 -0.5247  0.0107  0.7303
 3487SOL     OW22096   2.364   4.434   3.088 -0.0956  0.1539 -0.0692
 3487SOL    HW122097   2.448   4.457   3.047  0.0365 -0.8146 -0.3511
 3487SOL    HW222098   2.310   4.406   3.014 -0.5182  0.1768  0.2345
 3488SOL     OW22099   1.406   2.611   6.981 -0.0470 -0.6452  0.0563
 3488SOL    HW122100   1.425   2.700   7.011  1.0607 -0.7897 -0.1841
 3488SOL    HW222101   1.318   2.594   7.014 -1.0350 -0.3664 -2.3758
 3489SOL     OW22102   0.251   2.152   5.977 -0.4463 -0.2828 -0.7483
 3489SOL    HW122103   0.346   2.150   5.964 -0.6074  1.0681 -2.2083
 3489SOL    HW222104   0.229   2.060   5.992 -1.9749  0.1300 -0.4406
 3490SOL     OW22105   0.386   1.725   6.518  0.1964 -0.1258 -0.1579
 3490SOL    HW122106   0.371   1.801   6.462  1.6602  0.5548  0.3605
 3490SOL    HW222107   0.413   1.768   6.600  1.1849 -1.5872  0.2845
 3491SOL     OW22108   3.975   0.696   0.439  0.1096  0.1766 -0.3080
 3491SOL    HW122109   3.991   0.789   0.426  0.2352  0.1372 -0.4251
 3491SOL    HW222110   3.884   0.697   0.471  0.5948 -0.5732  1.1154
 3492SOL     OW22111   0.975   3.173   9.858  0.1562 -0.0562  0.2596
 3492SOL    HW122112   0.911   3.133   9.917 -2.2781 -0.8284 -2.9190
 3492SOL    HW222113   0.984   3.097   9.801  0.7718  0.1563  0.0778
 3493SOL     OW22114   0.629   3.434   5.505  0.3108 -0.0013 -0.2061
 3493SOL    HW122115   0.596   3.345   5.490  0.3716 -0.3304  1.5432
 3493SOL    HW222116   0.704   3.437   5.446 -0.1426 -2.7907 -0.9485
 3494SOL     OW22117   1.383   2.303   8.528  0.2363  0.1792 -0.5508
 3494SOL    HW122118   1.295   2.342   8.536 -0.1826 -0.5179 -1.8226
 3494SOL    HW222119   1.433   2.368   8.578 -1.2148  1.9241 -1.3427
 3495SOL     OW22120   0.311   1.439  17.596  0.6551  0.5411  0.1154
 3495SOL    HW122121   0.232   1.489  17.574 -0.2596 -1.2869 -0.7962
 3495SOL    HW222122   0.355   1.427  17.511  1.9280 -0.5468  0.9248
 3496SOL     OW22123   3.770   3.464   5.990 -0.6148 -0.0566  0.2613
 3496SOL    HW122124   3.818   3.433   5.914 -0.9387  0.0855 -0.0011
 3496SOL    HW222125   3.773   3.559   5.974 -1.9870  0.0952  0.9039
 3497SOL     OW22126   4.078   1.858  13.068 -0.1151 -0.2672  0.9171
 3497SOL    HW122127   4.108   1.928  13.126 -0.4774  0.1670  0.5776
 3497SOL    HW222128   4.132   1.865  12.990 -1.3064  0.6316  0.1799
 3498SOL     OW22129   0.371   2.928   7.618 -0.1047  0.2672 -0.6959
 3498SOL    HW122130   0.450   2.981   7.606  0.4076 -0.0642  1.3396
 3498SOL    HW222131   0.324   2.979   7.684  3.2374  0.0554  1.8700
 3499SOL     OW22132   0.881   1.322   0.488  0.1142  0.5611 -0.4562
 3499SOL    HW122133   0.808   1.343   0.429 -1.3780 -2.0234  0.5008
 3499SOL    HW222134   0.941   1.396   0.478  1.5009 -0.4678  0.2883
 3500SOL     OW22135   0.497   0.529   6.884 -0.2130 -0.0907 -0.2952
 3500SOL    HW122136   0.525   0.440   6.904 -0.2005 -0.1875 -0.7477
 3500SOL    HW222137   0.566   0.575   6.933  2.8309 -1.9367 -2.8557
 3501SOL     OW22138   2.525   0.920   5.343 -0.2793  0.2618 -0.2965
 3501SOL    HW122139   2.489   0.875   5.266 -2.0312  2.8706 -0.9882
 3501SOL    HW222140   2.496   1.010   5.326 -0.9885  0.0303 -0.3294
 3502SOL     OW22141   1.091   1.361   6.036  0.4733 -0.1206 -0.4971
 3502SOL    HW122142   1.046   1.290   5.989 -0.3272 -1.8750  2.9565
 3502SOL    HW222143   1.155   1.321   6.095  1.9549  0.9738 -1.3559
 3503SOL     OW22144   0.542   3.471   0.581  0.5798 -0.1849 -0.6781
 3503SOL    HW122145   0.575   3.514   0.503 -1.6780 -0.5118 -1.8388
 3503SOL    HW222146   0.556   3.550   0.633  0.6095 -0.0901 -0.8327
 3504SOL     OW22147   3.645   0.877  17.255 -0.1242 -0.2132 -0.5948
 3504SOL    HW122148   3.685   0.962  17.273  0.1671 -0.6052  0.6466
 3504SOL    HW222149   3.568   0.915  17.213 -0.4883  1.1016  1.2900
 3505SOL     OW22150   2.909   0.710  12.635 -0.0921 -0.4454 -0.2259
 3505SOL    HW122151   2.881   0.628  12.676 -1.5510 -0.4079 -1.1587
 3505SOL    HW222152   3.001   0.716  12.658 -0.0702  0.5086 -0.5557
 3506SOL     OW22153   1.734   3.708   5.805 -0.4944  0.3402 -0.1057
 3506SOL    HW122154   1.670   3.776   5.782 -2.7517 -1.7467  0.0295
 3506SOL    HW222155   1.798   3.766   5.846 -0.1672  0.9357 -1.4676
 3507SOL     OW22156   0.585   4.236   1.800 -0.3790 -0.1640 -0.0385
 3507SOL    HW122157   0.641   4.290   1.855  0.9337 -1.0586 -0.5069
 3507SOL    HW222158   0.509   4.294   1.811  0.5206  0.7034  1.6708
 3508SOL     OW22159   2.321   1.529   6.867 -0.3616  0.3456  0.4616
 3508SOL    HW122160   2.309   1.606   6.922  0.4528  1.6164 -1.1589
 3508SOL    HW222161   2.248   1.545   6.808 -1.4024 -0.1379  1.6320
 3509SOL     OW22162   2.480   0.690   6.014 -0.0440  0.5111  0.1579
 3509SOL    HW122163   2.444   0.722   6.097 -3.7759 -0.1513 -1.1849
 3509SOL    HW222164   2.514   0.770   5.974 -0.3552  1.1554  1.1832
 3510SOL     OW22165   2.576   4.373  14.473 -0.1760  0.0523 -0.4457
 3510SOL    HW122166   2.648   4.342  14.419 -1.3540  0.4433 -2.2724
 3510SOL    HW222167   2.538   4.293  14.509  0.5548 -0.0859  0.0084
 3511SOL     OW22168   3.104   0.537   6.638 -0.1265  0.0299 -0.2496
 3511SOL    HW122169   3.039   0.599   6.671 -0.7745 -0.2676 -0.9691
 3511SOL    HW222170   3.055   0.455   6.647  1.2099 -0.6504  0.7877
 3512SOL     OW22171   0.880   0.186  10.401  0.7119 -0.1120  0.5174
 3512SOL    HW122172   0.843   0.203  10.488  0.5941  0.3983  0.3685
 3512SOL    HW222173   0.908   0.272  10.369  0.3539  0.8002  2.6642
 3513SOL     OW22174   1.779   2.566   7.947  0.6460 -0.2236 -0.3833
 3513SOL    HW122175   1.874   2.580   7.952  0.3971  1.2390  0.1348
 3513SOL    HW222176   1.777   2.484   7.898 -0.6423 -2.0202  2.6421
 3514SOL     OW22177   1.578   3.929   3.587 -0.1965  0.7227  0.1225
 3514SOL    HW122178   1.485   3.918   3.609 -0.4252 -0.1400 -1.2576
 3514SOL    HW222179   1.578   4.024   3.593  1.3188  0.8209 -1.2528
 3515SOL     OW22180   3.246   4.083   0.739  0.2426  0.6183  0.6932
 3515SOL    HW122181   3.341   4.092   0.748 -0.1459  3.4259  2.0874
 3515SOL    HW222182   3.235   4.004   0.791 -0.2109 -0.4716 -1.0460
 3516SOL     OW22183   2.010   3.720  11.519  0.4029  0.5746  0.0086
 3516SOL    HW122184   2.043   3.747  11.605 -0.2213 -1.0698  0.7839
 3516SOL    HW222185   2.087   3.686  11.475  0.8380 -0.0231  1.2235
 3517SOL     OW22186   3.447   0.612   3.660  0.4370  0.2440 -0.3984
 3517SOL    HW122187   3.398   0.688   3.628 -0.0704  0.3570  0.6228
 3517SOL    HW222188   3.481   0.645   3.744  1.6790  0.2169 -0.8939
 3518SOL     OW22189   0.663   4.659  11.368 -0.3316 -0.6246 -0.1888
 3518SOL    HW122190   0.576   4.700  11.360 -0.3678 -0.9478 -1.4631
 3518SOL    HW222191   0.719   4.727  11.330 -0.7098 -1.0390 -1.4751
 3519SOL     OW22192   2.469   3.955   2.961  0.1500  0.0324 -0.1737
 3519SOL    HW122193   2.466   4.045   2.929 -1.0430  0.4653  1.1398
 3519SOL    HW222194   2.389   3.904   2.945  0.4230  0.0951 -1.7101
 3520SOL     OW22195   4.239   1.881  14.960  0.6073  0.1327 -0.6486
 3520SOL    HW122196   4.207   1.957  15.009  0.3544  0.8501 -1.9297
 3520SOL    HW222197   4.160   1.855  14.913  0.1026 -0.3634  0.4826
 3521SOL     OW22198   4.047   0.882   2.196  0.0914  0.0792 -0.3612
 3521SOL    HW122199   4.109   0.865   2.124 -0.6085 -2.0389 -0.4632
 3521SOL    HW222200   4.100   0.887   2.275  2.4584 -1.4351 -1.8216
 3522SOL     OW22201   3.102   3.308  11.643  0.4941  0.2417  0.1183
 3522SOL    HW122202   3.108   3.302  11.547 -1.4798  2.3033 -0.1416
 3522SOL    HW222203   3.066   3.397  11.640 -0.4857 -0.1771 -0.8764
 3523SOL     OW22204   3.393   0.305  12.316 -0.0532  0.2988  0.0305
 3523SOL    HW122205   3.352   0.307  12.402  0.9928  0.3890  0.5199
 3523SOL    HW222206   3.471   0.360  12.319  1.3426 -1.7068  0.8625
 3524SOL     OW22207   2.041   4.266  14.037 -0.4424 -0.7977 -0.1858
 3524SOL    HW122208   2.026   4.173  14.055  2.0800 -1.5532 -2.0004
 3524SOL    HW222209   1.977   4.312  14.091  0.9446  0.2410  0.5847
 3525SOL     OW22210   2.681   2.570  11.010  0.1969 -0.3000 -0.4429
 3525SOL    HW122211   2.589   2.546  11.024 -0.1080  1.9562  1.5105
 3525SOL    HW222212   2.682   2.609  10.923 -1.7757 -1.6432 -1.0803
 3526SOL     OW22213   1.127   2.363   1.668 -0.0465  0.2301 -0.3116
 3526SOL    HW122214   1.172   2.365   1.583 -2.2108 -0.2781 -1.4849
 3526SOL    HW222215   1.177   2.296   1.714 -1.4116 -0.5974 -0.0207
 3527SOL     OW22216   4.462   4.045  10.044  0.0982  0.0807 -0.9296
 3527SOL    HW122217   4.543   3.999  10.068 -0.6340 -0.6124  0.2072
 3527SOL    HW222218   4.500   4.132  10.035 -2.7166  1.2770 -1.2601
 3528SOL     OW22219   3.175   1.905   1.404 -0.5757 -0.5854 -0.4113
 3528SOL    HW122220   3.115   1.837   1.436 -1.2536  0.4638  0.5574
 3528SOL    HW222221   3.114   1.976   1.384 -0.4648 -0.5959 -0.7867
 3529SOL     OW22222   0.721   2.178  10.636  0.2791 -0.0529  0.0158
 3529SOL    HW122223   0.679   2.162  10.720  2.5520 -0.7309  1.0255
 3529SOL    HW222224   0.797   2.121  10.629 -0.1332 -0.3754 -1.9055
 3530SOL     OW22225   1.042   2.047  16.579  0.4242  0.2524 -0.3926
 3530SOL    HW122226   1.105   1.980  16.605  2.2669  2.2121  0.2267
 3530SOL    HW222227   1.062   2.053  16.486  0.7583 -2.8754 -0.5263
 3531SOL     OW22228   0.809   1.199  10.432 -0.3871 -0.1316  0.5307
 3531SOL    HW122229   0.762   1.156  10.503  0.0784 -1.7230 -0.1268
 3531SOL    HW222230   0.798   1.292  10.454 -0.4093  0.4337 -1.8983
 3532SOL     OW22231   3.368   2.309  15.551 -0.0736 -0.0093 -0.0977
 3532SOL    HW122232   3.440   2.273  15.603  1.2631  3.2242  0.3182
 3532SOL    HW222233   3.315   2.352  15.618  1.4360 -0.7689  1.5871
 3533SOL     OW22234   3.941   3.195   3.028 -0.2452  0.2503  0.2409
 3533SOL    HW122235   4.020   3.185   3.080 -0.2778 -0.4073  0.1599
 3533SOL    HW222236   3.965   3.248   2.952 -0.2460 -0.3426 -0.1711
 3534SOL     OW22237   4.448   2.323   7.019  0.3138 -0.1815  0.1433
 3534SOL    HW122238   4.388   2.358   6.953 -1.6092 -2.6174  0.6145
 3534SOL    HW222239   4.501   2.401   7.037 -1.6135  0.7298  1.8071
 3535SOL     OW22240   0.689   3.930   9.290  0.2296  0.2003 -0.2501
 3535SOL    HW122241   0.745   3.961   9.218 -1.2060  0.6799 -1.1597
 3535SOL    HW222242   0.605   3.963   9.259  0.4891 -0.5131 -1.7011
 3536SOL     OW22243   0.750   1.490   8.573  0.1582  0.0820  0.0739
 3536SOL    HW122244   0.819   1.440   8.616  1.1514  0.8758 -0.5940
 3536SOL    HW222245   0.715   1.427   8.510 -0.3104 -1.7703  2.1707
 3537SOL     OW22246   3.523   1.862   1.907  0.4570  0.3174 -0.1184
 3537SOL    HW122247   3.546   1.835   1.996  2.1806 -0.8067 -0.9179
 3537SOL    HW222248   3.430   1.837   1.911  0.4327  0.6998  1.6320
 3538SOL     OW22249   4.268   1.207   9.160  0.2305 -0.2608  0.2719
 3538SOL    HW122250   4.230   1.279   9.110  1.3987 -0.2883 -0.6673
 3538SOL    HW222251   4.326   1.266   9.207  0.1543 -1.7842  2.2542
 3539SOL     OW22252   3.175   3.680   3.467  0.6009 -0.4367 -0.1616
 3539SOL    HW122253   3.146   3.765   3.503 -1.5317 -1.1707 -0.1382
 3539SOL    HW222254   3.266   3.670   3.493 -0.0973 -0.6491  2.1770
 3540SOL     OW22255   1.265   1.608   5.504  0.2412  0.1836  0.4553
 3540SOL    HW122256   1.267   1.611   5.408 -3.5703  0.2722  0.3716
 3540SOL    HW222257   1.178   1.570   5.516  0.5042 -0.9996 -1.5017
 3541SOL     OW22258   4.174   0.034  17.705 -0.5200 -0.4227  0.5386
 3541SOL    HW122259   4.113   4.725  17.646 -1.5899  1.3568  0.2931
 3541SOL    HW222260   4.130   0.119  17.708 -1.9790 -1.1555 -0.3197
 3542SOL     OW22261   2.546   1.327   2.583  0.1247 -0.2471 -0.2632
 3542SOL    HW122262   2.508   1.410   2.613  0.2891 -0.4606  0.5360
 3542SOL    HW222263   2.561   1.349   2.491  0.2608  1.8329  0.2434
 3543SOL     OW22264   3.591   0.557   8.249 -0.6474  0.2081  0.4704
 3543SOL    HW122265   3.631   0.602   8.175  2.0513 -0.2141  1.6916
 3543SOL    HW222266   3.541   0.628   8.288  0.8946  1.1518  0.7063
 3544SOL     OW22267   4.256   3.334   4.640  0.4040  0.3242  0.5093
 3544SOL    HW122268   4.188   3.387   4.681  0.9425  0.2746  1.4579
 3544SOL    HW222269   4.269   3.379   4.556 -1.7517  2.8457  1.5328
 3545SOL     OW22270   3.623   1.752   4.615  0.4022  0.1300  0.1317
 3545SOL    HW122271   3.645   1.706   4.696 -0.4508 -0.7074 -0.1121
 3545SOL    HW222272   3.544   1.799   4.639  0.2775 -0.1674  0.3094
 3546SOL     OW22273   1.245   4.615  12.743 -0.2953 -0.2852 -0.2898
 3546SOL    HW122274   1.235   4.655  12.829 -2.4019  0.0580 -0.6997
 3546SOL    HW222275   1.333   4.579  12.755  0.1343  1.4081  1.5371
 3547SOL     OW22276   1.915   3.995   8.414  0.4692  0.0212 -0.1911
 3547SOL    HW122277   1.869   4.015   8.495 -1.7375  0.2632 -1.4819
 3547SOL    HW222278   1.908   3.900   8.407 -1.7807  0.1642 -0.0044
 3548SOL     OW22279   1.273   0.949   8.039  0.2307 -0.0332 -1.3108
 3548SOL    HW122280   1.199   0.890   8.026  0.6572 -1.2082  1.7606
 3548SOL    HW222281   1.351   0.904   8.006 -0.0294 -1.6750  0.3147
 3549SOL     OW22282   2.329   1.744  10.529  0.2049  0.1436 -0.4704
 3549SOL    HW122283   2.412   1.756  10.575  0.4012  0.3716 -0.8851
 3549SOL    HW222284   2.281   1.700  10.599 -1.4360  0.3099 -1.4926
 3550SOL     OW22285   3.508   1.443  16.873  0.3716  0.3947  0.2097
 3550SOL    HW122286   3.444   1.374  16.891  1.5323 -0.9259 -0.6847
 3550SOL    HW222287   3.461   1.481  16.799 -0.6186  0.1961  0.7359
 3551SOL     OW22288   1.482   4.147   5.452 -0.4745 -0.3106 -0.4506
 3551SOL    HW122289   1.443   4.228   5.485 -0.4893 -0.2996 -0.4962
 3551SOL    HW222290   1.405   4.095   5.433 -0.6464  0.1223 -0.9483
 3552SOL     OW22291   1.643   2.917  13.910 -0.0433 -0.3647 -0.6623
 3552SOL    HW122292   1.595   2.946  13.833 -0.0570 -2.0784 -1.3048
 3552SOL    HW222293   1.726   2.953  13.880 -0.2688  0.3795 -0.4073
 3553SOL     OW22294   2.205   3.306   1.996  0.5358 -0.5656  0.2336
 3553SOL    HW122295   2.224   3.343   1.910  3.8390 -2.1193  0.2985
 3553SOL    HW222296   2.283   3.250   1.997  0.8308 -0.2005 -1.6026
 3554SOL     OW22297   1.194   0.507   6.816  0.4192  0.6037  0.0839
 3554SOL    HW122298   1.137   0.583   6.827 -0.4116  0.0361 -0.3086
 3554SOL    HW222299   1.243   0.509   6.898  1.4236  0.6618 -0.5036
 3555SOL     OW22300   3.270   3.482  11.838 -0.1542 -0.6111 -0.5467
 3555SOL    HW122301   3.232   3.404  11.799 -1.6405  0.7744 -1.8521
 3555SOL    HW222302   3.365   3.466  11.834 -0.0258  0.0305  0.0153
 3556SOL     OW22303   0.271   1.197   1.988  0.2876  0.5479  0.3796
 3556SOL    HW122304   0.204   1.255   2.024 -0.0605  0.7263 -0.5435
 3556SOL    HW222305   0.288   1.136   2.059  0.8797  1.6023  1.1439
 3557SOL     OW22306   4.478   4.429   0.563  0.5312 -0.4710 -0.0601
 3557SOL    HW122307   4.426   4.368   0.511 -1.0822  1.9461 -1.2921
 3557SOL    HW222308   4.425   4.508   0.553  0.0884 -0.6450  0.9496
 3558SOL     OW22309   2.159   3.016  15.597  0.9608 -0.1133 -0.2362
 3558SOL    HW122310   2.178   3.096  15.646 -1.9682  0.3560  0.1511
 3558SOL    HW222311   2.122   2.956  15.661 -1.6191  1.1299 -0.5694
 3559SOL     OW22312   2.221   4.478  14.729  0.4033 -0.3013 -0.0958
 3559SOL    HW122313   2.196   4.403  14.676  3.1005 -0.3783 -1.2672
 3559SOL    HW222314   2.254   4.447  14.814  1.0230  0.6357  0.0126
 3560SOL     OW22315   0.721   2.181   7.232  0.1923  0.1333  0.0192
 3560SOL    HW122316   0.692   2.203   7.144 -0.5449  0.8838  0.4524
 3560SOL    HW222317   0.731   2.086   7.228 -0.4585  0.0935 -0.5697
 3561SOL     OW22318   4.430   4.599  10.664  0.1373  0.0091 -0.2882
 3561SOL    HW122319   4.425   4.664  10.594  4.7854  0.9621  0.2880
 3561SOL    HW222320   4.499   4.629  10.723 -0.8987 -1.7288  1.7921
 3562SOL     OW22321   3.338   2.681   4.732 -0.1213  0.4367 -0.0730
 3562SOL    HW122322   3.332   2.776   4.717 -0.1114  0.3181 -0.8228
 3562SOL    HW222323   3.271   2.671   4.800  1.3036  0.9098  1.4204
 3563SOL     OW22324   1.641   3.009   2.873 -0.1252 -0.1227 -0.2947
 3563SOL    HW122325   1.678   3.095   2.891 -0.4675  0.3381 -1.7804
 3563SOL    HW222326   1.552   3.039   2.857 -0.6042 -1.6428 -0.4738
 3564SOL     OW22327   4.474   0.681   8.162  0.4923 -0.3662 -0.0632
 3564SOL    HW122328   4.425   0.735   8.224  2.4070  2.3858 -0.9479
 3564SOL    HW222329   4.515   0.629   8.231  0.0729  0.0160  0.4792
 3565SOL     OW22330   0.793   1.884   1.461 -0.4848 -0.2597  0.3460
 3565SOL    HW122331   0.864   1.921   1.409 -1.4236 -1.7899 -2.0668
 3565SOL    HW222332   0.784   1.934   1.542 -0.4815 -0.0578  0.2221
 3566SOL     OW22333   0.559   1.713   1.510 -0.0878  0.0848  0.2915
 3566SOL    HW122334   0.655   1.720   1.505 -0.0059  0.7544  2.7425
 3566SOL    HW222335   0.527   1.803   1.507  0.7423  0.4081  1.0327
 3567SOL     OW22336   0.258   0.811   2.561 -0.8516  0.5532 -0.4029
 3567SOL    HW122337   0.204   0.879   2.520  0.5027  1.7907 -0.1312
 3567SOL    HW222338   0.220   0.811   2.649 -0.5235  2.4621 -0.2603
 3568SOL     OW22339   1.201   1.517   2.463  0.2078 -0.3354  0.1120
 3568SOL    HW122340   1.169   1.430   2.439  2.1557 -1.0481  0.1104
 3568SOL    HW222341   1.130   1.578   2.442  0.9209  1.2605  2.3161
 3569SOL     OW22342   3.096   0.131  10.750  0.2401  0.2809  0.4343
 3569SOL    HW122343   3.062   0.070  10.815  1.1249 -1.3807 -0.6859
 3569SOL    HW222344   3.117   0.206  10.807 -0.2757  0.4793  0.3591
 3570SOL     OW22345   1.988   1.252   6.925  0.1827 -0.0897  0.7021
 3570SOL    HW122346   2.079   1.251   6.894  0.5118  1.1146  1.6299
 3570SOL    HW222347   1.996   1.248   7.020 -2.5781 -1.9016  0.8584
 3571SOL     OW22348   1.801   3.805   1.681 -0.5717  0.0234 -0.3978
 3571SOL    HW122349   1.750   3.776   1.757 -0.9231  1.8177  0.0665
 3571SOL    HW222350   1.884   3.779   1.720 -1.1649  0.0032  0.8741
 3572SOL     OW22351   4.329   1.281   1.259 -0.0591 -0.7858  0.1398
 3572SOL    HW122352   4.274   1.344   1.213 -0.4527 -0.9808  0.3392
 3572SOL    HW222353   4.415   1.316   1.236 -0.3523 -0.8174 -0.9750
 3573SOL     OW22354   2.015   0.161  10.964  0.1539 -0.1054  0.5566
 3573SOL    HW122355   1.948   0.207  11.016 -0.1049  0.7622 -0.5465
 3573SOL    HW222356   2.080   0.136  11.029  1.9918  0.9924 -0.8525
 3574SOL     OW22357   4.645   1.707  10.776 -0.2566 -0.3951 -0.2559
 3574SOL    HW122358   4.575   1.673  10.721 -0.4258  1.8287 -1.4185
 3574SOL    HW222359   4.694   1.756  10.710 -0.4258  0.2396  0.0908
 3575SOL     OW22360   3.336   3.578   2.923 -0.0513  0.1877  0.1159
 3575SOL    HW122361   3.317   3.619   3.007  1.0848  2.1122 -0.5453
 3575SOL    HW222362   3.423   3.550   2.948  0.2117  2.8320  2.1449
 3576SOL     OW22363   0.696   1.152   1.840 -0.5496 -0.2154  0.0205
 3576SOL    HW122364   0.707   1.064   1.804  1.1687  0.1144 -0.2534
 3576SOL    HW222365   0.604   1.147   1.866 -0.6063  3.2188  0.5203
 3577SOL     OW22366   3.039   1.676   7.325 -0.4198 -0.0714  0.3187
 3577SOL    HW122367   3.112   1.688   7.386 -0.4558 -1.1080  0.5744
 3577SOL    HW222368   2.980   1.622   7.378 -1.1760 -1.0010 -1.4618
 3578SOL     OW22369   0.797   0.641   4.330  0.4388 -0.2868  0.5766
 3578SOL    HW122370   0.715   0.649   4.378 -1.0884 -2.0939 -1.6817
 3578SOL    HW222371   0.780   0.553   4.295  0.3060 -0.2332  0.5078
 3579SOL     OW22372   2.205   0.243  15.457  0.1461  0.4049  0.2625
 3579SOL    HW122373   2.185   0.151  15.445 -0.0766  0.6800 -1.4247
 3579SOL    HW222374   2.298   0.230  15.475  0.1917  0.2294 -0.0951
 3580SOL     OW22375   1.740   3.330   9.447 -0.0957 -0.2973 -0.1270
 3580SOL    HW122376   1.684   3.281   9.507 -0.6449  0.5822  0.0733
 3580SOL    HW222377   1.818   3.339   9.503 -0.4706 -2.4426  0.7177
 3581SOL     OW22378   3.906   3.281  12.908  0.0684  0.4946  0.1985
 3581SOL    HW122379   3.989   3.302  12.866 -0.2859 -0.5237 -1.0007
 3581SOL    HW222380   3.944   3.234  12.982  0.5287 -0.0969 -0.4237
 3582SOL     OW22381   4.664   2.923   8.209 -0.0994  0.4557 -0.2947
 3582SOL    HW122382   0.022   2.937   8.223 -0.3332 -0.3037  2.0573
 3582SOL    HW222383   4.634   2.928   8.300  1.3865 -0.5900  0.2601
 3583SOL     OW22384   4.477   3.513   2.007  0.2482 -0.0233  0.2475
 3583SOL    HW122385   4.487   3.597   2.052 -1.3140  0.5609 -0.4631
 3583SOL    HW222386   4.561   3.475   2.030  0.7706  0.5745 -0.6747
 3584SOL     OW22387   1.507   0.780   4.736 -0.6932  0.6048  0.0200
 3584SOL    HW122388   1.532   0.830   4.813  1.0539 -0.3508  0.0594
 3584SOL    HW222389   1.415   0.806   4.724 -0.9389 -0.3398 -0.2116
 3585SOL     OW22390   2.745   2.278  16.892  0.4990  0.5082 -0.4745
 3585SOL    HW122391   2.683   2.243  16.957  0.9545  0.7638  0.1001
 3585SOL    HW222392   2.701   2.242  16.815 -2.6623 -2.6141  2.8017
 3586SOL     OW22393   1.247   1.583   6.210  0.2652  0.3984 -0.0104
 3586SOL    HW122394   1.205   1.542   6.134 -0.5254  0.4541  0.3991
 3586SOL    HW222395   1.304   1.511   6.237 -2.0220 -0.6805  1.9080
 3587SOL     OW22396   4.699   0.400  17.414  0.0060 -0.1580 -0.3348
 3587SOL    HW122397   0.018   0.387  17.491 -2.1167  1.5051  1.4312
 3587SOL    HW222398   4.704   0.495  17.403  2.9540 -0.2012  0.7077
 3588SOL     OW22399   0.809   0.106   3.187 -0.0040 -0.6531 -0.3609
 3588SOL    HW122400   0.851   0.164   3.124  0.8610  1.4979  2.2067
 3588SOL    HW222401   0.869   0.031   3.191  2.6823  1.4730 -0.9421
 3589SOL     OW22402   3.059   1.922   3.311 -0.0349  0.1902  0.0811
 3589SOL    HW122403   3.029   2.010   3.334 -0.0893  0.5861 -1.5660
 3589SOL    HW222404   3.116   1.945   3.237  3.2235 -2.6440  1.6991
 3590SOL     OW22405   3.045   1.269   7.192 -0.5673 -0.2543  1.0111
 3590SOL    HW122406   3.057   1.228   7.106 -0.3225 -1.3256  1.5535
 3590SOL    HW222407   2.957   1.243   7.216 -1.0955  0.0755 -0.5947
 3591SOL     OW22408   2.296   2.903  10.755 -0.2841  0.0720 -0.5600
 3591SOL    HW122409   2.315   2.913  10.848  1.8538  2.1984 -1.2402
 3591SOL    HW222410   2.377   2.862  10.724  0.9786  2.3714 -0.3125
 3592SOL     OW22411   1.611   1.891   7.242  0.7860 -0.1208 -0.1656
 3592SOL    HW122412   1.522   1.863   7.266  0.3555  0.9691 -0.5109
 3592SOL    HW222413   1.626   1.954   7.312  1.6650 -1.0829  0.5080
 3593SOL     OW22414   0.129   2.161   5.312  0.1061 -0.3309 -0.2910
 3593SOL    HW122415   0.212   2.143   5.357 -1.1767  0.7694  2.4667
 3593SOL    HW222416   0.075   2.096   5.356 -0.1541  1.0686  1.4566
 3594SOL     OW22417   0.607   2.785  10.559  0.4225  0.3727 -0.2327
 3594SOL    HW122418   0.688   2.810  10.604  0.3420 -0.2343  0.2397
 3594SOL    HW222419   0.563   2.728  10.621  0.7135 -1.0003 -1.2726
 3595SOL     OW22420   0.389   2.098   2.155 -0.4989  0.5040 -0.1110
 3595SOL    HW122421   0.467   2.079   2.103  0.8552  2.4175  1.2403
 3595SOL    HW222422   0.362   2.008   2.173 -0.5320  0.6760  0.6615
 3596SOL     OW22423   2.719   0.857   6.055 -0.0759 -0.1101 -0.3375
 3596SOL    HW122424   2.752   0.775   6.017  0.9746 -0.3422  1.0964
 3596SOL    HW222425   2.717   0.849   6.150  0.8747 -0.0818 -0.3155
 3597SOL     OW22426   2.176   0.299   5.931  0.2014  0.1634  1.2361
 3597SOL    HW122427   2.088   0.273   5.958 -0.0673 -1.1274 -0.8837
 3597SOL    HW222428   2.178   0.385   5.973  0.7150 -0.1616  1.8750
 3598SOL     OW22429   0.846   3.389   4.904 -0.8176  0.2369 -0.4947
 3598SOL    HW122430   0.889   3.462   4.862  0.8858 -1.9608 -2.5703
 3598SOL    HW222431   0.880   3.312   4.858  0.3030 -0.2900  1.2166
 3599SOL     OW22432   2.777   3.759  16.813  0.6770  0.0892  0.1440
 3599SOL    HW122433   2.851   3.700  16.802  0.4304 -0.1551 -0.1772
 3599SOL    HW222434   2.816   3.828  16.867 -1.3880  0.1248  1.6022
 3600SOL     OW22435   1.897   1.425  12.715  0.3628  0.1928  0.5840
 3600SOL    HW122436   1.923   1.430  12.807 -2.5316  0.0537  1.4244
 3600SOL    HW222437   1.972   1.382  12.675 -0.6914  0.6224 -1.8492
 3601SOL     OW22438   1.340   2.469   6.088  0.5061  0.6110 -0.2994
 3601SOL    HW122439   1.297   2.539   6.137  3.7636  1.3811  1.4891
 3601SOL    HW222440   1.430   2.502   6.084  0.5023  0.4103 -1.9440
 3602SOL     OW22441   3.043   0.906   3.752 -0.5363 -0.9515 -0.5519
 3602SOL    HW122442   2.987   0.954   3.813 -0.0694 -3.3162  1.7217
 3602SOL    HW222443   2.983   0.856   3.696 -1.0594 -0.0151 -0.8360
 3603SOL     OW22444   4.619   2.743   7.089 -0.3236  0.4712 -0.2340
 3603SOL    HW122445   4.623   2.662   7.140 -3.8634  0.4318 -0.0129
 3603SOL    HW222446   4.534   2.773   7.121  0.4300  2.0753  0.2318
 3604SOL     OW22447   1.091   3.761   3.314 -0.0123 -0.5680 -0.3477
 3604SOL    HW122448   1.164   3.739   3.372 -0.8430 -0.6469  0.6850
 3604SOL    HW222449   1.094   3.855   3.296 -0.4911 -0.5639 -0.3947
 3605SOL     OW22450   4.513   3.450   6.964 -0.0993  0.1062  0.4157
 3605SOL    HW122451   4.566   3.374   6.939  0.0806 -0.2847  2.0054
 3605SOL    HW222452   4.446   3.456   6.896 -1.0486 -0.8863  1.2590
 3606SOL     OW22453   0.398   0.174   9.372 -0.7200  0.5160 -0.2121
 3606SOL    HW122454   0.455   0.249   9.387  1.3039 -1.1567  0.4146
 3606SOL    HW222455   0.374   0.190   9.281  1.5371 -3.4946 -1.5157
 3607SOL     OW22456   3.141   3.004   1.773 -0.1453 -0.1072  0.3513
 3607SOL    HW122457   3.178   2.969   1.692 -2.7553 -1.2949 -0.3292
 3607SOL    HW222458   3.073   2.940   1.791 -0.1786 -0.1606  0.0347
 3608SOL     OW22459   4.715   0.726  15.873 -0.0036 -0.7422  1.0620
 3608SOL    HW122460   4.692   0.637  15.844  0.1307  0.3342 -2.3055
 3608SOL    HW222461   4.658   0.723  15.949 -0.7492  0.0565  0.5309
 3609SOL     OW22462   2.028   3.479   4.404 -0.0781  0.2146 -0.0553
 3609SOL    HW122463   1.992   3.446   4.322 -0.3897  0.0339  0.1552
 3609SOL    HW222464   2.037   3.574   4.391  2.0908  0.0078  0.0060
 3610SOL     OW22465   1.319   4.592   0.170  0.0012  0.2661  0.1722
 3610SOL    HW122466   1.396   4.540   0.149 -0.2938 -1.0777  2.3605
 3610SOL    HW222467   1.264   4.577   0.093 -1.2734 -2.2697  1.5461
 3611SOL     OW22468   2.025   2.863  10.636 -1.3237  1.0611 -0.1860
 3611SOL    HW122469   2.015   2.774  10.600 -2.1611  1.3853 -0.7681
 3611SOL    HW222470   2.120   2.859  10.643 -1.3010  1.6632 -0.1379
 3612SOL     OW22471   1.329   1.504   4.785 -0.1428  0.1300 -0.3858
 3612SOL    HW122472   1.322   1.467   4.873 -2.0251 -1.6695 -1.2980
 3612SOL    HW222473   1.423   1.492   4.770 -0.3127  2.8127 -3.4890
 3613SOL     OW22474   3.831   4.259   2.477  0.2988  0.0114  0.7514
 3613SOL    HW122475   3.878   4.279   2.396 -0.4173 -0.2934  0.2556
 3613SOL    HW222476   3.891   4.204   2.527  1.7332  2.6629  1.9345
 3614SOL     OW22477   1.260   1.197   7.869  0.1138  0.3053  0.1299
 3614SOL    HW122478   1.204   1.176   7.793  1.4874  2.7721 -1.5458
 3614SOL    HW222479   1.250   1.126   7.933 -1.3494  1.1124  0.7836
 3615SOL     OW22480   3.042   1.605  17.265 -0.3691 -0.1808  0.5331
 3615SOL    HW122481   3.044   1.518  17.303 -1.0862 -0.6476 -0.4850
 3615SOL    HW222482   3.118   1.596  17.207 -1.3505 -1.5241 -0.5309
 3616SOL     OW22483   3.985   4.625   4.567  0.4916  0.3589 -0.7861
 3616SOL    HW122484   4.036   4.567   4.510 -1.5161  1.0662 -3.3376
 3616SOL    HW222485   3.899   4.616   4.525  1.1892  0.1309 -2.1845
 3617SOL     OW22486   1.130   3.663  12.084  0.4549  0.6401  0.3039
 3617SOL    HW122487   1.059   3.622  12.133  1.2853 -3.4256 -1.9057
 3617SOL    HW222488   1.164   3.739  12.132  1.2978 -0.0678  0.8113
 3618SOL     OW22489   2.077   3.108   0.784 -0.4808  0.1742  0.4481
 3618SOL    HW122490   2.170   3.085   0.790 -0.6593 -1.1955 -1.9782
 3618SOL    HW222491   2.085   3.196   0.749  0.2590 -1.0692 -2.4715
 3619SOL     OW22492   0.418   3.088   2.918 -0.2112  0.0980  0.4872
 3619SOL    HW122493   0.325   3.108   2.908  0.4267  2.7356 -0.0971
 3619SOL    HW222494   0.435   3.092   3.013  1.1365 -3.3819  0.3847
 3620SOL     OW22495   4.032   0.106   9.545 -0.3104 -0.3747 -0.0688
 3620SOL    HW122496   4.013   0.019   9.512 -1.9073  0.5452 -1.6005
 3620SOL    HW222497   3.966   0.155   9.495 -0.6850  1.3506  2.0890
 3621SOL     OW22498   0.196   3.063   1.976  0.4573 -0.2445  0.1508
 3621SOL    HW122499   0.158   3.132   1.922  0.6045  1.1656  1.8474
 3621SOL    HW222500   0.139   3.057   2.052 -0.8047 -1.7241 -0.9103
 3622SOL     OW22501   2.749   2.586   7.153 -0.4875 -0.4792 -0.0010
 3622SOL    HW122502   2.669   2.624   7.116 -0.1165 -0.6235 -0.9444
 3622SOL    HW222503   2.722   2.547   7.237  2.2560 -0.8433  0.7064
 3623SOL     OW22504   0.594   1.137  10.794 -0.1332  0.0130  0.0616
 3623SOL    HW122505   0.590   1.233  10.795  0.8541  0.0578  0.0408
 3623SOL    HW222506   0.548   1.109  10.874  0.3040 -1.0570 -0.0647
 3624SOL     OW22507   3.474   3.616  11.220 -0.2722 -0.6210 -0.0523
 3624SOL    HW122508   3.523   3.593  11.141 -1.8727  1.4630 -1.6763
 3624SOL    HW222509   3.491   3.544  11.280 -1.3582 -1.0097 -0.2128
 3625SOL     OW22510   0.807   4.283  16.611 -0.6155  0.1113  0.7498
 3625SOL    HW122511   0.712   4.289  16.617 -0.6842 -0.6490  0.4372
 3625SOL    HW222512   0.818   4.373  16.581  2.9986 -1.4360 -2.6702
 3626SOL     OW22513   3.835   0.331  16.171  0.4141 -0.5161 -0.4563
 3626SOL    HW122514   3.840   0.407  16.113  0.1020 -1.1121 -1.2679
 3626SOL    HW222515   3.908   0.275  16.144  0.2805 -1.0658  0.3100
 3627SOL     OW22516   1.172   0.489   4.353 -0.2191  0.1505 -0.9133
 3627SOL    HW122517   1.116   0.435   4.297 -1.9614  0.3227  0.6603
 3627SOL    HW222518   1.248   0.431   4.346 -1.3738 -1.7630  2.5216
 3628SOL     OW22519   1.659   2.145   3.070 -0.1031 -0.1574  0.2090
 3628SOL    HW122520   1.568   2.143   3.041  0.3543  1.1949 -1.3347
 3628SOL    HW222521   1.676   2.052   3.088  4.6924  0.4699 -1.0505
 3629SOL     OW22522   4.107   0.904  12.523  0.3460 -0.1521 -0.1901
 3629SOL    HW122523   4.018   0.875  12.539  0.3125  0.7114  1.2305
 3629SOL    HW222524   4.156   0.822  12.517 -0.0252 -0.1273 -3.7012
 3630SOL     OW22525   0.922   0.687   9.797  0.0911 -0.0391  0.0520
 3630SOL    HW122526   0.888   0.598   9.803  0.7833 -0.3390 -0.4960
 3630SOL    HW222527   0.842   0.737   9.783 -0.2785 -0.4623  0.6707
 3631SOL     OW22528   0.308   4.062   8.521  0.0446  0.4046 -0.1060
 3631SOL    HW122529   0.326   4.149   8.557 -0.9486  0.6324 -0.1706
 3631SOL    HW222530   0.221   4.064   8.481 -1.3932  1.4718  3.0343
 3632SOL     OW22531   0.259   0.873   7.054 -0.2365  0.0053  0.1328
 3632SOL    HW122532   0.210   0.876   6.972  1.1937 -2.4614 -0.8027
 3632SOL    HW222533   0.208   0.821   7.117  0.3275  0.7243  1.1893
 3633SOL     OW22534   0.815   0.526  11.566  0.6792 -1.4913  0.0838
 3633SOL    HW122535   0.834   0.549  11.657 -0.3304  1.4853 -0.4732
 3633SOL    HW222536   0.763   0.449  11.590  0.6661 -1.2650  0.7781
 3634SOL     OW22537   2.234   1.339   4.772  0.3115 -0.5249 -0.2103
 3634SOL    HW122538   2.168   1.354   4.840  0.1532  0.2835 -0.5463
 3634SOL    HW222539   2.270   1.258   4.809  1.1208  0.6492  1.5981
 3635SOL     OW22540   3.680   3.094   9.663  0.3756 -0.5562  0.1635
 3635SOL    HW122541   3.712   3.107   9.752  1.1190  2.4894 -0.5799
 3635SOL    HW222542   3.590   3.064   9.676 -0.8709  2.1493 -2.2417
 3636SOL     OW22543   1.764   4.157   4.267 -0.6474 -0.3857 -0.4726
 3636SOL    HW122544   1.839   4.109   4.302 -0.1855  0.7870  0.1703
 3636SOL    HW222545   1.800   4.246   4.257  1.2853 -0.8575  2.3590
 3637SOL     OW22546   4.305   4.260   4.710  0.0395 -0.4808 -0.1103
 3637SOL    HW122547   4.371   4.249   4.779  0.6924 -3.5570 -1.2650
 3637SOL    HW222548   4.310   4.171   4.677  1.3204  0.0953 -1.4422
 3638SOL     OW22549   2.545   0.713  16.766 -0.7134  0.3609  0.1710
 3638SOL    HW122550   2.558   0.801  16.731  1.2719 -0.8038 -1.9698
 3638SOL    HW222551   2.522   0.674  16.682 -0.4671 -1.5232  0.9666
 3639SOL     OW22552   2.230   1.509   2.870  0.2021 -1.0873 -0.3930
 3639SOL    HW122553   2.298   1.483   2.932 -1.2926  0.9371  2.1222
 3639SOL    HW222554   2.240   1.449   2.796  1.9720 -0.1675 -0.8758
 3640SOL     OW22555   0.368   4.017   5.431 -0.1431 -0.3444 -0.3578
 3640SOL    HW122556   0.414   3.955   5.374  0.6514 -2.2382  2.3716
 3640SOL    HW222557   0.373   4.089   5.368 -1.4822  0.0952  0.0434
 3641SOL     OW22558   4.267   3.035   3.498 -0.6144  0.2750  0.4530
 3641SOL    HW122559   4.253   3.074   3.585 -0.5401 -2.2421  1.5912
 3641SOL    HW222560   4.185   2.985   3.498 -1.5940  1.8499 -2.4523
 3642SOL     OW22561   0.343   2.757   8.549  0.6853 -0.3948  0.3004
 3642SOL    HW122562   0.410   2.788   8.488  1.4219 -1.2809  0.6608
 3642SOL    HW222563   0.301   2.840   8.572  0.6761 -0.8790  2.0233
 3643SOL     OW22564   1.316   1.508   3.554  0.2608  0.0177 -0.3785
 3643SOL    HW122565   1.243   1.446   3.564 -0.8222  1.1598 -1.2810
 3643SOL    HW222566   1.362   1.509   3.638 -0.6325  2.4167  0.0658
 3644SOL     OW22567   2.541   4.576   7.358 -0.5745  0.1919 -0.0987
 3644SOL    HW122568   2.536   4.577   7.263  0.2650  0.3301 -0.1441
 3644SOL    HW222569   2.449   4.567   7.383 -0.7463 -1.4588 -1.3366
 3645SOL     OW22570   2.990   0.603   2.039 -0.1527  0.2843 -0.1416
 3645SOL    HW122571   3.030   0.538   1.982 -0.4002 -0.7610  0.8925
 3645SOL    HW222572   3.072   0.645   2.064 -0.0930  1.1993 -1.8502
 3646SOL     OW22573   4.609   1.899   0.685 -0.2933  0.5001  0.6085
 3646SOL    HW122574   4.628   1.932   0.773 -0.6579  1.8178  0.1934
 3646SOL    HW222575   4.699   1.912   0.656  0.0696  0.8797  1.9237
 3647SOL     OW22576   4.724   0.595   9.372  0.0248 -0.4529  0.3048
 3647SOL    HW122577   4.678   0.589   9.456  1.3953 -0.7760  1.0230
 3647SOL    HW222578   0.075   0.571   9.406 -1.1463 -2.5835  1.7484
 3648SOL     OW22579   3.400   2.984   9.626 -0.4472  0.5607 -0.3244
 3648SOL    HW122580   3.370   3.002   9.537  0.1183  2.5712 -0.1213
 3648SOL    HW222581   3.363   2.897   9.644  2.2743 -0.7109 -0.9439
 3649SOL     OW22582   1.238   1.408  11.708 -0.2645  0.0027 -0.4488
 3649SOL    HW122583   1.147   1.404  11.678 -1.9629  1.3948  4.4459
 3649SOL    HW222584   1.282   1.400  11.624  0.3593 -0.6767 -0.0543
 3650SOL     OW22585   4.380   2.183   5.482  0.3028 -0.3234 -0.2277
 3650SOL    HW122586   4.434   2.156   5.556 -0.1193  2.4915  1.1133
 3650SOL    HW222587   4.384   2.277   5.499  0.9503 -0.1875 -1.0813
 3651SOL     OW22588   1.733   0.676   8.757  0.4388  0.2442 -0.5311
 3651SOL    HW122589   1.652   0.633   8.730  1.1124 -1.0061 -0.5767
 3651SOL    HW222590   1.759   0.614   8.826 -0.6907 -2.2085 -2.3527
 3652SOL     OW22591   2.847   4.064   2.147  0.6227  0.5944  0.3107
 3652SOL    HW122592   2.883   4.028   2.228  2.9284  1.0297 -0.5154
 3652SOL    HW222593   2.869   3.992   2.088 -2.5201 -0.5781  0.5482
 3653SOL     OW22594   3.186   2.986   4.479  0.1140 -0.2684  0.0049
 3653SOL    HW122595   3.275   3.021   4.474 -0.5816  1.6267  0.7211
 3653SOL    HW222596   3.149   3.034   4.553 -1.9539 -1.1985 -0.4384
 3654SOL     OW22597   2.753   4.135   4.546 -0.0408 -0.3297  0.1504
 3654SOL    HW122598   2.805   4.122   4.626 -2.7805  0.1567  2.0225
 3654SOL    HW222599   2.787   4.069   4.486  1.2206  0.1569  0.3329
 3655SOL     OW22600   1.688   3.044   5.496  0.2600 -0.1611  0.3443
 3655SOL    HW122601   1.667   2.952   5.485 -1.7813  0.0854  2.0823
 3655SOL    HW222602   1.676   3.061   5.590 -1.5014 -0.8393  0.2264
 3656SOL     OW22603   2.403   1.193   5.813  0.2917 -0.1754 -0.2212
 3656SOL    HW122604   2.324   1.215   5.862  0.0694 -0.6806 -0.3499
 3656SOL    HW222605   2.372   1.206   5.724  1.4810 -1.1097 -0.7740
 3657SOL     OW22606   1.789   0.578   6.936 -0.0806  0.3873  0.2076
 3657SOL    HW122607   1.808   0.576   6.842 -1.6478  0.2735 -0.1091
 3657SOL    HW222608   1.736   0.657   6.945 -1.5693 -0.5219 -0.6442
 3658SOL     OW22609   1.234   1.675  10.909 -0.3691 -0.5285 -0.0140
 3658SOL    HW122610   1.204   1.743  10.849  1.3675  0.1547 -0.0795
 3658SOL    HW222611   1.192   1.712  10.987  1.8031 -1.1846  1.4731
 3659SOL     OW22612   1.661   1.638   4.660  0.1376  0.4256  0.6496
 3659SOL    HW122613   1.703   1.559   4.692  0.1725 -0.3465 -1.2538
 3659SOL    HW222614   1.734   1.676   4.610  0.5955  0.7259  1.5615
 3660SOL     OW22615   3.291   2.071  16.223  0.1626 -0.0932 -0.0230
 3660SOL    HW122616   3.240   2.064  16.142 -1.6490  1.1918  0.9881
 3660SOL    HW222617   3.369   2.019  16.207  0.6524  0.6674 -0.0909
 3661SOL     OW22618   0.359   0.676   3.920 -0.1484 -0.2564  0.4662
 3661SOL    HW122619   0.333   0.742   3.984  0.0923 -0.9451  1.2726
 3661SOL    HW222620   0.342   0.596   3.970  0.3640 -1.5510 -1.4330
 3662SOL     OW22621   4.638   2.960   3.826  0.1480  0.2354  0.5417
 3662SOL    HW122622   4.700   2.910   3.879 -2.0223 -1.4782  1.4499
 3662SOL    HW222623   4.707   3.018   3.792  0.2977 -0.5921 -0.5696
 3663SOL     OW22624   1.850   0.919  11.450 -0.4759 -0.2606 -0.4564
 3663SOL    HW122625   1.861   0.831  11.488 -0.5639  0.5751  1.5177
 3663SOL    HW222626   1.917   0.972  11.493 -2.3602  0.6750  1.2854
 3664SOL     OW22627   0.044   3.907   8.067 -0.3863  0.0693 -0.2167
 3664SOL    HW122628   4.729   3.904   7.985  1.0028  1.6264 -1.1232
 3664SOL    HW222629   4.709   3.910   8.132  1.1769 -0.8428  1.5134
 3665SOL     OW22630   2.008   1.617  12.369 -0.2304  0.3372 -0.7008
 3665SOL    HW122631   2.061   1.685  12.326 -0.4694 -0.0290 -1.5627
 3665SOL    HW222632   1.920   1.638  12.339  0.1878  0.6270 -1.7394
 3666SOL     OW22633   3.886   1.049  15.693  0.0604  0.7056 -0.1682
 3666SOL    HW122634   3.888   0.972  15.636 -0.2825  0.5792 -0.0067
 3666SOL    HW222635   3.792   1.062  15.704 -0.1212  0.6077 -1.5206
 3667SOL     OW22636   3.876   0.762  17.000 -0.0751  0.0583  0.6675
 3667SOL    HW122637   3.926   0.839  16.973  1.3729 -1.4257 -0.9945
 3667SOL    HW222638   3.924   0.707  16.937 -0.2710  0.0222  0.5518
 3668SOL     OW22639   3.710   2.122   5.132 -0.1408 -0.6605 -0.3595
 3668SOL    HW122640   3.770   2.084   5.197  0.0494  1.4724  0.7250
 3668SOL    HW222641   3.743   2.211   5.125  1.3437 -1.1284  0.6437
 3669SOL     OW22642   1.983   1.703   5.348 -0.4768 -0.1411 -0.4645
 3669SOL    HW122643   1.935   1.636   5.396  0.4803 -0.1985  0.4107
 3669SOL    HW222644   1.925   1.709   5.272 -2.3858  1.2252  1.0795
 3670SOL     OW22645   2.499   3.808   1.425  0.0332 -0.3955  0.1609
 3670SOL    HW122646   2.513   3.780   1.335 -1.5387  0.8632 -0.4666
 3670SOL    HW222647   2.432   3.875   1.411  0.0737  0.0227  1.9222
 3671SOL     OW22648   0.088   2.418  14.659  0.1852  0.1023 -0.2299
 3671SOL    HW122649   0.101   2.447  14.749  1.5465  0.7163 -0.6334
 3671SOL    HW222650   0.178   2.411  14.627  0.0850 -0.5504 -0.3758
 3672SOL     OW22651   3.777   3.141   7.033  0.1985 -0.4083  0.4261
 3672SOL    HW122652   3.846   3.180   7.088 -2.1726  1.4392  2.0739
 3672SOL    HW222653   3.742   3.088   7.105  2.8886 -2.7347  0.0451
 3673SOL     OW22654   0.783   3.338   6.403  0.6498 -0.9053 -0.3164
 3673SOL    HW122655   0.740   3.423   6.398  1.0272 -0.6184  1.0666
 3673SOL    HW222656   0.735   3.295   6.474 -0.3638  0.2703 -0.3039
 3674SOL     OW22657   0.642   3.178   9.788 -0.7876 -0.2421  0.1231
 3674SOL    HW122658   0.683   3.108   9.840  1.7769  0.5693 -0.7806
 3674SOL    HW222659   0.566   3.195   9.844  0.6944  1.4799  1.6225
 3675SOL     OW22660   3.729   0.189   1.623  0.3853  0.1043 -0.6641
 3675SOL    HW122661   3.679   0.264   1.592  0.1660 -0.4490 -1.6443
 3675SOL    HW222662   3.819   0.215   1.604  0.2595  2.5904  2.1931
 3676SOL     OW22663   0.590   0.580   4.513 -0.0798 -0.0102 -0.6892
 3676SOL    HW122664   0.502   0.561   4.479 -0.3050  0.7133 -0.5144
 3676SOL    HW222665   0.567   0.670   4.533  0.9672  0.0893  0.0725
 3677SOL     OW22666   3.971   2.066   2.562  0.0914 -0.0575 -0.4090
 3677SOL    HW122667   3.972   2.145   2.616  0.6915  0.4992 -1.2254
 3677SOL    HW222668   3.930   2.104   2.484 -2.8307  1.6601  1.9678
 3678SOL     OW22669   3.897   3.342   3.357  0.0770  0.4165  0.0381
 3678SOL    HW122670   3.963   3.389   3.307 -1.3482  1.2184 -1.1011
 3678SOL    HW222671   3.920   3.251   3.338 -1.8857  0.0798 -0.7794
 3679SOL     OW22672   0.029   0.168   7.113  0.3314  0.2244 -0.7101
 3679SOL    HW122673   4.696   0.234   7.104 -2.1095 -2.1913  0.0152
 3679SOL    HW222674   0.040   0.177   7.207 -0.2811 -0.2497 -0.5892
 3680SOL     OW22675   2.841   0.026   3.898 -0.0778 -0.2716 -0.1496
 3680SOL    HW122676   2.911   0.036   3.833  0.4526 -0.3757  0.4033
 3680SOL    HW222677   2.891   0.014   3.978  0.0347  0.4897 -0.0991
 3681SOL     OW22678   0.374   0.082   3.877 -0.1683 -0.3598  0.6148
 3681SOL    HW122679   0.398   0.076   3.784 -0.2353 -0.3980  0.5996
 3681SOL    HW222680   0.279   0.094   3.872 -0.2516 -0.3743  2.2330
 3682SOL     OW22681   3.213   1.909   8.956  0.0740  0.3558 -0.5629
 3682SOL    HW122682   3.205   1.907   8.861  1.5026  1.6736 -0.7160
 3682SOL    HW222683   3.220   2.003   8.972  1.7346  0.6073 -2.7557
 3683SOL     OW22684   1.546   4.063   9.155  0.0295  0.6001  0.2175
 3683SOL    HW122685   1.466   4.051   9.104  0.0628 -3.3239  1.1382
 3683SOL    HW222686   1.507   4.035   9.238  0.7771  1.4788  0.8710
 3684SOL     OW22687   1.319   1.148  11.780  0.2075 -0.4664  0.3948
 3684SOL    HW122688   1.287   1.232  11.748 -0.8658 -1.0090  0.0309
 3684SOL    HW222689   1.376   1.182  11.849 -1.1401 -1.4464  2.0005
 3685SOL     OW22690   0.431   0.039  12.870 -0.3124  0.0254 -0.0378
 3685SOL    HW122691   0.404   0.045  12.961  1.0614 -1.3190  0.4491
 3685SOL    HW222692   0.366   4.714  12.834  1.4468 -0.9458 -1.6080
 3686SOL     OW22693   0.897   1.257   3.819 -0.0477 -0.5060  0.1424
 3686SOL    HW122694   0.829   1.201   3.857  0.3158 -1.0076  0.0424
 3686SOL    HW222695   0.902   1.206   3.738 -0.5122 -1.3368  0.6294
 3687SOL     OW22696   4.486   2.179   5.962  0.3162  0.3100  0.4950
 3687SOL    HW122697   4.447   2.266   5.965 -0.3759  0.0173 -0.1714
 3687SOL    HW222698   4.560   2.203   6.018  1.0003  0.5330 -0.5076
 3688SOL     OW22699   0.460   3.899   3.779 -0.5044  0.2333  0.6479
 3688SOL    HW122700   0.466   3.994   3.765  0.8714  0.2432  1.2836
 3688SOL    HW222701   0.445   3.904   3.874 -2.7635  0.9540  0.2541
 3689SOL     OW22702   4.614   0.673   8.406 -0.1110 -0.1829 -0.4742
 3689SOL    HW122703   4.615   0.708   8.495  0.2915 -0.2397 -0.4558
 3689SOL    HW222704   4.692   0.709   8.363 -1.0654 -0.2789 -2.2784
 3690SOL     OW22705   3.356   2.726   8.832 -0.0609 -0.0314 -0.6959
 3690SOL    HW122706   3.432   2.763   8.788 -0.2922 -1.2416 -2.0859
 3690SOL    HW222707   3.318   2.809   8.862 -2.3313 -0.6923 -1.6987
 3691SOL     OW22708   4.200   0.737   0.735 -0.3031  0.1017 -0.1449
 3691SOL    HW122709   4.210   0.675   0.807  0.7973 -2.0974 -2.1760
 3691SOL    HW222710   4.222   0.690   0.654 -0.6344  0.0530 -0.2067
 3692SOL     OW22711   3.586   3.576   2.104 -0.0759  0.2946  0.0795
 3692SOL    HW122712   3.637   3.566   2.024 -0.1092 -0.9889  0.2069
 3692SOL    HW222713   3.517   3.637   2.078 -1.8774 -1.6689  0.2463
 3693SOL     OW22714   0.455   1.521   8.386 -0.6430  0.5227 -0.1672
 3693SOL    HW122715   0.467   1.472   8.467  0.7280  1.9424  0.4825
 3693SOL    HW222716   0.488   1.609   8.403  0.7742  0.3502 -2.0269
 3694SOL     OW22717   1.306   0.346   5.467  0.0521 -0.3151  0.5560
 3694SOL    HW122718   1.329   0.257   5.440  1.2640  0.5880 -1.3405
 3694SOL    HW222719   1.236   0.315   5.524 -2.2831  0.6478 -1.8228
 3695SOL     OW22720   3.957   3.306  10.240  0.4879  0.4009 -0.7818
 3695SOL    HW122721   3.957   3.348  10.325  0.8855 -1.0153 -0.0791
 3695SOL    HW222722   3.964   3.215  10.270  2.8094  0.1688 -2.0020
 3696SOL     OW22723   2.513   4.446  11.812 -0.1536  0.1354 -0.1197
 3696SOL    HW122724   2.603   4.414  11.803  0.1695  1.3514 -1.1599
 3696SOL    HW222725   2.473   4.399  11.885 -1.0143  0.9445 -0.0683
 3697SOL     OW22726   1.161   3.496   0.664 -0.2344 -0.1234  0.1914
 3697SOL    HW122727   1.066   3.485   0.664 -0.2189 -0.2429 -2.8487
 3697SOL    HW222728   1.190   3.409   0.690  0.2437 -0.9546 -3.1529
 3698SOL     OW22729   0.299   2.429  17.058 -0.2229  0.8161  0.0328
 3698SOL    HW122730   0.364   2.388  17.114 -0.1576 -1.9547 -2.0599
 3698SOL    HW222731   0.276   2.352  17.005 -1.1672  0.3516  1.1220
 3699SOL     OW22732   1.549   4.585   7.835  0.5752  0.3889 -0.9321
 3699SOL    HW122733   1.640   4.587   7.803  0.2913 -0.3382 -1.7783
 3699SOL    HW222734   1.554   4.666   7.885  1.9755 -0.0588 -0.3351
 3700SOL     OW22735   2.124   2.626   3.771  0.0782  0.1725  0.3301
 3700SOL    HW122736   2.177   2.549   3.748 -0.8473 -0.3121 -0.1623
 3700SOL    HW222737   2.199   2.677   3.801  1.2300 -0.8270 -0.8187
 3701SOL     OW22738   4.134   4.172   1.880  0.0388 -0.3383  0.1465
 3701SOL    HW122739   4.151   4.194   1.788 -0.1523 -1.2284 -0.0998
 3701SOL    HW222740   4.040   4.153   1.881 -0.0095 -0.0591  0.8768
 3702SOL     OW22741   2.646   0.119   1.529  0.1185  0.7777  0.1995
 3702SOL    HW122742   2.552   0.140   1.530 -0.4177 -1.7219  0.1341
 3702SOL    HW222743   2.669   0.118   1.436 -1.3675  0.5284 -0.1697
 3703SOL     OW22744   2.466   1.055   7.829  0.0272  0.3636  0.4109
 3703SOL    HW122745   2.519   1.108   7.770 -1.1148  2.8041  1.5724
 3703SOL    HW222746   2.394   1.022   7.774 -0.0595  3.7563 -1.4772
 3704SOL     OW22747   3.366   0.816   2.519  0.3687 -0.0942  0.0595
 3704SOL    HW122748   3.448   0.850   2.483  0.3355  0.0457  0.1172
 3704SOL    HW222749   3.299   0.866   2.472 -0.6664 -0.9704  0.6188
 3705SOL     OW22750   3.431   2.116   7.992  0.6845  0.3187  0.6887
 3705SOL    HW122751   3.524   2.095   8.001  0.1900 -2.6113 -1.0411
 3705SOL    HW222752   3.427   2.207   8.021  1.8519  0.3061  0.9119
 3706SOL     OW22753   0.703   3.283  16.688  0.2133  0.2373 -0.1363
 3706SOL    HW122754   0.673   3.365  16.729 -0.6947 -0.5235  0.7251
 3706SOL    HW222755   0.673   3.304  16.599 -0.0265 -0.5581 -0.2385
 3707SOL     OW22756   0.702   0.769  15.091  0.7794  0.3381 -0.2317
 3707SOL    HW122757   0.709   0.838  15.025 -0.3154  2.5384  1.9520
 3707SOL    HW222758   0.654   0.811  15.163  0.7732  0.0521 -0.0698
 3708SOL     OW22759   0.952   2.006  10.645 -0.4072  0.7339 -0.4145
 3708SOL    HW122760   0.906   1.923  10.659  1.6370 -0.1917  0.7702
 3708SOL    HW222761   0.936   2.016  10.551 -1.9208 -0.4260 -0.2858
 3709SOL     OW22762   3.134   3.774   8.093 -0.4063  0.5047  0.2737
 3709SOL    HW122763   3.101   3.773   8.003  0.6472 -0.9706 -0.0872
 3709SOL    HW222764   3.215   3.724   8.085 -1.5794 -1.2977 -0.5003
 3710SOL     OW22765   0.662   1.346   7.714 -0.2730  0.7945 -0.8650
 3710SOL    HW122766   0.569   1.335   7.694  0.4493 -2.3112 -2.5240
 3710SOL    HW222767   0.654   1.385   7.801 -0.5540  1.0451 -1.0058
 3711SOL     OW22768   2.054   0.498  16.441  0.0372 -0.0323  0.0495
 3711SOL    HW122769   2.141   0.463  16.423  0.2494  0.7504 -0.4904
 3711SOL    HW222770   2.075   0.592  16.442  0.7993 -0.2025  0.2697
 3712SOL     OW22771   2.023   3.137   6.438  0.0092  0.0164  0.2870
 3712SOL    HW122772   2.082   3.158   6.366 -0.9088 -1.2356 -0.8251
 3712SOL    HW222773   2.072   3.066   6.479  1.4678 -0.8403 -2.9791
 3713SOL     OW22774   2.240   3.312   1.392 -0.2128  0.0743  0.0346
 3713SOL    HW122775   2.284   3.393   1.416  0.3010  0.4705 -2.3271
 3713SOL    HW222776   2.228   3.262   1.473  1.2141 -0.9728 -0.3982
 3714SOL     OW22777   2.558   1.075   2.241  0.3834 -0.5396  0.3138
 3714SOL    HW122778   2.477   1.023   2.237 -0.0976  0.3336 -1.1953
 3714SOL    HW222779   2.592   1.071   2.152  0.6124  2.7551  0.2443
 3715SOL     OW22780   2.141   3.713  12.894 -0.3125  0.3377 -0.3167
 3715SOL    HW122781   2.233   3.706  12.919 -0.7772  0.1174  1.3379
 3715SOL    HW222782   2.140   3.661  12.814 -1.0803 -0.0726 -0.0417
 3716SOL     OW22783   3.906   1.528   2.240 -0.1253  0.3305 -0.5224
 3716SOL    HW122784   3.861   1.546   2.323 -2.6419 -0.9443 -1.6255
 3716SOL    HW222785   3.886   1.436   2.230 -0.5003  0.0796  2.3949
 3717SOL     OW22786   0.422   2.982  16.487 -0.0257 -0.2111  0.1346
 3717SOL    HW122787   0.392   2.910  16.431 -0.6711  0.1035  0.0841
 3717SOL    HW222788   0.336   3.022  16.493 -0.4997 -1.4495  1.5580
 3718SOL     OW22789   1.527   2.626   2.826  0.6110 -0.1811 -0.0560
 3718SOL    HW122790   1.604   2.577   2.855  0.4952 -0.3715 -0.0673
 3718SOL    HW222791   1.504   2.680   2.901 -2.0613  1.7713 -2.2967
 3719SOL     OW22792   1.483   2.842  14.400 -0.2074  0.1543 -0.2163
 3719SOL    HW122793   1.541   2.839  14.323 -0.5855 -1.0434 -0.4456
 3719SOL    HW222794   1.400   2.836  14.353 -0.3692  1.0056 -0.0481
 3720SOL     OW22795   1.897   0.262   7.115 -0.3266 -0.4979 -0.1447
 3720SOL    HW122796   1.834   0.241   7.185  0.1823 -0.5386  0.3055
 3720SOL    HW222797   1.960   0.191   7.129 -0.4338 -0.4087  0.8057
 3721SOL     OW22798   0.305   1.449  15.238 -0.0794  0.5576 -0.3444
 3721SOL    HW122799   0.235   1.445  15.173 -1.4059  0.8399  1.0610
 3721SOL    HW222800   0.322   1.543  15.248 -2.5858  0.9767 -0.0175
 3722SOL     OW22801   1.551   2.644   9.620  0.1475 -0.2992  0.3031
 3722SOL    HW122802   1.501   2.723   9.638  1.0845  0.5201 -0.6737
 3722SOL    HW222803   1.642   2.673   9.624  0.4251 -1.3554  1.6184
 3723SOL     OW22804   0.807   2.656   3.700 -0.4741 -0.1165 -0.1038
 3723SOL    HW122805   0.807   2.590   3.631  3.5815  1.0803 -1.2979
 3723SOL    HW222806   0.798   2.599   3.776  0.3035 -0.7767 -0.5026
 3724SOL     OW22807   0.316   0.017   5.180 -0.4648 -0.5515 -0.1702
 3724SOL    HW122808   0.243   0.060   5.135  0.9841  0.0261 -1.9931
 3724SOL    HW222809   0.339   0.088   5.241  0.8826 -1.1623  0.0286
 3725SOL     OW22810   1.439   2.077   1.998 -0.1375 -0.5887 -0.1476
 3725SOL    HW122811   1.455   2.075   2.092  1.8010 -1.4075 -0.4848
 3725SOL    HW222812   1.456   1.986   1.976  0.8932 -0.1941 -0.9910
 3726SOL     OW22813   1.406   3.834   3.184  0.0948  0.6500 -0.2270
 3726SOL    HW122814   1.401   3.752   3.135  0.4022 -0.5403  1.7272
 3726SOL    HW222815   1.365   3.810   3.268 -2.0576  0.2137 -1.4073
 3727SOL     OW22816   3.644   2.144  10.868  0.6737  1.0955  0.5127
 3727SOL    HW122817   3.663   2.193  10.788  0.5905  1.1804  0.5449
 3727SOL    HW222818   3.706   2.072  10.856 -0.2672 -0.2168  3.6981
 3728SOL     OW22819   0.772   3.719   5.298 -0.8021 -0.1051 -0.5938
 3728SOL    HW122820   0.801   3.628   5.298 -1.8137 -0.4175 -0.8551
 3728SOL    HW222821   0.723   3.728   5.217 -1.3323 -0.2595 -0.2908
 3729SOL     OW22822   1.893   2.284   9.836 -0.1897 -0.4177 -0.0915
 3729SOL    HW122823   1.917   2.349   9.771  1.4879 -2.5374 -1.5963
 3729SOL    HW222824   1.946   2.211   9.803 -1.2032 -1.6505  1.0003
 3730SOL     OW22825   0.966   1.850   3.815 -0.5066  0.2844 -0.1549
 3730SOL    HW122826   1.046   1.899   3.793 -0.8458  0.5604 -0.7981
 3730SOL    HW222827   0.966   1.775   3.756 -1.4182 -0.5577  0.9475
 3731SOL     OW22828   0.489   2.580   7.014  0.0553  0.9773  0.4685
 3731SOL    HW122829   0.410   2.626   6.985 -1.5250 -2.0347 -0.0075
 3731SOL    HW222830   0.558   2.644   6.996 -0.9468  2.2398  1.0872
 3732SOL     OW22831   2.312   0.119  17.239  0.0187  0.3283  0.2059
 3732SOL    HW122832   2.394   0.071  17.249  1.3918  2.3602 -1.5211
 3732SOL    HW222833   2.250   0.077  17.300  0.7114  0.1064  0.7536
 3733SOL     OW22834   2.772   4.477   6.470  0.4598 -0.1505  0.2175
 3733SOL    HW122835   2.690   4.477   6.520 -1.4715  1.9348 -2.9090
 3733SOL    HW222836   2.781   4.384   6.449  3.1754  0.5485 -1.6666
 3734SOL     OW22837   2.106   0.639   6.601 -0.6409  0.2794 -0.2252
 3734SOL    HW122838   2.124   0.573   6.534 -1.4233 -1.7635  1.5894
 3734SOL    HW222839   2.073   0.715   6.554  2.1663  1.2662 -0.6113
 3735SOL     OW22840   1.287   0.644   9.813 -0.3752 -0.2656 -0.0735
 3735SOL    HW122841   1.211   0.611   9.861 -1.9422 -1.7560 -3.5541
 3735SOL    HW222842   1.258   0.730   9.783  1.2866  0.4626  0.4360
 3736SOL     OW22843   3.355   4.205   4.560  0.5574  0.0196 -0.0135
 3736SOL    HW122844   3.381   4.186   4.470 -1.4844 -0.6971 -0.4432
 3736SOL    HW222845   3.260   4.198   4.561  0.6858 -1.7436 -1.3076
 3737SOL     OW22846   1.780   4.041   8.993  0.3674 -0.2787 -0.6850
 3737SOL    HW122847   1.716   4.075   9.055  1.9529 -0.6473  1.1661
 3737SOL    HW222848   1.744   3.964   8.950  0.6878 -1.2535  0.7720
 3738SOL     OW22849   2.108   4.138   6.706  0.0423 -0.1109  0.4204
 3738SOL    HW122850   2.065   4.139   6.791  1.1815  3.5887  0.9516
 3738SOL    HW222851   2.199   4.127   6.734 -0.3323  1.2903  2.1638
 3739SOL     OW22852   2.847   2.561   5.304 -0.2325  0.0523 -0.3800
 3739SOL    HW122853   2.783   2.623   5.338 -0.3036 -1.3076  1.9891
 3739SOL    HW222854   2.789   2.504   5.253 -0.8398  0.0974  0.2677
 3740SOL     OW22855   4.488   0.507   7.452 -0.1435 -0.1451 -0.2745
 3740SOL    HW122856   4.503   0.436   7.390  1.6918  0.7987 -0.9161
 3740SOL    HW222857   4.395   0.500   7.474 -0.1751 -0.2076 -0.4259
 3741SOL     OW22858   1.048   4.161   5.481 -0.0833  0.0290 -0.6477
 3741SOL    HW122859   1.117   4.095   5.468 -0.9640 -1.1776  0.8303
 3741SOL    HW222860   1.012   4.134   5.565  0.0573  1.5324 -0.1254
 3742SOL     OW22861   0.232   0.385  11.500 -0.1154  0.2676  0.2307
 3742SOL    HW122862   0.299   0.453  11.494 -0.3266  0.2514 -2.2522
 3742SOL    HW222863   0.287   0.308  11.484  0.3662  1.0285 -1.8536
 3743SOL     OW22864   3.812   1.705   7.440 -0.0727  0.4683  0.4932
 3743SOL    HW122865   3.857   1.770   7.493  3.1247 -0.1882 -1.4440
 3743SOL    HW222866   3.869   1.631   7.460 -1.7787 -1.0011  0.0023
 3744SOL     OW22867   4.681   4.565  15.633  0.7216  1.1274 -0.2440
 3744SOL    HW122868   0.008   4.634  15.610  0.2241  1.5489 -0.3027
 3744SOL    HW222869   4.600   4.584  15.585  0.2254  0.9566  0.5275
 3745SOL     OW22870   2.081   0.600   4.062  0.3864  0.5179  0.3914
 3745SOL    HW122871   2.136   0.679   4.059  2.0033 -0.5898  1.0986
 3745SOL    HW222872   2.144   0.531   4.042  0.8825  0.8357  0.8623
 3746SOL     OW22873   4.323   0.906   8.404  0.3965  0.1442 -0.3405
 3746SOL    HW122874   4.408   0.924   8.445  0.3899 -1.2460  0.2692
 3746SOL    HW222875   4.331   0.960   8.326  1.5760  0.8107  0.2392
 3747SOL     OW22876   2.430   0.521   1.422  0.4050 -0.3401  0.6070
 3747SOL    HW122877   2.427   0.529   1.327 -2.3773 -1.3505  0.6215
 3747SOL    HW222878   2.353   0.466   1.433 -0.2246  0.6150  0.9339
 3748SOL     OW22879   1.957   2.519   1.748 -0.7579  0.1480 -0.1815
 3748SOL    HW122880   1.957   2.433   1.708  0.1958 -0.0439  0.2335
 3748SOL    HW222881   1.879   2.557   1.709 -0.3464  2.7701  1.4886
 3749SOL     OW22882   0.060   2.419  16.831 -0.2777 -0.3598 -0.0469
 3749SOL    HW122883   0.035   2.447  16.743  0.3180 -3.2247 -1.1192
 3749SOL    HW222884   0.120   2.349  16.805  3.0458  2.0267  1.2052
 3750SOL     OW22885   1.213   2.799  14.302  0.8884 -0.1530  0.0959
 3750SOL    HW122886   1.171   2.861  14.243 -0.8587 -1.3599  0.0682
 3750SOL    HW222887   1.187   2.717  14.260  0.3046  0.1074 -0.0507
 3751SOL     OW22888   4.213   0.489   7.381 -0.0404  0.0615 -0.6800
 3751SOL    HW122889   4.207   0.534   7.466 -2.2007 -1.0215 -0.2531
 3751SOL    HW222890   4.125   0.452   7.394  0.3714 -0.2036  1.3808
 3752SOL     OW22891   3.053   2.420   7.171  0.2867  0.0274  0.3560
 3752SOL    HW122892   3.139   2.418   7.211  0.5125  0.0716 -0.1210
 3752SOL    HW222893   3.048   2.327   7.147 -0.3929  0.2595 -0.4414
 3753SOL     OW22894   1.051   1.570   6.680 -0.4103  0.1314 -0.0446
 3753SOL    HW122895   0.973   1.624   6.681 -0.9848 -0.7773  2.7873
 3753SOL    HW222896   1.073   1.564   6.587 -1.2151  1.8701 -0.3317
 3754SOL     OW22897   2.877   2.377   0.693 -0.1243  0.3614 -0.3993
 3754SOL    HW122898   2.950   2.375   0.754 -0.7578 -1.6198  0.2885
 3754SOL    HW222899   2.797   2.378   0.746  0.0935 -1.6950 -0.0268
 3755SOL     OW22900   2.289   1.934   6.981  0.3108 -0.2104  0.1255
 3755SOL    HW122901   2.313   2.026   6.969 -2.2708  0.3131 -0.8522
 3755SOL    HW222902   2.269   1.912   6.891 -0.0035 -1.3341  0.4705
 3756SOL     OW22903   1.581   0.547  10.258  0.1392  0.0684 -0.2090
 3756SOL    HW122904   1.560   0.632  10.218  1.1004  0.5257  0.2626
 3756SOL    HW222905   1.541   0.554  10.344 -0.4611 -1.8107 -0.3265
 3757SOL     OW22906   4.612   2.629  16.957 -0.0608  0.3158 -0.0432
 3757SOL    HW122907   4.690   2.607  16.906 -0.1261 -2.2773  0.9717
 3757SOL    HW222908   4.631   2.606  17.048  0.9099  3.9204  0.6681
 3758SOL     OW22909   0.854   2.310  16.223  0.2637  0.0263  0.4144
 3758SOL    HW122910   0.908   2.258  16.162  0.1649  1.8681 -1.2405
 3758SOL    HW222911   0.814   2.244  16.280  0.3410  1.8419  2.5761
 3759SOL     OW22912   1.587   2.669   7.302  0.4749 -0.0028  0.3975
 3759SOL    HW122913   1.526   2.629   7.364  0.0369 -0.7446 -0.5084
 3759SOL    HW222914   1.637   2.591   7.276  0.8052  0.3621 -0.0684
 3760SOL     OW22915   3.168   2.048   2.800  0.2557  0.0548 -0.2610
 3760SOL    HW122916   3.259   2.043   2.770  0.6284  1.1269  0.6812
 3760SOL    HW222917   3.140   2.132   2.764  0.7606  0.7435  0.9258
 3761SOL     OW22918   4.219   2.713  10.516  0.6045 -0.3568 -0.0164
 3761SOL    HW122919   4.228   2.633  10.568  1.6993  0.6582  1.3847
 3761SOL    HW222920   4.177   2.678  10.438  2.7134 -1.5094 -0.6262
 3762SOL     OW22921   1.704   3.114   9.036  0.6985 -0.6010  0.2671
 3762SOL    HW122922   1.643   3.047   9.065 -0.0444 -0.6690 -1.4145
 3762SOL    HW222923   1.744   3.141   9.118 -2.3851 -1.1180  1.9461
 3763SOL     OW22924   0.313   3.731   9.949 -0.1309 -0.1418  0.4038
 3763SOL    HW122925   0.332   3.777  10.031 -1.9928  0.7206  0.3572
 3763SOL    HW222926   0.398   3.719   9.907 -0.1980  0.5300  0.0734
 3764SOL     OW22927   0.384   4.032   5.702  0.5881 -0.4524  0.0598
 3764SOL    HW122928   0.296   4.041   5.737  0.5522  1.6770 -0.5958
 3764SOL    HW222929   0.368   4.018   5.609 -1.4375  1.6261  0.1111
 3765SOL     OW22930   1.976   2.609   4.889 -0.2073 -0.1416 -0.6769
 3765SOL    HW122931   2.014   2.525   4.911  1.1702  0.8589  0.7553
 3765SOL    HW222932   2.055   2.662   4.876 -0.4928  0.2144 -0.9829
 3766SOL     OW22933   1.752   3.614   2.709 -0.0199 -0.4019  0.4450
 3766SOL    HW122934   1.804   3.536   2.692  0.9424  0.4999 -0.7384
 3766SOL    HW222935   1.697   3.589   2.783 -2.3436 -1.3451 -1.5807
 3767SOL     OW22936   3.692   1.313   9.347  0.2666  0.0214  0.6476
 3767SOL    HW122937   3.663   1.354   9.428  3.6593  0.5093  1.6296
 3767SOL    HW222938   3.784   1.338   9.356  0.7824 -1.5685 -0.2011
 3768SOL     OW22939   0.053   2.062   1.861  0.1619 -0.0324  0.5754
 3768SOL    HW122940   0.064   2.123   1.789 -0.7298  0.4573  0.8479
 3768SOL    HW222941   4.693   2.074   1.872  0.1410 -2.3851  2.9316
 3769SOL     OW22942   2.488   0.335  12.666  0.8982  0.0829 -0.0263
 3769SOL    HW122943   2.514   0.251  12.702  1.8814  1.1619  1.7614
 3769SOL    HW222944   2.427   0.317  12.594  1.7051 -1.8360 -0.2201
 3770SOL     OW22945   1.532   3.729   6.071 -0.2387 -0.0152  0.3455
 3770SOL    HW122946   1.507   3.791   6.140  0.1083  1.9736 -1.3098
 3770SOL    HW222947   1.627   3.732   6.077 -0.1824  0.4897 -0.8436
 3771SOL     OW22948   1.068   0.472   9.965  0.3054  0.0361  0.2664
 3771SOL    HW122949   1.115   0.473  10.048  0.0004  0.3362  0.4336
 3771SOL    HW222950   0.978   0.468   9.998  0.5715 -1.4933  0.8132
 3772SOL     OW22951   4.214   0.909   1.957 -0.4172  0.1720 -0.2593
 3772SOL    HW122952   4.231   0.955   1.875  0.2015  0.1114 -0.1596
 3772SOL    HW222953   4.301   0.881   1.986 -0.3400  0.4553 -0.2163
 3773SOL     OW22954   0.173   1.392   8.439  0.6366  0.2424 -0.0142
 3773SOL    HW122955   0.146   1.357   8.524  0.7924 -1.1843 -0.5417
 3773SOL    HW222956   0.265   1.415   8.450  0.1522  1.8491  0.7361
 3774SOL     OW22957   3.788   1.344   5.188 -0.3877  0.0615  0.0043
 3774SOL    HW122958   3.803   1.436   5.164 -0.4112 -0.0332 -0.3787
 3774SOL    HW222959   3.715   1.354   5.249  0.1104 -0.8244  0.7407
 3775SOL     OW22960   0.245   4.471   7.939  0.3709 -0.2959 -0.3158
 3775SOL    HW122961   0.263   4.502   8.028 -0.3531  0.5466 -0.4565
 3775SOL    HW222962   0.266   4.379   7.951 -1.8581 -0.6044  1.2009
 3776SOL     OW22963   4.429   2.803   8.130 -0.1927 -0.0169  0.0044
 3776SOL    HW122964   4.406   2.841   8.046 -0.0873  3.0141  1.3508
 3776SOL    HW222965   4.514   2.843   8.150 -0.0294  0.3942 -1.5292
 3777SOL     OW22966   2.256   3.597   6.523  0.1872  0.7220  0.2011
 3777SOL    HW122967   2.320   3.535   6.487  2.3457  1.1909  3.2385
 3777SOL    HW222968   2.302   3.624   6.602  3.5255 -0.8504 -1.1854
 3778SOL     OW22969   0.987   4.040   6.543  0.1612 -0.3308 -0.3828
 3778SOL    HW122970   0.906   4.089   6.561 -0.9014 -2.1123 -0.2889
 3778SOL    HW222971   0.977   4.019   6.450  0.5895 -2.5086  0.0605
 3779SOL     OW22972   1.857   3.118   7.711 -0.9780  0.3805  0.5168
 3779SOL    HW122973   1.831   3.140   7.800  0.1145  1.9724  0.4497
 3779SOL    HW222974   1.775   3.110   7.661 -0.4388  3.4098 -0.8780
 3780SOL     OW22975   1.998   1.955  13.066 -0.1491 -0.4435  0.0705
 3780SOL    HW122976   2.040   2.032  13.028  0.0645 -0.2247  0.7529
 3780SOL    HW222977   1.979   1.892  12.996 -0.0164  0.1982 -0.5437
 3781SOL     OW22978   0.985   1.119   1.444 -0.2153 -0.0039  0.1878
 3781SOL    HW122979   0.929   1.150   1.374  0.5112 -1.8992 -1.2176
 3781SOL    HW222980   0.956   1.172   1.518 -0.2949  0.1446  0.0485
 3782SOL     OW22981   3.387   3.438   5.113 -0.4546  0.1865 -0.3088
 3782SOL    HW122982   3.458   3.415   5.054  0.6171  0.6216  0.8136
 3782SOL    HW222983   3.316   3.383   5.082 -1.3890  0.8107  0.7122
 3783SOL     OW22984   0.362   0.871   3.537  0.2425 -0.1125 -0.3928
 3783SOL    HW122985   0.353   0.779   3.562 -2.2055  0.0612 -0.6841
 3783SOL    HW222986   0.302   0.872   3.462 -0.2382  1.0903  0.0116
 3784SOL     OW22987   0.212   2.244   9.808  0.3657  0.5439 -0.0152
 3784SOL    HW122988   0.258   2.175   9.857 -0.7660  0.7308  1.3056
 3784SOL    HW222989   0.122   2.219   9.827  0.2110  0.8910 -0.2918
 3785SOL     OW22990   3.918   4.670   7.970  0.1536  0.4255 -0.3492
 3785SOL    HW122991   3.994   4.710   8.012 -0.5418  0.2462  1.0837
 3785SOL    HW222992   3.952   4.675   7.881  0.7214  0.2617 -0.1404
 3786SOL     OW22993   3.240   4.176   5.588  0.2054  0.2452 -0.3872
 3786SOL    HW122994   3.298   4.100   5.596  0.5250  0.7532  1.9634
 3786SOL    HW222995   3.156   4.135   5.568 -1.1960  1.3736  3.2158
 3787SOL     OW22996   4.457   0.599   4.570  0.2092  0.4941  0.0245
 3787SOL    HW122997   4.427   0.687   4.547  1.8666  1.1914  0.5171
 3787SOL    HW222998   4.482   0.619   4.660  2.3583 -1.1176 -0.2119
 3788SOL     OW22999   1.499   4.731   2.479 -0.2508  0.4069  0.2286
 3788SOL    HW123000   1.555   4.656   2.457  1.9444  1.9693  0.4685
 3788SOL    HW223001   1.454   0.014   2.397  0.2577 -0.2452 -0.2004
 3789SOL     OW23002   1.367   2.376   7.740  0.5375  0.2400 -0.1730
 3789SOL    HW123003   1.335   2.446   7.683  1.8109  0.1990 -0.9372
 3789SOL    HW223004   1.290   2.324   7.763  2.6567 -2.2960  1.2617
 3790SOL     OW23005   0.639   3.176   6.579  0.4495  0.1948 -0.0576
 3790SOL    HW123006   0.594   3.184   6.663 -0.5418  0.7377 -0.6379
 3790SOL    HW223007   0.606   3.091   6.549 -2.0897  1.9747 -2.3400
 3791SOL     OW23008   0.332   1.028   4.763 -0.0071  0.2367  0.3216
 3791SOL    HW123009   0.260   1.068   4.812 -1.9322 -2.7565 -0.0246
 3791SOL    HW223010   0.311   1.063   4.677  1.2803  1.0963  0.3660
 3792SOL     OW23011   0.396   1.491   3.512 -0.0332 -0.3081  0.1232
 3792SOL    HW123012   0.491   1.478   3.516  0.1352  1.2910  1.0885
 3792SOL    HW223013   0.369   1.456   3.427  1.4793 -0.3942 -0.3283
 3793SOL     OW23014   2.708   1.448   4.838  0.0424 -0.2183 -0.1216
 3793SOL    HW123015   2.718   1.367   4.788  0.5598  1.1722 -2.2640
 3793SOL    HW223016   2.623   1.478   4.808 -1.1919 -2.3137  1.2969
 3794SOL     OW23017   2.357   0.136   6.880 -0.1757  0.5036  0.5287
 3794SOL    HW123018   2.308   0.212   6.849 -1.3279  0.1324  1.4232
 3794SOL    HW223019   2.296   0.066   6.858  0.2050  0.4498 -0.3221
 3795SOL     OW23020   4.542   4.350  10.899  0.5380  0.1572  0.1752
 3795SOL    HW123021   4.618   4.313  10.853 -0.0480  0.5524 -1.1308
 3795SOL    HW223022   4.469   4.299  10.863 -0.5908 -0.2290  3.0839
 3796SOL     OW23023   1.116   1.609   5.260  0.5027  0.3899  0.3978
 3796SOL    HW123024   1.137   1.596   5.168 -2.2574  0.4158 -0.2311
 3796SOL    HW223025   1.051   1.541   5.275  1.0714 -0.0085  1.0811
 3797SOL     OW23026   2.748   3.993  16.415  0.1359 -0.1773 -0.2473
 3797SOL    HW123027   2.836   3.958  16.431 -0.5417 -2.3475 -1.3284
 3797SOL    HW223028   2.751   3.990  16.319 -2.1167  1.6071 -0.3532
 3798SOL     OW23029   4.542   1.455   7.076  0.3149 -0.4557 -0.1683
 3798SOL    HW123030   4.466   1.411   7.038 -1.6105  2.3997  0.3154
 3798SOL    HW223031   4.541   1.409   7.160 -2.2445 -4.1095 -2.2067
 3799SOL     OW23032   0.256   3.388   0.831  0.1854  0.2209 -0.2119
 3799SOL    HW123033   0.244   3.313   0.773 -0.3842 -1.4920  2.0851
 3799SOL    HW223034   0.344   3.369   0.866 -0.4044 -2.1788 -0.0061
 3800SOL     OW23035   2.693   0.360   9.194 -0.2590  0.6393  0.0634
 3800SOL    HW123036   2.686   0.264   9.192  0.7923  0.5861 -0.8709
 3800SOL    HW223037   2.787   0.372   9.191 -0.0738 -0.5464  0.8992
 3801SOL     OW23038   3.439   0.019   4.189 -0.2843  0.2002 -0.2499
 3801SOL    HW123039   3.414   0.100   4.144 -0.4148  0.0513 -0.4446
 3801SOL    HW223040   3.426   0.037   4.282 -1.7803 -0.6549 -0.3010
 3802SOL     OW23041   1.869   0.639   4.233  0.9848 -0.4193 -0.0486
 3802SOL    HW123042   1.946   0.625   4.177  0.2860 -0.5000 -0.9772
 3802SOL    HW223043   1.795   0.641   4.172  1.0356 -1.6352 -0.1593
 3803SOL     OW23044   0.405   4.585   5.675 -0.0572 -0.4867 -0.2000
 3803SOL    HW123045   0.370   4.503   5.641  0.0520 -0.1972 -0.9998
 3803SOL    HW223046   0.393   4.649   5.605  0.8815  0.4145  0.4452
 3804SOL     OW23047   0.035   4.107   3.032  0.0568 -0.6764  0.0771
 3804SOL    HW123048   4.718   4.030   3.008 -1.0405  0.8652 -2.5411
 3804SOL    HW223049   0.089   4.068   3.100 -0.1923  0.8743  1.1665
 3805SOL     OW23050   4.252   4.189  16.232  0.6860 -0.6473  0.3511
 3805SOL    HW123051   4.239   4.152  16.319  0.4227  1.0388  1.0280
 3805SOL    HW223052   4.338   4.231  16.232 -0.5228  1.8854 -4.5206
 3806SOL     OW23053   0.834   1.917   7.223 -0.0084  0.2965  0.6880
 3806SOL    HW123054   0.821   1.873   7.307  1.2210 -1.3011  0.0217
 3806SOL    HW223055   0.799   1.857   7.158 -0.1865  1.2597 -0.0981
 3807SOL     OW23056   3.393   4.294   3.785  0.5008  0.1426 -0.0802
 3807SOL    HW123057   3.436   4.212   3.760 -1.2662 -2.1179  4.3893
 3807SOL    HW223058   3.379   4.325   3.695 -1.1035 -1.0446 -0.2414
 3808SOL     OW23059   1.002   0.665   2.688  0.1387 -0.4261  0.3122
 3808SOL    HW123060   1.071   0.616   2.644  1.1253  1.5390 -0.3273
 3808SOL    HW223061   1.007   0.745   2.635  0.5794 -0.0443  0.9291
 3809SOL     OW23062   0.805   1.426   2.942  0.3299  0.2717  0.0780
 3809SOL    HW123063   0.826   1.347   2.992  2.3302  0.0606 -1.0686
 3809SOL    HW223064   0.717   1.395   2.921 -0.3376  0.3569  2.7378
 3810SOL     OW23065   2.619   3.585   9.034  0.7069 -0.0945 -0.7260
 3810SOL    HW123066   2.679   3.510   9.029  1.0871  0.3880 -3.0562
 3810SOL    HW223067   2.612   3.580   9.130 -0.2684  1.1562 -0.7377
 3811SOL     OW23068   0.928   3.906   2.242 -0.3789 -0.6015  1.0171
 3811SOL    HW123069   0.934   3.812   2.225  1.7957 -0.0800 -1.2001
 3811SOL    HW223070   0.920   3.907   2.337  2.0229  0.0182  1.2155
 3812SOL     OW23071   2.903   1.921   2.955  0.7516 -0.1959  0.4632
 3812SOL    HW123072   2.940   1.889   3.037 -0.1454  1.7900  1.6379
 3812SOL    HW223073   2.984   1.942   2.908  0.9142  2.0801  1.7914
 3813SOL     OW23074   0.991   2.171  12.582 -0.2279 -0.4711 -0.5691
 3813SOL    HW123075   1.016   2.236  12.647  0.6845 -0.7787 -0.6073
 3813SOL    HW223076   0.976   2.097  12.641 -1.6255  0.1242 -0.1952
 3814SOL     OW23077   2.233   2.027   3.986 -0.2967  0.0103  0.3159
 3814SOL    HW123078   2.326   2.024   4.009 -0.5534 -1.4755  1.1147
 3814SOL    HW223079   2.193   1.983   4.061 -0.4212 -2.4783 -1.2327
 3815SOL     OW23080   0.086   3.934   5.520  0.0836  0.3288  0.2463
 3815SOL    HW123081   0.120   3.924   5.609 -0.4395  4.0535  0.8553
 3815SOL    HW223082   0.167   3.962   5.477 -0.1344 -1.2768 -1.1943
 3816SOL     OW23083   3.048   1.571   9.498 -0.1798 -0.3612 -0.2429
 3816SOL    HW123084   3.031   1.642   9.437 -1.1407 -0.7748 -0.4583
 3816SOL    HW223085   3.143   1.565   9.501 -0.3606 -3.5634 -0.4585
 3817SOL     OW23086   2.352   0.408  13.872 -0.0146  0.0262 -0.3829
 3817SOL    HW123087   2.320   0.323  13.901 -2.4779  1.2265  0.3922
 3817SOL    HW223088   2.445   0.402  13.895 -0.3341  0.1872  0.9193
 3818SOL     OW23089   3.894   4.492   0.460  0.1436  0.1400  0.0163
 3818SOL    HW123090   3.918   4.522   0.372  3.3510 -0.6859  0.6210
 3818SOL    HW223091   3.907   4.573   0.509 -1.1004  0.8873 -0.8697
 3819SOL     OW23092   1.287   0.362   2.298 -0.0293  0.4515 -0.3651
 3819SOL    HW123093   1.375   0.399   2.292  0.0563  0.2141 -0.5615
 3819SOL    HW223094   1.276   0.326   2.210  2.5566 -1.1374 -0.0562
 3820SOL     OW23095   1.999   1.140   1.639 -0.2852  0.2428  0.4142
 3820SOL    HW123096   1.984   1.183   1.723  3.8765  1.7935  0.3954
 3820SOL    HW223097   2.085   1.099   1.652 -1.3337 -1.9916  0.1539
 3821SOL     OW23098   1.156   1.763   1.324  0.0816 -0.5331  0.2168
 3821SOL    HW123099   1.135   1.709   1.248 -0.3330  0.4202 -0.3408
 3821SOL    HW223100   1.107   1.844   1.313  1.8439  0.1627 -2.4442
 3822SOL     OW23101   0.040   1.671  12.738  0.1582  0.6493 -0.2100
 3822SOL    HW123102   4.685   1.659  12.768 -0.2483 -0.4400 -1.8095
 3822SOL    HW223103   0.052   1.762  12.764  0.3062  0.4420  0.4377
 3823SOL     OW23104   3.913   1.507   5.857 -0.2104 -0.0528  0.0811
 3823SOL    HW123105   3.888   1.430   5.907  0.4769 -2.5025 -3.3078
 3823SOL    HW223106   3.826   1.526   5.823 -0.4294  0.0558  0.7012
 3824SOL     OW23107   4.083   4.507   6.847 -0.2016  0.7838  0.6872
 3824SOL    HW123108   4.080   4.501   6.751 -2.5723  2.2576  0.6515
 3824SOL    HW223109   4.015   4.574   6.852 -1.8332 -0.7954 -0.2517
 3825SOL     OW23110   2.495   2.548  11.833 -0.4178 -0.1482 -0.3949
 3825SOL    HW123111   2.488   2.569  11.740  0.7072 -1.0197 -0.6798
 3825SOL    HW223112   2.451   2.626  11.868  0.7249  0.1055  0.4573
 3826SOL     OW23113   2.086   4.302   1.590 -0.3473  0.2497 -0.0200
 3826SOL    HW123114   2.018   4.238   1.571  1.0581 -1.0089 -0.7940
 3826SOL    HW223115   2.042   4.384   1.568 -0.2341  0.9031  2.1499
 3827SOL     OW23116   0.951   3.155   9.064  0.8133  0.1776  0.4157
 3827SOL    HW123117   0.931   3.192   9.150  0.3738  0.1564  0.3230
 3827SOL    HW223118   0.892   3.196   9.001 -0.9836 -1.5184  1.0169
 3828SOL     OW23119   2.006   4.338   7.624  0.3858 -0.9026  0.1609
 3828SOL    HW123120   2.033   4.346   7.715  0.5677  1.1068 -0.0800
 3828SOL    HW223121   2.044   4.252   7.605  0.3191 -1.1443  1.1040
 3829SOL     OW23122   3.580   2.558  13.647 -0.1263  0.3684 -0.2277
 3829SOL    HW123123   3.531   2.501  13.706  0.2644  1.3998  1.1004
 3829SOL    HW223124   3.518   2.630  13.656 -0.6776 -0.2891  1.3287
 3830SOL     OW23125   4.361   0.847   2.751  0.0540  0.5124  0.6043
 3830SOL    HW123126   4.352   0.771   2.808 -1.5516  0.5127  0.3639
 3830SOL    HW223127   4.360   0.806   2.665  0.8097 -0.7804  1.2224
 3831SOL     OW23128   2.063   2.094   0.221 -0.0962  0.9670  0.7531
 3831SOL    HW123129   1.968   2.080   0.227 -0.2804  1.8246 -0.2338
 3831SOL    HW223130   2.059   2.189   0.211  2.1254  1.0980  1.2136
 3832SOL     OW23131   1.400   1.604  13.176  0.2309  0.5963  0.2173
 3832SOL    HW123132   1.366   1.519  13.149  1.2313  0.5863 -1.0285
 3832SOL    HW223133   1.478   1.614  13.122  0.3572  1.3638  0.5402
 3833SOL     OW23134   0.781   0.890   1.819 -0.1842  0.2396 -0.3910
 3833SOL    HW123135   0.736   0.875   1.735  0.5897  0.4128 -0.8362
 3833SOL    HW223136   0.828   0.808   1.834  1.2804  1.0355 -0.6677
 3834SOL     OW23137   1.038   3.091   9.371 -0.1958 -0.3699 -0.4721
 3834SOL    HW123138   0.979   3.134   9.433  0.2631 -1.0569  0.4350
 3834SOL    HW223139   1.128   3.100   9.403 -0.1100 -0.3330 -0.7212
 3835SOL     OW23140   3.607   2.325  14.561  0.7866 -0.7030  0.0605
 3835SOL    HW123141   3.668   2.380  14.611 -1.8452  1.3983  0.9612
 3835SOL    HW223142   3.529   2.328  14.616  0.7775 -1.9858  0.1132
 3836SOL     OW23143   4.452   3.467   0.606  0.2971 -0.0920  0.2977
 3836SOL    HW123144   4.455   3.389   0.551  0.1924  0.4357 -0.4572
 3836SOL    HW223145   4.536   3.454   0.650  0.8467  0.3299 -0.6408
 3837SOL     OW23146   3.318   0.423   5.765  0.3978 -0.2765 -0.0912
 3837SOL    HW123147   3.364   0.346   5.798 -2.4418 -1.0492  1.9828
 3837SOL    HW223148   3.272   0.454   5.843 -0.0453  0.9991 -0.8497
 3838SOL     OW23149   4.396   2.606   1.929  0.0306  0.7360  0.4512
 3838SOL    HW123150   4.450   2.567   1.860  1.4870  1.4720  1.2004
 3838SOL    HW223151   4.312   2.589   1.886 -0.8015  1.5468  1.7681
 3839SOL     OW23152   0.526   2.294   0.628  0.0378  0.0751 -0.0453
 3839SOL    HW123153   0.584   2.341   0.688 -1.8890 -0.1647  2.0007
 3839SOL    HW223154   0.573   2.259   0.552  0.1087 -0.0711  0.0656
 3840SOL     OW23155   3.792   2.412  17.540  0.2162  0.2853 -0.6244
 3840SOL    HW123156   3.785   2.483  17.604  2.5336  0.4852 -0.5806
 3840SOL    HW223157   3.799   2.337  17.599 -0.1667  1.6504  1.1816
 3841SOL     OW23158   1.319   3.526   8.927  0.3207  0.1781 -0.5225
 3841SOL    HW123159   1.237   3.479   8.914  0.5858 -0.5125  0.3389
 3841SOL    HW223160   1.374   3.490   8.997  0.5948 -0.3848 -1.0285
 3842SOL     OW23161   3.389   3.060   3.730  0.5374 -0.3392 -0.1049
 3842SOL    HW123162   3.346   3.109   3.800  0.1951 -0.7190 -0.0508
 3842SOL    HW223163   3.340   3.097   3.656  0.8387  0.9862  0.3490
 3843SOL     OW23164   0.794   0.567  17.687  0.0768  0.1440  0.3758
 3843SOL    HW123165   0.810   0.649  17.734  3.0964 -0.7886  0.9695
 3843SOL    HW223166   0.795   0.601  17.598  2.9253 -1.4466 -0.2050
 3844SOL     OW23167   0.854   0.199  13.635  0.3166  0.1711 -0.0384
 3844SOL    HW123168   0.931   0.166  13.589  0.4605  1.0093 -0.3937
 3844SOL    HW223169   0.777   0.166  13.589  0.8863 -2.3484  0.8561
 3845SOL     OW23170   4.313   4.158   3.421 -0.0229  0.3037 -0.0624
 3845SOL    HW123171   4.362   4.105   3.358 -1.1119 -0.2552 -0.4384
 3845SOL    HW223172   4.324   4.244   3.381  0.2914  0.8432  1.1858
 3846SOL     OW23173   2.442   0.859   1.700  0.2464  0.3306 -0.2882
 3846SOL    HW123174   2.536   0.867   1.715  0.1206  1.0370  0.1006
 3846SOL    HW223175   2.450   0.834   1.608  0.5259  0.3570 -0.2698
 3847SOL     OW23176   0.578   0.239   6.453 -0.3007 -0.1044  0.1874
 3847SOL    HW123177   0.561   0.154   6.492  3.1730 -0.3950  1.1250
 3847SOL    HW223178   0.539   0.303   6.512 -1.1253 -2.6085  2.3399
 3848SOL     OW23179   1.757   2.995  12.793  0.4116 -0.0886  0.6740
 3848SOL    HW123180   1.800   3.015  12.710  0.1402 -1.2940  0.2522
 3848SOL    HW223181   1.684   3.057  12.797  1.2489  0.8288  2.1853
 3849SOL     OW23182   3.086   0.259   7.431 -0.2736  0.1556  0.6660
 3849SOL    HW123183   3.021   0.326   7.410 -0.0558  0.0719 -0.2711
 3849SOL    HW223184   3.160   0.296   7.384 -0.9505 -0.1562 -0.6707
 3850SOL     OW23185   1.406   1.430   3.808  0.2242 -0.0555 -0.2563
 3850SOL    HW123186   1.430   1.417   3.900 -0.5009 -2.3169 -0.3886
 3850SOL    HW223187   1.374   1.340   3.796  2.1110 -0.4290 -2.3526
 3851SOL     OW23188   4.403   1.479   0.978  0.3096  0.7411 -0.3402
 3851SOL    HW123189   4.454   1.558   0.962  1.5545  0.1383  0.6648
 3851SOL    HW223190   4.315   1.514   0.982  1.2792  2.9612  1.1577
 3852SOL     OW23191   2.011   4.344  13.755  0.1284  0.0004 -0.0741
 3852SOL    HW123192   1.955   4.267  13.743  0.4519 -0.4548  1.3536
 3852SOL    HW223193   2.061   4.323  13.833  2.2361  0.4172 -1.3262
 3853SOL     OW23194   4.018   1.201  13.205 -0.4521  0.2340  0.0006
 3853SOL    HW123195   4.021   1.294  13.230  1.4928  0.0383  0.4977
 3853SOL    HW223196   3.966   1.174  13.280  0.8468  1.6468  1.4317
 3854SOL     OW23197   3.289   1.958  14.172  0.2131 -0.0093  0.7103
 3854SOL    HW123198   3.200   1.974  14.204  0.3433  0.9717  0.5777
 3854SOL    HW223199   3.298   2.035  14.115  0.7768  0.9818  2.1252
 3855SOL     OW23200   2.408   1.379  10.900 -0.4900 -0.2699  0.2248
 3855SOL    HW123201   2.429   1.410  10.988  0.2136  1.1529 -0.4386
 3855SOL    HW223202   2.315   1.356  10.905 -0.3505 -1.1264 -1.3658
 3856SOL     OW23203   2.794   1.724   7.093  0.0885  0.4337  0.3018
 3856SOL    HW123204   2.823   1.727   7.002  0.2829  0.3940  0.3621
 3856SOL    HW223205   2.867   1.700   7.150 -1.3612 -0.0797  1.9564
 3857SOL     OW23206   4.527   2.877   1.310 -0.0370  0.0941 -0.2437
 3857SOL    HW123207   4.434   2.883   1.288 -0.1235 -1.6522 -0.3276
 3857SOL    HW223208   4.565   2.894   1.224  0.3561  0.0311 -0.0839
 3858SOL     OW23209   2.743   3.884   7.195 -0.1400 -0.2713  0.1343
 3858SOL    HW123210   2.711   3.905   7.283  0.1192 -2.9948  0.8718
 3858SOL    HW223211   2.796   3.963   7.184 -2.0283  1.0113  0.1833
 3859SOL     OW23212   2.320   2.817  15.488 -0.1342  0.2716 -0.4711
 3859SOL    HW123213   2.258   2.878  15.527 -0.5282  1.0790 -2.3718
 3859SOL    HW223214   2.263   2.747  15.457  2.9477 -1.5177 -2.1006
 3860SOL     OW23215   0.753   4.007   3.321 -0.5646  0.6329  0.7289
 3860SOL    HW123216   0.707   4.039   3.398 -1.4336  2.6342 -0.6369
 3860SOL    HW223217   0.841   4.012   3.359  0.0741  1.8702 -0.9015
 3861SOL     OW23218   2.155   0.847   1.753 -0.1780  0.3787  0.0948
 3861SOL    HW123219   2.128   0.768   1.706 -0.3791 -0.2280  1.2216
 3861SOL    HW223220   2.242   0.867   1.718 -0.2243  1.7414  0.7646
 3862SOL     OW23221   0.169   1.354  12.315 -1.0029 -0.0133  0.1726
 3862SOL    HW123222   0.170   1.446  12.338 -1.7210  0.2028 -0.6692
 3862SOL    HW223223   0.264   1.349  12.299 -1.0432 -3.0352  0.7650
 3863SOL     OW23224   3.787   3.096   1.473  0.0577 -0.5633 -0.5792
 3863SOL    HW123225   3.850   3.080   1.403  1.0429  1.9810 -0.2894
 3863SOL    HW223226   3.828   3.071   1.555  0.5074 -1.6700 -1.1423
 3864SOL     OW23227   3.909   4.485   0.861 -0.8100 -0.1111 -0.1015
 3864SOL    HW123228   3.923   4.563   0.807  3.9650 -0.7619  0.2696
 3864SOL    HW223229   3.914   4.422   0.789  2.9557  2.1983 -1.8489
 3865SOL     OW23230   0.681   0.249   7.893  0.1553  0.1020  0.0423
 3865SOL    HW123231   0.733   0.293   7.825 -0.6670  0.8766 -0.0761
 3865SOL    HW223232   0.740   0.273   7.965 -0.5115  2.9228 -0.3653
 3866SOL     OW23233   1.034   0.920   5.941  0.0015 -0.4539 -0.4287
 3866SOL    HW123234   1.111   0.868   5.921 -1.5253 -2.3547 -1.3544
 3866SOL    HW223235   0.978   0.907   5.864 -2.2276  1.2905  0.8735
 3867SOL     OW23236   0.621   3.145   5.401  0.2115 -0.1057  0.2799
 3867SOL    HW123237   0.590   3.092   5.328  1.7125 -1.9325  0.9573
 3867SOL    HW223238   0.675   3.078   5.444 -0.3526 -1.0845 -0.5422
 3868SOL     OW23239   3.291   0.170  10.529  0.9026  0.2915  0.4071
 3868SOL    HW123240   3.242   0.169  10.611  1.9897 -1.3730  1.0218
 3868SOL    HW223241   3.282   0.079  10.500  2.1912  0.2932 -0.0001
 3869SOL     OW23242   1.753   0.024   2.926 -0.2812 -0.0746 -0.4503
 3869SOL    HW123243   1.837   4.728   2.960 -0.8239 -0.2192  0.7409
 3869SOL    HW223244   1.777   0.064   2.842  0.2203  0.2035 -0.1752
 3870SOL     OW23245   2.320   2.885   3.876  0.3903  0.0617  0.0166
 3870SOL    HW123246   2.264   2.915   3.948 -1.3162 -1.9364 -0.4835
 3870SOL    HW223247   2.273   2.923   3.802  1.6231  0.2729 -0.6542
 3871SOL     OW23248   0.884   2.558   1.109 -0.2737  0.2732  0.2109
 3871SOL    HW123249   0.871   2.522   1.196  1.1591  0.3384  0.4586
 3871SOL    HW223250   0.812   2.620   1.108 -1.4012 -1.0764 -3.9430
 3872SOL     OW23251   2.517   1.581  10.421  0.0072  0.4064  0.5992
 3872SOL    HW123252   2.444   1.631  10.457  0.4568  1.0559  0.6019
 3872SOL    HW223253   2.526   1.509  10.484 -0.8880 -0.4467 -0.2409
 3873SOL     OW23254   1.167   3.763   8.940  0.3066  0.4858 -0.6394
 3873SOL    HW123255   1.228   3.836   8.955  1.3157 -0.8017  1.4645
 3873SOL    HW223256   1.223   3.695   8.902 -0.0114 -0.0131 -0.2174
 3874SOL     OW23257   2.673   0.563  17.201  0.0943 -0.3894 -0.5447
 3874SOL    HW123258   2.660   0.468  17.192 -0.1742 -0.2816 -1.3452
 3874SOL    HW223259   2.764   0.568  17.171 -0.0290 -0.3233 -0.9130
 3875SOL     OW23260   2.962   0.088   4.961 -0.5973  0.2455 -0.1198
 3875SOL    HW123261   2.879   0.113   5.001 -0.4217  1.5665 -0.5828
 3875SOL    HW223262   2.937   0.079   4.869  1.2561 -4.5770 -0.1509
 3876SOL     OW23263   1.054   2.690  14.744  0.0558  0.0174  0.2119
 3876SOL    HW123264   1.124   2.664  14.803 -1.2057  0.2885  1.8216
 3876SOL    HW223265   0.987   2.722  14.805  1.9706  2.5651  0.9297
 3877SOL     OW23266   4.296   4.506   1.710 -0.0589 -0.2070  0.3446
 3877SOL    HW123267   4.208   4.535   1.736 -0.9095 -2.5615  0.0470
 3877SOL    HW223268   4.348   4.575   1.752 -0.2986 -0.0701  0.4180
 3878SOL     OW23269   2.739   2.751   4.525 -0.0774  0.2133  0.1009
 3878SOL    HW123270   2.761   2.670   4.478 -2.3070  0.4493 -1.3640
 3878SOL    HW223271   2.746   2.806   4.447 -0.5934  1.8160  1.1896
 3879SOL     OW23272   3.341   4.332  14.849 -0.2516 -0.3609  0.1336
 3879SOL    HW123273   3.381   4.264  14.795 -1.6962  0.5594 -2.0861
 3879SOL    HW223274   3.303   4.385  14.779  0.4551 -0.7584 -0.5621
 3880SOL     OW23275   2.751   3.413   5.972 -0.2200 -0.7303  0.1383
 3880SOL    HW123276   2.838   3.426   5.934  0.0414  0.4549  1.1393
 3880SOL    HW223277   2.776   3.421   6.064  0.2917  0.2903 -0.0928
 3881SOL     OW23278   4.008   2.830   3.871 -0.3252 -0.0679  0.3638
 3881SOL    HW123279   3.975   2.848   3.959 -0.3670 -1.1325  0.5738
 3881SOL    HW223280   3.943   2.881   3.823 -0.7670  0.0497  1.0875
 3882SOL     OW23281   1.751   4.297  10.053  0.2711 -0.3537  0.1132
 3882SOL    HW123282   1.706   4.337   9.979  0.7798 -0.4855 -0.2621
 3882SOL    HW223283   1.696   4.218  10.054 -0.2709  0.0168 -0.5461
 3883SOL     OW23284   1.392   1.476   0.280  0.1540  0.4659  0.0584
 3883SOL    HW123285   1.422   1.486   0.189 -1.4046  0.7973 -0.4314
 3883SOL    HW223286   1.445   1.550   0.310 -1.8762  1.7059  0.6062
 3884SOL     OW23287   4.391   3.975  11.249 -0.0449 -0.4216  0.7276
 3884SOL    HW123288   4.368   4.068  11.238  0.4345 -0.3527  0.3057
 3884SOL    HW223289   4.484   3.978  11.229 -0.0714 -1.9761  0.4075
 3885SOL     OW23290   0.201   0.273   5.276 -0.7819  0.4947 -0.5149
 3885SOL    HW123291   0.235   0.352   5.234  1.6401  1.1068  2.6425
 3885SOL    HW223292   0.231   0.301   5.362  1.8853 -2.0573 -0.6416
 3886SOL     OW23293   2.692   4.019   6.163 -0.1692  0.0508  0.0605
 3886SOL    HW123294   2.701   3.942   6.219  1.7749 -0.7669 -1.3806
 3886SOL    HW223295   2.727   3.987   6.080 -1.3110 -0.4213 -0.2378
 3887SOL     OW23296   3.254   3.611   4.902 -0.1110 -0.6641  0.6474
 3887SOL    HW123297   3.236   3.585   4.812 -2.6579  2.9769  0.0699
 3887SOL    HW223298   3.342   3.648   4.899  0.0676 -1.0583  1.0447
 3888SOL     OW23299   3.817   0.364   5.959  0.5516  0.3222 -0.6478
 3888SOL    HW123300   3.822   0.377   5.864 -2.2105 -2.2559 -1.1616
 3888SOL    HW223301   3.905   0.396   5.974  0.1626  1.1878 -0.2190
 3889SOL     OW23302   3.965   0.997   4.005  0.4103  0.3173 -0.3234
 3889SOL    HW123303   4.021   1.074   4.000 -1.6502  1.9944  2.2096
 3889SOL    HW223304   4.018   0.949   3.941 -1.1862 -2.5014  0.4277
 3890SOL     OW23305   4.372   2.306   9.100  0.8524  0.0915 -0.2087
 3890SOL    HW123306   4.460   2.297   9.063  1.3527 -0.5257  1.1170
 3890SOL    HW223307   4.371   2.221   9.145  0.2660 -0.5771 -1.4836
 3891SOL     OW23308   2.479   2.705   2.331  0.0874  0.7435 -0.2736
 3891SOL    HW123309   2.549   2.680   2.392 -1.1349 -0.6405  0.5494
 3891SOL    HW223310   2.435   2.621   2.325  0.7446  0.3047  1.0387
 3892SOL     OW23311   1.941   4.441   0.624  0.9075 -0.3147  0.5411
 3892SOL    HW123312   1.891   4.449   0.543 -0.7885 -1.1009  1.4944
 3892SOL    HW223313   1.887   4.486   0.688  0.5186  0.5274 -0.3811
 3893SOL     OW23314   1.117   2.466   3.854 -0.1006 -0.3603 -0.0066
 3893SOL    HW123315   1.183   2.474   3.923  0.5859  0.6627 -0.7722
 3893SOL    HW223316   1.141   2.379   3.821 -2.1716  0.1661 -2.8776
 3894SOL     OW23317   2.665   0.423   4.582 -0.8747  0.2393 -0.1358
 3894SOL    HW123318   2.756   0.451   4.590 -0.6306 -0.9916  1.3239
 3894SOL    HW223319   2.682   0.331   4.564 -0.7139 -0.0909  1.7893
 3895SOL     OW23320   1.507   0.854   5.689 -0.0126 -0.7042 -0.2376
 3895SOL    HW123321   1.524   0.761   5.678  2.8729 -0.0305 -1.2502
 3895SOL    HW223322   1.570   0.886   5.625 -0.5013  0.0346 -0.3491
 3896SOL     OW23323   4.189   1.555   5.778  0.0811 -0.4715 -0.0826
 3896SOL    HW123324   4.185   1.636   5.727  3.3869 -0.7766 -0.8149
 3896SOL    HW223325   4.100   1.545   5.813 -0.5824  1.1644 -1.3268
 3897SOL     OW23326   3.555   0.640  10.039 -0.6085 -0.6297  0.0375
 3897SOL    HW123327   3.488   0.688   9.991 -2.2457 -2.5577  0.4213
 3897SOL    HW223328   3.505   0.570  10.079  1.3305 -2.3175 -0.5223
 3898SOL     OW23329   3.747   2.591   4.859  0.0135 -0.2210 -0.2888
 3898SOL    HW123330   3.690   2.665   4.839  2.9261  2.5909  1.8403
 3898SOL    HW223331   3.727   2.521   4.797 -0.3080  0.1599 -0.6174
 3899SOL     OW23332   0.044   3.575   2.602 -0.5175  0.6256  0.6729
 3899SOL    HW123333   0.072   3.561   2.693 -0.0434  0.2543  0.4699
 3899SOL    HW223334   0.099   3.514   2.552 -1.2025  2.9005 -2.8505
 3900SOL     OW23335   0.448   0.258  12.683  0.4633 -0.2058  0.1718
 3900SOL    HW123336   0.473   0.204  12.757  2.0317  1.0776  0.6027
 3900SOL    HW223337   0.537   0.285  12.658  0.3139 -0.5941 -0.7699
 3901SOL     OW23338   0.563   4.629   5.088  0.6092 -0.0575 -0.1196
 3901SOL    HW123339   0.574   4.559   5.153  0.2156 -0.8152 -0.8639
 3901SOL    HW223340   0.491   4.678   5.128  1.2792  0.9958 -0.2058
 3902SOL     OW23341   0.413   4.207  11.079  0.0215  0.0592  0.1311
 3902SOL    HW123342   0.349   4.278  11.071 -2.2252 -1.8667  0.7498
 3902SOL    HW223343   0.364   4.131  11.047 -0.6735  0.6533 -0.2174
 3903SOL     OW23344   3.697   3.168  11.767  0.2578 -0.2003  0.4082
 3903SOL    HW123345   3.672   3.136  11.853 -0.5490 -0.0199  0.2402
 3903SOL    HW223346   3.780   3.208  11.793 -0.0041  0.3728  0.3511
 3904SOL     OW23347   0.546   3.836   2.773 -0.9292 -0.2626  0.6031
 3904SOL    HW123348   0.570   3.802   2.687  0.0432  1.6922  0.0851
 3904SOL    HW223349   0.464   3.885   2.767 -1.6965 -1.6532 -0.2881
 3905SOL     OW23350   1.015   3.898   0.727 -0.3004  0.7610  0.1732
 3905SOL    HW123351   0.925   3.877   0.703 -0.2664  2.7659 -1.7240
 3905SOL    HW223352   0.997   3.946   0.808 -1.0058  0.1061  0.4161
 3906SOL     OW23353   3.484   0.341   2.611 -0.1653  0.2771  0.3189
 3906SOL    HW123354   3.572   0.303   2.622  0.2109  0.7821 -0.8792
 3906SOL    HW223355   3.501   0.395   2.534  1.9962 -0.1272  0.5014
 3907SOL     OW23356   4.224   3.805   1.860  0.4648 -0.3420 -0.4430
 3907SOL    HW123357   4.242   3.878   1.800  1.4734  0.0807  0.3882
 3907SOL    HW223358   4.256   3.839   1.943  1.0989  1.3774 -1.3790
 3908SOL     OW23359   3.579   4.524  13.328 -0.2131  0.2135  0.0850
 3908SOL    HW123360   3.540   4.611  13.328 -1.2049 -0.2067 -3.4729
 3908SOL    HW223361   3.500   4.469  13.333  0.0737 -0.1488  0.6307
 3909SOL     OW23362   3.413   3.680   8.032 -0.6427 -0.2126 -0.4014
 3909SOL    HW123363   3.458   3.660   7.950 -1.7713  1.2387 -1.3790
 3909SOL    HW223364   3.410   3.776   8.030  0.8753 -0.1282  1.3241
 3910SOL     OW23365   0.099   0.295  10.421 -0.4572  0.6866 -0.5705
 3910SOL    HW123366   0.115   0.341  10.338  1.0368  0.4294 -0.4250
 3910SOL    HW223367   0.184   0.252  10.437 -0.6065  0.7720  0.4431
 3911SOL     OW23368   3.999   3.144  15.476 -0.7169 -0.4209  0.5071
 3911SOL    HW123369   3.976   3.052  15.476  1.1860 -0.9049 -1.8669
 3911SOL    HW223370   4.080   3.151  15.424 -0.6107  1.2502  0.8992
 3912SOL     OW23371   0.135   3.165   6.932 -0.1329 -0.3881 -0.2268
 3912SOL    HW123372   0.143   3.070   6.933  0.7773 -0.3673 -2.9707
 3912SOL    HW223373   0.174   3.179   6.845 -1.7225  0.1219 -0.8542
 3913SOL     OW23374   0.710   0.984   9.430  0.5848 -0.0411 -0.3617
 3913SOL    HW123375   0.729   1.030   9.512  0.3084 -1.1540  0.3171
 3913SOL    HW223376   0.748   0.897   9.437 -0.2080 -0.5024 -1.6928
 3914SOL     OW23377   4.551   0.027   3.198  0.0399  0.0917  0.0991
 3914SOL    HW123378   4.513   4.696   3.140 -2.1055  0.6865  0.8375
 3914SOL    HW223379   4.532   0.001   3.288 -1.1021  3.6454  0.8787
 3915SOL     OW23380   4.073   4.271   3.921 -0.4167  0.1001 -0.3144
 3915SOL    HW123381   3.990   4.259   3.966  0.0256 -0.6507  0.3068
 3915SOL    HW223382   4.116   4.336   3.977 -0.8718 -0.5523  0.7785
 3916SOL     OW23383   3.638   4.304   2.952 -0.7729  0.0319 -0.1492
 3916SOL    HW123384   3.560   4.344   2.992  0.6470  0.0262  2.6501
 3916SOL    HW223385   3.618   4.348   2.869  0.0160 -0.7966 -0.7754
 3917SOL     OW23386   0.073   2.861   1.772 -0.1160 -0.1804 -0.1509
 3917SOL    HW123387   0.110   2.773   1.762 -0.2435 -0.2941  0.3832
 3917SOL    HW223388   0.139   2.899   1.829 -1.1081  1.3935 -0.0349
 3918SOL     OW23389   0.978   1.068   8.087  0.2412 -0.1656  0.2164
 3918SOL    HW123390   0.972   1.062   8.182  3.1211 -1.7987  0.2841
 3918SOL    HW223391   0.890   1.045   8.059  0.2454  0.6886 -0.5175
 3919SOL     OW23392   3.369   2.501  13.043 -0.1921 -0.2703 -0.0778
 3919SOL    HW123393   3.407   2.523  12.958  0.3191 -4.0025 -0.8157
 3919SOL    HW223394   3.302   2.442  13.008  0.1042  0.1953 -1.4394
 3920SOL     OW23395   2.310   0.813  14.755  0.3167 -0.2125 -0.0924
 3920SOL    HW123396   2.309   0.905  14.728 -1.9727  0.5471  2.6021
 3920SOL    HW223397   2.250   0.777  14.690 -0.6836  1.2618  0.0219
 3921SOL     OW23398   2.113   0.251   3.320  0.1083  0.5247  0.0101
 3921SOL    HW123399   2.021   0.258   3.343  0.2846 -0.6437  1.0791
 3921SOL    HW223400   2.130   0.157   3.329 -1.8958  0.2850  1.2761
 3922SOL     OW23401   2.253   0.934   5.523  0.1374  0.2022 -0.4142
 3922SOL    HW123402   2.324   0.886   5.565  0.1928 -0.0838 -0.8303
 3922SOL    HW223403   2.293   0.997   5.464  1.4466 -0.9477 -0.7607
 3923SOL     OW23404   0.467   1.747   2.869 -0.5267 -0.1759 -0.4824
 3923SOL    HW123405   0.491   1.835   2.898 -1.2364 -0.3843  0.7725
 3923SOL    HW223406   0.485   1.762   2.777 -0.5607 -0.4429 -0.5325
 3924SOL     OW23407   0.447   1.170  15.023 -0.3443 -0.9873 -0.5347
 3924SOL    HW123408   0.516   1.107  15.002  0.3160 -0.3716 -0.2388
 3924SOL    HW223409   0.403   1.122  15.094  0.0178 -2.5357 -1.3716
 3925SOL     OW23410   1.805   2.422  13.628 -0.5037 -0.1456  0.0246
 3925SOL    HW123411   1.878   2.386  13.577 -1.6744 -2.0219 -0.3438
 3925SOL    HW223412   1.741   2.351  13.630 -0.0012 -0.5609  1.0364
 3926SOL     OW23413   3.154   1.289   2.569 -0.2344 -0.2658 -0.2156
 3926SOL    HW123414   3.207   1.336   2.505 -2.8820 -0.1778 -2.3591
 3926SOL    HW223415   3.067   1.318   2.541  0.5637  0.4126 -2.0027
 3927SOL     OW23416   2.091   2.867   5.816 -0.1513 -0.0989  0.4462
 3927SOL    HW123417   2.155   2.911   5.873  1.4335 -2.3855  0.4278
 3927SOL    HW223418   2.152   2.803   5.779 -2.9752 -1.5458 -1.7427
 3928SOL     OW23419   0.178   0.329  12.737  0.1206 -0.0207  0.1516
 3928SOL    HW123420   0.136   0.244  12.743  2.2980 -1.0429  0.8836
 3928SOL    HW223421   0.271   0.305  12.731  0.3837  1.0130  0.0920
 3929SOL     OW23422   2.720   3.766   8.714 -0.2406  0.2781 -0.7957
 3929SOL    HW123423   2.740   3.826   8.642  2.5999 -1.8246 -1.7863
 3929SOL    HW223424   2.800   3.713   8.706 -0.7139 -0.4213 -0.8748
 3930SOL     OW23425   0.427   1.476   1.681  0.0080  0.2639  0.4813
 3930SOL    HW123426   0.481   1.534   1.627 -1.0674  0.3037 -0.5582
 3930SOL    HW223427   0.399   1.538   1.748 -2.3948 -1.5719  1.1773
 3931SOL     OW23428   3.254   2.662   9.655  0.1314  0.4451 -0.4596
 3931SOL    HW123429   3.215   2.713   9.584 -0.9040  0.3710  0.0607
 3931SOL    HW223430   3.196   2.586   9.662 -1.8121  2.0610  0.8276
 3932SOL     OW23431   3.973   3.756  12.729 -0.0940  0.5314  0.2385
 3932SOL    HW123432   4.022   3.680  12.696  0.5071  1.1271 -0.2652
 3932SOL    HW223433   3.921   3.784  12.654  2.5769  3.5453 -0.5242
 3933SOL     OW23434   4.647   0.929   4.131 -1.0197  0.6072 -0.3197
 3933SOL    HW123435   4.645   0.835   4.151  0.2386  0.2339 -1.9141
 3933SOL    HW223436   4.726   0.942   4.078  0.1693 -1.3062  0.9851
 3934SOL     OW23437   0.660   0.967  12.811 -0.4498 -0.4779  0.0220
 3934SOL    HW123438   0.733   0.997  12.866  0.5576 -1.3488 -0.8319
 3934SOL    HW223439   0.628   1.054  12.786 -1.4918  0.1470  3.5127
 3935SOL     OW23440   3.742   0.202   2.719  0.1971  0.2092 -0.0485
 3935SOL    HW123441   3.731   0.116   2.677  2.9598 -0.9543  1.6075
 3935SOL    HW223442   3.739   0.185   2.813  0.6742  0.9957  0.1058
 3936SOL     OW23443   1.360   2.598   2.557 -0.5653  0.2285  0.1473
 3936SOL    HW123444   1.423   2.540   2.514 -1.5968 -0.9261  0.2130
 3936SOL    HW223445   1.366   2.571   2.649 -1.2268  1.3708  0.5210
 3937SOL     OW23446   3.263   0.317  16.473 -0.2940 -0.9163 -0.1100
 3937SOL    HW123447   3.232   0.385  16.532 -0.9157 -1.0738 -0.2589
 3937SOL    HW223448   3.312   0.370  16.410 -0.3978 -0.9514 -0.2207
 3938SOL     OW23449   2.408   2.519   1.278 -0.2037  0.3447 -0.4421
 3938SOL    HW123450   2.466   2.564   1.217 -1.2828 -0.5201 -2.1004
 3938SOL    HW223451   2.460   2.484   1.350 -0.5825  2.0262  0.6579
 3939SOL     OW23452   2.867   0.925   7.071  0.1747  0.7255  0.6896
 3939SOL    HW123453   2.807   0.908   6.999 -1.0419  0.7045  1.7191
 3939SOL    HW223454   2.919   0.845   7.081 -0.4408  0.3764  1.1033
 3940SOL     OW23455   3.707   1.311   3.262  0.6145  0.6100 -0.0408
 3940SOL    HW123456   3.674   1.315   3.352 -1.1225 -2.3283 -0.5692
 3940SOL    HW223457   3.649   1.250   3.216 -2.7950  2.4339  1.8408
 3941SOL     OW23458   0.948   3.932   3.927 -0.1124 -0.4258 -0.4795
 3941SOL    HW123459   0.852   3.929   3.934 -0.0037 -0.2268  1.0562
 3941SOL    HW223460   0.965   4.026   3.929 -0.7963 -0.3351  1.0330
 3942SOL     OW23461   0.365   4.408   8.186 -0.3529  0.1466  0.1455
 3942SOL    HW123462   0.336   4.317   8.179  0.0223  0.0200  0.2539
 3942SOL    HW223463   0.440   4.393   8.244  1.9926  1.0205 -2.6726
 3943SOL     OW23464   2.789   1.346   3.849  0.0913 -0.9490 -0.6409
 3943SOL    HW123465   2.789   1.261   3.807 -1.5824 -0.3605 -1.8653
 3943SOL    HW223466   2.711   1.384   3.807  0.5540  0.0539 -0.5860
 3944SOL     OW23467   1.948   0.052   8.307 -0.8568  0.3973 -0.1145
 3944SOL    HW123468   1.942   0.089   8.395  0.6636  0.5464 -0.0708
 3944SOL    HW223469   2.035   0.085   8.285 -0.6909 -0.4353 -0.7027
 3945SOL     OW23470   2.116   3.400  11.624  0.3937 -0.1351  0.5254
 3945SOL    HW123471   2.209   3.421  11.618  0.5577 -1.3443 -1.0455
 3945SOL    HW223472   2.092   3.450  11.702  0.0399 -0.7238  0.7916
 3946SOL     OW23473   3.147   0.179   5.452  0.0966  0.5052  0.3901
 3946SOL    HW123474   3.157   0.160   5.359 -1.5396 -0.2034  0.3627
 3946SOL    HW223475   3.141   0.274   5.445 -2.3419  0.3242 -0.0334
 3947SOL     OW23476   4.462   1.799  13.443  0.5733  0.2436  0.4726
 3947SOL    HW123477   4.419   1.854  13.509  1.9682  3.5049 -1.3357
 3947SOL    HW223478   4.523   1.865  13.408  0.4673 -0.2972 -0.7396
 3948SOL     OW23479   4.186   0.450   2.972  0.4622  0.2704  0.7797
 3948SOL    HW123480   4.272   0.415   2.953  0.5459  1.0332 -0.2391
 3948SOL    HW223481   4.142   0.370   3.003  1.5283 -0.1432  1.2237
 3949SOL     OW23482   3.810   1.490   7.231  0.1297 -0.4969 -0.0720
 3949SOL    HW123483   3.771   1.528   7.310 -1.2913 -1.8824 -0.1242
 3949SOL    HW223484   3.903   1.514   7.233 -0.0966  0.5882 -2.4823
 3950SOL     OW23485   2.068   3.457   7.209  0.5319 -0.2790  0.1384
 3950SOL    HW123486   2.160   3.434   7.220  0.3333 -1.5088 -0.7317
 3950SOL    HW223487   2.040   3.425   7.124 -0.9394  0.1361  0.4706
 3951SOL     OW23488   2.145   3.575  17.693  0.0950  0.0199 -0.0398
 3951SOL    HW123489   2.051   3.559  17.688  0.0600  0.8155 -1.7987
 3951SOL    HW223490   2.181   3.494  17.656  2.3714  1.0414 -0.0816
 3952SOL     OW23491   2.053   2.689   9.193 -0.0410 -0.4560  0.2084
 3952SOL    HW123492   2.111   2.619   9.162 -0.7183 -0.1398 -1.8061
 3952SOL    HW223493   2.056   2.754   9.122  3.2179  1.1386  1.8060
 3953SOL     OW23494   2.164   3.967  16.128  0.3343  0.3503  0.0162
 3953SOL    HW123495   2.082   4.012  16.103 -0.1630 -0.9943 -0.7561
 3953SOL    HW223496   2.136   3.892  16.180  0.9871  1.1092  1.4797
 3954SOL     OW23497   3.244   1.486   6.912  0.0645  0.2798  0.4210
 3954SOL    HW123498   3.212   1.532   6.989 -0.2141  0.5694  0.1311
 3954SOL    HW223499   3.243   1.399   6.951 -0.3811  0.3934  0.6569
 3955SOL     OW23500   2.618   2.922  10.505  0.6887 -0.0034 -0.3692
 3955SOL    HW123501   2.614   2.846  10.562  1.1888  0.6149  0.4785
 3955SOL    HW223502   2.622   2.991  10.570  3.9936 -1.4860  0.9660
 3956SOL     OW23503   2.723   3.881  17.318  0.5663 -0.5932 -0.2345
 3956SOL    HW123504   2.740   3.831  17.398  0.0279  1.2595  1.0363
 3956SOL    HW223505   2.693   3.812  17.259  2.1006 -1.5389  0.0984
 3957SOL     OW23506   4.415   4.012   3.197 -0.5351  0.1534  0.0476
 3957SOL    HW123507   4.389   4.042   3.110  0.9854 -0.5047 -0.6430
 3957SOL    HW223508   4.453   3.926   3.179  1.1171  0.5318  1.6720
 3958SOL     OW23509   3.444   0.102   4.442  0.6889  0.3463  0.0411
 3958SOL    HW123510   3.479   0.014   4.455 -0.3016 -0.0802 -0.2045
 3958SOL    HW223511   3.528   0.147   4.445  1.5029 -1.2144  0.6471
 3959SOL     OW23512   3.345   0.460   7.910  0.2188  0.1026 -0.0623
 3959SOL    HW123513   3.282   0.509   7.962 -0.6104 -0.0790 -0.9144
 3959SOL    HW223514   3.303   0.456   7.825  2.7454 -1.0172 -1.2664
 3960SOL     OW23515   0.461   0.803   3.031  0.2191 -0.0680  0.0360
 3960SOL    HW123516   0.535   0.819   3.090  0.1373 -3.0021  0.9051
 3960SOL    HW223517   0.410   0.884   3.032 -2.4307 -1.7550  1.0036
 3961SOL     OW23518   3.274   2.254   9.466 -0.1216 -0.0541  0.2246
 3961SOL    HW123519   3.283   2.268   9.372 -0.6703 -0.6191  0.0864
 3961SOL    HW223520   3.363   2.267   9.499  0.2680 -1.2334 -0.3479
 3962SOL     OW23521   2.152   4.433   9.135 -0.4167  0.0045  0.4837
 3962SOL    HW123522   2.109   4.472   9.211 -0.0881 -0.9784  1.1720
 3962SOL    HW223523   2.226   4.492   9.129 -0.7750  0.4301  0.2601
 3963SOL     OW23524   2.152   0.318   6.950  0.0303  0.1933  0.0806
 3963SOL    HW123525   2.137   0.412   6.942  2.1544  0.5229 -0.1569
 3963SOL    HW223526   2.189   0.318   7.039 -0.6723  1.1708  0.3747
 3964SOL     OW23527   1.905   0.636   5.262  0.2551 -0.2462  0.6317
 3964SOL    HW123528   1.976   0.699   5.271  0.7526 -0.6834 -0.1657
 3964SOL    HW223529   1.828   0.692   5.253  0.9332  0.2253 -2.1954
 3965SOL     OW23530   4.061   2.855   3.484  0.2316 -0.2441  0.0668
 3965SOL    HW123531   4.022   2.784   3.535  0.4484 -0.0006  0.5672
 3965SOL    HW223532   4.070   2.810   3.400 -0.8877  0.5217 -0.4551
 3966SOL     OW23533   4.189   2.648   5.686 -0.3209  0.0061  0.0795
 3966SOL    HW123534   4.094   2.655   5.677 -0.5287 -0.5373  1.9305
 3966SOL    HW223535   4.198   2.636   5.780  3.0075  0.3271 -0.2086
 3967SOL     OW23536   3.578   3.563   8.239  0.0858  0.6630  0.9494
 3967SOL    HW123537   3.529   3.624   8.294  0.2518  1.4759  0.1971
 3967SOL    HW223538   3.531   3.571   8.156 -0.2549 -3.3252  0.7387
 3968SOL     OW23539   0.156   2.255   4.776  0.1328  0.9529 -0.8719
 3968SOL    HW123540   0.100   2.278   4.851 -0.4035  2.0872 -1.6109
 3968SOL    HW223541   0.245   2.250   4.810 -0.7601  1.5967  1.5724
 3969SOL     OW23542   4.004   2.272   4.201  0.4536  0.0408  0.2462
 3969SOL    HW123543   3.993   2.190   4.248 -0.0351 -0.5891 -0.9752
 3969SOL    HW223544   4.004   2.337   4.271 -3.8288  1.1228 -0.7979
 3970SOL     OW23545   3.527   1.798   4.873 -0.6285  0.0540 -0.3150
 3970SOL    HW123546   3.442   1.764   4.846 -0.8372  1.4956 -1.5223
 3970SOL    HW223547   3.516   1.836   4.960  0.8826 -0.9408  0.3159
 3971SOL     OW23548   1.849   0.659  13.688  0.8606 -0.4990 -0.4247
 3971SOL    HW123549   1.939   0.626  13.683 -0.2462 -3.4569 -0.5543
 3971SOL    HW223550   1.807   0.586  13.734  2.3098 -0.3572  1.1473
 3972SOL     OW23551   1.068   3.259   8.621 -0.2740  0.2252 -0.0880
 3972SOL    HW123552   0.996   3.196   8.620  1.2545 -1.5395 -0.5466
 3972SOL    HW223553   1.140   3.207   8.584 -0.4528 -0.6571  0.8073
 3973SOL     OW23554   1.732   3.153   7.963  0.3953  0.2992  0.3599
 3973SOL    HW123555   1.752   3.120   8.050 -1.7153 -0.9695  0.3711
 3973SOL    HW223556   1.640   3.128   7.953  0.7351  0.4116 -3.0234
 3974SOL     OW23557   4.442   4.378  16.011  0.0650  0.4194  0.0478
 3974SOL    HW123558   4.515   4.319  15.988 -0.0048  0.0828  0.6968
 3974SOL    HW223559   4.487   4.452  16.052  0.9380  1.1966 -2.2779
 3975SOL     OW23560   3.871   3.167   2.382 -0.0366 -0.0128 -0.0448
 3975SOL    HW123561   3.928   3.214   2.321  1.3554  0.4011  1.5835
 3975SOL    HW223562   3.829   3.112   2.315  1.1876  0.6134 -1.3310
 3976SOL     OW23563   0.760   3.434   5.918  0.2323  0.2070  0.1267
 3976SOL    HW123564   0.675   3.397   5.945 -0.7122  2.2224 -0.0770
 3976SOL    HW223565   0.730   3.486   5.843 -0.9773 -0.5012  0.1134
 3977SOL     OW23566   3.835   3.437   9.706  0.5269  0.6234 -0.0574
 3977SOL    HW123567   3.883   3.507   9.751 -0.7994  1.2447  0.4051
 3977SOL    HW223568   3.880   3.359   9.738  1.3852  0.9798 -0.3893
 3978SOL     OW23569   4.082   1.769   5.030  0.1174  0.3256 -0.4118
 3978SOL    HW123570   4.051   1.857   5.048  1.7975  1.1062 -1.3094
 3978SOL    HW223571   4.172   1.767   5.063  0.0600 -1.3639 -0.3158
 3979SOL     OW23572   0.913   2.574  13.745  0.1925 -0.1217  0.3762
 3979SOL    HW123573   0.853   2.500  13.751  1.2956 -1.1958 -1.8027
 3979SOL    HW223574   0.946   2.580  13.835  3.0438 -1.9374 -0.5574
 3980SOL     OW23575   1.220   2.328  15.656  0.2479  0.3171  0.4060
 3980SOL    HW123576   1.221   2.369  15.742  1.7067  0.0759  0.5114
 3980SOL    HW223577   1.199   2.396  15.592 -0.4853  0.2902  0.6153
 3981SOL     OW23578   2.782   4.632   5.263 -0.2248  0.2760 -0.3846
 3981SOL    HW123579   2.833   4.632   5.344 -3.6142  0.7088  1.7354
 3981SOL    HW223580   2.837   4.576   5.208  0.6155 -0.5698  1.3032
 3982SOL     OW23581   0.178   3.146   6.650 -0.3448 -0.2323 -0.3187
 3982SOL    HW123582   0.176   3.052   6.635 -2.0208 -0.4364  1.2400
 3982SOL    HW223583   0.129   3.184   6.577  0.1629  2.0157  0.4895
 3983SOL     OW23584   4.358   4.495   8.799  0.2715 -0.2877  0.0410
 3983SOL    HW123585   4.386   4.512   8.889  1.6524 -1.2568 -0.2151
 3983SOL    HW223586   4.296   4.424   8.815  1.1294 -1.0523 -0.1019
 3984SOL     OW23587   2.276   3.735   1.694 -0.0972  0.5115  0.0147
 3984SOL    HW123588   2.217   3.757   1.622  2.8279 -0.6932 -2.7518
 3984SOL    HW223589   2.330   3.813   1.693 -0.3857  0.7058 -1.2670
 3985SOL     OW23590   1.271   3.133   4.846 -0.6089 -0.0361  0.2429
 3985SOL    HW123591   1.183   3.136   4.882  0.0257 -0.4849  1.8254
 3985SOL    HW223592   1.294   3.226   4.857  0.9214 -0.1553 -1.8501
 3986SOL     OW23593   0.751   2.195   8.752  0.8564 -0.1085  0.2287
 3986SOL    HW123594   0.798   2.168   8.830  0.8318  0.4587  0.4420
 3986SOL    HW223595   0.688   2.125   8.736  1.6903 -0.5514 -1.1354
 3987SOL     OW23596   2.777   2.104   3.355  0.7606  0.2768  0.5750
 3987SOL    HW123597   2.794   2.152   3.437  0.3314 -0.3835  1.0530
 3987SOL    HW223598   2.693   2.144   3.337 -0.5411 -2.2842  0.9542
 3988SOL     OW23599   3.547   3.765   5.396  0.0757  0.6526 -0.2017
 3988SOL    HW123600   3.488   3.796   5.327  0.2885  1.5121  0.0077
 3988SOL    HW223601   3.504   3.682   5.417 -0.3432  0.5143 -1.5973
 3989SOL     OW23602   3.225   4.646   2.762  0.0304 -0.5985  0.7827
 3989SOL    HW123603   3.282   4.577   2.729  0.7414  0.7495 -0.8389
 3989SOL    HW223604   3.219   4.701   2.684  0.9595 -2.0530 -0.2915
 3990SOL     OW23605   0.489   1.128   8.090  0.0791  0.5977 -0.1696
 3990SOL    HW123606   0.493   1.218   8.122 -1.7837 -0.3121  2.6451
 3990SOL    HW223607   0.439   1.145   8.010  1.7125  2.7575 -0.7281
 3991SOL     OW23608   4.248   1.178  11.437 -0.6516  0.0382 -0.0300
 3991SOL    HW123609   4.242   1.257  11.491  0.3125 -0.9892  1.5746
 3991SOL    HW223610   4.314   1.134  11.489 -0.6358  1.8914  1.5471
 3992SOL     OW23611   1.035   2.853   6.386  0.1926  0.7933  0.9703
 3992SOL    HW123612   1.102   2.900   6.435  2.5089 -2.7114  1.1553
 3992SOL    HW223613   1.083   2.770   6.381 -0.6764  0.2969  0.8305
 3993SOL     OW23614   2.769   1.943   5.858 -0.6782 -0.2171  0.6279
 3993SOL    HW123615   2.779   1.869   5.917  1.9060  0.8131  1.4725
 3993SOL    HW223616   2.695   1.987   5.900 -0.4077 -1.6306  2.6261
 3994SOL     OW23617   3.239   2.695   6.022  0.1554 -0.8552  0.4448
 3994SOL    HW123618   3.229   2.771   6.080  2.2344  0.3913 -0.8154
 3994SOL    HW223619   3.334   2.691   6.017  0.2075  1.8678 -0.9882
 3995SOL     OW23620   4.189   2.111   6.861 -0.1818  0.0699 -0.3329
 3995SOL    HW123621   4.114   2.102   6.919  0.7054 -0.9470  0.6510
 3995SOL    HW223622   4.216   2.203   6.865 -0.1533  0.0279  0.4498
 3996SOL     OW23623   3.042   4.687  11.338 -0.2562  0.3247  0.0269
 3996SOL    HW123624   3.073   4.690  11.247 -0.4357  1.8651  0.0311
 3996SOL    HW223625   3.043   0.042  11.369 -1.8893 -0.2920  1.8440
 3997SOL     OW23626   4.245   2.482  14.561  0.1842  0.4719 -0.3366
 3997SOL    HW123627   4.154   2.454  14.570 -0.2132  1.2190 -1.8973
 3997SOL    HW223628   4.262   2.447  14.473 -0.5272 -1.2587  0.2119
 3998SOL     OW23629   3.045   1.042  12.211 -0.2152  0.6511  0.6459
 3998SOL    HW123630   3.105   0.978  12.249 -0.1195  1.5961  2.0816
 3998SOL    HW223631   3.097   1.120  12.225  0.4921  0.0142  1.5649
 3999SOL     OW23632   1.173   4.223   7.505 -0.5648 -0.1288 -0.0566
 3999SOL    HW123633   1.088   4.254   7.472 -0.4613 -0.2018 -0.4002
 3999SOL    HW223634   1.161   4.128   7.513 -0.8326 -0.0188  0.8085
 4000SOL     OW23635   3.942   2.074   4.383  0.4214 -0.9172 -0.4724
 4000SOL    HW123636   3.930   2.016   4.458  1.4713 -0.5014  0.0206
 4000SOL    HW223637   3.908   2.014   4.316  1.4515 -2.4494  0.3666
 4001SOL     OW23638   0.269   4.486   7.675 -0.1602 -0.4781  0.1582
 4001SOL    HW123639   0.220   4.406   7.656  1.7605 -1.4088 -0.9429
 4001SOL    HW223640   0.265   4.488   7.770  2.2770  0.1889  0.2604
 4002SOL     OW23641   1.169   2.317   5.927 -0.2531  0.1663 -0.1569
 4002SOL    HW123642   1.220   2.368   5.991 -1.2838  0.9429  0.0472
 4002SOL    HW223643   1.242   2.291   5.871 -0.1305 -2.3968  1.1836
 4003SOL     OW23644   1.710   4.241   2.431  0.1033  0.4116 -0.1587
 4003SOL    HW123645   1.706   4.222   2.525  4.1103  0.3098 -0.0270
 4003SOL    HW223646   1.699   4.154   2.393  1.3084  1.3480 -2.6770
 4004SOL     OW23647   1.094   2.896   0.969  0.0814 -0.1341 -0.4810
 4004SOL    HW123648   1.013   2.941   0.945  0.0452 -0.4292 -0.9109
 4004SOL    HW223649   1.056   2.833   1.031 -1.3797 -0.9140 -2.1829
 4005SOL     OW23650   0.694   4.591  11.046 -0.4356  0.2280  0.6034
 4005SOL    HW123651   0.760   4.630  11.104 -1.6336  1.2272  1.2996
 4005SOL    HW223652   0.654   4.517  11.093 -1.7659  0.4312 -0.1879
 4006SOL     OW23653   4.094   4.050   0.059 -0.5467  0.2012  0.3371
 4006SOL    HW123654   4.024   4.008   0.008 -1.3531  1.6073  0.2723
 4006SOL    HW223655   4.164   3.986   0.054 -2.8965 -2.3432 -0.2028
 4007SOL     OW23656   0.459   1.241   6.608 -0.1704  0.2846 -0.1599
 4007SOL    HW123657   0.503   1.180   6.667 -1.0318 -0.7809 -0.6166
 4007SOL    HW223658   0.529   1.265   6.547 -1.6580 -3.1364 -3.1679
 4008SOL     OW23659   2.674   1.222  16.529  1.1910  0.2500 -0.1405
 4008SOL    HW123660   2.667   1.225  16.434 -2.1407 -2.5832 -0.0071
 4008SOL    HW223661   2.645   1.309  16.556 -0.5742  0.3109 -2.1638
 4009SOL     OW23662   1.682   2.182   5.189 -0.1121 -0.4133  0.4773
 4009SOL    HW123663   1.668   2.125   5.265 -1.9315  0.7363  1.0203
 4009SOL    HW223664   1.601   2.166   5.140  1.7077 -0.9686 -2.3491
 4010SOL     OW23665   2.392   4.213   7.797 -0.6265 -0.8396  0.4904
 4010SOL    HW123666   2.300   4.192   7.813 -0.8913 -0.4804 -0.5122
 4010SOL    HW223667   2.429   4.151   7.859 -0.4795 -1.6652 -0.4286
 4011SOL     OW23668   3.126   3.268   7.163 -0.4708 -0.1962  0.1012
 4011SOL    HW123669   3.116   3.229   7.249 -2.6821 -0.7994 -0.4322
 4011SOL    HW223670   3.222   3.272   7.164 -0.6082  3.4052 -0.6177
 4012SOL     OW23671   2.343   2.958   5.379 -0.4843  0.4072 -0.2610
 4012SOL    HW123672   2.338   2.899   5.455 -1.6850  1.4425  0.4659
 4012SOL    HW223673   2.401   3.024   5.416 -1.3626  0.8618  0.3151
 4013SOL     OW23674   0.103   2.553   5.747 -0.0785  0.1592 -0.8732
 4013SOL    HW123675   0.034   2.598   5.699  0.1213 -0.0379 -1.3558
 4013SOL    HW223676   0.054   2.527   5.825  1.0921 -2.4681 -1.0008
 4014SOL     OW23677   3.905   0.768   5.574 -0.0692 -0.3191  0.5935
 4014SOL    HW123678   3.891   0.714   5.497  0.3711 -0.8021  0.8490
 4014SOL    HW223679   3.872   0.853   5.546  1.4098 -0.7776 -2.5711
 4015SOL     OW23680   3.747   0.822  10.071  0.4593  0.3828  0.5405
 4015SOL    HW123681   3.799   0.836   9.991  0.5841 -0.7965  0.4200
 4015SOL    HW223682   3.689   0.748  10.054  2.0919 -0.8604  0.3197
 4016SOL     OW23683   4.247   1.952  17.483  0.2081  0.2480 -0.5141
 4016SOL    HW123684   4.164   1.979  17.524  0.6335  0.8463 -0.0414
 4016SOL    HW223685   4.297   1.917  17.557 -0.6019  0.6411  0.2257
 4017SOL     OW23686   3.664   0.814  16.856  0.3543  0.3560  0.5281
 4017SOL    HW123687   3.712   0.792  16.776 -1.5774 -0.4516 -0.3988
 4017SOL    HW223688   3.727   0.769  16.912  0.6922 -0.9321 -0.8685
 4018SOL     OW23689   2.607   3.203   8.959 -0.2259 -0.1419 -0.3558
 4018SOL    HW123690   2.525   3.229   8.916 -1.1719 -3.3497 -0.4580
 4018SOL    HW223691   2.615   3.110   8.940 -3.1175 -0.7347  1.4682
 4019SOL     OW23692   3.685   1.923  11.484  0.6456 -0.6369 -0.0507
 4019SOL    HW123693   3.657   1.976  11.558  0.7012 -0.3700 -0.2218
 4019SOL    HW223694   3.773   1.900  11.515  1.1200  0.8951 -0.2772
 4020SOL     OW23695   3.091   4.587   1.789  0.0362  1.0923 -1.1816
 4020SOL    HW123696   3.168   4.560   1.840 -1.0639 -1.7573 -1.0303
 4020SOL    HW223697   3.129   4.662   1.743  1.2409  0.8254 -0.6506
 4021SOL     OW23698   3.677   4.175   2.075  0.1214 -0.1300  0.9277
 4021SOL    HW123699   3.756   4.135   2.036 -0.0619  1.1771 -0.7935
 4021SOL    HW223700   3.612   4.121   2.030 -0.1441  0.1364  0.9972
 4022SOL     OW23701   2.755   3.244   0.156 -0.7150 -0.8948 -0.0057
 4022SOL    HW123702   2.775   3.154   0.182 -0.8660 -1.1732 -0.8709
 4022SOL    HW223703   2.783   3.245   0.065 -0.3178  3.1364  0.1422
 4023SOL     OW23704   0.695   4.312  16.015 -0.1002 -0.0254  0.8595
 4023SOL    HW123705   0.638   4.336  16.089  1.4583 -2.0848  2.6878
 4023SOL    HW223706   0.652   4.359  15.943 -1.6974  1.3465  2.6966
 4024SOL     OW23707   1.985   4.202   9.017 -0.1425 -0.2009  0.7992
 4024SOL    HW123708   1.959   4.282   9.064 -0.1621  0.5485 -0.4835
 4024SOL    HW223709   1.913   4.140   9.006  1.8320 -2.3272 -0.1765
 4025SOL     OW23710   2.238   3.810  12.293 -0.2716 -0.3199 -0.1671
 4025SOL    HW123711   2.279   3.743  12.348  0.3923 -1.9835 -2.6981
 4025SOL    HW223712   2.164   3.836  12.348  0.4030  0.2807  0.4436
 4026SOL     OW23713   2.926   1.921   7.386  0.0807 -0.0480  0.5612
 4026SOL    HW123714   2.868   1.848   7.404 -0.3198  0.4375  1.2086
 4026SOL    HW223715   2.993   1.877   7.333 -2.5386 -1.3939 -1.6082
 4027SOL     OW23716   1.570   4.366   3.373  0.1525 -0.2176 -0.1601
 4027SOL    HW123717   1.625   4.341   3.298 -0.4403 -0.0410 -0.6549
 4027SOL    HW223718   1.625   4.435   3.411  0.0841 -0.5109  0.4699
 4028SOL     OW23719   4.176   3.356   3.231  0.0124 -0.3901  0.6088
 4028SOL    HW123720   4.217   3.270   3.222  0.7336 -0.1162  1.2698
 4028SOL    HW223721   4.256   3.408   3.237  0.1105 -0.8718  3.3413
 4029SOL     OW23722   3.110   2.203   3.377  0.3416 -0.3331  0.2830
 4029SOL    HW123723   3.136   2.243   3.294  1.5587  0.4156  1.0270
 4029SOL    HW223724   3.169   2.257   3.429 -0.1734  1.0873 -0.5849
 4030SOL     OW23725   4.627   0.608   3.325  0.5674  0.0633  0.1783
 4030SOL    HW123726   4.607   0.700   3.307  1.7319  0.4652  0.8737
 4030SOL    HW223727   4.558   0.563   3.277 -0.6948  0.9513  1.1630
 4031SOL     OW23728   4.387   0.765   8.761  0.1365 -0.3086  0.2057
 4031SOL    HW123729   4.386   0.749   8.856 -1.1154  1.3779  0.4820
 4031SOL    HW223730   4.410   0.676   8.733  1.9757  0.7600 -1.6184
 4032SOL     OW23731   1.318   0.484   8.963 -0.2440 -0.3817  0.3519
 4032SOL    HW123732   1.385   0.502   8.898  1.2001 -4.4959  0.7463
 4032SOL    HW223733   1.374   0.436   9.023 -3.3743 -2.1688  1.8431
 4033SOL     OW23734   0.987   1.525   5.544  0.2152  1.1129  0.1659
 4033SOL    HW123735   1.003   1.539   5.638 -0.9787 -0.3971  0.5802
 4033SOL    HW223736   0.930   1.600   5.528  0.9180  1.7250  0.4913
 4034SOL     OW23737   1.203   4.711   2.925  0.5038  0.7388 -0.0724
 4034SOL    HW123738   1.235   4.665   2.848  0.5717 -1.8523  1.5420
 4034SOL    HW223739   1.278   4.719   2.984  1.2215 -1.5470 -0.7063
 4035SOL     OW23740   3.317   0.141   4.938 -0.1543  0.4233  0.2322
 4035SOL    HW123741   3.408   0.138   4.969  0.3395  0.2531 -1.2327
 4035SOL    HW223742   3.320   0.210   4.872 -3.2239 -1.4821 -1.8978
 4036SOL     OW23743   0.911   3.951  11.981  0.2520  0.4041 -0.4390
 4036SOL    HW123744   0.856   3.968  12.057  1.2391 -1.1583  0.6278
 4036SOL    HW223745   0.883   4.019  11.920 -0.5448 -1.1651 -1.8087
 4037SOL     OW23746   4.623   1.121   1.968  0.1330 -0.4429 -0.3980
 4037SOL    HW123747   4.581   1.166   1.895  0.7035  1.4623  0.4521
 4037SOL    HW223748   4.703   1.080   1.934  0.5894  0.6223 -0.6060
 4038SOL     OW23749   0.206   4.019  16.124  0.5204 -0.2322  0.5150
 4038SOL    HW123750   0.267   4.011  16.050  0.9663  1.5725  0.6839
 4038SOL    HW223751   0.138   4.080  16.093 -0.6399 -2.3164 -1.0293
 4039SOL     OW23752   3.019   3.396   2.015  0.3396  0.9384 -0.0004
 4039SOL    HW123753   3.091   3.421   2.072 -1.5521  3.2500  1.3983
 4039SOL    HW223754   3.073   3.375   1.939  0.7622 -0.3110  0.6587
 4040SOL     OW23755   0.896   2.272   7.437  0.1421  0.3315 -0.1259
 4040SOL    HW123756   0.837   2.242   7.368 -1.0879  0.1994  0.9767
 4040SOL    HW223757   0.847   2.250   7.517  1.5605 -1.6742  0.1893
 4041SOL     OW23758   3.863   4.520   7.512  0.4212 -0.1756 -0.0887
 4041SOL    HW123759   3.862   4.425   7.507  1.5946 -0.1490 -0.9022
 4041SOL    HW223760   3.797   4.522   7.581  0.7958 -0.7259  0.2784
 4042SOL     OW23761   4.017   1.522   4.304  0.5266 -0.3190  0.0602
 4042SOL    HW123762   3.972   1.463   4.244 -1.2131 -0.9043  1.9593
 4042SOL    HW223763   3.964   1.512   4.383 -0.1786  2.4046 -0.0660
 4043SOL     OW23764   0.013   1.664   0.483  0.0307 -0.6827  0.4341
 4043SOL    HW123765   4.689   1.610   0.535  1.3591 -2.4327  0.1180
 4043SOL    HW223766   0.092   1.684   0.534 -0.2330  1.4277 -0.0104
 4044SOL     OW23767   3.898   4.049   1.433  0.4779 -0.2908  0.1634
 4044SOL    HW123768   3.809   4.040   1.467 -0.2218  0.5883 -1.4696
 4044SOL    HW223769   3.923   4.141   1.448  1.0660 -0.1749 -1.5385
 4045SOL     OW23770   1.686   4.344   5.929 -0.3054 -0.2580  0.5494
 4045SOL    HW123771   1.664   4.431   5.963 -1.1353  0.6594 -2.3241
 4045SOL    HW223772   1.606   4.313   5.886 -1.4086  1.6550  1.2277
 4046SOL     OW23773   2.459   2.274  11.880  0.6387  0.4816  0.1760
 4046SOL    HW123774   2.496   2.344  11.826  0.1606 -1.6445 -2.9080
 4046SOL    HW223775   2.543   2.243  11.914  0.4950  1.4027  1.3605
 4047SOL     OW23776   1.030   1.139   6.848  0.1021 -0.2027  0.3495
 4047SOL    HW123777   1.100   1.136   6.913  0.1787  0.4685  0.2952
 4047SOL    HW223778   0.987   1.053   6.848  1.6572 -0.9631 -3.2657
 4048SOL     OW23779   0.493   4.708  15.637 -0.2635 -0.3374 -0.1565
 4048SOL    HW123780   0.540   4.645  15.692 -0.1598 -0.1310 -0.0072
 4048SOL    HW223781   0.552   4.700  15.561 -0.1458  0.4239 -0.1469
 4049SOL     OW23782   0.802   2.717  10.247 -0.5415 -0.0929  0.0995
 4049SOL    HW123783   0.867   2.723  10.317  0.6044 -1.8037 -0.7808
 4049SOL    HW223784   0.831   2.781  10.182  3.5270 -2.1822 -0.1787
 4050SOL     OW23785   3.826   0.902   7.032  0.0427  0.2637 -0.1381
 4050SOL    HW123786   3.778   0.843   6.973  0.1220  0.1356 -0.0744
 4050SOL    HW223787   3.780   0.886   7.114  0.9497 -1.0606  0.1053
 4051SOL     OW23788   0.161   3.718   3.735  0.0216 -0.4959  0.1356
 4051SOL    HW123789   0.183   3.628   3.709  0.5198  0.0537 -1.3931
 4051SOL    HW223790   0.225   3.760   3.677  0.3068 -1.2993 -0.1494
 4052SOL     OW23791   2.185   2.233   4.249 -0.1505  0.3620  0.2932
 4052SOL    HW123792   2.208   2.283   4.170 -2.0399 -0.2245 -0.6420
 4052SOL    HW223793   2.128   2.296   4.293 -0.5285 -0.1215  0.5033
 4053SOL     OW23794   2.995   3.578  16.434  0.3129  0.3791  0.0788
 4053SOL    HW123795   3.081   3.548  16.407  0.7132  0.7258  0.9552
 4053SOL    HW223796   2.969   3.512  16.497 -2.7080  1.5957  0.1086
 4054SOL     OW23797   4.552   4.396   4.309  0.0002  0.3934 -0.3705
 4054SOL    HW123798   4.508   4.374   4.227  1.0838  0.3244 -0.9299
 4054SOL    HW223799   4.591   4.479   4.281  2.6977 -0.5295  0.6410
 4055SOL     OW23800   4.610   1.295   0.879  0.3163 -0.6895  0.1506
 4055SOL    HW123801   4.627   1.237   0.954  0.7760  0.6011  1.0346
 4055SOL    HW223802   4.533   1.341   0.911  1.2494  0.1369  1.2297
 4056SOL     OW23803   2.932   2.222  12.641  0.4075  0.1578  0.1744
 4056SOL    HW123804   2.899   2.233  12.552  1.0024 -1.0314 -0.1887
 4056SOL    HW223805   2.871   2.275  12.692  1.5589 -0.0793  1.8208
 4057SOL     OW23806   2.276   3.398   7.489  0.6543  0.1987  0.5077
 4057SOL    HW123807   2.186   3.412   7.520  1.9345  1.9199  3.4403
 4057SOL    HW223808   2.331   3.400   7.568  0.7451  0.3693  0.4403
 4058SOL     OW23809   0.901   0.003  14.495  0.1643  0.8711  0.1889
 4058SOL    HW123810   0.926   4.720  14.586 -0.2759  2.2469  0.5829
 4058SOL    HW223811   0.828   4.679  14.479  0.5353  0.6287 -0.6272
 4059SOL     OW23812   1.254   4.238   7.151  0.2055 -0.0886 -0.0108
 4059SOL    HW123813   1.176   4.182   7.147  0.3003 -0.2836  0.9934
 4059SOL    HW223814   1.259   4.269   7.061 -0.5941  0.6737  0.2084
 4060SOL     OW23815   3.171   1.153   9.575 -0.5281  0.1692 -0.3860
 4060SOL    HW123816   3.111   1.225   9.594  0.4737  1.4664 -2.1108
 4060SOL    HW223817   3.155   1.161   9.481 -2.3456  0.2642 -0.0574
 4061SOL     OW23818   0.143   0.867  10.752 -0.2502  1.0464 -0.3709
 4061SOL    HW123819   0.094   0.920  10.690 -0.6168 -0.4818 -1.3810
 4061SOL    HW223820   0.079   0.799  10.775 -1.1751  2.3395  0.8046
 4062SOL     OW23821   2.366   2.325   1.652  0.2127  0.4886 -0.9290
 4062SOL    HW123822   2.304   2.258   1.681  0.6291 -0.5005 -2.3286
 4062SOL    HW223823   2.338   2.401   1.704 -0.8436 -1.4732  1.3818
 4063SOL     OW23824   3.541   4.661   2.902 -0.4675 -0.5438  0.0337
 4063SOL    HW123825   3.454   4.666   2.942 -0.1157  0.4644  0.6799
 4063SOL    HW223826   3.541   4.586   2.842 -0.4960 -0.5374  0.0260
 4064SOL     OW23827   0.562   2.162  17.571 -0.4107 -0.2822 -0.3739
 4064SOL    HW123828   0.614   2.138  17.648 -0.4616  2.2973  0.4819
 4064SOL    HW223829   0.506   2.228  17.613 -0.2028  0.7397 -1.6928
 4065SOL     OW23830   1.365   0.732   9.086 -0.5837 -0.0356  0.0041
 4065SOL    HW123831   1.354   0.801   9.021 -2.6683  0.1771  0.5778
 4065SOL    HW223832   1.368   0.659   9.024  1.8410  0.0055  0.0784
 4066SOL     OW23833   4.571   3.055  11.714 -0.5279 -0.6194  0.5397
 4066SOL    HW123834   4.590   3.135  11.762  0.9504 -0.0007 -1.0496
 4066SOL    HW223835   4.557   2.985  11.778  0.9359 -1.8477 -0.4856
 4067SOL     OW23836   4.313   2.779   5.069 -0.4117  0.2392 -0.0125
 4067SOL    HW123837   4.314   2.874   5.075  0.0401  0.0823  2.4038
 4067SOL    HW223838   4.389   2.759   5.124 -2.4278 -1.6368  2.1205
 4068SOL     OW23839   0.287   3.443  10.022 -0.1940 -0.2396 -0.0176
 4068SOL    HW123840   0.336   3.390   9.959  2.3671  1.9770  0.1327
 4068SOL    HW223841   0.338   3.523  10.018 -2.0687  0.8910 -1.3344
 4069SOL     OW23842   1.419   1.434  15.013 -0.7614 -0.1800 -0.1478
 4069SOL    HW123843   1.390   1.464  14.926 -0.9575  0.8454  0.2657
 4069SOL    HW223844   1.473   1.363  14.978  2.3598  0.1731  4.0262
 4070SOL     OW23845   3.877   0.508  13.632  0.0797 -0.0632 -0.4160
 4070SOL    HW123846   3.965   0.483  13.660  0.0546  1.8299  1.4110
 4070SOL    HW223847   3.883   0.492  13.538 -2.7874  1.5191 -0.8745
 4071SOL     OW23848   1.157   3.119   7.919  0.8192  0.4714  0.1745
 4071SOL    HW123849   1.139   3.208   7.890 -0.9923  0.6580  1.8195
 4071SOL    HW223850   1.106   3.109   7.999  0.3834 -0.9161 -0.2654
 4072SOL     OW23851   1.185   0.926  11.848 -0.4280 -0.1316 -0.3802
 4072SOL    HW123852   1.213   0.869  11.776  1.3758 -0.6153  0.7075
 4072SOL    HW223853   1.239   1.004  11.839  2.6818 -2.2908 -0.2576
 4073SOL     OW23854   0.613   4.215   1.524  0.2487 -0.2216  0.5035
 4073SOL    HW123855   0.599   4.209   1.618  0.5088 -1.0622  0.4950
 4073SOL    HW223856   0.620   4.307   1.499  1.8063 -0.3693  0.3912
 4074SOL     OW23857   0.562   4.320   4.766  0.5935 -0.1315 -0.2485
 4074SOL    HW123858   0.618   4.324   4.688 -0.0118 -0.4122 -0.6981
 4074SOL    HW223859   0.621   4.288   4.834  0.4599 -2.1172 -1.0606
 4075SOL     OW23860   4.444   2.213  17.536  0.5208 -0.3118 -0.2539
 4075SOL    HW123861   4.362   2.252  17.567  1.3688  0.5128  0.9530
 4075SOL    HW223862   4.456   2.270  17.460  0.8763 -0.3415 -0.2162
 4076SOL     OW23863   3.049   0.380  16.763 -0.1331  0.8693 -0.2854
 4076SOL    HW123864   2.995   0.368  16.685  1.6214  1.0579 -1.5272
 4076SOL    HW223865   3.134   0.355  16.727 -1.4844 -1.4311 -1.8829
 4077SOL     OW23866   4.328   2.369   7.689 -0.0031 -0.1406 -0.2347
 4077SOL    HW123867   4.288   2.317   7.760 -1.3550  2.2488  0.7329
 4077SOL    HW223868   4.407   2.315   7.686 -0.3324 -0.5829 -1.0207
 4078SOL     OW23869   3.475   1.643   5.744  0.2981 -0.6740  0.2574
 4078SOL    HW123870   3.382   1.655   5.766  0.6430  1.7418  0.3986
 4078SOL    HW223871   3.510   1.575   5.802  0.9789 -1.8168 -1.4810
 4079SOL     OW23872   1.208   1.352  13.087  0.2616 -0.4632  0.0280
 4079SOL    HW123873   1.275   1.312  13.032  0.8931  0.7206 -0.0633
 4079SOL    HW223874   1.139   1.298  13.049 -0.3582  0.2561  0.1351
 4080SOL     OW23875   3.009   3.893   6.410  0.0068 -0.9748 -0.2786
 4080SOL    HW123876   3.029   3.958   6.342 -1.1363 -1.1324 -0.7820
 4080SOL    HW223877   3.081   3.895   6.472  1.1558 -0.8646 -1.6138
 4081SOL     OW23878   4.513   3.276   7.278 -0.0883  0.1643 -0.0703
 4081SOL    HW123879   4.448   3.216   7.241 -1.4725  0.7706  1.3857
 4081SOL    HW223880   4.458   3.344   7.315  0.7154  1.1395 -0.6650
 4082SOL     OW23881   1.365   0.777  16.643 -0.0246 -0.1629  0.2931
 4082SOL    HW123882   1.422   0.765  16.719 -1.5204  3.4449  2.0066
 4082SOL    HW223883   1.281   0.756  16.684  0.5063 -2.0790  0.3976
 4083SOL     OW23884   1.819   0.868   2.136 -0.1943 -0.1517  0.5403
 4083SOL    HW123885   1.811   0.803   2.067  2.9855  0.4963 -0.4080
 4083SOL    HW223886   1.747   0.846   2.196  1.4993 -0.2835  2.5428
 4084SOL     OW23887   1.673   1.211  12.945 -0.5078  0.4057  0.2401
 4084SOL    HW123888   1.619   1.132  12.951 -0.7388  0.4276 -1.4597
 4084SOL    HW223889   1.753   1.165  12.921 -2.3077 -2.3156 -0.6175
 4085SOL     OW23890   4.659   0.500   6.142 -0.4595  0.3335  0.1404
 4085SOL    HW123891   4.597   0.569   6.166  0.5557  1.2065  0.2631
 4085SOL    HW223892   4.712   0.499   6.221 -0.4546  1.6942  0.1637
 4086SOL     OW23893   0.002   2.846   8.921 -0.5151  0.0361 -0.0241
 4086SOL    HW123894   0.067   2.882   8.981  2.5896 -2.7810 -1.6722
 4086SOL    HW223895   0.050   2.820   8.842  0.5367 -0.9827  0.9292
 4087SOL     OW23896   3.890   2.372   6.934 -0.0436 -0.1302  0.0762
 4087SOL    HW123897   3.932   2.444   6.886  0.4798  0.0838  0.8632
 4087SOL    HW223898   3.861   2.312   6.865  0.7377 -0.9116  0.4291
 4088SOL     OW23899   1.808   3.383   7.355 -0.0103  0.5318 -0.4804
 4088SOL    HW123900   1.884   3.355   7.304  0.4376  1.2046 -0.1915
 4088SOL    HW223901   1.844   3.417   7.437 -0.7905 -0.4626  0.2651
 4089SOL     OW23902   4.119   2.515   3.025 -1.2461  0.2081 -0.5740
 4089SOL    HW123903   4.089   2.469   3.104  0.4188  1.1683  0.6172
 4089SOL    HW223904   4.111   2.445   2.961 -1.5995  0.8305 -1.2122
 4090SOL     OW23905   3.103   0.030  13.913 -0.5814  0.0377  0.1409
 4090SOL    HW123906   3.155   0.081  13.851  1.0806 -1.6887  0.1053
 4090SOL    HW223907   3.015   0.036  13.876 -0.1244  3.2120 -0.4254
 4091SOL     OW23908   4.492   3.265   4.419  0.2453  1.1240 -0.5285
 4091SOL    HW123909   4.518   3.182   4.378  0.6140  0.4030  1.1569
 4091SOL    HW223910   4.404   3.250   4.454  1.2955 -0.3058  1.5328
 4092SOL     OW23911   1.799   0.233  12.656 -0.1102 -0.1760 -0.3236
 4092SOL    HW123912   1.865   0.251  12.723 -0.8818  0.1707  0.3488
 4092SOL    HW223913   1.729   0.183  12.699  0.6241 -0.9842 -0.0653
 4093SOL     OW23914   1.207   3.371  16.017 -0.0388  0.1248  0.1149
 4093SOL    HW123915   1.207   3.465  16.031  1.7374  0.4390 -1.9483
 4093SOL    HW223916   1.268   3.367  15.943  0.4292 -0.0884  0.5151
 4094SOL     OW23917   1.894   1.263  13.165  0.1688  0.3512  0.2138
 4094SOL    HW123918   1.914   1.209  13.241  2.0173 -0.6418 -0.9736
 4094SOL    HW223919   1.800   1.277  13.177  0.3034  0.0831  1.5365
 4095SOL     OW23920   4.409   3.254   8.592  0.0414 -0.4854 -0.3571
 4095SOL    HW123921   4.346   3.217   8.530 -0.0210 -1.2680  0.1650
 4095SOL    HW223922   4.450   3.176   8.631  0.5817 -0.1407 -0.2344
 4096SOL     OW23923   1.856   0.577  10.222  0.4066  0.0149 -0.4693
 4096SOL    HW123924   1.868   0.572  10.127  0.0089 -0.0707 -0.5143
 4096SOL    HW223925   1.766   0.549  10.242  0.3828  0.8452  0.5860
 4097SOL     OW23926   0.845   2.471   3.499  0.1411  0.3905 -0.1534
 4097SOL    HW123927   0.767   2.425   3.469  1.2562 -0.8192 -1.2090
 4097SOL    HW223928   0.867   2.519   3.419 -1.1034  0.0199 -0.7215
 4098SOL     OW23929   4.281   2.414   4.583  0.2533  0.2122  0.7825
 4098SOL    HW123930   4.340   2.345   4.615 -0.0716 -1.1201 -1.4485
 4098SOL    HW223931   4.203   2.359   4.569  1.6793 -1.5981 -0.1362
 4099SOL     OW23932   4.174   2.739   9.528  0.3118 -0.3791  0.3690
 4099SOL    HW123933   4.095   2.788   9.551  0.6295  1.2566 -1.9808
 4099SOL    HW223934   4.191   2.756   9.436 -1.6409  0.8602  0.2496
 4100SOL     OW23935   3.789   0.558   2.070 -0.2197 -0.1758 -0.9520
 4100SOL    HW123936   3.809   0.628   2.009 -0.3120 -1.1877 -2.1579
 4100SOL    HW223937   3.867   0.558   2.125 -1.1769  0.1789  0.4047
 4101SOL     OW23938   0.906   2.584   6.287 -0.1674  0.2536  0.3213
 4101SOL    HW123939   0.890   2.676   6.269 -0.2693  0.4046  1.2088
 4101SOL    HW223940   1.000   2.586   6.304  0.0089  1.4329 -0.8344
 4102SOL     OW23941   4.296   2.784   6.845 -0.3041  0.0172 -0.3002
 4102SOL    HW123942   4.373   2.728   6.857  0.7779  2.1818  2.6659
 4102SOL    HW223943   4.227   2.720   6.865 -2.1804  1.6072 -1.6054
 4103SOL     OW23944   2.651   1.381   2.317  0.0759  0.1421  0.0888
 4103SOL    HW123945   2.632   1.474   2.303 -1.9657 -0.6298 -2.1554
 4103SOL    HW223946   2.592   1.344   2.253  2.1739 -1.9178 -0.6698
 4104SOL     OW23947   2.156   3.898  13.402 -0.1548 -0.0443 -0.1447
 4104SOL    HW123948   2.250   3.894  13.388 -0.2309  0.0679 -0.6754
 4104SOL    HW223949   2.120   3.821  13.357 -2.4909  1.0108 -0.0988
 4105SOL     OW23950   1.058   4.427  12.694 -0.1030 -0.1850 -0.1226
 4105SOL    HW123951   1.011   4.415  12.777  0.8573 -2.3897  0.1153
 4105SOL    HW223952   1.124   4.493  12.713 -0.3402  0.6105 -2.0378
 4106SOL     OW23953   0.305   0.495   6.117  0.5143  0.2230 -0.3632
 4106SOL    HW123954   0.344   0.421   6.163  0.2794  2.2280  3.0701
 4106SOL    HW223955   0.272   0.445   6.043  2.4626  0.7944 -1.6222
 4107SOL     OW23956   2.957   0.748   6.788  0.8255 -0.3831  0.1347
 4107SOL    HW123957   3.034   0.800   6.809  0.8805 -0.7522  0.8519
 4107SOL    HW223958   2.933   0.707   6.871  0.6362  0.9579  0.7429
 4108SOL     OW23959   3.654   1.325   9.058  0.4034  0.4848 -0.2821
 4108SOL    HW123960   3.689   1.413   9.043 -0.9088  1.0311 -0.0480
 4108SOL    HW223961   3.711   1.290   9.126  1.5463  0.3430 -1.3042
 4109SOL     OW23962   1.281   3.505   0.410 -0.0827  0.1780  0.3019
 4109SOL    HW123963   1.215   3.515   0.479  1.8427  0.0579  2.1848
 4109SOL    HW223964   1.324   3.427   0.444 -1.2182 -0.7672 -0.4722
 4110SOL     OW23965   4.719   1.332   5.948 -0.6091 -0.3631  0.1139
 4110SOL    HW123966   4.677   1.276   6.013 -2.2144  0.4370 -0.2398
 4110SOL    HW223967   0.062   1.366   5.991 -0.9207 -0.4603  0.7635
 4111SOL     OW23968   1.161   3.836   8.598  0.4884  0.0402 -0.7089
 4111SOL    HW123969   1.126   3.910   8.549  0.1138  1.1828  1.2613
 4111SOL    HW223970   1.247   3.870   8.626  0.3074 -1.0988  1.2419
 4112SOL     OW23971   1.355   2.305   7.287  0.0173  0.4341  0.2524
 4112SOL    HW123972   1.370   2.227   7.233  0.0616  0.7931 -0.2587
 4112SOL    HW223973   1.305   2.268   7.359 -0.3973  0.7358  0.1169
 4113SOL     OW23974   3.335   0.159   6.497  0.5089  0.0550  0.0531
 4113SOL    HW123975   3.242   0.151   6.517  0.9121 -0.7666  1.5780
 4113SOL    HW223976   3.363   0.070   6.517 -0.6791 -0.1271  0.9227
 4114SOL     OW23977   0.797   0.763   6.357  0.3030  0.5458 -0.5604
 4114SOL    HW123978   0.740   0.836   6.381  0.9904  0.5794  1.0110
 4114SOL    HW223979   0.732   0.696   6.337 -0.6834  0.8142  1.7680
 4115SOL     OW23980   1.630   0.211   4.768  0.1642 -0.1440 -0.2172
 4115SOL    HW123981   1.655   0.120   4.785  3.6961  0.4317 -2.2143
 4115SOL    HW223982   1.537   0.215   4.789  0.5120 -0.2865  1.3476
 4116SOL     OW23983   2.881   1.994   5.571  0.1068  0.0127 -0.5362
 4116SOL    HW123984   2.868   1.977   5.477  3.6762  0.3322 -1.1037
 4116SOL    HW223985   2.796   1.973   5.608  0.4687 -1.2279 -0.4128
 4117SOL     OW23986   2.696   4.052   2.546  0.0669 -0.1640  1.1383
 4117SOL    HW123987   2.740   3.993   2.607  1.2354 -0.3893  0.0910
 4117SOL    HW223988   2.687   3.998   2.467  0.2098  2.6289 -0.7931
 4118SOL     OW23989   2.529   4.296   3.786  0.4986  0.1417 -0.1343
 4118SOL    HW123990   2.607   4.309   3.732  2.3278 -1.3994  2.1507
 4118SOL    HW223991   2.548   4.325   3.875 -0.1682 -0.9233  0.3576
 4119SOL     OW23992   2.817   3.376   6.803  0.0890 -0.0178  0.3339
 4119SOL    HW123993   2.883   3.309   6.815  0.0565 -0.0421  0.3778
 4119SOL    HW223994   2.757   3.346   6.734  1.1000  1.6462 -1.2575
 4120SOL     OW23995   2.339   2.619   6.018  0.4778 -0.0063  0.0540
 4120SOL    HW123996   2.429   2.651   6.020  1.6294 -3.1452 -0.6862
 4120SOL    HW223997   2.315   2.649   5.930 -1.6870 -0.7541  0.3848
 4121SOL     OW23998   2.791   4.218   3.573  0.3004  0.5188 -0.6114
 4121SOL    HW123999   2.829   4.212   3.661  0.0958  0.4818 -0.5231
 4121SOL    HW224000   2.806   4.128   3.544  1.7727  0.5252  0.1167
 4122SOL     OW24001   1.699   4.066   7.034  0.4048  0.0939  0.4554
 4122SOL    HW124002   1.685   4.025   6.948 -0.3692  2.6058 -0.6192
 4122SOL    HW224003   1.697   4.159   7.009 -0.0043 -0.3255 -1.0964
 4123SOL     OW24004   1.571   4.590  14.582  0.0802  0.0026  0.1259
 4123SOL    HW124005   1.632   4.523  14.612  0.9525 -0.0338 -1.7923
 4123SOL    HW224006   1.625   4.669  14.582  1.6990 -1.1262  0.7648
 4124SOL     OW24007   4.242   3.149   3.726  0.0027 -0.8915 -0.1192
 4124SOL    HW124008   4.290   3.195   3.795 -0.3991 -0.7795  0.0867
 4124SOL    HW224009   4.180   3.108   3.787 -2.9674  3.6507 -0.1015
 4125SOL     OW24010   2.754   3.604   7.173  0.1533  0.1523  1.0846
 4125SOL    HW124011   2.767   3.698   7.159 -0.5054  0.0946  0.1213
 4125SOL    HW224012   2.694   3.615   7.247 -0.6131  1.7462  0.2314
 4126SOL     OW24013   2.790   1.709   7.485 -0.3188  0.0247 -0.2521
 4126SOL    HW124014   2.723   1.649   7.451 -1.3707  0.4068  1.1940
 4126SOL    HW224015   2.813   1.676   7.572 -1.5714  1.4743  0.6063
 4127SOL     OW24016   4.067   1.109   6.983  0.1754 -0.5918 -0.9015
 4127SOL    HW124017   4.017   1.189   7.001  0.2692 -1.0825  1.5202
 4127SOL    HW224018   4.058   1.056   7.062 -1.4717 -0.1689 -0.8114
 4128SOL     OW24019   2.135   2.475   6.612 -0.3034 -0.0122  0.4210
 4128SOL    HW124020   2.218   2.524   6.613 -1.2342  1.5724  0.7987
 4128SOL    HW224021   2.154   2.419   6.537 -0.2223  1.8552 -0.9730
 4129SOL     OW24022   0.171   1.252   8.024  0.8100  0.2841 -0.5826
 4129SOL    HW124023   0.226   1.200   7.965 -1.3433 -0.5524 -1.8617
 4129SOL    HW224024   0.174   1.342   7.992  0.0383  0.3403 -0.4935
 4130SOL     OW24025   1.167   0.480   1.855  0.1516 -0.3865  0.8475
 4130SOL    HW124026   1.247   0.454   1.809  0.2559 -1.2353  1.5073
 4130SOL    HW224027   1.099   0.426   1.816  0.5109  0.0555 -0.3992
 4131SOL     OW24028   0.861   4.359  14.498  0.4890 -0.3511 -0.2142
 4131SOL    HW124029   0.834   4.451  14.494  0.3337 -0.3477  0.8299
 4131SOL    HW224030   0.794   4.328  14.559  0.9399  1.6056  1.3158
 4132SOL     OW24031   0.301   0.860   7.426  0.5185  0.0944 -0.0771
 4132SOL    HW124032   0.297   0.926   7.358 -0.7608  0.7724  0.6522
 4132SOL    HW224033   0.226   0.878   7.483 -0.8138 -2.0665 -1.1214
 4133SOL     OW24034   3.742   2.606   8.548  0.7684  0.4695 -0.1123
 4133SOL    HW124035   3.659   2.559   8.545  0.5764  0.7735  0.4127
 4133SOL    HW224036   3.714   2.698   8.543 -0.7548 -0.1388 -2.7442
 4134SOL     OW24037   4.294   2.999   0.699  0.1477 -0.4930 -0.1956
 4134SOL    HW124038   4.248   3.024   0.619  0.4102  0.0409 -0.1800
 4134SOL    HW224039   4.340   3.079   0.725 -0.1609 -1.2226  2.5140
 4135SOL     OW24040   1.063   1.932  13.352  0.2759 -0.1498  0.7076
 4135SOL    HW124041   1.113   2.006  13.386 -0.7091  0.2252  1.3242
 4135SOL    HW224042   1.132   1.879  13.311 -0.0251 -1.1813  1.5352
 4136SOL     OW24043   0.519   3.876  17.090  0.0257  0.3303  0.5464
 4136SOL    HW124044   0.531   3.834  17.005 -1.1400 -1.2213  1.1591
 4136SOL    HW224045   0.586   3.945  17.093  0.2937  0.1360 -0.7787
 4137SOL     OW24046   2.561   2.891   8.568 -0.9435 -0.0850 -0.4877
 4137SOL    HW124047   2.543   2.921   8.479 -0.6056 -1.1944 -0.9296
 4137SOL    HW224048   2.475   2.879   8.609 -0.9294  0.0425 -0.4220
 4138SOL     OW24049   4.388   0.125   5.785  0.0528  0.5120  0.1307
 4138SOL    HW124050   4.311   0.105   5.838 -0.5531  1.4848 -0.3875
 4138SOL    HW224051   4.358   0.213   5.763 -0.4719  0.3499  0.2082
 4139SOL     OW24052   3.948   2.472   8.232  0.1271 -0.1021 -0.1365
 4139SOL    HW124053   4.009   2.403   8.204 -2.4388 -1.9525 -1.1761
 4139SOL    HW224054   3.966   2.466   8.326 -1.0028  0.0781  0.0853
 4140SOL     OW24055   2.805   3.779   1.277 -0.0523 -0.5138  0.0104
 4140SOL    HW124056   2.766   3.744   1.197  0.2843  1.5541 -1.0461
 4140SOL    HW224057   2.763   3.865   1.285 -0.3372 -0.5594 -1.0013
 4141SOL     OW24058   3.057   4.088   8.849 -0.4741  0.4367 -0.1534
 4141SOL    HW124059   3.068   4.010   8.904 -0.2663 -0.3627 -1.3007
 4141SOL    HW224060   3.146   4.120   8.835 -0.1410 -1.1627 -1.7308
 4142SOL     OW24061   0.673   3.204   5.126  0.1719  0.6137 -0.4042
 4142SOL    HW124062   0.765   3.196   5.150  0.2876  1.4143 -0.5894
 4142SOL    HW224063   0.638   3.241   5.207 -2.6824 -0.6403 -1.0593
 4143SOL     OW24064   0.299   1.589   0.337  0.0837  0.0194  0.8323
 4143SOL    HW124065   0.222   1.572   0.392  0.2373 -0.7578  0.8118
 4143SOL    HW224066   0.290   1.532   0.261 -1.1424 -1.5581  2.1366
 4144SOL     OW24067   1.359   2.969   6.459  0.0904 -0.4766 -0.8950
 4144SOL    HW124068   1.393   3.052   6.495 -0.4810 -0.5252 -0.2293
 4144SOL    HW224069   1.326   2.922   6.536 -0.6281 -2.7143 -2.5957
 4145SOL     OW24070   4.187   2.622   5.956  0.1046 -0.4355  0.4349
 4145SOL    HW124071   4.151   2.563   6.022 -0.3304  0.1905  0.7515
 4145SOL    HW224072   4.110   2.679   5.953  0.5239  0.1002 -0.2685
 4146SOL     OW24073   2.054   3.309   4.625  0.1762 -0.1561 -0.4831
 4146SOL    HW124074   1.987   3.242   4.611 -0.3496  0.5821 -1.5248
 4146SOL    HW224075   2.037   3.366   4.550 -2.1120  0.6141  0.6096
 4147SOL     OW24076   0.805   0.550   5.954  0.1638 -0.3146  0.2441
 4147SOL    HW124077   0.860   0.590   6.021 -0.2003  1.0635 -0.2826
 4147SOL    HW224078   0.742   0.502   6.007  1.0780 -0.1490  1.4872
 4148SOL     OW24079   4.077   2.658   5.112 -0.3342 -0.2749 -1.0680
 4148SOL    HW124080   4.067   2.617   5.198 -1.3547  0.0228 -1.0501
 4148SOL    HW224081   4.158   2.707   5.126  1.2157 -3.3482  0.6525
 4149SOL     OW24082   0.137   3.700   8.543 -0.4125  0.0249  0.1494
 4149SOL    HW124083   0.168   3.654   8.465 -0.6770 -3.0533  1.8727
 4149SOL    HW224084   0.220   3.730   8.581  0.0552  0.7945 -1.4543
 4150SOL     OW24085   0.881   0.540  15.108 -0.0727  0.6130 -0.2182
 4150SOL    HW124086   0.970   0.572  15.121 -1.2317  2.0131  4.3079
 4150SOL    HW224087   0.837   0.624  15.116 -0.4266  0.4215 -0.1366
 4151SOL     OW24088   0.550   2.792   8.374  0.0884 -0.2272 -0.4512
 4151SOL    HW124089   0.642   2.766   8.374 -0.4395 -2.0743  1.3680
 4151SOL    HW224090   0.509   2.706   8.362 -0.7235  0.0980 -0.0396
 4152SOL     OW24091   2.448   4.015   3.726 -0.8154 -0.1204 -0.1580
 4152SOL    HW124092   2.383   4.004   3.657 -1.4252  1.2595  0.1874
 4152SOL    HW224093   2.443   4.111   3.734  2.5391  0.2573 -2.6679
 4153SOL     OW24094   3.814   4.035  11.323  0.0895 -0.0287  0.0007
 4153SOL    HW124095   3.890   3.992  11.284  0.3985  1.3926 -0.9753
 4153SOL    HW224096   3.749   4.054  11.256 -1.0249 -1.6107  0.6400
 4154SOL     OW24097   1.427   1.489  14.745  0.5823 -0.0207  0.0883
 4154SOL    HW124098   1.379   1.411  14.716  1.1651  0.1170 -1.2112
 4154SOL    HW224099   1.514   1.472  14.710  0.5264  0.8490 -0.4356
 4155SOL     OW24100   1.079   4.161   3.917 -0.2621 -0.2414  0.2481
 4155SOL    HW124101   1.156   4.163   3.860 -0.1138  1.2485  0.4967
 4155SOL    HW224102   1.129   4.193   3.992  1.2710 -0.7342 -0.5474
 4156SOL     OW24103   3.412   4.646   6.828  0.2478 -0.1083  0.2958
 4156SOL    HW124104   3.388   4.642   6.735  0.5530 -0.9544  0.2519
 4156SOL    HW224105   3.506   4.658   6.820  0.2638 -0.4195  0.0225
 4157SOL     OW24106   1.337   0.614   5.024 -0.2384 -0.0587  0.3726
 4157SOL    HW124107   1.281   0.573   5.090 -0.7182  0.1244  0.0781
 4157SOL    HW224108   1.311   0.557   4.952 -0.9848  1.1689 -0.3340
 4158SOL     OW24109   4.144   1.750   5.549 -0.0232 -0.3599 -0.2827
 4158SOL    HW124110   4.213   1.768   5.485  1.1810  2.0533  1.6723
 4158SOL    HW224111   4.064   1.760   5.498 -0.7815  0.1314  0.9971
 4159SOL     OW24112   1.827   0.234   7.914  0.2052 -0.2199 -0.3286
 4159SOL    HW124113   1.791   0.322   7.909 -1.2692 -0.6997  2.1893
 4159SOL    HW224114   1.746   0.186   7.897  0.0396  0.2002 -0.7268
 4160SOL     OW24115   3.178   3.832   6.663 -0.4710  0.6390 -0.1303
 4160SOL    HW124116   3.113   3.771   6.697 -0.1784  0.7310  0.5969
 4160SOL    HW224117   3.236   3.844   6.738 -1.3154 -0.8503  0.7684
 4161SOL     OW24118   3.154   1.991  10.154 -0.0369  0.3015  0.0457
 4161SOL    HW124119   3.160   1.897  10.136  2.2593  0.2717  1.0527
 4161SOL    HW224120   3.121   1.974  10.242  3.2957 -0.9305  1.0612
 4162SOL     OW24121   0.245   2.233  16.353 -0.0825 -0.3082 -0.4500
 4162SOL    HW124122   0.188   2.182  16.410  1.6735  0.7324  2.2527
 4162SOL    HW224123   0.312   2.252  16.419  0.9053 -1.9018 -1.0052
 4163SOL     OW24124   2.361   3.704  15.629 -0.1126 -0.4592  0.1405
 4163SOL    HW124125   2.448   3.668  15.646  0.3630  0.6631  0.0859
 4163SOL    HW224126   2.355   3.719  15.534 -0.2052  0.9381  0.3746
 4164SOL     OW24127   0.559   1.948   0.667  0.0659  0.2045  0.1719
 4164SOL    HW124128   0.524   1.988   0.587  0.2366 -2.1097 -1.0590
 4164SOL    HW224129   0.486   1.951   0.729  0.5268  0.9011  0.6913
 4165SOL     OW24130   2.681   1.519   9.821 -0.2009  0.0501  0.2023
 4165SOL    HW124131   2.774   1.502   9.805 -0.8742  0.0937 -3.7330
 4165SOL    HW224132   2.650   1.555   9.738 -0.4390  0.3426  0.4188
 4166SOL     OW24133   0.355   0.467  12.342  0.2988  0.2366  0.0539
 4166SOL    HW124134   0.399   0.510  12.415 -1.2662  0.0849  1.0940
 4166SOL    HW224135   0.273   0.515  12.351 -0.3594 -0.5398 -1.7970
 4167SOL     OW24136   2.149   3.897   2.071  0.0177 -0.1919  0.8157
 4167SOL    HW124137   2.180   3.837   2.139 -1.6154  0.1482  1.8626
 4167SOL    HW224138   2.055   3.877   2.075 -0.5552  2.6397  1.3559
 4168SOL     OW24139   1.915   2.282   2.499 -0.2259  0.5210  0.6812
 4168SOL    HW124140   1.943   2.236   2.419  1.2254  0.3476  1.2900
 4168SOL    HW224141   1.990   2.339   2.515  0.9165 -0.1043 -2.3544
 4169SOL     OW24142   0.620   0.712   8.412  0.1180  0.4557 -0.0479
 4169SOL    HW124143   0.692   0.775   8.413 -0.0937  0.6602  2.4593
 4169SOL    HW224144   0.558   0.750   8.474  0.3698  1.1759 -0.2328
 4170SOL     OW24145   4.237   2.282   6.387  0.8253 -0.4000  0.0692
 4170SOL    HW124146   4.167   2.224   6.416  0.8582  0.0846  1.1197
 4170SOL    HW224147   4.279   2.306   6.470  0.6178  0.2607 -0.0181
 4171SOL     OW24148   3.702   3.155   6.380  0.2006  0.7294  0.4878
 4171SOL    HW124149   3.766   3.225   6.393  0.3403  0.2940  2.0520
 4171SOL    HW224150   3.618   3.188   6.412 -0.3666  0.8873 -1.1424
 4172SOL     OW24151   2.946   3.353   6.204 -0.1133 -0.1842 -0.2867
 4172SOL    HW124152   3.029   3.319   6.170 -1.1191 -1.5905 -1.2935
 4172SOL    HW224153   2.908   3.272   6.238  1.9489 -0.9212  0.3174
 4173SOL     OW24154   4.555   1.081   1.301  0.1881 -0.2293 -0.1406
 4173SOL    HW124155   4.604   1.062   1.221 -2.3846 -0.7652 -1.5949
 4173SOL    HW224156   4.495   1.149   1.270 -0.6811 -1.3328 -0.9032
 4174SOL     OW24157   2.293   4.318   3.448  0.3563 -0.2663 -0.0896
 4174SOL    HW124158   2.206   4.300   3.482 -0.3535 -0.4572 -1.9974
 4174SOL    HW224159   2.317   4.381   3.516  0.7941 -0.9541  0.3965
 4175SOL     OW24160   0.113   0.097  16.772 -0.0884 -0.0055 -0.0774
 4175SOL    HW124161   0.050   0.040  16.815  1.1736 -2.1694 -1.1291
 4175SOL    HW224162   0.193   0.047  16.789  0.2725  0.2556 -1.0040
 4176SOL     OW24163   3.579   1.098   8.625 -0.0669 -0.1064  0.4835
 4176SOL    HW124164   3.652   1.104   8.686  0.0373  1.0514  0.2599
 4176SOL    HW224165   3.624   1.056   8.552  2.7202  0.5022  1.8640
 4177SOL     OW24166   3.898   4.258  17.456 -0.3820 -0.3722 -0.1828
 4177SOL    HW124167   3.872   4.298  17.539 -0.2987 -1.4274  0.3594
 4177SOL    HW224168   3.893   4.168  17.489 -3.1772 -0.7702 -1.7368
 4178SOL     OW24169   3.980   1.780   8.696 -0.1919 -0.0559  0.5855
 4178SOL    HW124170   3.999   1.695   8.658 -1.6901 -0.4743  0.7842
 4178SOL    HW224171   3.915   1.812   8.633 -1.1261 -1.8256  0.6719
 4179SOL     OW24172   0.341   0.968   1.720  0.0468 -0.8654 -0.3441
 4179SOL    HW124173   0.390   0.928   1.792 -1.6042  0.0296  1.2754
 4179SOL    HW224174   0.362   1.061   1.730 -1.5045 -0.5554  0.0657
 4180SOL     OW24175   2.569   4.134   8.766 -0.5004  0.2839 -0.3176
 4180SOL    HW124176   2.529   4.094   8.689  0.8065 -0.0436 -0.8378
 4180SOL    HW224177   2.552   4.228   8.758  1.5443  0.8588  2.0288
 4181SOL     OW24178   4.605   2.488   4.255 -0.1186  0.1612 -0.0714
 4181SOL    HW124179   4.591   2.526   4.168 -2.3549  0.6485  0.5158
 4181SOL    HW224180   4.516   2.464   4.279 -0.3503  0.4099 -0.6820
 4182SOL     OW24181   4.107   4.347   3.127  0.4174 -0.1238 -0.1259
 4182SOL    HW124182   4.166   4.419   3.148  0.4040 -0.0670 -0.2862
 4182SOL    HW224183   4.094   4.374   3.037  1.5627  1.2160  0.1133
 4183SOL     OW24184   1.266   1.825   6.017  0.3010  0.1473 -0.4014
 4183SOL    HW124185   1.194   1.888   6.020  0.5163  0.3328  1.1744
 4183SOL    HW224186   1.236   1.751   6.069 -0.6874  2.3662  2.2215
 4184SOL     OW24187   3.236   2.267   6.525  0.2180  0.6400 -0.4817
 4184SOL    HW124188   3.286   2.241   6.602 -0.1424  1.0699 -0.1046
 4184SOL    HW224189   3.279   2.220   6.453  1.4692  0.7274  0.2145
 4185SOL     OW24190   3.951   2.224   7.722 -0.1787 -0.1195 -0.2178
 4185SOL    HW124191   3.968   2.199   7.631 -0.1554  0.1354 -0.2831
 4185SOL    HW224192   4.003   2.303   7.738  2.1550 -1.7208  0.0030
 4186SOL     OW24193   1.886   0.289   3.460 -0.1030 -0.7378  0.0120
 4186SOL    HW124194   1.908   0.336   3.540 -1.1287 -0.7935  0.3132
 4186SOL    HW224195   1.826   0.223   3.492 -0.7339 -0.2090 -0.0751
 4187SOL     OW24196   3.741   0.244  11.238 -0.3869 -0.0761  0.0362
 4187SOL    HW124197   3.824   0.246  11.287 -0.4576  2.4038  0.0457
 4187SOL    HW224198   3.680   0.206  11.301 -0.2772 -0.2859  0.0175
 4188SOL     OW24199   2.971   4.688   4.117 -0.1339 -0.2266 -0.6297
 4188SOL    HW124200   3.059   4.654   4.098  0.1011  1.8427 -3.2777
 4188SOL    HW224201   2.994   0.016   4.185  1.4627  0.7403 -2.0687
 4189SOL     OW24202   3.325   0.920   3.974  1.3150 -0.7624 -0.7650
 4189SOL    HW124203   3.309   0.988   3.909  0.5947 -0.7062 -0.5294
 4189SOL    HW224204   3.329   0.982   4.047  0.7302 -0.5707 -0.8980
 4190SOL     OW24205   3.071   2.868   1.482  0.0869 -0.2693  0.0321
 4190SOL    HW124206   3.006   2.840   1.546 -1.4943  0.8695 -1.0625
 4190SOL    HW224207   3.116   2.789   1.455  0.3137 -0.3613  0.6913
 4191SOL     OW24208   0.552   1.265   7.323 -0.2979  0.1822 -0.2703
 4191SOL    HW124209   0.526   1.273   7.231 -1.4865  0.2192  0.0628
 4191SOL    HW224210   0.612   1.339   7.329  2.3814 -1.8133 -2.6243
 4192SOL     OW24211   2.349   4.711   1.970 -0.3013 -0.2776  0.2147
 4192SOL    HW124212   2.409   4.648   2.010 -1.1764 -0.1939  1.6559
 4192SOL    HW224213   2.268   4.663   1.955 -0.7164  0.6938 -0.6650
 4193SOL     OW24214   3.697   1.681   9.026 -0.2527  0.0465  0.2753
 4193SOL    HW124215   3.719   1.677   9.120 -0.1954  1.3844  0.3171
 4193SOL    HW224216   3.609   1.645   9.035 -0.7188  0.9143 -0.9136
 4194SOL     OW24217   0.406   3.366   8.972 -0.0280  0.3448 -0.2971
 4194SOL    HW124218   0.385   3.315   8.893  1.3339  2.2610 -1.9116
 4194SOL    HW224219   0.317   3.386   9.001  0.0250 -0.3958  0.3638
 4195SOL     OW24220   4.434   0.153   0.906  0.3374 -0.1284  0.0205
 4195SOL    HW124221   4.359   0.100   0.931 -0.3676  0.1261 -1.5350
 4195SOL    HW224222   4.482   0.112   0.834  0.5582 -0.0495  0.1229
 4196SOL     OW24223   1.241   0.491   7.105  0.0698 -0.1427  0.1978
 4196SOL    HW124224   1.320   0.450   7.140  0.1519 -1.0120 -0.9969
 4196SOL    HW224225   1.218   0.556   7.172 -0.4352 -0.3501  0.2221
 4197SOL     OW24226   4.567   0.244   1.249 -0.0924  0.2908 -0.3043
 4197SOL    HW124227   4.580   0.271   1.340 -0.8715  2.3803 -0.7959
 4197SOL    HW224228   4.473   0.262   1.241 -0.2906 -0.6111  0.0038
 4198SOL     OW24229   2.167   0.991   3.016  0.2959  0.3131  0.2691
 4198SOL    HW124230   2.256   0.973   2.985  0.2118  0.9484 -0.3526
 4198SOL    HW224231   2.113   0.990   2.937  1.3070 -0.2589 -0.4138
 4199SOL     OW24232   3.797   4.237  16.562  0.2687  0.5374 -0.3762
 4199SOL    HW124233   3.845   4.312  16.597 -0.7707  1.1571 -0.2577
 4199SOL    HW224234   3.832   4.247  16.473 -1.4255  4.0417 -0.6717
 4200SOL     OW24235   1.298   1.705   3.136  0.3372  0.2987 -0.0427
 4200SOL    HW124236   1.368   1.753   3.091  1.0445 -0.8927 -0.2161
 4200SOL    HW224237   1.281   1.625   3.086 -0.7392  0.7132 -0.3432
 4201SOL     OW24238   2.141   4.427   3.969  0.1193 -0.3529  0.1440
 4201SOL    HW124239   2.193   4.348   3.987  0.5989 -0.1477 -0.3414
 4201SOL    HW224240   2.145   4.466   4.056 -1.9274  1.0982 -0.4188
 4202SOL     OW24241   2.781   0.789   4.039 -0.0677 -0.1609  0.0528
 4202SOL    HW124242   2.869   0.755   4.028  0.6137  0.5345  3.1650
 4202SOL    HW224243   2.770   0.853   3.969 -0.0224  4.0658  3.9251
 4203SOL     OW24244   3.104   4.527   6.968  0.1523  0.1566  0.6564
 4203SOL    HW124245   3.056   4.558   7.046  1.0139  1.6391  0.5808
 4203SOL    HW224246   3.036   4.485   6.915 -1.1143  0.0381  2.3591
 4204SOL     OW24247   2.919   3.807   7.697 -0.1792  0.0651 -0.1515
 4204SOL    HW124248   2.985   3.775   7.758 -1.1657 -1.4608  0.1372
 4204SOL    HW224249   2.935   3.901   7.693 -0.8786  0.1634 -0.7263
 4205SOL     OW24250   2.368   3.086  12.611  0.4357  0.2299 -0.6223
 4205SOL    HW124251   2.356   3.085  12.706 -2.1737 -2.7870 -1.0064
 4205SOL    HW224252   2.349   2.997  12.582  0.2819  0.2663 -0.6305
 4206SOL     OW24253   3.185   1.607   3.979 -0.1749 -0.3595  0.1722
 4206SOL    HW124254   3.119   1.538   3.974 -1.6561  0.9833  1.2764
 4206SOL    HW224255   3.228   1.575   4.058 -0.4369 -1.9768 -0.3519
 4207SOL     OW24256   3.005   3.004   2.660 -0.8293 -0.1029 -0.1588
 4207SOL    HW124257   3.006   3.028   2.567 -1.1808  0.7827  0.0602
 4207SOL    HW224258   2.975   3.079   2.713 -2.2940 -1.4528  0.9111
 4208SOL     OW24259   0.062   3.577   6.948  0.8408  0.1818 -0.0717
 4208SOL    HW124260   0.013   3.512   6.897  0.1886  1.1138 -0.6258
 4208SOL    HW224261   0.037   3.554   7.037 -0.4061 -2.4279 -1.0841
 4209SOL     OW24262   1.236   3.631  16.110  0.4113  0.3100 -0.1140
 4209SOL    HW124263   1.280   3.707  16.147  2.1423 -0.5663 -0.3545
 4209SOL    HW224264   1.144   3.635  16.135 -0.2468 -0.4081 -2.4631
 4210SOL     OW24265   1.869   2.568   4.345  0.1866  0.8249 -0.8467
 4210SOL    HW124266   1.789   2.607   4.312  0.4186  1.3185 -0.8177
 4210SOL    HW224267   1.921   2.644   4.372  0.8592  0.0865 -0.0485
 4211SOL     OW24268   0.675   4.384   8.776  0.1694  0.4974  0.1330
 4211SOL    HW124269   0.614   4.429   8.834 -2.5854 -2.6394 -0.3253
 4211SOL    HW224270   0.697   4.458   8.719  0.3990  1.9502  2.1059
 4212SOL     OW24271   3.559   2.872   8.704  0.2823 -0.2084 -0.0962
 4212SOL    HW124272   3.614   2.907   8.633 -0.2379  1.8284  0.5033
 4212SOL    HW224273   3.588   2.929   8.775 -3.9601  0.6229  0.9621
 4213SOL     OW24274   3.871   2.890  15.531  0.0114  0.2223  0.9216
 4213SOL    HW124275   3.916   2.806  15.521  0.7234  0.8660 -1.2771
 4213SOL    HW224276   3.787   2.871  15.489 -0.4531 -0.3401  2.1051
 4214SOL     OW24277   0.344   4.643   9.973  0.1351 -0.3078 -0.1547
 4214SOL    HW124278   0.303   4.725  10.001  1.5279  0.1475  0.5214
 4214SOL    HW224279   0.275   4.578   9.984 -0.1626  0.2254  1.1826
 4215SOL     OW24280   0.472   0.988  14.049 -0.4698 -0.2653  0.1222
 4215SOL    HW124281   0.480   1.082  14.035  0.2374 -0.1268  1.4583
 4215SOL    HW224282   0.563   0.974  14.074  0.5876  3.4207 -1.7670
 4216SOL     OW24283   2.921   4.109   7.181 -0.5356  0.1193  0.3984
 4216SOL    HW124284   2.999   4.112   7.237  0.9618 -1.2952 -1.6246
 4216SOL    HW224285   2.953   4.070   7.100  1.0171 -0.5303  1.3306
 4217SOL     OW24286   3.740   0.545  10.642 -0.3130  0.7125  0.3845
 4217SOL    HW124287   3.800   0.476  10.670 -0.4639  1.4609  2.5132
 4217SOL    HW224288   3.655   0.504  10.661 -0.5160  0.8783 -0.1397
 4218SOL     OW24289   2.524   2.825   9.424  0.5542 -0.4431  0.0582
 4218SOL    HW124290   2.584   2.889   9.385 -1.6519  2.2230  1.0763
 4218SOL    HW224291   2.559   2.829   9.513 -0.1142 -0.4260  0.3205
 4219SOL     OW24292   0.051   1.011   3.608 -0.0526 -0.1248  0.0201
 4219SOL    HW124293   0.088   0.990   3.522 -0.3604 -1.1280  0.1275
 4219SOL    HW224294   0.066   1.105   3.604 -1.7574  0.1394 -0.1806
 4220SOL     OW24295   2.195   4.082   0.275 -0.0389 -0.0716 -0.1649
 4220SOL    HW124296   2.286   4.113   0.275 -0.5491  1.4869  1.5963
 4220SOL    HW224297   2.200   4.023   0.200  0.6123  1.3185 -1.2182
 4221SOL     OW24298   0.152   2.549   4.676  0.2180  0.1897 -0.1060
 4221SOL    HW124299   0.056   2.544   4.680  0.2392  0.2480  0.6101
 4221SOL    HW224300   0.172   2.457   4.692  0.8488  0.4796  0.7602
 4222SOL     OW24301   0.041   0.065   1.250 -0.5192  0.2343  0.2890
 4222SOL    HW124302   0.006   4.731   1.193  0.1241 -0.9127  1.2658
 4222SOL    HW224303   4.705   0.129   1.249 -1.8932 -1.2462  1.5101
 4223SOL     OW24304   1.078   0.666  14.348 -0.5369  0.1613 -0.6007
 4223SOL    HW124305   1.151   0.691  14.291  0.9108 -0.7910  0.8205
 4223SOL    HW224306   1.097   0.572  14.352 -0.9866  0.1915  2.0164
 4224SOL     OW24307   2.598   3.250   7.876 -0.6593  0.5000  0.2433
 4224SOL    HW124308   2.691   3.251   7.898 -1.2514  3.5598  2.4282
 4224SOL    HW224309   2.556   3.261   7.961 -0.7666  2.1973 -0.0447
 4225SOL     OW24310   0.416   0.312   7.501  0.1772 -0.2738  0.0982
 4225SOL    HW124311   0.345   0.287   7.561  1.1326  3.7258  2.9122
 4225SOL    HW224312   0.365   0.323   7.421 -1.7785  0.2450  1.4103
 4226SOL     OW24313   3.635   3.027   4.802 -0.1629 -0.4332 -0.0139
 4226SOL    HW124314   3.635   2.944   4.849 -0.3327  0.7344  2.0323
 4226SOL    HW224315   3.728   3.039   4.786  0.6680 -3.2427  2.9550
 4227SOL     OW24316   0.390   3.134   2.240  0.6947  0.2281  0.0831
 4227SOL    HW124317   0.386   3.131   2.144 -2.3503  0.4375  0.2084
 4227SOL    HW224318   0.438   3.054   2.262 -3.4098 -2.2556 -0.0567
 4228SOL     OW24319   0.109   3.916  12.522 -0.6507 -0.4406  0.2333
 4228SOL    HW124320   0.050   3.852  12.561 -1.8397  0.3710 -0.2526
 4228SOL    HW224321   0.184   3.919  12.582 -1.2757 -0.0226  0.9917
 4229SOL     OW24322   3.903   0.829   7.604  0.0091 -0.2752  0.5396
 4229SOL    HW124323   3.981   0.880   7.626 -1.3272  1.5917  0.9350
 4229SOL    HW224324   3.921   0.800   7.515 -3.0654  1.4283 -0.6366
 4230SOL     OW24325   2.187   0.326   4.857  0.2425 -0.0855  0.1283
 4230SOL    HW124326   2.161   0.253   4.801 -0.1640 -1.1507  1.6751
 4230SOL    HW224327   2.243   0.376   4.798  0.6089  0.6818  1.1334
 4231SOL     OW24328   3.748   4.248  17.699 -0.7640  0.3887  0.1081
 4231SOL    HW124329   3.799   4.168  17.683  0.1739  0.8863  0.6230
 4231SOL    HW224330   3.680   4.209   0.016 -0.7082 -1.6337 -1.1906
 4232SOL     OW24331   3.814   4.666   8.277  0.2792  0.5765  0.2161
 4232SOL    HW124332   3.833   4.654   8.184  1.2096  0.7211  0.3893
 4232SOL    HW224333   3.728   4.627   8.292 -0.2244  1.9951  1.0397
 4233SOL     OW24334   0.543   2.688   1.385 -0.0017 -0.2880  0.9038
 4233SOL    HW124335   0.477   2.750   1.416 -0.4881 -0.8035  0.9040
 4233SOL    HW224336   0.532   2.623   1.453  1.1773 -0.7422  0.6624
 4234SOL     OW24337   0.676   0.014   6.056 -0.4829 -0.1957  0.0830
 4234SOL    HW124338   0.735   0.015   6.131 -0.5189  1.7310  0.0685
 4234SOL    HW224339   0.600   4.707   6.096 -1.2483  0.3013 -0.8535
 4235SOL     OW24340   0.096   0.054   1.954  0.0777  0.4175 -0.2731
 4235SOL    HW124341   0.051   4.705   1.944 -1.4198  1.2982 -0.8474
 4235SOL    HW224342   0.032   0.110   1.910 -0.2431  0.2401 -0.0370
 4236SOL     OW24343   4.728   3.582   8.009  0.4127 -0.6494  0.4047
 4236SOL    HW124344   4.641   3.571   8.046  0.1119  0.4546  0.0363
 4236SOL    HW224345   4.723   3.513   7.942 -1.5519  0.1185 -0.2568
 4237SOL     OW24346   3.071   4.683  11.686  0.7785 -0.1712  0.4281
 4237SOL    HW124347   3.024   4.720  11.761  0.4207 -0.3059  0.2728
 4237SOL    HW224348   3.031   4.728  11.611 -0.2798 -0.6864  0.6701
 4238SOL     OW24349   1.569   1.320   6.260 -0.2494 -0.0201 -0.1392
 4238SOL    HW124350   1.625   1.254   6.220  1.3385 -0.1753  2.3135
 4238SOL    HW224351   1.600   1.398   6.214 -0.0048 -0.5830 -0.9275
 4239SOL     OW24352   2.368   3.565   1.436 -0.6469  0.8858  0.4009
 4239SOL    HW124353   2.402   3.573   1.347 -1.1397 -0.9907  0.0316
 4239SOL    HW224354   2.372   3.658   1.457  0.5504  0.7889  0.6068
 4240SOL     OW24355   2.380   1.677   4.221 -0.2205 -0.2107 -0.0897
 4240SOL    HW124356   2.434   1.642   4.150  0.1642 -2.5814  1.3567
 4240SOL    HW224357   2.447   1.691   4.288  0.4403 -0.8597 -0.6165
 4241SOL     OW24358   1.992   1.427   1.518 -0.2736 -0.3663  0.1124
 4241SOL    HW124359   1.911   1.383   1.491 -0.7038  0.3518  0.2331
 4241SOL    HW224360   2.061   1.379   1.472 -0.7399  1.1477 -2.1154
 4242SOL     OW24361   0.740   4.040   3.590 -0.6681  0.2359 -0.5617
 4242SOL    HW124362   0.827   4.003   3.610 -0.4846  0.3577 -1.1406
 4242SOL    HW224363   0.689   4.014   3.667 -0.6962  1.7810 -0.0447
 4243SOL     OW24364   2.424   4.541   5.725 -0.2350  0.4388  0.5089
 4243SOL    HW124365   2.425   4.451   5.694  0.6447 -0.1321  2.2176
 4243SOL    HW224366   2.377   4.534   5.809 -1.0177  3.0293  0.2977
 4244SOL     OW24367   3.665   1.815  15.642  0.1878  0.1749  0.1047
 4244SOL    HW124368   3.644   1.903  15.609  0.1828  0.6300  1.3281
 4244SOL    HW224369   3.760   1.813  15.633 -0.0293  1.4249 -2.7841
 4245SOL     OW24370   0.278   4.212   7.020 -0.5160  0.7831  0.2700
 4245SOL    HW124371   0.275   4.262   7.102  0.9298  0.6798  0.3933
 4245SOL    HW224372   0.231   4.276   6.965 -1.6435  0.1819  0.5397
 4246SOL     OW24373   2.692   0.425   4.285 -0.1383  0.3072  0.6746
 4246SOL    HW124374   2.674   0.351   4.227  2.2594 -0.3414  0.7540
 4246SOL    HW224375   2.622   0.422   4.350  0.3669  1.1274  1.2548
 4247SOL     OW24376   3.674   4.641   2.103  0.7406  0.6109  0.1586
 4247SOL    HW124377   3.606   4.708   2.094  0.2699 -0.0565 -1.2831
 4247SOL    HW224378   3.619   4.571   2.139  2.6055 -1.3990 -0.9236
 4248SOL     OW24379   4.641   3.313   3.675  0.0676 -0.5505 -0.5681
 4248SOL    HW124380   4.569   3.307   3.737 -0.0458  0.8261 -0.5640
 4248SOL    HW224381   4.588   3.289   3.599 -1.8132 -0.4019  0.7135
 4249SOL     OW24382   2.186   3.638   0.811 -0.0029 -0.5603  0.1675
 4249SOL    HW124383   2.225   3.556   0.784 -0.1810 -1.5598  2.9153
 4249SOL    HW224384   2.215   3.702   0.746 -3.0758 -0.0857 -0.7245
 4250SOL     OW24385   4.717   4.564   8.668  0.2634  0.0581 -0.2017
 4250SOL    HW124386   4.648   4.501   8.690 -1.1937  1.1640 -1.6152
 4250SOL    HW224387   0.038   4.556   8.745 -1.0526  1.3312  0.8873
 4251SOL     OW24388   3.627   0.164   2.987 -0.3834 -0.0877 -0.4755
 4251SOL    HW124389   3.545   0.194   3.027  1.5311  0.7489  2.8013
 4251SOL    HW224390   3.589   0.080   2.961  0.1798 -0.2292 -0.8307
 4252SOL     OW24391   1.098   3.278  12.163 -0.4091 -0.1252  0.0023
 4252SOL    HW124392   1.111   3.226  12.242 -2.0187 -1.1373 -0.3954
 4252SOL    HW224393   1.149   3.228  12.100 -1.3834  2.6501 -3.0428
 4253SOL     OW24394   3.925   2.626  16.241 -0.3142 -0.1016  0.1578
 4253SOL    HW124395   3.989   2.687  16.204  0.0056 -1.2579 -1.1891
 4253SOL    HW224396   3.958   2.540  16.217 -0.8752 -0.0710 -0.7352
 4254SOL     OW24397   4.520   1.615   6.153 -0.1660 -0.3823 -0.1377
 4254SOL    HW124398   4.545   1.533   6.197  1.0001 -0.1714 -0.4009
 4254SOL    HW224399   4.428   1.625   6.179 -0.5582 -0.4960 -1.4999
 4255SOL     OW24400   4.106   3.337   4.239 -0.3351 -0.1337  0.1171
 4255SOL    HW124401   4.130   3.273   4.306  1.0117 -0.3212 -0.5337
 4255SOL    HW224402   4.040   3.388   4.285  1.6870  1.9325  0.7376
 4256SOL     OW24403   0.772   3.969   7.971  0.5719 -0.1965  0.7272
 4256SOL    HW124404   0.802   4.038   7.912 -0.9202  0.1205  0.3365
 4256SOL    HW224405   0.746   3.895   7.915  1.1783 -0.6592  1.0650
 4257SOL     OW24406   1.951   3.304  11.134  0.0163 -0.1758 -0.1316
 4257SOL    HW124407   1.901   3.253  11.071  0.7342  1.7753 -2.2854
 4257SOL    HW224408   1.993   3.229  11.176  0.1542  2.2010  3.9782
 4258SOL     OW24409   2.545   0.461   3.906  0.2012  0.1808  0.0363
 4258SOL    HW124410   2.615   0.396   3.898 -0.5720 -0.7228  0.6635
 4258SOL    HW224411   2.483   0.444   3.835  0.1887  1.7216 -0.3275
 4259SOL     OW24412   2.811   0.437   8.690 -0.1677  0.2562 -0.8701
 4259SOL    HW124413   2.734   0.487   8.664 -1.9192 -0.5896  2.6791
 4259SOL    HW224414   2.766   0.366   8.735 -0.5070 -1.5268 -4.0321
 4260SOL     OW24415   2.602   0.224   2.018  0.3295 -0.0206  0.3929
 4260SOL    HW124416   2.512   0.245   2.045 -0.2718 -1.2614 -0.6440
 4260SOL    HW224417   2.644   0.195   2.099 -2.5665  1.3243  2.3696
 4261SOL     OW24418   4.257   4.620   5.665  0.1183  0.2652  1.0136
 4261SOL    HW124419   4.170   4.621   5.706 -1.2910  0.5315 -1.9920
 4261SOL    HW224420   4.313   4.601   5.741  3.8219 -1.0619 -2.0271
 4262SOL     OW24421   0.678   2.303   8.499 -0.3957 -0.3820 -0.1638
 4262SOL    HW124422   0.601   2.357   8.516  0.5224  0.0784  2.5495
 4262SOL    HW224423   0.694   2.277   8.589  3.3411 -0.0149 -0.7258
 4263SOL     OW24424   3.063   4.488  14.949  0.2614  0.1782 -0.0652
 4263SOL    HW124425   3.151   4.525  14.949 -0.2074  1.3196  1.2284
 4263SOL    HW224426   3.037   4.490  14.857  0.5820  2.8079 -0.0991
 4264SOL     OW24427   3.026   0.708  14.770  0.1455  0.1355 -0.8716
 4264SOL    HW124428   3.085   0.633  14.761  1.2495  1.0821 -1.4359
 4264SOL    HW224429   2.946   0.675  14.729  0.3359  1.7689 -2.5522
 4265SOL     OW24430   3.684   3.104   2.889  0.3801  0.2341 -0.0603
 4265SOL    HW124431   3.679   3.033   2.953  0.7150  0.8535  0.6503
 4265SOL    HW224432   3.756   3.156   2.925  1.4147 -0.3664 -1.2577
 4266SOL     OW24433   3.985   2.382   8.910  0.4499  0.3477 -0.0941
 4266SOL    HW124434   3.926   2.447   8.871 -0.5532  0.4252  1.5492
 4266SOL    HW224435   4.068   2.411   8.872  0.8692 -1.0694 -0.2732
 4267SOL     OW24436   1.792   2.003  13.291 -0.4013 -0.4049  0.1967
 4267SOL    HW124437   1.755   2.090  13.305  0.0408 -0.3049  0.7763
 4267SOL    HW224438   1.774   1.967  13.378 -3.0477  0.1758 -0.1127
 4268SOL     OW24439   3.813   0.264   4.163  0.1561 -0.4153 -0.2317
 4268SOL    HW124440   3.768   0.339   4.125  2.4724  1.4733  0.7754
 4268SOL    HW224441   3.887   0.244   4.105 -0.0455 -0.6452 -0.4091
 4269SOL     OW24442   4.155   4.278   1.010  0.0470  0.0193 -0.1920
 4269SOL    HW124443   4.087   4.344   1.023 -1.0163 -1.4886  1.9057
 4269SOL    HW224444   4.161   4.242   1.099  1.3073 -2.5598 -1.3251
 4270SOL     OW24445   1.066   0.509   9.160  0.1084 -0.4181 -0.7790
 4270SOL    HW124446   1.090   0.598   9.188 -0.0656 -0.8631  0.7700
 4270SOL    HW224447   1.144   0.470   9.120  1.0669 -1.2102  1.8603
 4271SOL     OW24448   1.689   0.044   5.025 -0.4686 -0.3575 -0.1333
 4271SOL    HW124449   1.649   4.702   5.067  2.1329 -1.7545 -0.1665
 4271SOL    HW224450   1.631   0.106   5.069  1.9438  0.7909  1.4094
 4272SOL     OW24451   4.123   4.250   0.227 -0.2111  0.0701 -0.4108
 4272SOL    HW124452   4.127   4.168   0.178 -0.5119 -1.5899  2.3247
 4272SOL    HW224453   4.073   4.310   0.171 -0.1072  0.3060 -0.2500
 4273SOL     OW24454   0.857   2.550   1.397 -0.1382  0.5423 -0.3046
 4273SOL    HW124455   0.850   2.626   1.455 -0.7590 -2.2619  3.2117
 4273SOL    HW224456   0.803   2.498   1.455 -0.6253 -0.6256 -1.8042
 4274SOL     OW24457   2.514   1.638  15.546 -0.2828 -0.1364  0.2543
 4274SOL    HW124458   2.472   1.687  15.617 -1.8150 -0.3132 -0.5275
 4274SOL    HW224459   2.604   1.665  15.562 -0.1117 -0.5366 -0.0237
 4275SOL     OW24460   0.844   2.658  15.074  0.0533  0.5559 -0.3800
 4275SOL    HW124461   0.819   2.719  15.143 -0.8577  0.3436 -0.5214
 4275SOL    HW224462   0.865   2.726  15.010  1.2629 -2.8086 -3.5259
 4276SOL     OW24463   2.972   3.886   2.348  0.4522  0.4830  0.1453
 4276SOL    HW124464   2.879   3.865   2.360  0.7860  0.2905  2.4563
 4276SOL    HW224465   3.007   3.803   2.318  0.9370 -0.4175  3.1842
 4277SOL     OW24466   3.501   1.146  10.219  0.4113  1.1015 -0.1526
 4277SOL    HW124467   3.594   1.128  10.225 -0.3632 -2.7852  0.3303
 4277SOL    HW224468   3.485   1.112  10.131 -1.6289 -1.4158  1.1578
 4278SOL     OW24469   1.465   4.227   5.782 -0.6576 -0.0072  0.5369
 4278SOL    HW124470   1.507   4.182   5.709 -0.5151  1.3297 -0.2121
 4278SOL    HW224471   1.404   4.159   5.809 -1.5214  0.5902  0.0833
 4279SOL     OW24472   0.795   0.954   1.225  0.5071 -0.7403  0.2452
 4279SOL    HW124473   0.801   0.929   1.317  0.9977 -0.1452  0.3709
 4279SOL    HW224474   0.817   1.047   1.218 -3.3538  0.3137  2.1885
 4280SOL     OW24475   0.368   4.170   3.010  0.2899  0.7566  0.3104
 4280SOL    HW124476   0.456   4.199   2.987 -0.1195  1.2226 -0.6699
 4280SOL    HW224477   0.355   4.214   3.094 -0.0190  0.0848  0.6170
 4281SOL     OW24478   0.727   2.538   8.705  0.1189  0.4685  0.1711
 4281SOL    HW124479   0.700   2.623   8.739 -0.1436  0.4287  0.0637
 4281SOL    HW224480   0.793   2.572   8.644 -1.5877  4.5097  0.5638
 4282SOL     OW24481   3.338   4.680   8.540 -0.1272  0.2736 -0.5724
 4282SOL    HW124482   3.353   0.036   8.514 -0.0367 -0.4892 -3.2331
 4282SOL    HW224483   3.248   4.666   8.511 -1.6079  3.7271  2.2994
 4283SOL     OW24484   3.190   2.154   8.359 -0.0174 -0.5761  0.1636
 4283SOL    HW124485   3.133   2.159   8.282  0.7523  1.4051 -0.2678
 4283SOL    HW224486   3.171   2.240   8.395 -1.5225 -0.9898  0.3341
 4284SOL     OW24487   1.335   3.472   5.562  0.0398  0.8353 -0.2637
 4284SOL    HW124488   1.421   3.452   5.525  0.5474  1.2132  0.7288
 4284SOL    HW224489   1.347   3.427   5.645  0.0829  0.7687 -0.3060
 4285SOL     OW24490   0.758   3.797   0.721 -0.4575  0.6018 -0.3682
 4285SOL    HW124491   0.670   3.762   0.736 -0.1171 -0.1907 -0.2572
 4285SOL    HW224492   0.804   3.754   0.793 -0.1735  1.9781  0.2691
 4286SOL     OW24493   3.360   2.523   4.403 -0.4440 -0.0902 -0.1674
 4286SOL    HW124494   3.341   2.434   4.431 -0.3240  0.6431  2.2363
 4286SOL    HW224495   3.276   2.563   4.427 -0.1478 -0.4259  1.4133
 4287SOL     OW24496   1.663   0.804   0.708 -1.0231 -0.2586 -0.1241
 4287SOL    HW124497   1.690   0.765   0.791 -1.6217 -1.1659 -0.3554
 4287SOL    HW224498   1.606   0.734   0.676 -1.5955  1.0280 -1.9503
 4288SOL     OW24499   0.230   1.696   3.265  0.2344  0.1729 -0.0864
 4288SOL    HW124500   0.281   1.633   3.215 -1.1655  1.5051 -3.1726
 4288SOL    HW224501   0.154   1.713   3.210  0.0372  1.4703  0.6037
 4289SOL     OW24502   4.388   0.627  15.884  0.1903 -0.3162 -0.0203
 4289SOL    HW124503   4.460   0.644  15.945  0.7186 -2.1232 -0.1464
 4289SOL    HW224504   4.326   0.636  15.957  4.6865  1.8894  3.5875
 4290SOL     OW24505   0.405   0.212   4.513  0.3044  0.9093 -0.1140
 4290SOL    HW124506   0.423   0.207   4.419 -0.3599  1.1129 -0.2536
 4290SOL    HW224507   0.489   0.176   4.540 -0.4776 -0.1199  0.9556
 4291SOL     OW24508   0.684   4.021   0.365  0.2645  0.2962  0.0637
 4291SOL    HW124509   0.686   4.039   0.271 -1.2848 -1.3003 -0.2655
 4291SOL    HW224510   0.776   3.997   0.380  0.6516  2.8937  1.6778
 4292SOL     OW24511   0.220   3.007   8.537 -0.0785  1.0106  0.4296
 4292SOL    HW124512   0.144   2.949   8.533 -0.2319  1.0511  2.4572
 4292SOL    HW224513   0.204   3.045   8.451  1.3197  0.9830  0.1620
 4293SOL     OW24514   3.932   3.296  17.033 -0.2156  0.2160 -0.3984
 4293SOL    HW124515   3.996   3.266  17.096 -1.5670 -2.0353 -0.1080
 4293SOL    HW224516   3.967   3.383  17.010 -0.7717  0.3172 -0.8647
 4294SOL     OW24517   4.061   3.981   3.022  0.4922 -0.2937 -0.1511
 4294SOL    HW124518   4.080   4.070   2.992  0.9451 -0.3197  0.0601
 4294SOL    HW224519   4.004   3.957   2.949  0.4372  1.9329 -0.8378
 4295SOL     OW24520   4.406   3.699  15.086  0.4187  0.0924 -0.4808
 4295SOL    HW124521   4.480   3.653  15.124  1.4989  3.1528  1.0938
 4295SOL    HW224522   4.454   3.778  15.061 -1.5786  1.3771 -0.3182
 4296SOL     OW24523   1.345   2.229  15.993 -0.0330 -0.7219  0.4276
 4296SOL    HW124524   1.386   2.160  15.940 -0.4028 -1.4579  1.0903
 4296SOL    HW224525   1.397   2.303  15.964 -1.2766 -0.9781 -2.4413
 4297SOL     OW24526   1.298   4.295   8.404 -0.4546  0.1740 -0.1279
 4297SOL    HW124527   1.377   4.241   8.398  0.6367  1.8703 -0.8509
 4297SOL    HW224528   1.339   4.373   8.442 -1.0815  0.7432 -0.6308
 4298SOL     OW24529   2.552   0.071   4.569 -0.2476 -0.7685 -0.7952
 4298SOL    HW124530   2.547   0.127   4.647  2.4568 -0.3981 -0.8702
 4298SOL    HW224531   2.615   0.119   4.515  0.0262  0.5808  0.7250
 4299SOL     OW24532   3.201   1.266   7.857  0.0209 -0.1350 -0.1006
 4299SOL    HW124533   3.174   1.336   7.798 -1.1588  1.4933  2.3972
 4299SOL    HW224534   3.122   1.236   7.901  0.5384 -2.6628 -0.8679
 4300SOL     OW24535   0.335   3.560   4.578  0.4759 -0.6477 -0.5197
 4300SOL    HW124536   0.298   3.506   4.508 -0.4596 -1.6597  0.7531
 4300SOL    HW224537   0.293   3.520   4.654 -1.2326 -1.6429 -2.0013
 4301SOL     OW24538   1.784   2.715  15.929 -0.9668 -0.3072 -0.0109
 4301SOL    HW124539   1.714   2.653  15.908  0.6797 -2.9349  2.3517
 4301SOL    HW224540   1.860   2.660  15.908 -0.1928  0.9477 -0.5678
 4302SOL     OW24541   0.684   3.231   7.124 -0.1368  0.4796 -0.2199
 4302SOL    HW124542   0.627   3.306   7.110 -1.7601 -0.3946  1.7544
 4302SOL    HW224543   0.763   3.278   7.150 -0.7634  0.6409  1.4062
 4303SOL     OW24544   1.048   3.262   6.438  0.0737  0.3199 -0.3712
 4303SOL    HW124545   0.958   3.291   6.423  0.5712  2.1790  0.2382
 4303SOL    HW224546   1.031   3.205   6.512 -1.2306  0.1159 -0.8282
 4304SOL     OW24547   2.985   0.161   7.163 -0.6485  0.0456 -0.0144
 4304SOL    HW124548   3.041   0.141   7.238 -0.9326  2.2058  0.7826
 4304SOL    HW224549   3.051   0.186   7.098  1.0835  0.2612  1.8379
 4305SOL     OW24550   2.814   2.985  12.023  0.3118 -0.3990  0.3540
 4305SOL    HW124551   2.790   2.924  11.953 -0.0631  0.6033 -0.4002
 4305SOL    HW224552   2.879   3.041  11.980  0.7038 -0.2139  1.1896
 4306SOL     OW24553   3.380   3.456   4.088  0.2261 -0.1641 -0.1969
 4306SOL    HW124554   3.438   3.386   4.059  1.1050  0.2852  0.4542
 4306SOL    HW224555   3.433   3.523   4.044 -0.0746  0.0437 -0.2413
 4307SOL     OW24556   4.721   0.131   5.153 -0.2774 -0.5447 -0.0225
 4307SOL    HW124557   0.059   0.174   5.198 -0.0823 -0.9801  0.0789
 4307SOL    HW224558   4.708   0.201   5.089 -0.9104 -0.4064  0.2596
 4308SOL     OW24559   0.419   1.941   1.533  0.5881  0.2300  0.5902
 4308SOL    HW124560   0.394   1.958   1.623  1.0594 -0.4044  0.8416
 4308SOL    HW224561   0.399   2.026   1.493  0.9621  0.2342  0.4117
 4309SOL     OW24562   2.301   1.802   8.773  0.1650  0.5038 -0.1909
 4309SOL    HW124563   2.286   1.825   8.865 -0.4873 -0.6427 -0.0077
 4309SOL    HW224564   2.247   1.866   8.727 -0.3812  0.6017  0.5827
 4310SOL     OW24565   1.885   0.314   6.424  0.2846  0.0482  0.7326
 4310SOL    HW124566   1.949   0.265   6.476  0.6341 -1.0707 -0.7656
 4310SOL    HW224567   1.818   0.247   6.418  1.1046 -0.9666  2.9151
 4311SOL     OW24568   2.125   4.295   0.742 -0.6261  0.6708  0.4353
 4311SOL    HW124569   2.054   4.338   0.694 -1.6646 -0.6092  0.8094
 4311SOL    HW224570   2.172   4.251   0.671  1.4492  2.3301  0.8139
 4312SOL     OW24571   3.428   3.985   1.723 -0.1369 -0.1311 -0.0573
 4312SOL    HW124572   3.488   3.936   1.666  0.7296  1.7928 -0.7925
 4312SOL    HW224573   3.475   4.068   1.727 -0.0060 -0.3024  1.9881
 4313SOL     OW24574   1.841   3.286  16.268 -0.0164  0.0056  0.2592
 4313SOL    HW124575   1.831   3.371  16.226  1.0323 -0.0660 -0.1265
 4313SOL    HW224576   1.808   3.302  16.356 -0.0689  0.8142  0.0872
 4314SOL     OW24577   3.286   0.904  12.554 -0.4176 -0.1059  0.2496
 4314SOL    HW124578   3.381   0.905  12.548 -0.2985 -1.0716  2.0378
 4314SOL    HW224579   3.268   0.881  12.463  1.8545  1.2387 -0.5559
 4315SOL     OW24580   2.357   0.344  14.528  0.0218  0.2388 -0.0656
 4315SOL    HW124581   2.422   0.297  14.475 -0.2497 -0.0592 -0.1352
 4315SOL    HW224582   2.364   0.430  14.487 -0.4622 -0.3919 -1.4722
 4316SOL     OW24583   0.747   1.363   5.553  0.3973  0.2065 -0.0507
 4316SOL    HW124584   0.677   1.401   5.500  0.4025 -0.0682 -0.2572
 4316SOL    HW224585   0.735   1.414   5.633  0.4390 -2.5238  1.6978
 4317SOL     OW24586   0.140   3.175   5.680  0.1666 -0.6244  0.1635
 4317SOL    HW124587   0.102   3.209   5.762 -0.0650  0.7013 -0.4934
 4317SOL    HW224588   0.081   3.105   5.654 -0.0340  0.0807 -1.2954
 4318SOL     OW24589   1.653   1.278   3.672 -0.1635 -0.0716  0.2052
 4318SOL    HW124590   1.594   1.340   3.629  1.1220 -1.2667 -3.2901
 4318SOL    HW224591   1.588   1.215   3.702  1.6308 -2.2744 -0.4944
 4319SOL     OW24592   4.666   1.968   6.531 -0.6878 -0.9756 -0.2360
 4319SOL    HW124593   4.646   2.029   6.603 -0.3506 -0.7911 -0.2985
 4319SOL    HW224594   4.583   1.973   6.483 -1.2229  1.1984  0.8504
 4320SOL     OW24595   0.818   1.696   2.911 -0.0957 -0.9242  0.7691
 4320SOL    HW124596   0.731   1.721   2.942 -0.0071 -0.6044  0.7652
 4320SOL    HW224597   0.811   1.601   2.917 -1.0660 -0.9865 -1.0777
 4321SOL     OW24598   1.112   2.559  15.107  0.3648  0.0319  0.0441
 4321SOL    HW124599   1.019   2.574  15.094  0.2306 -2.7972 -2.2213
 4321SOL    HW224600   1.116   2.486  15.169 -0.7095  0.5318  0.6884
 4322SOL     OW24601   3.269   0.868   3.572 -1.2350 -0.6775 -0.2936
 4322SOL    HW124602   3.284   0.959   3.598 -0.8243 -0.1440 -2.3484
 4322SOL    HW224603   3.184   0.852   3.613  0.3480 -1.9320  2.4606
 4323SOL     OW24604   3.716   3.632   1.640  0.4677  0.3736  0.8121
 4323SOL    HW124605   3.744   3.562   1.580 -1.5064 -0.9720  1.4447
 4323SOL    HW224606   3.740   3.603   1.729 -1.3943 -0.8250  0.9309
 4324SOL     OW24607   1.579   3.209  12.787 -0.7334  0.3713 -0.0438
 4324SOL    HW124608   1.567   3.271  12.859  1.4011  1.1946 -0.3965
 4324SOL    HW224609   1.638   3.255  12.728  0.8997  1.3904  2.3851
 4325SOL     OW24610   3.730   2.004   6.716  0.4428  0.3607  0.2815
 4325SOL    HW124611   3.800   1.945   6.689 -1.6511 -1.0953 -1.9963
 4325SOL    HW224612   3.716   1.979   6.807 -0.0953  1.1911  0.4288
 4326SOL     OW24613   3.275   2.546   6.488 -0.0365 -0.1587 -0.7940
 4326SOL    HW124614   3.273   2.450   6.491 -2.9616  0.0406  3.5006
 4326SOL    HW224615   3.365   2.567   6.462  0.4899 -0.3432  0.8608
 4327SOL     OW24616   1.683   0.901   4.102 -0.2073  0.5110 -0.3270
 4327SOL    HW124617   1.777   0.917   4.099  0.3030 -2.0359  1.4634
 4327SOL    HW224618   1.682   0.808   4.080 -0.1922  0.7412 -1.2837
 4328SOL     OW24619   0.580   2.975   1.955  0.2351  0.2254 -0.1215
 4328SOL    HW124620   0.549   3.054   1.911 -2.3274 -0.3400  0.6972
 4328SOL    HW224621   0.674   2.990   1.944  0.3310  1.7101  2.7215
 4329SOL     OW24622   3.740   2.865   2.651 -0.4283 -0.0448  0.3185
 4329SOL    HW124623   3.715   2.801   2.584  2.2632  0.1194 -0.8428
 4329SOL    HW224624   3.662   2.916   2.672 -1.1183 -0.6946 -0.6525
 4330SOL     OW24625   4.192   4.075  14.706 -0.1530  0.0908  0.2069
 4330SOL    HW124626   4.231   4.019  14.773  0.1452 -1.4913 -1.3081
 4330SOL    HW224627   4.149   4.124  14.776 -1.8530 -1.5305  0.2817
 4331SOL     OW24628   4.265   0.789   3.141 -0.5749  0.1185  0.0763
 4331SOL    HW124629   4.276   0.750   3.228 -2.0788 -1.5893 -0.5007
 4331SOL    HW224630   4.275   0.876   3.178 -0.5149  0.0714  0.1736
 4332SOL     OW24631   1.612   0.178  14.253 -0.2874  0.5092  0.0192
 4332SOL    HW124632   1.577   0.182  14.342 -1.4014 -1.2175 -0.3310
 4332SOL    HW224633   1.539   0.137  14.208  0.1945  0.9357 -1.1369
 4333SOL     OW24634   3.926   0.368   3.197  0.1193  0.4317  0.0767
 4333SOL    HW124635   3.885   0.285   3.220  1.4056 -0.8374 -2.1617
 4333SOL    HW224636   3.883   0.390   3.114  1.2354  0.8099 -0.4065
 4334SOL     OW24637   0.596   0.748  13.858  0.7786  0.3755 -0.7712
 4334SOL    HW124638   0.660   0.677  13.867 -0.4269 -0.4372  1.2922
 4334SOL    HW224639   0.629   0.815  13.917  2.3338  0.1102 -1.3144
 4335SOL     OW24640   3.511   2.469   8.527 -0.1398 -0.2272 -0.4494
 4335SOL    HW124641   3.458   2.431   8.458 -1.2679  0.7774 -0.1297
 4335SOL    HW224642   3.452   2.443   8.598  0.9692  1.0336  0.9414
 4336SOL     OW24643   4.704   0.006   6.515 -0.5926 -0.1543 -0.6457
 4336SOL    HW124644   4.721   4.668   6.455 -1.0975 -0.5852 -0.2590
 4336SOL    HW224645   4.612   0.016   6.494 -0.0107  1.5873 -2.4312
 4337SOL     OW24646   2.096   0.588  13.672  0.0785 -0.7213 -0.5725
 4337SOL    HW124647   2.180   0.619  13.641  0.5940  0.3666  1.9357
 4337SOL    HW224648   2.109   0.498  13.642 -0.8653 -0.2937 -2.2731
 4338SOL     OW24649   0.705   3.321   8.638 -0.0315  0.2652 -0.0779
 4338SOL    HW124650   0.714   3.412   8.611  1.0925  0.9272  2.4669
 4338SOL    HW224651   0.758   3.281   8.570  0.9555  1.7018 -0.1546
 4339SOL     OW24652   0.739   2.578   8.340 -0.2494  0.5061  0.1210
 4339SOL    HW124653   0.677   2.517   8.380  1.2142 -0.1249  1.4333
 4339SOL    HW224654   0.779   2.531   8.266 -0.3934  0.8220 -0.1551
 4340SOL     OW24655   3.538   3.511   5.638 -0.1344 -0.0488 -0.3973
 4340SOL    HW124656   3.502   3.512   5.550  0.2543  1.4356 -0.5389
 4340SOL    HW224657   3.611   3.572   5.632 -0.9587  0.9330 -0.5267
 4341SOL     OW24658   0.918   0.044   8.151  0.2471 -0.0406 -0.1952
 4341SOL    HW124659   1.011   0.063   8.143 -0.4871  2.8304 -1.8940
 4341SOL    HW224660   0.877   0.105   8.089 -0.4879 -0.2482  0.0902
 4342SOL     OW24661   1.289   1.650  14.561  0.3711  0.8167  0.4485
 4342SOL    HW124662   1.215   1.592  14.578  0.8496 -0.6521 -2.4163
 4342SOL    HW224663   1.354   1.615  14.623  0.9909  2.1448  0.5427
 4343SOL     OW24664   2.769   1.176   2.838 -0.4382  0.6909 -0.0099
 4343SOL    HW124665   2.859   1.164   2.807 -1.1574  0.1646 -1.8687
 4343SOL    HW224666   2.765   1.271   2.845 -0.3372  0.5552  1.8133
 4344SOL     OW24667   1.491   0.230   5.178 -0.0138 -0.1895  0.0764
 4344SOL    HW124668   1.461   0.172   5.248 -0.9369 -0.4981 -0.5869
 4344SOL    HW224669   1.559   0.281   5.224  0.7117 -0.8070 -0.3054
 4345SOL     OW24670   3.895   1.888   2.942 -0.3976  0.0676 -0.3209
 4345SOL    HW124671   3.821   1.828   2.937 -0.7667  0.3440  1.8004
 4345SOL    HW224672   3.850   1.970   2.963 -0.7379 -0.7364  2.1039
 4346SOL     OW24673   0.803   4.042   9.877  0.0218 -0.3156 -0.1485
 4346SOL    HW124674   0.725   4.087   9.910 -0.1564  0.1759 -1.2407
 4346SOL    HW224675   0.860   4.048   9.954 -0.3176  3.3366 -0.1686
 4347SOL     OW24676   2.734   1.608  10.723 -0.5674 -0.2530 -0.0402
 4347SOL    HW124677   2.647   1.642  10.741 -0.0528  1.5811 -1.0632
 4347SOL    HW224678   2.781   1.649  10.796 -0.1786  0.7081 -0.8391
 4348SOL     OW24679   2.448   2.383   7.452  0.0858  0.8158  0.0912
 4348SOL    HW124680   2.373   2.368   7.395  0.4052  0.2176 -0.1741
 4348SOL    HW224681   2.462   2.299   7.496 -1.5763  1.0783  1.0986
 4349SOL     OW24682   3.146   2.669   9.069 -0.0182 -0.5522  0.1379
 4349SOL    HW124683   3.204   2.678   8.994 -2.7865  0.9303 -1.8457
 4349SOL    HW224684   3.198   2.715   9.135  1.4726  1.1715 -2.2451
 4350SOL     OW24685   0.815   3.529   4.600 -0.0072 -0.0064 -0.3908
 4350SOL    HW124686   0.905   3.498   4.608 -0.3347 -0.6313  0.8461
 4350SOL    HW224687   0.790   3.477   4.523  0.3401  1.3688 -1.4233
 4351SOL     OW24688   1.275   2.599   1.711 -0.1756  0.0563 -1.1375
 4351SOL    HW124689   1.209   2.534   1.687 -0.0972 -0.5158  0.2028
 4351SOL    HW224690   1.304   2.555   1.791 -2.0535  0.0948 -0.4297
 4352SOL     OW24691   0.149   0.609  15.307 -0.4683  0.2546 -0.0330
 4352SOL    HW124692   0.243   0.599  15.323 -0.9040 -2.2331  0.9296
 4352SOL    HW224693   0.138   0.694  15.350  0.5187  1.6740 -2.5943
 4353SOL     OW24694   0.283   2.260   2.339  0.0430  0.1653  0.2341
 4353SOL    HW124695   0.311   2.204   2.267 -1.3618 -0.4764  0.1945
 4353SOL    HW224696   0.363   2.297   2.378 -0.9683  1.8593  0.7156
 4354SOL     OW24697   4.360   2.724  13.876 -0.3064 -0.3672 -0.1411
 4354SOL    HW124698   4.331   2.726  13.785  1.8227  0.2270 -0.8184
 4354SOL    HW224699   4.338   2.811  13.911 -2.6256 -1.0073  0.0024
 4355SOL     OW24700   4.332   2.475   4.296  0.7407  0.2027  0.0679
 4355SOL    HW124701   4.327   2.428   4.379 -0.2567  1.2256  0.5819
 4355SOL    HW224702   4.268   2.546   4.304 -1.4002 -1.3737 -3.0397
 4356SOL     OW24703   4.022   1.377   3.710 -0.1262 -0.2948 -0.0831
 4356SOL    HW124704   3.948   1.405   3.763  0.2060 -1.3011  0.9202
 4356SOL    HW224705   3.974   1.320   3.650 -0.6342  0.1950 -0.1465
 4357SOL     OW24706   0.294   1.315   2.954 -0.0139  0.0348  0.2465
 4357SOL    HW124707   0.213   1.338   3.000  0.9764  0.2756  1.8748
 4357SOL    HW224708   0.250   1.248   2.902 -2.0829  1.7558 -0.2466
 4358SOL     OW24709   2.186   1.007   1.995 -0.9508 -0.2135 -0.1232
 4358SOL    HW124710   2.246   1.075   1.964  0.9329 -0.8401  2.1827
 4358SOL    HW224711   2.148   0.970   1.915 -3.3084  0.0780  0.8738
 4359SOL     OW24712   4.508   1.850   7.870 -0.2469 -0.5882  0.1304
 4359SOL    HW124713   4.486   1.802   7.950 -0.0200 -0.0605  0.5150
 4359SOL    HW224714   4.421   1.844   7.831 -0.7253 -0.2252  1.1326
 4360SOL     OW24715   1.351   2.850   6.704  0.5351  0.1570 -0.3976
 4360SOL    HW124716   1.278   2.871   6.762  0.4675 -1.8419  0.2429
 4360SOL    HW224717   1.342   2.755   6.711  2.0122  0.0382 -0.1702
 4361SOL     OW24718   1.111   1.981   4.873  0.3322  0.0390 -0.0056
 4361SOL    HW124719   1.179   1.974   4.806 -0.4160 -0.7005 -0.6871
 4361SOL    HW224720   1.037   1.967   4.814  0.3764 -0.1865 -0.0096
 4362SOL     OW24721   3.439   4.281   5.742 -0.3557 -0.1327 -0.0422
 4362SOL    HW124722   3.351   4.256   5.715 -0.6140 -1.2463  1.8089
 4362SOL    HW224723   3.464   4.346   5.677 -2.9462  0.6594 -0.2387
 4363SOL     OW24724   0.936   4.015   0.460 -0.0963 -0.8881 -0.5143
 4363SOL    HW124725   1.009   4.040   0.403 -0.0544 -0.5470 -0.3108
 4363SOL    HW224726   0.975   3.962   0.529  0.4975  1.2951  0.8273
 4364SOL     OW24727   3.841   4.338   5.392  0.0227  0.3433  0.0825
 4364SOL    HW124728   3.872   4.404   5.455 -2.5367  2.6645 -1.1052
 4364SOL    HW224729   3.924   4.298   5.365 -0.5847 -0.1495 -1.0561
 4365SOL     OW24730   4.469   0.914   3.782 -0.1920 -0.6451 -0.3976
 4365SOL    HW124731   4.438   0.830   3.749 -1.9473 -0.0941 -0.1701
 4365SOL    HW224732   4.434   0.910   3.871 -0.2171 -0.0790 -0.3827
 4366SOL     OW24733   3.705   4.207  15.197 -0.0550 -0.5746  0.3678
 4366SOL    HW124734   3.653   4.160  15.262  2.2717 -1.7303  1.3981
 4366SOL    HW224735   3.637   4.249  15.144  0.5830  1.1026  0.8820
 4367SOL     OW24736   0.319   3.205   6.348  0.3580 -0.5661 -0.1391
 4367SOL    HW124737   0.343   3.113   6.359  0.8829 -0.2355  1.5574
 4367SOL    HW224738   0.361   3.225   6.264 -1.0970  0.9598 -0.5069
 4368SOL     OW24739   4.225   0.665   7.611  0.1609 -0.2050 -0.1332
 4368SOL    HW124740   4.221   0.760   7.601  1.8424  0.1474  2.5850
 4368SOL    HW224741   4.268   0.652   7.695 -1.4034  1.5592  0.9343
 4369SOL     OW24742   1.948   2.243  13.505 -0.4473 -0.0362 -0.0346
 4369SOL    HW124743   2.026   2.298  13.516  0.2042 -0.9935  0.1734
 4369SOL    HW224744   1.929   2.248  13.411  0.8349 -0.0143 -0.2960
 4370SOL     OW24745   1.536   2.749   2.230 -0.2534  0.5738  0.5267
 4370SOL    HW124746   1.558   2.764   2.138 -1.4907  0.5976  0.2326
 4370SOL    HW224747   1.567   2.659   2.227  1.0021  0.9091  3.0316
 4371SOL     OW24748   1.378   2.148  16.567  0.1201  0.2557  0.5191
 4371SOL    HW124749   1.465   2.157  16.607 -0.4539  1.2232  1.5620
 4371SOL    HW224750   1.344   2.065  16.601 -1.2045 -0.0880 -1.7203
 4372SOL     OW24751   2.523   1.809  16.117  0.4390  0.3162 -0.4282
 4372SOL    HW124752   2.435   1.773  16.103  0.0732  0.8083  0.5270
 4372SOL    HW224753   2.507   1.886  16.171 -1.0458  1.2487 -2.1964
 4373SOL     OW24754   4.173   0.871   2.463  0.3353 -0.2033  0.0831
 4373SOL    HW124755   4.215   0.794   2.501  2.1143 -0.0988 -1.6652
 4373SOL    HW224756   4.249   0.930   2.459  0.9159 -0.8334  1.7817
 4374SOL     OW24757   0.151   2.239   2.718 -0.2742 -0.2256  0.0023
 4374SOL    HW124758   0.224   2.279   2.766  0.1075  0.0385 -0.7894
 4374SOL    HW224759   0.086   2.308   2.728 -1.0425 -0.6551 -2.0240
 4375SOL     OW24760   1.462   2.629   4.750  0.3240  0.0177 -0.4384
 4375SOL    HW124761   1.507   2.608   4.668  0.8382  1.3237 -0.4827
 4375SOL    HW224762   1.387   2.677   4.714 -1.4596 -2.0417  0.5380
 4376SOL     OW24763   1.885   1.281   4.465  0.2547  0.5623  0.4142
 4376SOL    HW124764   1.979   1.296   4.472  0.5801 -1.5176  0.6873
 4376SOL    HW224765   1.901   1.212   4.401 -1.2771 -1.7125  2.4638
 4377SOL     OW24766   1.543   4.155   8.389  0.3797 -0.1841  0.4704
 4377SOL    HW124767   1.615   4.210   8.360  1.1010 -1.1667  0.3958
 4377SOL    HW224768   1.588   4.072   8.406  0.6297 -0.3833 -1.1111
 4378SOL     OW24769   2.535   2.279   3.903 -0.0424  0.0176  0.7192
 4378SOL    HW124770   2.476   2.354   3.913 -0.3734  0.0669 -1.4392
 4378SOL    HW224771   2.515   2.248   3.814 -0.0141  2.7347 -0.2421
 4379SOL     OW24772   4.559   0.626  14.874  0.6859 -0.3997 -0.0690
 4379SOL    HW124773   4.592   0.623  14.964  1.1782 -0.0447 -0.2328
 4379SOL    HW224774   4.525   0.715  14.871  2.5795  0.3139 -0.2415
 4380SOL     OW24775   0.798   0.287  10.910  0.1401 -0.4480 -0.3176
 4380SOL    HW124776   0.891   0.305  10.892 -0.3480 -1.0880 -3.3884
 4380SOL    HW224777   0.769   0.378  10.915 -0.2868 -0.6424  0.7221
 4381SOL     OW24778   2.774   2.989   4.107  0.0922  0.2540 -0.7005
 4381SOL    HW124779   2.698   2.979   4.049 -0.4906 -1.0270  0.2893
 4381SOL    HW224780   2.739   3.059   4.163  0.9521 -1.0192  1.3831
 4382SOL     OW24781   0.507   2.696   5.054  0.9731  0.5114  0.4817
 4382SOL    HW124782   0.501   2.720   4.961 -0.1864 -1.0205  0.1694
 4382SOL    HW224783   0.590   2.648   5.049  0.9137  0.2367  2.1695
 4383SOL     OW24784   2.149   4.153   1.809  0.3171 -0.0522 -0.0387
 4383SOL    HW124785   2.122   4.216   1.742  2.4803 -0.5882 -1.4340
 4383SOL    HW224786   2.069   4.106   1.830  1.9946 -1.7438  2.6110
 4384SOL     OW24787   3.528   2.245   7.618  0.6447  0.2229 -0.0411
 4384SOL    HW124788   3.452   2.194   7.592  1.5230 -1.7826  1.3318
 4384SOL    HW224789   3.599   2.181   7.626  0.4958  0.1159  0.3916
 4385SOL     OW24790   2.583   1.839   2.042 -0.2451 -0.4849 -0.2096
 4385SOL    HW124791   2.613   1.874   2.125 -0.6661 -0.0715 -0.2285
 4385SOL    HW224792   2.548   1.752   2.060  3.0352 -1.2980  2.1373
 4386SOL     OW24793   0.984   2.398   2.076 -0.3928  0.2150 -0.3924
 4386SOL    HW124794   1.076   2.385   2.098 -0.4108  0.5619 -0.1083
 4386SOL    HW224795   0.971   2.486   2.111  1.3316 -0.1944  1.2555
 4387SOL     OW24796   1.395   3.534   3.109  0.4624  0.0237  0.2471
 4387SOL    HW124797   1.416   3.479   3.185 -0.1483  0.9824  1.0941
 4387SOL    HW224798   1.306   3.506   3.087  0.4763  0.8249 -0.8251
 4388SOL     OW24799   2.961   2.712   6.975 -0.3760  0.1609  0.2107
 4388SOL    HW124800   2.919   2.679   7.054  0.5204 -2.2367 -0.3294
 4388SOL    HW224801   2.936   2.648   6.909 -1.3616  0.8422 -0.0808
 4389SOL     OW24802   3.409   3.900   5.593 -0.2035 -0.0651  0.7004
 4389SOL    HW124803   3.329   3.850   5.580 -0.7943  0.7149  1.4295
 4389SOL    HW224804   3.469   3.858   5.531 -2.6699 -1.2429 -0.8817
 4390SOL     OW24805   3.102   2.764   9.464 -0.6535 -0.1744 -0.7322
 4390SOL    HW124806   3.019   2.811   9.458 -0.3948  0.2116 -1.3064
 4390SOL    HW224807   3.065   2.687   9.419 -0.3588 -0.3572 -0.6632
 4391SOL     OW24808   2.475   0.014   3.102 -0.1704 -0.4245  0.1011
 4391SOL    HW124809   2.567   4.724   3.093  0.0224  0.6088 -0.9109
 4391SOL    HW224810   2.453   4.694   3.176 -0.8117  1.6845  1.4869
 4392SOL     OW24811   1.591   0.969   2.574  0.0039 -0.2155  0.5224
 4392SOL    HW124812   1.666   0.974   2.632  1.0425  1.1629 -0.9403
 4392SOL    HW224813   1.599   1.048   2.520 -0.5705 -0.1267  0.5620
 4393SOL     OW24814   4.694   2.705  15.664  0.2793  0.1914 -0.4852
 4393SOL    HW124815   4.661   2.748  15.743  0.9384 -2.5224  1.2629
 4393SOL    HW224816   0.051   2.732  15.660  0.5067 -0.5545 -0.3901
 4394SOL     OW24817   1.581   1.042   2.064  0.3281 -0.4276  0.5792
 4394SOL    HW124818   1.592   1.101   2.139  0.3061  2.0854 -1.3739
 4394SOL    HW224819   1.663   0.993   2.073  1.4671  1.3767  0.1266
 4395SOL     OW24820   2.272   3.764   2.972 -0.5652 -0.3101  0.2649
 4395SOL    HW124821   2.339   3.696   2.963 -0.8184 -0.5282  0.0395
 4395SOL    HW224822   2.198   3.722   2.928  0.5140 -2.0269  0.1340
 4396SOL     OW24823   2.639   0.193   4.143  0.3400 -0.1786 -0.3543
 4396SOL    HW124824   2.652   0.171   4.051 -0.4209 -0.6184 -0.3594
 4396SOL    HW224825   2.559   0.146   4.167  0.8023 -1.3926 -1.1800
 4397SOL     OW24826   0.614   0.141   6.716 -0.0268  0.1769 -0.2517
 4397SOL    HW124827   0.609   0.046   6.727 -0.7876  0.3360  0.7608
 4397SOL    HW224828   0.667   0.174   6.789  0.4091  0.5049 -0.7163
 4398SOL     OW24829   3.637   1.268   6.931 -0.1365 -0.3894  0.2093
 4398SOL    HW124830   3.595   1.348   6.900 -0.3623 -2.1786 -4.1640
 4398SOL    HW224831   3.569   1.237   6.990 -3.1318  3.6372 -1.0944
 4399SOL     OW24832   1.309   2.564   0.988  0.3946  0.3291  0.3041
 4399SOL    HW124833   1.286   2.472   0.999 -1.4065  0.6280 -0.7636
 4399SOL    HW224834   1.272   2.582   0.901 -0.2576 -0.0278  0.5065
 4400SOL     OW24835   3.788   2.758   5.417  0.2250 -0.3362  0.2576
 4400SOL    HW124836   3.826   2.737   5.331 -0.4659  0.1697 -0.1694
 4400SOL    HW224837   3.766   2.850   5.410 -1.4201 -0.7941 -0.5452
 4401SOL     OW24838   2.536   2.992   1.932  0.0766 -0.1855  0.7990
 4401SOL    HW124839   2.530   3.068   1.991  0.8947  0.1866  0.4031
 4401SOL    HW224840   2.564   2.919   1.987 -1.9838 -0.2433  1.7847
 4402SOL     OW24841   3.152   0.230  17.621  0.0955  0.5569 -0.3222
 4402SOL    HW124842   3.243   0.204  17.633 -0.4191 -0.4181  1.4187
 4402SOL    HW224843   3.144   0.295  17.690  0.1432  1.0286 -0.7568
 4403SOL     OW24844   2.464   2.604   3.151  0.0759 -0.3539 -0.0791
 4403SOL    HW124845   2.535   2.573   3.094  2.5225  1.0727  2.1905
 4403SOL    HW224846   2.453   2.697   3.130 -1.3323 -0.4363  0.3401
 4404SOL     OW24847   0.427   0.038   8.086 -0.2634  0.4001 -0.2638
 4404SOL    HW124848   0.425   0.068   7.995  0.6490  0.3128 -0.3154
 4404SOL    HW224849   0.382   0.112   8.126  0.6402  0.6819  0.2340
 4405SOL     OW24850   0.632   3.578  15.784  0.1134  0.2651  0.1162
 4405SOL    HW124851   0.645   3.506  15.722  0.2485 -0.1739  0.6546
 4405SOL    HW224852   0.537   3.586  15.775  0.0416  1.4510  2.0660
 4406SOL     OW24853   3.494   4.628   5.837 -0.1527 -0.2586  0.0767
 4406SOL    HW124854   3.429   4.576   5.885 -0.0338  0.7989  1.3931
 4406SOL    HW224855   3.497   4.591   5.749  1.0638 -2.1488  0.8913
 4407SOL     OW24856   3.518   4.323   7.749  0.4422  0.5081 -0.1017
 4407SOL    HW124857   3.580   4.391   7.721 -2.2481  3.0270  0.1410
 4407SOL    HW224858   3.558   4.294   7.831  0.9983  0.8721 -0.2402
 4408SOL     OW24859   0.724   4.362   5.777  0.8065  0.5219 -0.5683
 4408SOL    HW124860   0.784   4.300   5.819 -2.1677 -0.0476  2.8171
 4408SOL    HW224861   0.714   4.315   5.694  1.6141 -3.1596  1.4216
 4409SOL     OW24862   3.279   2.260   5.409  0.3295 -0.2200 -0.3379
 4409SOL    HW124863   3.205   2.316   5.384  0.4765 -0.2153 -0.7638
 4409SOL    HW224864   3.235   2.194   5.463 -1.1552  0.3081 -0.8981
 4410SOL     OW24865   0.622   2.318   6.997 -0.2379 -0.0365 -0.2963
 4410SOL    HW124866   0.711   2.352   7.007 -0.1007 -0.1626 -1.1053
 4410SOL    HW224867   0.573   2.401   7.001 -1.4573 -0.7240 -1.0128
 4411SOL     OW24868   3.944   4.150   0.891 -0.1481 -0.2537  0.1198
 4411SOL    HW124869   4.033   4.170   0.920 -1.2439 -0.5092  3.5746
 4411SOL    HW224870   3.952   4.183   0.801  0.7130  0.8615  0.6074
 4412SOL     OW24871   0.914   2.201   5.290 -0.1825 -0.4087  0.1854
 4412SOL    HW124872   0.887   2.133   5.352  0.9886 -1.2195 -0.2067
 4412SOL    HW224873   0.854   2.270   5.319  1.2686  0.0756  2.0706
 4413SOL     OW24874   1.377   1.478  10.540 -0.2976  0.1260  0.2887
 4413SOL    HW124875   1.449   1.418  10.561  0.1476  0.3958 -0.4623
 4413SOL    HW224876   1.426   1.553  10.507  2.9965 -1.6649  1.0687
 4414SOL     OW24877   4.484   3.622   9.166 -0.0840  0.0591 -0.9672
 4414SOL    HW124878   4.451   3.656   9.249 -0.8853 -2.8215 -0.1186
 4414SOL    HW224879   4.492   3.527   9.177 -1.8784  0.1459  1.2283
 4415SOL     OW24880   0.630   3.094   3.625 -0.1679 -0.0818  0.2608
 4415SOL    HW124881   0.581   3.035   3.567 -0.1625  0.0120  0.1595
 4415SOL    HW224882   0.667   3.032   3.687 -0.7264  2.3876  3.1029
 4416SOL     OW24883   0.528   3.294   5.830 -0.2952  1.0810 -0.7103
 4416SOL    HW124884   0.462   3.226   5.821  0.1614  0.6707 -0.9918
 4416SOL    HW224885   0.513   3.332   5.744  0.7527  0.8446 -1.0025
 4417SOL     OW24886   0.636   1.129   6.785 -0.0572  0.5794 -0.5975
 4417SOL    HW124887   0.688   1.057   6.750 -3.4659 -1.8894 -0.5205
 4417SOL    HW224888   0.586   1.080   6.850  1.7679  0.2393  0.5576
 4418SOL     OW24889   3.869   3.365   7.985 -0.7319 -0.2208  0.6578
 4418SOL    HW124890   3.870   3.306   7.910 -3.0760 -0.4372  0.7744
 4418SOL    HW224891   3.962   3.380   8.003 -0.8897  2.4284 -0.6068
 4419SOL     OW24892   2.260   2.987   6.353  0.4403  0.2098 -0.4712
 4419SOL    HW124893   2.235   2.932   6.428  0.2519  0.8547 -0.0667
 4419SOL    HW224894   2.308   2.927   6.295  0.3470 -0.1898 -0.1397
 4420SOL     OW24895   1.229   1.955   5.108 -0.1846 -0.3681  0.3169
 4420SOL    HW124896   1.292   2.027   5.116  0.7550 -0.8729 -2.2454
 4420SOL    HW224897   1.189   1.985   5.025  1.2998  0.4931 -0.0838
 4421SOL     OW24898   0.852   4.464  10.053  0.0877 -0.2104 -0.4086
 4421SOL    HW124899   0.766   4.427  10.034 -0.1988  1.4262 -2.3828
 4421SOL    HW224900   0.826   4.532  10.114  0.2690  1.2957 -2.0131
 4422SOL     OW24901   3.133   3.795  10.439 -0.0386 -0.5343 -0.2781
 4422SOL    HW124902   3.080   3.795  10.520  0.1232  1.7296 -0.1514
 4422SOL    HW224903   3.073   3.851  10.389  0.7630  1.3307  0.8329
 4423SOL     OW24904   2.647   2.560  17.507 -0.1371  0.1914 -0.4254
 4423SOL    HW124905   2.702   2.535  17.582 -0.2067 -0.8493 -0.7247
 4423SOL    HW224906   2.583   2.489  17.502 -1.0258  0.9007  0.7479
 4424SOL     OW24907   4.598   3.994   8.671  0.2050 -0.3773  0.3088
 4424SOL    HW124908   4.621   3.903   8.689 -1.1050 -0.7135  0.2703
 4424SOL    HW224909   4.506   3.998   8.696  0.3866  2.1308  0.5872
 4425SOL     OW24910   1.538   0.682   8.142 -0.2920 -0.0032  0.0096
 4425SOL    HW124911   1.612   0.621   8.152 -0.9246 -0.8660 -0.5235
 4425SOL    HW224912   1.478   0.635   8.084 -0.5731  1.5726 -0.9564
 4426SOL     OW24913   1.340   1.660   8.236  0.3632  0.0152 -0.3103
 4426SOL    HW124914   1.407   1.597   8.264 -2.1397 -1.8892  1.4621
 4426SOL    HW224915   1.307   1.690   8.321  2.0514 -0.4506  0.5127
 4427SOL     OW24916   2.464   2.607   0.867 -0.6246  0.9224 -0.0610
 4427SOL    HW124917   2.441   2.698   0.885 -0.3459  1.4831 -2.6370
 4427SOL    HW224918   2.386   2.573   0.912 -0.2923 -0.8383 -0.8101
 4428SOL     OW24919   3.075   0.669   4.562 -0.5723 -0.1196 -0.1145
 4428SOL    HW124920   3.041   0.754   4.536 -1.2359  0.0766  1.3637
 4428SOL    HW224921   3.126   0.704   4.636 -1.3100 -1.5789  1.0980
 4429SOL     OW24922   0.819   2.948   0.977 -0.2721  0.0326  0.5476
 4429SOL    HW124923   0.740   2.898   0.954  0.3905  0.0869 -1.7508
 4429SOL    HW224924   0.815   2.961   1.072  1.3736  1.0442  0.4730
 4430SOL     OW24925   2.773   2.319   5.529  0.0594 -0.2260 -0.1031
 4430SOL    HW124926   2.781   2.410   5.559  1.2419 -0.1399 -0.6918
 4430SOL    HW224927   2.816   2.278   5.604  0.7738 -0.0921 -0.4456
 4431SOL     OW24928   2.580   1.514   5.595  0.3785 -0.5205  0.0881
 4431SOL    HW124929   2.567   1.572   5.670  0.5666  1.2049 -1.1884
 4431SOL    HW224930   2.547   1.574   5.527 -0.1889  1.1297  1.8073
 4432SOL     OW24931   1.614   3.927  13.816 -0.2022  0.3523 -0.4954
 4432SOL    HW124932   1.533   3.888  13.782  0.6919 -2.0209  0.0794
 4432SOL    HW224933   1.596   3.944  13.908 -2.0520  0.1018 -0.8110
 4433SOL     OW24934   2.012   2.567   7.609 -0.4432  0.3856 -0.0632
 4433SOL    HW124935   2.031   2.571   7.516 -3.7664 -1.6585 -0.8116
 4433SOL    HW224936   1.958   2.646   7.613 -1.0867 -0.1523  2.0051
 4434SOL     OW24937   2.921   3.671   3.972 -0.1113  0.9008 -0.2118
 4434SOL    HW124938   2.984   3.724   3.922 -1.1905  2.6656  0.2921
 4434SOL    HW224939   2.893   3.605   3.908  0.6851 -0.1227  0.4967
 4435SOL     OW24940   4.287   2.154   9.471  0.3020 -0.0989  0.3592
 4435SOL    HW124941   4.207   2.153   9.418  0.2649  0.4895  0.4085
 4435SOL    HW224942   4.259   2.085   9.532 -1.6879  0.8001  0.4471
 4436SOL     OW24943   0.969   3.649   2.197 -0.7957  0.1899  0.3098
 4436SOL    HW124944   0.917   3.577   2.233 -0.7703 -0.4411 -0.9333
 4436SOL    HW224945   1.041   3.643   2.260 -0.0577  1.0860 -0.4514
 4437SOL     OW24946   4.701   3.438   2.126 -0.8302 -0.3965  0.1110
 4437SOL    HW124947   4.653   3.462   2.205  1.8516  1.4553  1.1743
 4437SOL    HW224948   0.022   3.367   2.159 -0.4588  0.9279  2.3133
 4438SOL     OW24949   1.444   4.321   8.068 -0.8085 -0.3324  0.5997
 4438SOL    HW124950   1.379   4.369   8.016  0.7968  2.0462  0.7664
 4438SOL    HW224951   1.448   4.242   8.013  3.4983  1.1123 -1.1727
 4439SOL     OW24952   0.205   0.829   2.846 -0.0742 -0.1799  0.1284
 4439SOL    HW124953   0.145   0.779   2.901  0.8154  0.0554  1.3238
 4439SOL    HW224954   0.283   0.846   2.900  0.7227  0.8244 -1.3342
 4440SOL     OW24955   3.478   3.604   6.505  0.2264 -0.6450  0.1644
 4440SOL    HW124956   3.414   3.651   6.558 -0.1463  0.0703 -0.9166
 4440SOL    HW224957   3.560   3.629   6.548  1.4493 -1.8972 -1.3963
 4441SOL     OW24958   0.178   0.151   8.368 -0.8130 -0.1029  0.7350
 4441SOL    HW124959   0.153   0.062   8.344 -0.9273  0.3898 -1.0013
 4441SOL    HW224960   0.202   0.138   8.460  0.8183 -2.0637  0.0190
 4442SOL     OW24961   4.434   3.691  11.170 -0.1219  0.0473 -0.5350
 4442SOL    HW124962   4.403   3.776  11.200  1.1183  0.5663 -0.6978
 4442SOL    HW224963   4.456   3.642  11.249 -0.7758  1.3305  0.4399
 4443SOL     OW24964   2.023   1.789   3.946 -0.0159 -0.0229  0.3857
 4443SOL    HW124965   2.074   1.820   4.021 -0.7297 -1.0895  1.3019
 4443SOL    HW224966   1.933   1.797   3.979 -0.0769  0.1881  0.1680
 4444SOL     OW24967   2.627   1.243   9.044 -0.3320  0.4249 -0.3498
 4444SOL    HW124968   2.575   1.164   9.034  1.3843 -0.1555 -4.6865
 4444SOL    HW224969   2.590   1.292   8.971 -1.7876 -0.8934 -0.4805
 4445SOL     OW24970   3.712   1.110   7.319  0.4567  0.0564 -0.8111
 4445SOL    HW124971   3.686   1.128   7.410  0.1894 -1.4640 -0.5910
 4445SOL    HW224972   3.771   1.039   7.343  1.1409  0.6334 -0.7855
 4446SOL     OW24973   0.122   0.976   5.174 -0.1066  0.1986 -0.3601
 4446SOL    HW124974   0.118   1.016   5.087 -0.9121 -0.6729 -0.7218
 4446SOL    HW224975   0.055   0.909   5.161 -1.2636  1.0818  1.1736
 4447SOL     OW24976   3.431   4.079   0.350 -0.0412 -0.3910 -0.0510
 4447SOL    HW124977   3.495   4.148   0.366  0.1241 -0.5176 -0.1682
 4447SOL    HW224978   3.346   4.122   0.339  1.2897  2.0130 -0.8008
 4448SOL     OW24979   0.223   1.238   3.570 -0.0083 -0.0545  0.3666
 4448SOL    HW124980   0.243   1.243   3.476 -0.6422  0.3795  0.2541
 4448SOL    HW224981   0.305   1.209   3.609 -0.0029  1.8033  1.7426
 4449SOL     OW24982   3.279   4.476   8.255  0.3510 -0.5958  0.3275
 4449SOL    HW124983   3.288   4.431   8.171 -2.7610  1.0172 -0.8766
 4449SOL    HW224984   3.216   4.542   8.225  0.8327 -1.2502 -2.1403
 4450SOL     OW24985   1.359   2.108   9.211 -0.1801  0.3359  0.1289
 4450SOL    HW124986   1.320   2.179   9.262 -0.4786  0.7936 -0.7405
 4450SOL    HW224987   1.294   2.040   9.229  2.8319 -2.0238  2.2329
 4451SOL     OW24988   3.775   3.174   7.478 -0.3023  0.2045 -0.0736
 4451SOL    HW124989   3.706   3.110   7.494  0.1694  0.0444  1.3483
 4451SOL    HW224990   3.798   3.159   7.386  1.5288 -3.1084  0.9197
 4452SOL     OW24991   0.934   0.182   2.410  0.4175 -0.1128  0.0279
 4452SOL    HW124992   1.014   0.170   2.460  0.9251  0.0250 -0.7552
 4452SOL    HW224993   0.891   0.098   2.427 -0.2703  0.0920 -0.7152
 4453SOL     OW24994   0.290   3.161  12.806  0.1942  0.0269 -0.2954
 4453SOL    HW124995   0.217   3.133  12.861  2.1393 -1.2892  1.6075
 4453SOL    HW224996   0.346   3.086  12.825 -0.1785  0.2184  1.5810
 4454SOL     OW24997   3.028   2.354   2.087 -0.2695  0.2009  0.2850
 4454SOL    HW124998   2.999   2.399   2.008  0.6544 -1.2168 -0.8754
 4454SOL    HW224999   3.033   2.263   2.058  1.2524 -0.0791  1.3992
 4455SOL     OW25000   3.734   3.061   0.315  0.0601 -0.0595 -0.2767
 4455SOL    HW125001   3.667   3.118   0.277  0.6174  0.6345 -0.2145
 4455SOL    HW225002   3.717   3.077   0.408 -0.7708  0.1475 -0.4572
 4456SOL     OW25003   3.616   2.605  11.294  1.0234  0.2283  0.2056
 4456SOL    HW125004   3.590   2.697  11.301 -2.4335 -0.8356  1.0895
 4456SOL    HW225005   3.606   2.590  11.200 -2.0950  0.2937  0.5261
 4457SOL     OW25006   3.966   4.295   7.170 -0.2679 -0.4519  0.4364
 4457SOL    HW125007   4.052   4.301   7.128 -0.7075  1.7307 -0.1391
 4457SOL    HW225008   3.906   4.327   7.103  2.5503  1.3313 -1.2394
 4458SOL     OW25009   1.899   3.099   7.134 -0.0355 -0.4472  0.1585
 4458SOL    HW125010   1.841   3.030   7.166 -1.5055  1.0585  0.7471
 4458SOL    HW225011   1.953   3.124   7.209  1.8515 -0.9873 -0.9871
 4459SOL     OW25012   2.276   1.249  17.204 -0.2532 -0.0380  0.3428
 4459SOL    HW125013   2.338   1.318  17.180  1.1544 -1.4109 -0.0060
 4459SOL    HW225014   2.227   1.302  17.267 -0.8532 -0.2025  0.0129
 4460SOL     OW25015   1.891   3.699   8.678  0.0176  0.4047  0.3140
 4460SOL    HW125016   1.881   3.682   8.772 -3.1234 -0.4571 -0.1765
 4460SOL    HW225017   1.843   3.782   8.673 -0.2549  0.1875 -0.6706
 4461SOL     OW25018   3.520   3.646   3.973  0.3237 -0.4062  0.2887
 4461SOL    HW125019   3.607   3.680   3.951  1.1583 -0.5343  3.4177
 4461SOL    HW225020   3.481   3.726   4.009 -0.9805  0.3220 -2.6951
 4462SOL     OW25021   0.752   2.170   0.021  0.3776 -0.0680  0.1984
 4462SOL    HW125022   0.837   2.152  17.721 -0.7946 -1.7978 -1.5559
 4462SOL    HW225023   0.772   2.236   0.087 -0.4934 -1.1415  1.5392
 4463SOL     OW25024   3.706   4.608   5.069 -0.1446  0.3485 -0.3792
 4463SOL    HW125025   3.795   4.634   5.095  0.2082 -1.9071  0.6639
 4463SOL    HW225026   3.722   4.514   5.069  0.5223  0.4580  0.7786
 4464SOL     OW25027   4.170   1.930   1.626  0.4095  0.3981  0.2644
 4464SOL    HW125028   4.104   1.958   1.689  0.2453 -2.0237  1.1878
 4464SOL    HW225029   4.224   2.008   1.622 -2.4710  2.5043  2.2939
 4465SOL     OW25030   0.498   0.912   5.275 -0.5145  0.8634  0.3622
 4465SOL    HW125031   0.545   0.954   5.347  2.6691 -1.3073 -0.4582
 4465SOL    HW225032   0.461   0.837   5.323  0.4112 -0.2722 -0.7212
 4466SOL     OW25033   1.110   0.239   4.558  0.1129 -0.7255  0.2911
 4466SOL    HW125034   1.086   0.204   4.472  0.4784  0.4137 -0.2698
 4466SOL    HW225035   1.123   0.154   4.599 -0.5591 -0.9649  0.0105
 4467SOL     OW25036   0.401   3.802   6.513 -0.0411  0.4395 -0.7190
 4467SOL    HW125037   0.480   3.851   6.491  1.0342 -1.1229 -0.2734
 4467SOL    HW225038   0.381   3.764   6.427 -0.3603  1.0471 -0.9192
 4468SOL     OW25039   3.294   1.386   4.183 -0.2311 -0.0951  0.1587
 4468SOL    HW125040   3.372   1.409   4.234  0.3543 -0.0543 -0.7363
 4468SOL    HW225041   3.238   1.374   4.259  0.8198 -0.8062  0.8284
 4469SOL     OW25042   2.552   2.933   8.913 -0.5248  0.0602  0.2580
 4469SOL    HW125043   2.570   2.876   8.837 -1.7857 -1.7617  1.3286
 4469SOL    HW225044   2.469   2.900   8.947 -0.8204  0.9115  0.3565
 4470SOL     OW25045   3.370   3.368   1.596  0.5384 -0.3943  0.1256
 4470SOL    HW125046   3.403   3.297   1.540 -0.3254  0.5209 -1.5582
 4470SOL    HW225047   3.317   3.421   1.536 -0.0908 -0.0574  0.9953
 4471SOL     OW25048   4.525   0.180   4.426  0.4373  0.8624  0.4508
 4471SOL    HW125049   4.449   0.128   4.399  0.2045  1.1943  0.4571
 4471SOL    HW225050   4.508   0.199   4.518 -0.6626  1.3120  0.1708
 4472SOL     OW25051   3.079   2.644   3.613 -0.3642 -0.4033 -0.1427
 4472SOL    HW125052   3.168   2.610   3.608  0.1496  0.7413  1.6419
 4472SOL    HW225053   3.091   2.728   3.657 -0.6357 -0.5745  0.2650
 4473SOL     OW25054   0.985   0.235   3.532  0.0282  0.0394  0.2706
 4473SOL    HW125055   1.049   0.288   3.580 -0.7134  0.4141  0.8316
 4473SOL    HW225056   0.944   0.302   3.476 -0.5202 -1.2409 -0.8653
 4474SOL     OW25057   3.665   1.029   9.334  0.5629 -0.4038  0.2831
 4474SOL    HW125058   3.624   1.030   9.421 -1.6623  2.4938 -0.7567
 4474SOL    HW225059   3.667   1.123   9.312  0.4765  0.2552  3.0952
 4475SOL     OW25060   1.561   0.271   2.782 -0.2659  0.0097 -0.0383
 4475SOL    HW125061   1.594   0.183   2.762 -0.7905 -0.0945 -0.4436
 4475SOL    HW225062   1.528   0.250   2.869 -1.3803  0.5174 -0.3503
 4476SOL     OW25063   2.889   2.994   8.472 -0.2873  0.0825 -0.4375
 4476SOL    HW125064   2.983   2.977   8.484 -0.2608  0.2765 -0.3532
 4476SOL    HW225065   2.881   3.008   8.378  1.1923  0.2533 -0.5424
 4477SOL     OW25066   1.130   1.554   0.309  0.3175 -1.0487 -0.1371
 4477SOL    HW125067   1.204   1.500   0.282  1.3135  1.5152 -2.4884
 4477SOL    HW225068   1.127   1.526   0.401 -0.0726 -0.1944  0.1088
 4478SOL     OW25069   0.857   2.054  16.119 -0.0699  0.0327  0.1496
 4478SOL    HW125070   0.853   1.960  16.135  0.4968  0.2941  1.8082
 4478SOL    HW225071   0.801   2.055  16.042 -0.1212  0.5350  0.1942
 4479SOL     OW25072   0.843   4.412   0.748  0.5590 -0.1532 -0.3530
 4479SOL    HW125073   0.813   4.331   0.706 -1.0345 -0.3562  1.1591
 4479SOL    HW225074   0.900   4.448   0.680 -0.6384 -0.5168 -1.5386
 4480SOL     OW25075   1.887   3.479   9.194 -0.0062  0.1780 -0.3512
 4480SOL    HW125076   1.905   3.557   9.246 -1.2126  0.0573  0.2338
 4480SOL    HW225077   1.843   3.413   9.248 -1.1288  1.6002  0.4775
 4481SOL     OW25078   0.675   1.153   8.652  0.2522 -0.3517  0.3131
 4481SOL    HW125079   0.747   1.090   8.645 -1.2527 -2.0312 -0.0348
 4481SOL    HW225080   0.621   1.130   8.576 -0.5575 -1.6499  1.2952
 4482SOL     OW25081   0.321   4.620   8.330  0.7916 -0.7668  0.7613
 4482SOL    HW125082   0.386   4.674   8.285  0.0761 -0.7449 -0.2585
 4482SOL    HW225083   0.330   4.545   8.272  3.4416 -0.1962  0.4175
 4483SOL     OW25084   0.676   4.563  15.813  0.4404  0.7653 -0.0372
 4483SOL    HW125085   0.704   4.538  15.725  1.6545  0.9790  0.2950
 4483SOL    HW225086   0.761   4.582  15.852  0.4093  0.4029  0.2150
 4484SOL     OW25087   4.424   2.332   8.354  0.3143  0.4758  0.4994
 4484SOL    HW125088   4.497   2.356   8.297 -0.0945 -1.9411 -1.0599
 4484SOL    HW225089   4.468   2.289   8.428  0.9508 -0.9293 -0.7127
 4485SOL     OW25090   1.487   2.193   4.657  0.3155 -0.6195  0.1745
 4485SOL    HW125091   1.456   2.257   4.593  2.0709  2.2033  2.1907
 4485SOL    HW225092   1.556   2.158   4.600  0.0239  1.7742 -1.6516
 4486SOL     OW25093   2.559   2.792   6.631 -0.0513  0.1866  0.4767
 4486SOL    HW125094   2.502   2.867   6.647  0.1773  0.4624 -0.0000
 4486SOL    HW225095   2.646   2.827   6.613 -0.6040  2.0555  1.5377
 4487SOL     OW25096   0.151   2.703   7.195  0.0620 -0.7689 -0.0763
 4487SOL    HW125097   0.082   2.726   7.133  0.5350 -3.9619 -1.8176
 4487SOL    HW225098   0.157   2.608   7.191  0.9101 -0.6660 -1.1916
 4488SOL     OW25099   3.191   0.352   3.056  0.2064 -0.2070 -0.0194
 4488SOL    HW125100   3.267   0.334   3.001  2.1821  0.9356  2.3631
 4488SOL    HW225101   3.227   0.422   3.111  2.0768 -1.2552  0.0754
 4489SOL     OW25102   2.051   0.146  12.009  0.1911  0.9400 -0.0202
 4489SOL    HW125103   1.999   0.065  12.011 -0.0416  1.0740 -0.8897
 4489SOL    HW225104   1.991   0.206  11.965 -0.9586 -1.3641 -1.5778
 4490SOL     OW25105   0.834   1.728  15.736 -0.2144  0.4523 -1.3422
 4490SOL    HW125106   0.755   1.729  15.790  0.5049 -2.1215 -0.2327
 4490SOL    HW225107   0.875   1.645  15.762 -1.2527  0.7185  1.1273
 4491SOL     OW25108   0.005   1.935  10.589 -0.2778  0.0624  0.7199
 4491SOL    HW125109   4.730   1.981  10.672 -2.2062  0.1420  0.4415
 4491SOL    HW225110   0.039   2.007  10.536 -0.9369 -1.0139 -1.1853
 4492SOL     OW25111   4.069   2.586   6.864  0.0313  0.1844  0.1198
 4492SOL    HW125112   4.050   2.595   6.770  0.3531  1.2398  0.1624
 4492SOL    HW225113   4.004   2.644   6.902 -0.1676  0.8108 -1.1655
 4493SOL     OW25114   4.481   4.128  14.439 -0.2108 -0.1295 -0.0462
 4493SOL    HW125115   4.572   4.104  14.457  0.5704  2.6499 -0.4437
 4493SOL    HW225116   4.482   4.223  14.451  0.4873 -0.3239  1.4019
 4494SOL     OW25117   2.344   4.648   6.576 -0.2411  0.0446 -0.0062
 4494SOL    HW125118   2.407   4.586   6.614 -2.0960 -0.3204  2.4751
 4494SOL    HW225119   2.398   4.693   6.511  0.8077  1.1596  1.6400
 4495SOL     OW25120   4.317   4.311   2.733  0.1320 -0.4511  0.0284
 4495SOL    HW125121   4.378   4.275   2.798  0.7625  0.5923  0.0098
 4495SOL    HW225122   4.238   4.307   2.786  1.4536  2.0637  2.1527
 4496SOL     OW25123   3.999   1.528   8.523  0.2055 -0.2128  0.1433
 4496SOL    HW125124   4.076   1.476   8.502  0.2548  1.0800 -2.9577
 4496SOL    HW225125   3.936   1.459   8.543  0.8760 -0.5337  1.1569
 4497SOL     OW25126   4.481   1.769  15.038  0.4393  0.3956  0.4813
 4497SOL    HW125127   4.475   1.802  15.128 -0.8612 -1.6436  1.1231
 4497SOL    HW225128   4.400   1.812  15.013  1.6469  1.2839 -1.8997
 4498SOL     OW25129   4.424   0.523  17.410 -0.3658 -0.1569  0.6369
 4498SOL    HW125130   4.431   0.523  17.506  1.7014  0.9016  0.4867
 4498SOL    HW225131   4.515   0.501  17.387 -0.0715  0.0985  1.5305
 4499SOL     OW25132   3.982   4.270   9.113  0.3494 -0.6806 -0.3608
 4499SOL    HW125133   3.969   4.188   9.065 -1.5963 -1.1309  0.9201
 4499SOL    HW225134   4.077   4.273   9.126 -0.2422  1.8378  3.1115
 4500SOL     OW25135   2.397   3.219   1.656  0.1372 -1.0101 -0.3379
 4500SOL    HW125136   2.364   3.156   1.721 -1.4537  1.2712  1.0531
 4500SOL    HW225137   2.442   3.159   1.596 -0.0256  0.6035 -2.0428
 4501SOL     OW25138   2.363   4.552  16.904 -0.1767  0.5571 -0.8832
 4501SOL    HW125139   2.410   4.565  16.987  0.8750 -2.4822 -0.9943
 4501SOL    HW225140   2.369   4.457  16.900 -1.3457  0.4166  0.6168
 4502SOL     OW25141   1.540   0.771   9.275 -0.0121 -0.2350  0.6272
 4502SOL    HW125142   1.475   0.752   9.207  2.0571  1.3073 -1.7957
 4502SOL    HW225143   1.597   0.702   9.243  0.3941 -0.3299  1.5655
 4503SOL     OW25144   0.242   3.325  17.422  0.2497 -0.2574  0.0287
 4503SOL    HW125145   0.246   3.271  17.343  0.6989 -2.1823  1.3809
 4503SOL    HW225146   0.307   3.393  17.405 -0.0462 -0.1389 -0.6180
 4504SOL     OW25147   2.588   0.634   4.436 -0.1467  0.9184  0.6506
 4504SOL    HW125148   2.523   0.603   4.374 -1.1797  1.7155  1.3332
 4504SOL    HW225149   2.582   0.565   4.502 -0.3790  0.6604  0.3549
 4505SOL     OW25150   4.161   0.328   7.898 -0.1626  0.0313  0.0006
 4505SOL    HW125151   4.239   0.351   7.948  1.0542 -0.1000 -1.8446
 4505SOL    HW225152   4.118   0.407   7.931  1.4548  0.8861  0.0749
 4506SOL     OW25153   3.832   1.680   9.689 -0.1328  0.1175 -0.0480
 4506SOL    HW125154   3.921   1.694   9.657 -0.2066 -0.6267 -0.5903
 4506SOL    HW225155   3.801   1.769   9.704 -1.3159 -0.5070  1.3052
 4507SOL     OW25156   4.434   1.896   6.132 -0.0362  0.4074  0.1824
 4507SOL    HW125157   4.466   1.808   6.153 -0.1157  0.5112  0.7339
 4507SOL    HW225158   4.514   1.946   6.147  0.3528 -0.1617  0.0310
 4508SOL     OW25159   1.611   2.560  15.647  0.3244  0.1928 -0.0319
 4508SOL    HW125160   1.702   2.534  15.634  0.3104  0.9975 -1.6956
 4508SOL    HW225161   1.554   2.526  15.577 -1.0928  0.5811  0.9229
 4509SOL     OW25162   2.905   1.680   7.720  0.0108  0.2245  0.4384
 4509SOL    HW125163   2.950   1.763   7.706  0.9347 -0.0402  1.7963
 4509SOL    HW225164   2.870   1.694   7.808  1.5814  0.6735  0.9897
 4510SOL     OW25165   4.332   4.043   7.222 -0.7998  0.3645  0.6928
 4510SOL    HW125166   4.256   4.012   7.271 -0.0092 -0.1057  1.6387
 4510SOL    HW225167   4.339   3.973   7.156 -1.8948  0.5422  0.3917
 4511SOL     OW25168   2.142   0.540  15.589 -0.0595  0.3941  0.3787
 4511SOL    HW125169   2.114   0.469  15.646 -0.1018  1.3337  1.5326
 4511SOL    HW225170   2.228   0.566  15.621  1.0219 -3.3842  0.5207
 4512SOL     OW25171   1.865   3.714   8.941 -0.3179 -0.0332 -0.2954
 4512SOL    HW125172   1.788   3.684   8.991  0.8726  1.1933  2.2936
 4512SOL    HW225173   1.923   3.762   9.000 -0.5925  0.4272 -0.4009
 4513SOL     OW25174   1.757   4.660  10.579 -0.6651 -0.7625 -0.4486
 4513SOL    HW125175   1.811   4.674  10.657 -0.7273  0.3208 -0.5990
 4513SOL    HW225176   1.667   4.673  10.609  0.7276  4.2789  1.4647
 4514SOL     OW25177   0.159   4.113   3.401 -0.2346  0.7474  0.1767
 4514SOL    HW125178   0.253   4.104   3.387 -0.2937  0.2033  0.1436
 4514SOL    HW225179   0.123   4.034   3.362  0.8219  1.2177 -1.7749
 4515SOL     OW25180   0.567   0.219   4.007  0.2124  0.5399 -0.3688
 4515SOL    HW125181   0.486   0.182   3.971  3.0782 -4.1985 -1.9582
 4515SOL    HW225182   0.578   0.298   3.953  0.0766  1.2963  0.7033
 4516SOL     OW25183   2.175   2.978   6.032 -0.3010  0.0236  0.4634
 4516SOL    HW125184   2.210   3.065   6.048  0.2445 -0.1698  0.3505
 4516SOL    HW225185   2.085   2.997   6.056 -0.3782 -2.8393  2.4870
 4517SOL     OW25186   1.098   3.581   3.853 -0.1777  0.1238 -0.2507
 4517SOL    HW125187   1.169   3.573   3.790  1.1390 -0.7323  1.3587
 4517SOL    HW225188   1.026   3.548   3.799 -0.7468 -2.1374  1.8961
 4518SOL     OW25189   2.129   2.297   3.774  0.1346 -0.2471  0.0617
 4518SOL    HW125190   2.154   2.207   3.755  0.0838  0.0037 -1.1853
 4518SOL    HW225191   2.048   2.304   3.723  0.0229  2.6567  0.6675
 4519SOL     OW25192   4.351   2.141   2.825 -0.8688  0.6936 -0.5336
 4519SOL    HW125193   4.340   2.236   2.829  1.7808  1.0610 -2.5897
 4519SOL    HW225194   4.263   2.119   2.858  0.0575 -0.8222  0.9284
 4520SOL     OW25195   1.967   0.932   4.069 -0.1130 -0.1191 -0.2186
 4520SOL    HW125196   1.997   0.866   4.006  0.6345 -1.4200  1.4754
 4520SOL    HW225197   1.970   1.010   4.014  3.3694 -1.5845 -2.1183
 4521SOL     OW25198   2.513   1.256   3.944 -0.1394  0.4020  0.1112
 4521SOL    HW125199   2.521   1.334   3.889  0.5209  0.0798 -0.2459
 4521SOL    HW225200   2.426   1.274   3.978 -1.5956 -2.4223 -2.2099
 4522SOL     OW25201   3.811   3.609  16.880 -0.1741 -0.4166 -0.5617
 4522SOL    HW125202   3.824   3.514  16.881  0.2096 -0.3388  1.7018
 4522SOL    HW225203   3.808   3.618  16.975  0.5327  0.1828 -0.5936
 4523SOL     OW25204   3.752   0.730   0.575  0.0944  0.3320  0.5379
 4523SOL    HW125205   3.667   0.767   0.598 -0.2947  0.8585 -1.7172
 4523SOL    HW225206   3.760   0.664   0.644  1.5165  0.1521  0.2120
 4524SOL     OW25207   3.935   1.880   6.592  0.1609  0.4537 -0.7236
 4524SOL    HW125208   3.992   1.814   6.632 -1.9662 -1.4675 -0.8971
 4524SOL    HW225209   3.913   1.834   6.511 -0.1041 -0.4734 -0.1203
 4525SOL     OW25210   0.012   3.700   3.408  0.4020  0.0823 -0.6276
 4525SOL    HW125211   0.090   3.649   3.431  0.2548 -0.4650 -1.3194
 4525SOL    HW225212   4.698   3.694   3.490 -0.3372 -0.1307 -1.0837
 4526SOL     OW25213   3.995   4.391   0.049 -0.6046 -0.7991  0.4557
 4526SOL    HW125214   3.903   4.395   0.021 -0.9294 -0.2621  1.6105
 4526SOL    HW225215   4.032   4.456  17.729 -1.0037  1.3810  2.6029
 4527SOL     OW25216   0.153   2.889  15.607  0.2697  0.6824  0.1136
 4527SOL    HW125217   0.231   2.871  15.555 -0.5522  0.8798 -1.1967
 4527SOL    HW225218   0.079   2.887  15.547 -0.3756 -2.2583  1.0062
 4528SOL     OW25219   2.811   4.544   8.428 -0.5571 -0.4672  0.1700
 4528SOL    HW125220   2.765   4.585   8.354 -0.5698  2.2810  1.7100
 4528SOL    HW225221   2.770   4.457   8.428  0.5610 -0.9825  1.1325
 4529SOL     OW25222   0.692   1.459   0.280  0.0343 -0.5907  0.3204
 4529SOL    HW125223   0.614   1.481   0.229 -0.9885 -0.5730  1.8957
 4529SOL    HW225224   0.762   1.506   0.233  0.7144 -0.6136  1.3143
 4530SOL     OW25225   2.904   1.287   2.483 -0.0921  0.0996  0.1642
 4530SOL    HW125226   2.837   1.226   2.516 -0.5712  1.6875  2.1445
 4530SOL    HW225227   2.847   1.363   2.471 -0.6228 -0.4350 -0.6531
 4531SOL     OW25228   3.998   0.255  12.303  0.1132  0.2014  1.3195
 4531SOL    HW125229   4.077   0.245  12.355  0.5896 -1.4638  0.2861
 4531SOL    HW225230   4.012   0.337  12.257  1.5262 -0.5799  0.3602
 4532SOL     OW25231   3.284   2.652   1.929  0.0574  0.0901 -0.0745
 4532SOL    HW125232   3.276   2.712   1.855 -2.0405 -0.5871 -0.3864
 4532SOL    HW225233   3.337   2.582   1.891  1.0672 -0.9239  3.1779
 4533SOL     OW25234   3.411   2.681  12.063 -0.1423  0.5453 -0.0355
 4533SOL    HW125235   3.479   2.748  12.055  1.1030 -0.6111  0.6296
 4533SOL    HW225236   3.386   2.687  12.156  0.8317  0.4579  0.2374
 4534SOL     OW25237   0.433   1.939   6.779 -0.2502 -0.0280  0.3135
 4534SOL    HW125238   0.447   2.030   6.756  1.7608 -0.5696 -0.6075
 4534SOL    HW225239   0.357   1.956   6.834  0.6316 -0.5923  1.6998
 4535SOL     OW25240   3.958   1.455   3.331  0.0745 -0.0005  0.6027
 4535SOL    HW125241   3.984   1.526   3.272  0.1770 -0.4150  0.1509
 4535SOL    HW225242   3.866   1.439   3.311  0.5255 -0.8614 -0.7568
 4536SOL     OW25243   1.738   0.806   5.887  0.1908 -0.3053  0.0825
 4536SOL    HW125244   1.662   0.748   5.880  0.5677 -0.6774 -0.9389
 4536SOL    HW225245   1.787   0.777   5.810  1.0542  0.5823  0.2955
 4537SOL     OW25246   3.308   2.460  15.138  0.1635  0.1006 -1.3604
 4537SOL    HW125247   3.319   2.467  15.043  1.4522 -0.4763 -1.2463
 4537SOL    HW225248   3.250   2.383  15.147  0.3164 -0.0705 -1.8592
 4538SOL     OW25249   0.119   1.443  17.380  0.1676 -0.3043 -0.4271
 4538SOL    HW125250   0.077   1.373  17.329 -0.1117 -1.3239  1.2030
 4538SOL    HW225251   0.166   1.487  17.310 -0.6412 -0.1240 -0.8619
 4539SOL     OW25252   1.312   3.828   7.345  0.5778  1.0623 -0.2876
 4539SOL    HW125253   1.301   3.799   7.254  1.6921  1.2843 -0.4934
 4539SOL    HW225254   1.363   3.754   7.376 -2.0538 -0.3433  0.6455
 4540SOL     OW25255   2.816   2.112  12.270  0.4793  0.0100  0.1626
 4540SOL    HW125256   2.878   2.174  12.308  0.5653 -0.8238  1.3819
 4540SOL    HW225257   2.830   2.038  12.329  3.5372 -1.6393 -2.6082
 4541SOL     OW25258   0.985   0.482  10.312  0.3493  0.8829  0.3597
 4541SOL    HW125259   1.068   0.530  10.302  0.6295 -0.0562 -1.7298
 4541SOL    HW225260   0.924   0.543  10.271 -0.6735 -0.9565 -0.8407
 4542SOL     OW25261   0.862   4.578  15.584  0.5087 -0.3022  0.4601
 4542SOL    HW125262   0.952   4.608  15.575  0.2425 -0.2688 -1.8803
 4542SOL    HW225263   0.850   4.516  15.512 -0.0076  1.4215 -0.9083
 4543SOL     OW25264   1.452   1.153   5.476  0.1765  0.2678  0.3000
 4543SOL    HW125265   1.408   1.120   5.398 -1.0095 -1.2912  1.6335
 4543SOL    HW225266   1.381   1.149   5.540 -0.8896 -1.9626 -1.0160
 4544SOL     OW25267   0.138   4.179   8.171  0.0126 -0.4589 -0.5759
 4544SOL    HW125268   0.148   4.164   8.265 -1.6598  0.7887 -0.2052
 4544SOL    HW225269   0.088   4.099   8.157 -0.3171 -0.4183  0.3798
 4545SOL     OW25270   2.006   0.280  12.474 -0.1537 -0.2184 -0.6555
 4545SOL    HW125271   1.941   0.243  12.535  1.6297  0.2036  1.5127
 4545SOL    HW225272   1.979   0.372  12.480 -3.0215 -1.0165 -1.1823
 4546SOL     OW25273   1.318   3.977   4.451  0.1046 -0.1465  0.2632
 4546SOL    HW125274   1.403   4.012   4.421 -1.5282  2.4145 -1.3953
 4546SOL    HW225275   1.345   3.903   4.505 -0.6027 -0.8189 -0.3037
 4547SOL     OW25276   2.594   2.230   6.271  0.1992 -0.1480 -0.1635
 4547SOL    HW125277   2.636   2.158   6.317 -0.4452 -0.5248 -0.1679
 4547SOL    HW225278   2.519   2.182   6.235  1.3992 -0.6075 -2.0579
 4548SOL     OW25279   2.448   1.540   4.746  0.7257 -0.5579 -0.3156
 4548SOL    HW125280   2.389   1.465   4.757  0.8976 -0.2556  2.5222
 4548SOL    HW225281   2.409   1.608   4.801  0.6650  1.7651 -3.2222
 4549SOL     OW25282   0.393   0.011  13.133  0.4945 -0.6301 -0.2125
 4549SOL    HW125283   0.326   0.011  13.201 -0.5395 -0.2290 -1.2234
 4549SOL    HW225284   0.435   0.092  13.161  0.6156 -0.6302 -0.3929
 4550SOL     OW25285   4.324   0.666   3.663 -0.1978  0.3141  0.9219
 4550SOL    HW125286   4.267   0.605   3.710 -0.5855  0.0125  0.0581
 4550SOL    HW225287   4.413   0.643   3.690  0.5514  0.7035 -1.2708
 4551SOL     OW25288   1.895   0.313   6.808 -0.3923 -0.1204 -0.2731
 4551SOL    HW125289   1.936   0.276   6.887  0.0705  0.1460 -0.3866
 4551SOL    HW225290   1.892   0.406   6.828 -0.2152 -0.6825  2.3566
 4552SOL     OW25291   2.271   3.453   1.779 -0.1296  0.0016 -0.3492
 4552SOL    HW125292   2.269   3.548   1.768 -0.3972 -0.0058 -0.3690
 4552SOL    HW225293   2.324   3.423   1.705 -0.7914 -1.6891 -0.1483
 4553SOL     OW25294   3.477   3.499   3.530  0.5304  0.6973  0.0082
 4553SOL    HW125295   3.468   3.565   3.598 -0.4219  0.0241  0.5258
 4553SOL    HW225296   3.566   3.517   3.499  0.3911 -0.2657 -0.9450
 4554SOL     OW25297   3.837   2.333  11.061  0.0924 -0.0884  0.1744
 4554SOL    HW125298   3.873   2.353  11.147  3.0300  0.7314 -1.2339
 4554SOL    HW225299   3.807   2.243  11.072  1.0478 -0.4054  0.2428
 4555SOL     OW25300   0.568   0.568  11.964 -0.2743  0.6303  0.1463
 4555SOL    HW125301   0.616   0.488  11.941 -1.9570  0.2860 -2.1683
 4555SOL    HW225302   0.634   0.627  11.929 -0.0736  0.2363 -0.1380
 4556SOL     OW25303   0.261   2.294   3.270 -0.5582  0.1054  0.2392
 4556SOL    HW125304   0.341   2.308   3.219 -0.8172 -0.8184 -0.4350
 4556SOL    HW225305   0.258   2.369   3.329 -1.4517 -1.2972  1.9711
 4557SOL     OW25306   2.110   1.322  10.821 -0.0093  0.8533 -0.3937
 4557SOL    HW125307   2.070   1.319  10.908  0.2572 -2.2248 -0.3927
 4557SOL    HW225308   2.110   1.229  10.800 -1.4703  0.9786 -0.9434
 4558SOL     OW25309   0.673   3.424  13.909 -0.0255  0.2282 -0.1409
 4558SOL    HW125310   0.708   3.452  13.994  2.3502  0.4822 -1.1968
 4558SOL    HW225311   0.657   3.330  13.918 -2.4027  0.7521  1.1460
 4559SOL     OW25312   3.321   3.595  12.723  0.3955  0.0264 -0.1241
 4559SOL    HW125313   3.331   3.632  12.635 -2.1631  0.3840 -0.2573
 4559SOL    HW225314   3.282   3.674  12.759  3.2378  1.1188  0.6045
 4560SOL     OW25315   1.929   1.314   2.181 -0.1199  0.5853 -0.5668
 4560SOL    HW125316   1.934   1.220   2.194 -0.6963  0.5197 -0.8082
 4560SOL    HW225317   1.837   1.339   2.170 -0.6085 -1.2835 -0.7379
 4561SOL     OW25318   0.159   0.295   1.650  0.0656  0.0489 -0.1982
 4561SOL    HW125319   0.238   0.245   1.669  0.4341 -0.2874 -2.6936
 4561SOL    HW225320   0.159   0.302   1.555 -0.8427 -1.0027 -0.2863
 4562SOL     OW25321   3.333   0.164  11.457  0.0874  0.1779 -0.4211
 4562SOL    HW125322   3.420   0.123  11.449 -0.2240 -0.3106 -1.2363
 4562SOL    HW225323   3.311   0.185  11.367  0.3935 -1.3097 -0.8487
 4563SOL     OW25324   3.435   4.037   3.177  0.0057 -0.3987  0.0062
 4563SOL    HW125325   3.436   3.987   3.258  2.8311  0.0754  0.2584
 4563SOL    HW225326   3.527   4.062   3.175 -0.5251  1.4562 -0.8212
 4564SOL     OW25327   2.520   3.483  16.527 -0.4055 -0.2228 -0.1711
 4564SOL    HW125328   2.491   3.441  16.608  0.2630  1.3144  0.8525
 4564SOL    HW225329   2.531   3.574  16.554 -0.2177 -0.6417  1.1478
 4565SOL     OW25330   4.015   4.676   7.698 -0.0042  0.1322  0.3003
 4565SOL    HW125331   3.972   4.630   7.625 -0.4977  0.6090  0.2936
 4565SOL    HW225332   4.109   4.662   7.689 -0.1250  1.1131 -2.3983
 4566SOL     OW25333   1.282   3.612  11.060  0.2879 -0.3726  0.6491
 4566SOL    HW125334   1.248   3.701  11.048 -1.3981 -1.1798 -0.6708
 4566SOL    HW225335   1.317   3.624  11.149  1.9261 -1.5500  0.1532
 4567SOL     OW25336   0.358   3.600   7.466 -0.5769  0.1893  0.1045
 4567SOL    HW125337   0.272   3.605   7.424 -0.3888 -2.6977 -0.6516
 4567SOL    HW225338   0.420   3.658   7.422 -1.2485  0.3900 -0.5768
 4568SOL     OW25339   4.199   2.868   8.275  0.6396 -0.3224 -0.0417
 4568SOL    HW125340   4.215   2.787   8.323 -0.2591 -1.8401 -2.3097
 4568SOL    HW225341   4.278   2.863   8.221  0.1055  1.0701 -0.9779
 4569SOL     OW25342   3.012   2.569   9.317 -0.2363  0.3299 -0.1614
 4569SOL    HW125343   3.022   2.475   9.309  0.9131  0.3627  0.8999
 4569SOL    HW225344   2.994   2.604   9.230  1.0180 -0.7679 -0.8628
 4570SOL     OW25345   1.432   2.900   7.769  0.1111  0.4073 -0.5093
 4570SOL    HW125346   1.514   2.856   7.746 -0.7405 -0.4789 -1.8961
 4570SOL    HW225347   1.398   2.825   7.817  0.8971  0.4420  0.1090
 4571SOL     OW25348   4.700   2.618   7.751 -0.1637  0.5223  0.1996
 4571SOL    HW125349   0.037   2.555   7.762 -0.1543  0.4465 -0.2709
 4571SOL    HW225350   4.623   2.565   7.771  1.1065 -0.9415  1.2009
 4572SOL     OW25351   4.263   0.448   8.965  0.7325  0.2135 -0.0213
 4572SOL    HW125352   4.258   0.421   8.874 -1.0052 -2.3045  0.8326
 4572SOL    HW225353   4.266   0.367   9.017  0.3025 -0.8932 -1.7307
 4573SOL     OW25354   0.076   0.864   2.126 -0.5491  0.8407  0.0712
 4573SOL    HW125355   0.062   0.888   2.035  0.7366 -0.7518 -0.5486
 4573SOL    HW225356   0.136   0.791   2.109  1.5086  2.6626 -0.3686
 4574SOL     OW25357   2.545   3.969   3.250  0.0531 -0.3477  0.1014
 4574SOL    HW125358   2.641   3.960   3.249  0.1231  0.5880 -1.2400
 4574SOL    HW225359   2.529   3.969   3.156  0.4285  2.2705  0.0334
 4575SOL     OW25360   0.403   4.645   9.472 -0.2754 -0.3050 -0.3315
 4575SOL    HW125361   0.377   4.722   9.421 -1.2452 -0.5836 -0.2725
 4575SOL    HW225362   0.493   4.664   9.495  0.2651  0.9206 -3.3769
 4576SOL     OW25363   0.208   0.426   6.638 -0.4512  0.2938 -0.1926
 4576SOL    HW125364   0.187   0.347   6.689  1.3429  0.6754  1.1290
 4576SOL    HW225365   0.153   0.493   6.679 -0.3351  0.2969 -0.0432
 4577SOL     OW25366   4.051   0.074   6.556 -0.0142 -0.4419 -0.1718
 4577SOL    HW125367   3.972   0.061   6.503  1.5236 -3.3960 -1.7071
 4577SOL    HW225368   4.056   0.170   6.546 -2.4175 -0.0228  2.8917
 4578SOL     OW25369   2.655   0.286   8.267 -1.0218  0.3108 -0.3222
 4578SOL    HW125370   2.581   0.347   8.269 -1.0630  0.3212 -1.8459
 4578SOL    HW225371   2.724   0.352   8.278  0.2239 -1.1791  0.6619
 4579SOL     OW25372   4.343   1.907   9.066  0.2009 -0.2690  0.0407
 4579SOL    HW125373   4.372   1.960   8.991 -0.0172 -1.4430 -0.8612
 4579SOL    HW225374   4.399   1.942   9.136 -0.7373  3.9750 -1.3033
 4580SOL     OW25375   3.259   0.761   8.316 -0.4615  0.2349 -0.1280
 4580SOL    HW125376   3.341   0.771   8.267 -1.8044 -1.2688 -2.6335
 4580SOL    HW225377   3.200   0.742   8.244  0.2579  2.5536 -1.3331
 4581SOL     OW25378   1.161   4.513   6.703  0.7684 -0.0321 -0.6286
 4581SOL    HW125379   1.102   4.552   6.639 -0.6377 -0.2502  0.5428
 4581SOL    HW225380   1.240   4.561   6.678 -0.1540  1.4537 -0.6655
 4582SOL     OW25381   1.234   3.737   5.222 -0.0212  0.7396 -0.5923
 4582SOL    HW125382   1.330   3.737   5.222 -0.0375 -2.5349 -1.2327
 4582SOL    HW225383   1.203   3.674   5.156  0.8294  0.8340 -1.0828
 4583SOL     OW25384   4.459   0.199   6.457 -0.6554  0.2857  0.6238
 4583SOL    HW125385   4.388   0.211   6.394 -0.5965 -2.0358  0.0902
 4583SOL    HW225386   4.432   0.268   6.518 -0.0588  1.5547 -0.5494
 4584SOL     OW25387   2.657   1.882  13.250 -0.7095 -0.7029  0.3245
 4584SOL    HW125388   2.675   1.810  13.189 -0.3307  0.5162 -1.0016
 4584SOL    HW225389   2.744   1.900  13.286 -1.3239  0.9409  0.9920
 4585SOL     OW25390   2.663   1.867   3.481  0.0239 -0.3818 -0.0363
 4585SOL    HW125391   2.703   1.878   3.567  1.3728  1.5946 -0.9165
 4585SOL    HW225392   2.722   1.916   3.423 -0.2462  1.4131  1.2263
 4586SOL     OW25393   4.322   0.737   3.989 -0.3493  0.2275  0.3381
 4586SOL    HW125394   4.374   0.657   3.990 -2.3007 -1.0131  0.3689
 4586SOL    HW225395   4.294   0.740   4.081  1.7331  0.1196  0.9895
 4587SOL     OW25396   4.156   2.555   1.795 -0.9573  0.3021  0.5181
 4587SOL    HW125397   4.081   2.615   1.794 -0.8200  0.4657  0.2442
 4587SOL    HW225398   4.112   2.479   1.756 -0.6095  1.1451 -1.5152
 4588SOL     OW25399   2.298   2.346   9.476 -0.1324 -0.0482 -0.1565
 4588SOL    HW125400   2.210   2.383   9.477  1.1584  3.0335  1.2162
 4588SOL    HW225401   2.308   2.329   9.382  0.7524  0.9450 -0.2493
 4589SOL     OW25402   4.501   4.539   3.016  0.0668  0.0611  0.9859
 4589SOL    HW125403   4.482   4.455   2.975  1.6761 -0.4527  1.2675
 4589SOL    HW225404   4.588   4.555   2.979 -1.0004 -0.2400 -1.6526
 4590SOL     OW25405   4.526   3.291  14.293 -0.0578  0.0980 -0.1274
 4590SOL    HW125406   4.489   3.305  14.380  0.6074  0.4248  0.1010
 4590SOL    HW225407   4.480   3.353  14.237 -2.5617 -2.5035 -0.9880
 4591SOL     OW25408   2.866   3.010   4.499  0.0557  0.1767 -0.0999
 4591SOL    HW125409   2.960   2.993   4.491  0.2839  1.4300 -0.0291
 4591SOL    HW225410   2.856   2.979   4.589 -1.0756  0.7904 -0.0063
 4592SOL     OW25411   0.201   1.629   5.072 -0.2714 -0.5660  0.2292
 4592SOL    HW125412   0.160   1.582   5.144 -1.7375  0.1938 -0.1132
 4592SOL    HW225413   0.187   1.568   4.999  0.4392 -1.3301  0.7257
 4593SOL     OW25414   2.946   0.346  14.365 -0.4576 -0.1667  0.5321
 4593SOL    HW125415   2.991   0.277  14.317  0.1142  0.8137 -0.3120
 4593SOL    HW225416   2.870   0.299  14.400 -0.2717 -2.6048 -2.3965
 4594SOL     OW25417   2.713   0.769  17.716  0.2732 -0.3770 -0.0354
 4594SOL    HW125418   2.701   0.719  17.636 -0.5188 -3.2761  1.8812
 4594SOL    HW225419   2.661   0.719   0.040  0.5642  2.0077  2.0829
 4595SOL     OW25420   3.952   1.100   8.482 -0.3256  0.6404 -0.1489
 4595SOL    HW125421   3.953   1.167   8.550  1.4752  1.1821 -0.7162
 4595SOL    HW225422   3.908   1.031   8.531 -1.8843  0.8293 -1.2850
 4596SOL     OW25423   4.036   2.374   9.406 -0.2648 -0.2719  0.2327
 4596SOL    HW125424   4.043   2.280   9.388  3.7358 -0.3902  2.3775
 4596SOL    HW225425   4.118   2.398   9.363  0.7799  0.8198  2.8224
 4597SOL     OW25426   1.080   1.870   1.612  0.1276 -0.1391 -0.5577
 4597SOL    HW125427   1.155   1.815   1.631  0.9299  1.3273  0.4650
 4597SOL    HW225428   1.013   1.805   1.589 -1.2701  0.5711  1.4538
 4598SOL     OW25429   0.573   3.064   8.650 -0.0280  0.2825  0.0387
 4598SOL    HW125430   0.617   3.148   8.657  1.2378 -0.3420 -0.5765
 4598SOL    HW225431   0.581   3.036   8.559 -1.6452  0.2267 -0.0928
 4599SOL     OW25432   4.198   3.398   8.900 -0.0074 -0.5208  0.2414
 4599SOL    HW125433   4.140   3.333   8.858 -1.4881  1.3624 -0.6285
 4599SOL    HW225434   4.289   3.367   8.894  0.0526 -0.0340 -1.3740
 4600SOL     OW25435   2.473   2.630   7.169  0.4918  0.2942 -0.4141
 4600SOL    HW125436   2.493   2.709   7.218  1.3163  0.2383 -0.6616
 4600SOL    HW225437   2.480   2.652   7.076  1.2664  2.0911  0.0766
 4601SOL     OW25438   2.213   1.108  15.323 -0.9019  0.1331 -0.1864
 4601SOL    HW125439   2.214   1.195  15.363 -1.0592  0.0866 -0.0803
 4601SOL    HW225440   2.237   1.119  15.231 -1.9722  1.3779 -0.3081
 4602SOL     OW25441   4.588   0.594   2.264 -0.2132  0.3861 -0.1049
 4602SOL    HW125442   4.678   0.610   2.290 -0.3952 -2.0991  1.9978
 4602SOL    HW225443   4.550   0.549   2.339 -1.0818  3.0820  1.0742
 4603SOL     OW25444   0.624   1.063   5.483  0.7232 -0.6579 -0.5997
 4603SOL    HW125445   0.560   1.133   5.493  0.6390 -1.0327  1.4232
 4603SOL    HW225446   0.677   1.078   5.561  0.4934 -0.7035 -0.4358
 4604SOL     OW25447   1.129   1.243   3.322  0.1354 -0.0754  0.3070
 4604SOL    HW125448   1.207   1.221   3.271 -0.1156  1.1211 -0.6078
 4604SOL    HW225449   1.154   1.193   3.399  0.2374  0.3384  0.5447
 4605SOL     OW25450   3.168   3.773   4.253  0.1949  0.0092 -0.3895
 4605SOL    HW125451   3.260   3.764   4.228  0.3833 -3.0966  1.5026
 4605SOL    HW225452   3.168   3.840   4.321 -1.5215  2.0356 -2.3976
 4606SOL     OW25453   1.879   1.075   4.297 -0.4546 -0.0844 -0.5182
 4606SOL    HW125454   1.824   1.027   4.358  0.2254 -1.9306 -1.3842
 4606SOL    HW225455   1.920   1.016   4.234  1.5783 -1.5313  2.1783
 4607SOL     OW25456   4.315   2.025   4.262 -0.7979  0.1196  0.3549
 4607SOL    HW125457   4.290   2.011   4.354  0.7298 -0.5716  0.6618
 4607SOL    HW225458   4.393   1.970   4.254 -0.4881  0.3958  1.4264
 4608SOL     OW25459   4.377   0.402   3.866 -0.6590 -0.4311 -0.0167
 4608SOL    HW125460   4.396   0.347   3.942 -2.9261  2.3059  2.5628
 4608SOL    HW225461   4.456   0.396   3.812  0.1551 -0.8006  1.2010
 4609SOL     OW25462   4.318   1.319  13.313  0.3825  0.4239  0.4418
 4609SOL    HW125463   4.252   1.375  13.273  1.7049  0.1470 -2.0951
 4609SOL    HW225464   4.296   1.330  13.406 -0.5731  0.8880  0.1578
 4610SOL     OW25465   4.550   1.512   8.957 -0.3363 -0.4310  0.0431
 4610SOL    HW125466   4.562   1.586   9.015  0.3373  0.9793 -1.8994
 4610SOL    HW225467   4.463   1.475   8.975 -0.4769 -0.1739 -0.0989
 4611SOL     OW25468   2.522   4.112  10.992 -0.4700  0.0852  0.4181
 4611SOL    HW125469   2.549   4.035  11.043 -2.7422 -1.4945 -0.7543
 4611SOL    HW225470   2.460   4.070  10.932 -0.0300 -0.7322  0.5399
 4612SOL     OW25471   1.972   3.862   4.076  0.1842  0.2928  0.6497
 4612SOL    HW125472   2.014   3.904   4.152 -1.2749  1.4851  0.8016
 4612SOL    HW225473   1.920   3.789   4.108 -0.2514  1.0206  1.6036
 4613SOL     OW25474   3.788   1.126   7.602  0.0985 -0.4039  0.2952
 4613SOL    HW125475   3.793   1.046   7.654  2.5907  0.8346  1.9256
 4613SOL    HW225476   3.762   1.192   7.666 -1.1460 -0.3567 -0.2503
 4614SOL     OW25477   2.826   2.738   9.617 -0.0183  0.2387  0.6328
 4614SOL    HW125478   2.849   2.788   9.539  0.5086  0.5221  0.9661
 4614SOL    HW225479   2.737   2.770   9.628  1.9238  5.1913  2.1897
 4615SOL     OW25480   2.297   2.200   6.953 -0.6312  0.1616 -0.0735
 4615SOL    HW125481   2.221   2.258   6.965 -1.1188 -0.4236 -0.3252
 4615SOL    HW225482   2.369   2.257   6.980 -0.9943  0.9419 -0.7480
 4616SOL     OW25483   2.046   3.731   2.810  0.1777  0.5666 -0.0686
 4616SOL    HW125484   1.986   3.730   2.736  0.5345  3.1721 -0.3958
 4616SOL    HW225485   2.018   3.661   2.869 -1.1832  0.1858 -1.1893
 4617SOL     OW25486   4.492   3.721   8.528  0.5882 -0.4900 -0.0056
 4617SOL    HW125487   4.575   3.735   8.574  0.9127 -1.3309 -0.3263
 4617SOL    HW225488   4.446   3.709   8.611  0.6825  2.9562  0.5294
 4618SOL     OW25489   2.128   3.811   7.241 -0.2887 -0.1687  0.0620
 4618SOL    HW125490   2.170   3.758   7.174 -0.8299  1.3541 -1.4854
 4618SOL    HW225491   2.056   3.836   7.183 -0.2500 -1.3859 -0.5008
 4619SOL     OW25492   0.381   1.341   3.243  0.1732 -0.6227 -0.2806
 4619SOL    HW125493   0.399   1.405   3.174 -2.1412 -2.1592 -2.3118
 4619SOL    HW225494   0.444   1.277   3.211 -1.5653 -2.9600  0.9962
 4620SOL     OW25495   2.761   0.136   5.157  0.0445  0.3856 -0.2429
 4620SOL    HW125496   2.750   0.048   5.192 -3.3086  1.1062  0.5060
 4620SOL    HW225497   2.721   0.173   5.236  1.8592 -0.2788  0.9887
 4621SOL     OW25498   1.467   0.767   8.507  0.1169 -0.4534 -0.0963
 4621SOL    HW125499   1.416   0.846   8.486 -1.0664 -1.3476 -0.6019
 4621SOL    HW225500   1.555   0.791   8.477 -0.2700 -0.7560 -1.5072
 4622SOL     OW25501   4.070   3.505   3.797  0.0912 -0.1670 -0.3815
 4622SOL    HW125502   4.027   3.514   3.711  3.4351 -1.5521 -2.2084
 4622SOL    HW225503   4.003   3.451   3.838 -0.0445  1.6433  1.7519
 4623SOL     OW25504   2.869   2.213   3.835  0.6067  0.3458 -0.3131
 4623SOL    HW125505   2.886   2.148   3.903 -0.4204  1.8478  1.3499
 4623SOL    HW225506   2.911   2.286   3.880 -0.0490 -0.2057  1.1821
 4624SOL     OW25507   3.434   1.945   1.346  0.4573  0.5963 -0.2412
 4624SOL    HW125508   3.479   1.877   1.395 -0.2654  0.4850  0.2643
 4624SOL    HW225509   3.348   1.935   1.386 -0.5979 -2.3625 -3.2150
 4625SOL     OW25510   2.571   2.877   9.686  0.1155 -0.3910  0.3479
 4625SOL    HW125511   2.588   2.957   9.736  0.2825  0.9455 -1.8295
 4625SOL    HW225512   2.522   2.830   9.754 -2.9653  0.4843 -1.2365
 4626SOL     OW25513   0.965   1.809  12.690 -0.0861  0.4666 -0.0479
 4626SOL    HW125514   0.975   1.775  12.779  1.7859 -2.7578 -1.4975
 4626SOL    HW225515   0.874   1.799  12.663  0.3378  0.5230 -1.4983
 4627SOL     OW25516   1.594   1.267   0.324  0.2499 -0.6729  0.2621
 4627SOL    HW125517   1.502   1.286   0.306 -0.0829 -1.4528  1.1036
 4627SOL    HW225518   1.594   1.191   0.382  1.3754 -0.5442  0.4357
 4628SOL     OW25519   4.159   3.747   6.801  0.0215  0.6173 -0.2999
 4628SOL    HW125520   4.191   3.658   6.787 -0.5433  0.6147 -1.5767
 4628SOL    HW225521   4.138   3.781   6.715 -1.2842 -1.5146 -0.8341
 4629SOL     OW25522   0.858   1.997   2.512 -0.4556  0.5745  0.8567
 4629SOL    HW125523   0.840   2.084   2.475 -1.7134  0.4629  1.2239
 4629SOL    HW225524   0.833   1.941   2.438 -1.4079  2.0439  0.0700
 4630SOL     OW25525   1.237   0.153   2.482  0.3933  0.1946 -0.4976
 4630SOL    HW125526   1.238   0.216   2.410  0.5198  0.9758  0.1882
 4630SOL    HW225527   1.308   0.189   2.535  0.1400  1.0958 -0.7620
 4631SOL     OW25528   3.565   3.861   2.910  0.0179 -0.1042 -0.1639
 4631SOL    HW125529   3.484   3.889   2.952 -0.1401 -1.4747  0.4494
 4631SOL    HW225530   3.549   3.832   2.820 -2.7500  1.1537 -0.0780
 4632SOL     OW25531   2.702   4.522  10.027  0.0157 -0.5998 -0.2067
 4632SOL    HW125532   2.720   4.538  10.120  0.0600  0.2249 -0.3577
 4632SOL    HW225533   2.786   4.492   9.993  0.4101 -1.6517  1.6429
 4633SOL     OW25534   3.759   1.215   6.354 -0.0642 -0.5355 -0.5770
 4633SOL    HW125535   3.797   1.280   6.414 -1.2250 -0.0697 -0.3370
 4633SOL    HW225536   3.670   1.222   6.389  0.0827 -1.3031 -0.0664
 4634SOL     OW25537   0.502   3.690   0.721 -0.4561 -0.1928 -0.4326
 4634SOL    HW125538   0.425   3.694   0.665 -0.5093  1.7130 -0.2115
 4634SOL    HW225539   0.460   3.683   0.807 -0.7017 -0.2480 -0.5556
 4635SOL     OW25540   3.411   3.754   3.640  0.1017  0.4832 -0.0137
 4635SOL    HW125541   3.380   3.750   3.730 -1.5936 -0.6640 -0.6642
 4635SOL    HW225542   3.505   3.752   3.661 -0.4970 -2.2848  2.3729
 4636SOL     OW25543   0.681   1.883   3.671 -0.2824  0.1771  0.2914
 4636SOL    HW125544   0.684   1.920   3.582 -0.1165  0.4272  0.4000
 4636SOL    HW225545   0.717   1.956   3.721  1.8956 -0.2857 -0.6109
 4637SOL     OW25546   4.347   1.986   4.515  0.3793 -0.0905  0.3478
 4637SOL    HW125547   4.417   1.964   4.576 -1.4458  1.5480  3.0173
 4637SOL    HW225548   4.297   1.907   4.536  0.8412  0.2438  2.6322
 4638SOL     OW25549   2.725   0.265   6.489 -0.4099 -0.1493 -0.2581
 4638SOL    HW125550   2.734   0.182   6.536  0.9462  0.3596  0.3927
 4638SOL    HW225551   2.713   0.327   6.561  1.2037 -1.7011  1.3546
 4639SOL     OW25552   2.240   1.295  15.535 -0.2326 -0.2603  0.3504
 4639SOL    HW125553   2.145   1.293  15.549 -0.1318  0.1369  1.1234
 4639SOL    HW225554   2.276   1.352  15.604  0.4389  0.4767 -0.6114
 4640SOL     OW25555   1.451   0.853   1.464  0.1711  0.0428  0.0624
 4640SOL    HW125556   1.357   0.845   1.447 -0.6120  0.8343  3.9446
 4640SOL    HW225557   1.457   0.930   1.521 -1.0051  2.5276 -3.1975
 4641SOL     OW25558   0.262   3.916   8.235  0.1259 -0.4948  0.3179
 4641SOL    HW125559   0.205   3.895   8.161  1.5703 -3.1770 -0.0446
 4641SOL    HW225560   0.270   3.827   8.269 -2.6182 -0.6166  0.6661
 4642SOL     OW25561   0.192   4.547   3.756 -0.3638  0.2149  0.7000
 4642SOL    HW125562   0.189   4.621   3.816 -0.3203 -0.0028  0.9705
 4642SOL    HW225563   0.251   4.479   3.788 -1.0936 -0.9359 -0.3922
 4643SOL     OW25564   4.434   4.628   1.298  0.5407 -0.5230 -0.6235
 4643SOL    HW125565   4.467   4.592   1.380 -0.6338  0.0317  0.0878
 4643SOL    HW225566   4.513   4.630   1.244  1.7195  2.4012  1.1775
 4644SOL     OW25567   3.146   3.273  13.479  0.1321  0.1664 -0.0290
 4644SOL    HW125568   3.148   3.222  13.398 -3.3870 -1.6509  1.0470
 4644SOL    HW225569   3.135   3.202  13.542  2.0221  0.2593  0.4081
 4645SOL     OW25570   4.710   3.391   3.950 -0.0620  0.1766  0.3306
 4645SOL    HW125571   4.630   3.338   3.957 -2.1252  3.4670  1.8598
 4645SOL    HW225572   0.009   3.366   3.865 -0.5405 -0.7959  0.4304
 4646SOL     OW25573   3.337   2.476   8.261  0.1618 -0.1132 -0.0589
 4646SOL    HW125574   3.388   2.549   8.295  2.1527 -0.8989 -1.3572
 4646SOL    HW225575   3.404   2.425   8.216 -0.8828 -0.4198 -1.3013
 4647SOL     OW25576   3.778   1.814   5.897  0.4889 -0.4517  0.4913
 4647SOL    HW125577   3.719   1.809   5.822 -0.7273  0.0660  1.4024
 4647SOL    HW225578   3.864   1.789   5.863  1.2343  0.6175  1.5941
 4648SOL     OW25579   0.921   0.734   5.028  0.0017  0.0826 -0.5226
 4648SOL    HW125580   0.892   0.665   4.968 -0.7382 -1.7313  1.9345
 4648SOL    HW225581   0.911   0.677   5.104  0.9143  1.4909  0.6599
 4649SOL     OW25582   0.171   2.366   3.788 -0.3577 -0.5396 -0.2388
 4649SOL    HW125583   0.106   2.380   3.719  0.0607  2.5455 -0.0114
 4649SOL    HW225584   0.124   2.405   3.862 -0.0520 -0.7029  0.0428
 4650SOL     OW25585   0.367   1.153   7.853 -0.0920 -0.3639 -0.1381
 4650SOL    HW125586   0.307   1.096   7.804  0.1815 -1.1212  0.4202
 4650SOL    HW225587   0.388   1.220   7.788  0.7752  0.4515  0.9976
 4651SOL     OW25588   1.241   0.740   5.323 -0.4645  0.4288  0.6153
 4651SOL    HW125589   1.194   0.661   5.350  2.2571 -0.9854  1.2527
 4651SOL    HW225590   1.177   0.804   5.291 -1.1165  0.6684  2.4392
 4652SOL     OW25591   3.950   4.304  15.120  0.1420  0.1932 -0.0763
 4652SOL    HW125592   3.923   4.388  15.159 -1.2892  0.8022 -2.3507
 4652SOL    HW225593   3.866   4.260  15.132  1.5559 -2.2232  0.8008
 4653SOL     OW25594   1.899   2.311  14.896  0.0737  0.1740 -0.1750
 4653SOL    HW125595   1.862   2.368  14.829  2.4684  3.3531  1.2419
 4653SOL    HW225596   1.988   2.345  14.899 -0.9560  2.9574 -1.3576
 4654SOL     OW25597   0.141   0.621  17.694 -0.1710  0.5608 -0.2514
 4654SOL    HW125598   0.145   0.705   0.000 -2.7941  0.1951  0.6673
 4654SOL    HW225599   0.067   0.579   0.000 -1.7205 -0.8903 -4.1164
 4655SOL     OW25600   4.611   4.324  15.785  0.4726 -0.1448 -0.2171
 4655SOL    HW125601   4.607   4.289  15.696 -0.4452  0.3182 -0.3585
 4655SOL    HW225602   4.651   4.411  15.771  1.2357 -0.2676  1.1679
 4656SOL     OW25603   2.289   2.313   3.417 -0.2977  0.1400  0.1307
 4656SOL    HW125604   2.277   2.362   3.336  1.0918 -0.7715 -0.6227
 4656SOL    HW225605   2.216   2.251   3.426 -0.4556  0.2939 -0.0985
 4657SOL     OW25606   2.410   3.023   3.327 -0.4954  0.3301  0.2386
 4657SOL    HW125607   2.407   2.959   3.398  1.1997  0.2305  0.2310
 4657SOL    HW225608   2.504   3.034   3.315 -0.1653 -0.7702  1.8097
 4658SOL     OW25609   1.547   2.887  13.666  0.1316  0.3723  0.2932
 4658SOL    HW125610   1.551   2.794  13.688 -3.5535 -0.7264 -3.7494
 4658SOL    HW225611   1.602   2.893  13.588 -0.7714 -0.2926 -0.3829
 4659SOL     OW25612   4.515   1.619   2.382 -0.0335  0.3285 -0.1718
 4659SOL    HW125613   4.563   1.688   2.335 -1.3692 -0.3245 -2.5209
 4659SOL    HW225614   4.464   1.654   2.455  0.0508  1.0067 -0.4351
 4660SOL     OW25615   2.012   2.837  12.727  0.1818  0.2279 -0.3914
 4660SOL    HW125616   2.065   2.762  12.703  0.7176 -0.2186  2.2610
 4660SOL    HW225617   2.001   2.882  12.642  0.7510 -2.6272 -1.9771
 4661SOL     OW25618   3.336   3.652   1.924 -0.2930 -0.4218  0.1142
 4661SOL    HW125619   3.274   3.636   1.995 -0.9889  0.6797 -0.2515
 4661SOL    HW225620   3.304   3.736   1.890 -0.1961  0.3230  1.8125
 4662SOL     OW25621   4.262   1.440   0.284 -0.5212  0.2915 -0.4137
 4662SOL    HW125622   4.178   1.398   0.304  0.0232  0.6190  2.5543
 4662SOL    HW225623   4.313   1.362   0.261 -0.3357  0.1369  0.5135
 4663SOL     OW25624   4.418   1.026   0.715  0.5605  0.0328  0.8451
 4663SOL    HW125625   4.370   1.022   0.797 -1.3944  2.6453 -0.1599
 4663SOL    HW225626   4.447   0.936   0.704  1.2084  0.5369 -1.8173
 4664SOL     OW25627   0.708   2.826   8.787  0.0342  0.5602 -0.4106
 4664SOL    HW125628   0.792   2.857   8.822  0.3043 -1.4071  0.6597
 4664SOL    HW225629   0.665   2.910   8.773 -3.0945 -0.5621  2.5491
 4665SOL     OW25630   3.910   3.447   8.919  0.0464 -0.1455  0.1739
 4665SOL    HW125631   3.911   3.352   8.908  1.2777 -0.2760  1.3708
 4665SOL    HW225632   3.899   3.448   9.014 -0.9140 -2.2495  0.0767
 4666SOL     OW25633   0.513   0.541  13.133 -0.6535  0.5544  0.1462
 4666SOL    HW125634   0.578   0.563  13.200  0.1796  0.8795 -0.7750
 4666SOL    HW225635   0.508   0.623  13.084 -1.9608 -0.3199 -1.1805
 4667SOL     OW25636   0.239   2.079   3.063 -0.5371  0.0854  0.0197
 4667SOL    HW125637   0.331   2.053   3.072 -1.0917 -1.8144  0.2342
 4667SOL    HW225638   0.229   2.146   3.131 -0.0122 -1.2747  1.4477
 4668SOL     OW25639   4.181   0.607   5.058 -0.0248 -0.3942 -0.3674
 4668SOL    HW125640   4.276   0.616   5.049 -0.0942  1.4748  0.6844
 4668SOL    HW225641   4.165   0.646   5.144  1.1816  0.5431 -0.5763
 4669SOL     OW25642   2.166   4.542   7.602  0.3902  0.8543  0.1789
 4669SOL    HW125643   2.248   4.493   7.610 -0.4808 -0.4177  1.3575
 4669SOL    HW225644   2.111   4.469   7.573  0.0938  1.7148 -1.3895
 4670SOL     OW25645   0.263   2.300  13.820  0.3802  0.3056  0.1864
 4670SOL    HW125646   0.170   2.319  13.835  1.2179  3.2380  1.7104
 4670SOL    HW225647   0.257   2.211  13.854  1.1981 -1.0619 -3.3418
 4671SOL     OW25648   2.423   0.325   7.494 -0.2503  0.2132  0.5847
 4671SOL    HW125649   2.454   0.247   7.448  2.3161  0.3718  2.0181
 4671SOL    HW225650   2.417   0.287   7.582  3.2185  1.4262  1.3431
 4672SOL     OW25651   1.121   2.855   6.876  0.1508  0.3715 -0.1185
 4672SOL    HW125652   1.041   2.804   6.862 -0.1745  0.2075  2.2001
 4672SOL    HW225653   1.122   2.881   6.969 -0.9823  1.7393 -0.4824
 4673SOL     OW25654   3.074   1.886  10.903 -0.3343 -0.2209  0.5107
 4673SOL    HW125655   3.018   1.951  10.945 -0.2434 -1.1037  1.9820
 4673SOL    HW225656   3.154   1.929  10.935  0.4091 -1.5640  0.4630
 4674SOL     OW25657   1.347   4.374   5.508  0.4135  0.1514  0.0242
 4674SOL    HW125658   1.343   4.406   5.598 -1.3696  0.6514 -0.2314
 4674SOL    HW225659   1.256   4.388   5.483  0.1968  0.3476  0.9221
 4675SOL     OW25660   4.054   0.999   6.720  0.2559  0.1078  0.3609
 4675SOL    HW125661   3.960   0.986   6.707  0.0803  0.4270  1.3772
 4675SOL    HW225662   4.054   1.043   6.805 -1.0674 -0.2522  0.5423
 4676SOL     OW25663   1.322   4.075   2.704  0.2121 -0.4199 -0.2565
 4676SOL    HW125664   1.294   4.167   2.693 -0.8577 -0.4580  2.1860
 4676SOL    HW225665   1.275   4.058   2.785  2.2897  1.9892  1.4639
 4677SOL     OW25666   3.893   1.349   2.502 -0.1851  0.3750  0.1607
 4677SOL    HW125667   3.875   1.339   2.596 -0.0258 -1.4976 -0.0062
 4677SOL    HW225668   3.886   1.258   2.472 -1.4236  0.9671 -1.3564
 4678SOL     OW25669   0.678   0.852   9.768  0.3122 -0.0102  0.0936
 4678SOL    HW125670   0.665   0.923   9.831 -0.1290  0.7458 -0.8706
 4678SOL    HW225671   0.719   0.899   9.696  1.6746  0.5678  1.2219
 4679SOL     OW25672   2.931   2.623  11.729 -0.0238  0.5481  0.1528
 4679SOL    HW125673   2.845   2.610  11.769  0.2818 -0.1330  0.5799
 4679SOL    HW225674   2.958   2.532  11.719 -0.2301  0.7880 -2.5057
 4680SOL     OW25675   0.851   1.044   3.614  0.4707 -0.7183  0.0794
 4680SOL    HW125676   0.836   0.959   3.655  0.4195 -0.1917  1.1450
 4680SOL    HW225677   0.775   1.058   3.557 -0.8198  0.7595  2.1211
 4681SOL     OW25678   3.981   1.568  15.696 -0.9287  0.1645 -0.0292
 4681SOL    HW125679   3.914   1.506  15.667 -0.1337 -1.3328  1.3152
 4681SOL    HW225680   3.939   1.652  15.678  2.0309  1.9945  1.6475
 4682SOL     OW25681   3.905   1.845   2.019 -0.6911 -0.2470 -0.3491
 4682SOL    HW125682   3.956   1.791   2.079 -0.4298 -0.3234 -0.6402
 4682SOL    HW225683   3.822   1.797   2.013  0.4183 -2.3934  1.2504
 4683SOL     OW25684   3.575   2.592   1.434  0.0568  0.1247  0.3582
 4683SOL    HW125685   3.514   2.656   1.398  0.0271 -1.9232 -3.2627
 4683SOL    HW225686   3.539   2.523   1.379 -2.4665  0.6142  1.4104
 4684SOL     OW25687   2.420   0.540  14.796 -0.0736  0.0591  0.2741
 4684SOL    HW125688   2.348   0.602  14.798 -0.6240 -0.6148  1.0018
 4684SOL    HW225689   2.401   0.496  14.714  1.1755 -0.1903  0.1130
 4685SOL     OW25690   0.082   1.966  12.759  0.0311  0.1985  0.0482
 4685SOL    HW125691   4.722   1.969  12.769  0.1962  0.6567  1.3922
 4685SOL    HW225692   0.106   2.057  12.741 -2.1415  0.6063 -0.7824
 4686SOL     OW25693   4.203   1.798   4.609 -0.2987  0.7572 -0.2646
 4686SOL    HW125694   4.116   1.827   4.637  0.0034  1.1024  0.3229
 4686SOL    HW225695   4.209   1.704   4.598  0.3356  0.7328  0.3148
 4687SOL     OW25696   3.012   3.377   3.736  0.0453  0.2070  0.4674
 4687SOL    HW125697   2.959   3.457   3.732 -2.1199 -1.3753 -2.2874
 4687SOL    HW225698   3.002   3.349   3.645 -0.0806  2.8869 -0.3485
 4688SOL     OW25699   1.418   0.335   4.292 -0.0024  0.0681 -0.5268
 4688SOL    HW125700   1.440   0.242   4.294  0.4345  0.2339  2.6500
 4688SOL    HW225701   1.415   0.352   4.198  1.4597  0.5225 -0.4913
 4689SOL     OW25702   1.093   2.013   7.263 -0.1222 -0.3644 -0.7322
 4689SOL    HW125703   1.086   2.097   7.219 -0.7262  0.8068  1.5700
 4689SOL    HW225704   1.007   1.976   7.244 -1.6608  2.1133  1.3819
 4690SOL     OW25705   3.878   0.909   3.687 -0.0790  0.0274 -0.0496
 4690SOL    HW125706   3.961   0.917   3.735 -0.4556 -1.4866  0.8432
 4690SOL    HW225707   3.887   0.830   3.634  0.8294 -0.4741  0.8397
 4691SOL     OW25708   3.533   1.369  12.843  0.0825  0.3518 -0.1044
 4691SOL    HW125709   3.537   1.410  12.930  2.8328  2.3392 -1.1513
 4691SOL    HW225710   3.507   1.284  12.879  0.3628  0.7797  1.1014
 4692SOL     OW25711   2.099   4.074  12.252  0.6154 -0.4529  0.4023
 4692SOL    HW125712   2.026   4.023  12.288  0.8045  0.9374  2.7958
 4692SOL    HW225713   2.141   4.100  12.334  1.9939 -0.2155 -0.3769
 4693SOL     OW25714   1.475   1.342   7.088  0.1513  0.8209 -0.8811
 4693SOL    HW125715   1.507   1.349   6.998 -0.3634 -2.7768 -1.3324
 4693SOL    HW225716   1.443   1.432   7.097 -0.9924  0.1246  1.9251
 4694SOL     OW25717   1.833   2.363   0.340  0.3434  0.0995  0.1696
 4694SOL    HW125718   1.893   2.351   0.266 -2.7876 -1.3528 -2.0883
 4694SOL    HW225719   1.887   2.411   0.404  2.3354 -1.0421 -0.6371
 4695SOL     OW25720   3.841   1.672  10.882 -0.3323 -0.2704  0.5265
 4695SOL    HW125721   3.845   1.591  10.933  1.0088 -0.4720  0.1053
 4695SOL    HW225722   3.830   1.744  10.945  1.5772  0.2275  0.2953
 4696SOL     OW25723   0.130   0.636   3.783 -0.9325 -0.5905 -0.2334
 4696SOL    HW125724   0.203   0.643   3.845 -2.6000 -0.8155  1.7557
 4696SOL    HW225725   0.176   0.591   3.712 -0.2299 -0.3425  0.0621
 4697SOL     OW25726   4.048   1.258  14.956  0.1691 -0.2855  0.2621
 4697SOL    HW125727   4.099   1.303  15.023  0.3266 -2.4982  1.6662
 4697SOL    HW225728   4.011   1.189  15.012 -0.6157  1.1966  1.5868
 4698SOL     OW25729   1.752   3.233  13.786 -0.0660  0.8145  0.2498
 4698SOL    HW125730   1.819   3.298  13.807 -1.6159  2.5563 -0.1578
 4698SOL    HW225731   1.669   3.280  13.801 -1.1278 -1.1822  0.6872
 4699SOL     OW25732   1.243   0.279   7.566  0.4140 -0.1693 -0.6238
 4699SOL    HW125733   1.173   0.345   7.566 -1.2695 -1.9406 -1.7566
 4699SOL    HW225734   1.203   0.207   7.517 -0.5223  0.5258 -0.8882
 4700SOL     OW25735   1.545   3.402   7.279  0.5875  0.4732  0.0724
 4700SOL    HW125736   1.553   3.350   7.198 -0.4098 -1.1019  0.9830
 4700SOL    HW225737   1.637   3.415   7.299 -0.0258  2.3482  1.6364
 4701SOL     OW25738   4.097   0.144   7.152 -0.2895  0.0241 -0.4208
 4701SOL    HW125739   4.058   0.056   7.154  0.7437 -0.4401 -0.3135
 4701SOL    HW225740   4.017   0.185   7.121 -0.7679 -0.2584  0.4654
 4702SOL     OW25741   0.655   3.320  17.449  0.2422  0.2406 -0.1523
 4702SOL    HW125742   0.587   3.385  17.428  1.8209  1.1370 -2.5222
 4702SOL    HW225743   0.742   3.350  17.423  0.2140  0.4128 -0.0422
 4703SOL     OW25744   3.374   2.148   6.293 -0.7762 -0.0172 -0.2171
 4703SOL    HW125745   3.287   2.155   6.255 -1.3075 -2.3584  0.5751
 4703SOL    HW225746   3.425   2.087   6.240 -0.1253  0.8615 -0.6009
 4704SOL     OW25747   4.063   4.256   4.611  0.0989 -0.0672 -0.4493
 4704SOL    HW125748   4.062   4.179   4.554  1.2206 -0.5900  0.2390
 4704SOL    HW225749   4.146   4.247   4.657 -0.5481  1.5298  1.0227
 4705SOL     OW25750   4.094   3.526  16.979  0.0986 -0.5736 -0.3705
 4705SOL    HW125751   4.116   3.603  16.927 -2.6666  0.8841  0.6240
 4705SOL    HW225752   4.133   3.548  17.064 -2.7199 -2.9391  1.5507
 4706SOL     OW25753   1.506   1.511   5.822 -0.0506 -0.5047  0.0631
 4706SOL    HW125754   1.601   1.521   5.813 -0.2863  0.9969 -0.7280
 4706SOL    HW225755   1.469   1.594   5.793 -1.4126  0.2074  3.7985
 4707SOL     OW25756   2.968   3.162   0.741 -0.6166  0.0667  0.2178
 4707SOL    HW125757   3.034   3.142   0.674 -1.0102  0.1616 -0.2011
 4707SOL    HW225758   2.902   3.097   0.718 -0.3338 -0.6163  1.3659
 4708SOL     OW25759   0.274   0.512   1.308 -0.5958  0.3381  0.1345
 4708SOL    HW125760   0.239   0.453   1.240 -0.6476  0.8578 -0.2898
 4708SOL    HW225761   0.202   0.515   1.371 -0.3285  0.6978  0.4231
 4709SOL     OW25762   2.173   1.884   3.206 -0.1102 -0.8581  0.0771
 4709SOL    HW125763   2.142   1.964   3.165 -2.5445 -0.1253  3.3802
 4709SOL    HW225764   2.218   1.923   3.281 -0.1770 -1.0669  0.2275
 4710SOL     OW25765   4.210   0.998   4.247  0.1014 -0.1180  0.2159
 4710SOL    HW125766   4.257   1.013   4.165  1.1760  1.1541  1.0580
 4710SOL    HW225767   4.207   0.903   4.255 -0.9983  0.1016  2.3220
 4711SOL     OW25768   4.374   1.748   7.390  0.3581 -0.4859 -0.6771
 4711SOL    HW125769   4.364   1.701   7.308  1.3551 -0.8328 -0.5918
 4711SOL    HW225770   4.468   1.741   7.405 -0.1357 -1.0088  2.1658
 4712SOL     OW25771   2.466   0.404  12.265 -0.3086  0.2303  0.2184
 4712SOL    HW125772   2.399   0.444  12.209  1.0981  0.8248 -1.0325
 4712SOL    HW225773   2.543   0.459  12.251  0.7460 -0.5004  3.0688
 4713SOL     OW25774   2.172   3.772   2.513  0.0021 -0.0423 -0.0829
 4713SOL    HW125775   2.190   3.683   2.483  2.7653  0.4586  0.0848
 4713SOL    HW225776   2.078   3.783   2.498  0.0982 -1.1441 -1.4683
 4714SOL     OW25777   2.987   2.046   9.905 -0.1952 -0.7232 -0.4264
 4714SOL    HW125778   2.949   1.977   9.959  0.8128  0.5860  2.0070
 4714SOL    HW225779   3.026   2.096   9.977  1.6613 -1.0972 -1.1800
 4715SOL     OW25780   1.870   1.760   4.216 -0.0205  0.1525 -0.5549
 4715SOL    HW125781   1.931   1.825   4.250 -0.8792  0.7960 -0.2247
 4715SOL    HW225782   1.786   1.790   4.252 -0.5552 -1.3241 -0.5703
 4716SOL     OW25783   3.162   3.429   6.500 -0.0529 -0.6148  0.5604
 4716SOL    HW125784   3.148   3.441   6.594 -1.9246 -0.2481  0.2323
 4716SOL    HW225785   3.177   3.335   6.491 -0.6356 -0.4199 -2.2623
 4717SOL     OW25786   2.101   0.425  10.666  0.0982 -0.3573  0.2225
 4717SOL    HW125787   2.076   0.358  10.601  1.3413 -1.9076  1.3527
 4717SOL    HW225788   2.058   0.497  10.620 -1.7973 -1.7906 -0.2792
 4718SOL     OW25789   2.183   4.460   1.918 -0.0003  0.3485 -0.1051
 4718SOL    HW125790   2.237   4.382   1.903  2.6249  2.1126  0.2476
 4718SOL    HW225791   2.179   4.451   2.014 -0.5500 -1.0351 -0.2545
 4719SOL     OW25792   2.444   2.487   5.749  0.2405  0.1314 -0.0254
 4719SOL    HW125793   2.514   2.453   5.805 -1.1864 -0.3339  1.4618
 4719SOL    HW225794   2.444   2.428   5.674 -0.1538 -1.3631  1.1550
 4720SOL     OW25795   1.662   4.608  17.735  0.0484  0.8156 -0.3019
 4720SOL    HW125796   1.632   4.601   0.087  0.2904  1.2479 -0.1875
 4720SOL    HW225797   1.633   4.694  17.705  0.9228  1.1478 -0.2139
 4721SOL     OW25798   4.472   3.947   2.549 -0.1587 -0.2140  0.5022
 4721SOL    HW125799   4.399   4.007   2.532 -0.4703 -0.4532  1.0110
 4721SOL    HW225800   4.522   3.963   2.468 -0.6500 -0.5581  0.1292
 4722SOL     OW25801   4.423   4.444   7.149 -0.8008  0.1644  0.0206
 4722SOL    HW125802   4.516   4.466   7.147 -0.5377 -0.8590  0.7859
 4722SOL    HW225803   4.387   4.530   7.129  0.9884  0.5443 -1.6078
 4723SOL     OW25804   3.566   1.810   2.533 -0.1961  0.4561  0.1955
 4723SOL    HW125805   3.627   1.857   2.590  0.5303 -0.4032  0.1275
 4723SOL    HW225806   3.509   1.779   2.604  0.4452 -0.0474  0.4859
 4724SOL     OW25807   4.682   1.602   5.817  0.6383  0.2647 -0.2024
 4724SOL    HW125808   4.680   1.544   5.893 -0.0416  1.6560  0.8424
 4724SOL    HW225809   4.588   1.615   5.804  0.9054  2.3854 -0.1067
 4725SOL     OW25810   3.721   2.140   7.307 -0.0881  0.3007  0.2936
 4725SOL    HW125811   3.669   2.096   7.375  0.4318  0.6526  0.9089
 4725SOL    HW225812   3.682   2.112   7.224  0.3637 -2.4173  0.9957
 4726SOL     OW25813   2.083   3.614   5.701 -0.4902  0.4349 -0.0562
 4726SOL    HW125814   2.032   3.693   5.722  0.4019  1.3077 -1.1920
 4726SOL    HW225815   2.155   3.620   5.764  0.1711  1.0922 -0.8657
 4727SOL     OW25816   2.743   4.165  17.346 -0.6644  0.3039  0.4183
 4727SOL    HW125817   2.748   4.080  17.390  1.6496  0.3026  0.1336
 4727SOL    HW225818   2.653   4.179  17.378 -0.9088 -0.4820  0.0766
 4728SOL     OW25819   3.293   2.179  14.009  0.0880 -0.6408 -0.8473
 4728SOL    HW125820   3.218   2.222  13.970 -0.0162  0.2016  0.2834
 4728SOL    HW225821   3.324   2.124  13.937 -1.1883 -0.1955 -1.7290
 4729SOL     OW25822   0.034   2.699  14.550  0.6414  0.1744 -0.3025
 4729SOL    HW125823   0.091   2.629  14.582  1.1470  1.0789  0.7718
 4729SOL    HW225824   4.731   2.737  14.629  0.5070  0.9342 -0.7231
 4730SOL     OW25825   0.373   1.912   3.375 -0.6157 -0.2829  0.1539
 4730SOL    HW125826   0.327   1.884   3.454  0.8706  1.3848  1.6142
 4730SOL    HW225827   0.325   1.857   3.313  0.1441 -1.4364  0.5997
 4731SOL     OW25828   4.271   3.973   5.784  0.3024  0.3534  0.1719
 4731SOL    HW125829   4.300   4.051   5.737  1.7297 -0.4146 -0.2410
 4731SOL    HW225830   4.275   3.907   5.715  1.6353 -0.1095  0.6932
 4732SOL     OW25831   4.464   1.074   0.275  0.5678 -0.1941  0.2969
 4732SOL    HW125832   4.427   1.012   0.337  0.5216 -0.1371  0.3268
 4732SOL    HW225833   4.548   1.089   0.319 -0.2964  1.9026  1.2065
 4733SOL     OW25834   4.218   1.900  13.617 -0.2497 -0.6279 -0.3601
 4733SOL    HW125835   4.235   1.897  13.711  3.1596  1.8067 -0.8842
 4733SOL    HW225836   4.220   1.994  13.595  0.6851 -0.8629 -1.2638
 4734SOL     OW25837   1.684   4.603  14.281  0.0907  1.1188 -0.0659
 4734SOL    HW125838   1.697   4.682  14.334 -2.8068  1.6218 -0.0865
 4734SOL    HW225839   1.698   4.628  14.190 -0.3690 -0.2082 -0.4985
 4735SOL     OW25840   0.627   3.851   6.338 -0.1494  0.2349  0.0037
 4735SOL    HW125841   0.682   3.789   6.385 -0.7785 -0.1762  0.1850
 4735SOL    HW225842   0.665   3.844   6.250 -0.8642 -1.4098 -0.1688
 4736SOL     OW25843   3.070   3.377  16.640 -0.2316  0.2382 -0.0932
 4736SOL    HW125844   3.034   3.288  16.642  2.2513 -0.7832  0.3870
 4736SOL    HW225845   3.141   3.349  16.582  1.1793  1.1162  1.2128
 4737SOL     OW25846   1.260   2.622  11.963 -0.3715  0.1363  0.0876
 4737SOL    HW125847   1.306   2.681  11.903  0.0507  1.4678  1.7220
 4737SOL    HW225848   1.212   2.691  12.008  1.0867  0.9562  0.3954
 4738SOL     OW25849   1.117   3.378   5.382 -0.0555  0.1208  0.1992
 4738SOL    HW125850   1.158   3.369   5.296 -0.4517  1.2366 -0.0986
 4738SOL    HW225851   1.176   3.438   5.427  1.8600 -1.2301 -0.5247
 4739SOL     OW25852   3.711   2.087   0.730  0.2058  0.2145  0.1751
 4739SOL    HW125853   3.670   2.031   0.795 -1.1234 -0.0887 -0.9262
 4739SOL    HW225854   3.780   2.132   0.779  0.4835  0.6350 -0.5975
 4740SOL     OW25855   3.190   3.094  15.679 -0.3008 -0.0975  0.4843
 4740SOL    HW125856   3.196   3.091  15.775  2.3616  2.4840  0.3762
 4740SOL    HW225857   3.135   3.171  15.668  1.7767  1.4974  1.1700
 4741SOL     OW25858   2.392   2.952   3.047  0.2878 -0.3175 -0.1451
 4741SOL    HW125859   2.391   2.979   3.139  2.2335  0.4088 -0.3472
 4741SOL    HW225860   2.319   2.889   3.043 -0.3069  0.3658  0.0322
 4742SOL     OW25861   0.230   2.784   3.363 -0.6491 -0.1288 -0.2738
 4742SOL    HW125862   0.140   2.804   3.389  0.0381  2.3843  0.1319
 4742SOL    HW225863   0.256   2.858   3.309 -1.1221  0.4752  0.3328
 4743SOL     OW25864   0.772   4.283   7.920  0.0865 -0.1397 -0.0783
 4743SOL    HW125865   0.790   4.351   7.855  0.8007  1.4061  1.7439
 4743SOL    HW225866   0.817   4.321   7.995 -0.3833  0.9375 -0.3469
 4744SOL     OW25867   2.099   1.989   6.205  0.4444 -0.2735 -0.0576
 4744SOL    HW125868   2.037   2.061   6.193  1.7549  0.9478  0.6521
 4744SOL    HW225869   2.057   1.918   6.155 -1.0759 -0.9792  2.2425
 4745SOL     OW25870   3.628   2.516  15.034 -0.5117  0.0099 -0.1178
 4745SOL    HW125871   3.679   2.571  14.973 -0.9960 -0.3949 -0.8846
 4745SOL    HW225872   3.608   2.444  14.974 -1.6483  1.7278 -1.8078
 4746SOL     OW25873   3.517   4.261  16.156 -0.3935 -0.4256  0.3985
 4746SOL    HW125874   3.433   4.296  16.185 -0.3432  1.6094 -1.8784
 4746SOL    HW225875   3.495   4.226  16.070  0.9104  0.2492 -0.2235
 4747SOL     OW25876   4.577   0.046   0.669  0.7086  0.0769  0.2026
 4747SOL    HW125877   4.667   0.078   0.681 -0.1451  2.5370 -0.0846
 4747SOL    HW225878   4.570   0.000   0.585  2.8640  0.8744 -0.4152
 4748SOL     OW25879   3.675   0.346   8.103 -0.0723 -0.4241 -0.2185
 4748SOL    HW125880   3.757   0.307   8.133  0.6421  0.5386 -0.8833
 4748SOL    HW225881   3.653   0.415   8.166 -0.1783  0.3143 -1.0656
 4749SOL     OW25882   3.398   3.136   3.301 -0.1190 -0.4481 -0.2429
 4749SOL    HW125883   3.347   3.157   3.379  3.3650  1.4872  1.5036
 4749SOL    HW225884   3.484   3.123   3.341 -1.0456 -1.3094  1.4609
 4750SOL     OW25885   2.408   2.670   3.728  0.2615  0.0588  0.4154
 4750SOL    HW125886   2.388   2.687   3.636 -1.2143  0.3237  0.7901
 4750SOL    HW225887   2.382   2.753   3.767 -0.2642 -0.5184  1.2926
 4751SOL     OW25888   2.415   1.599  11.382 -0.6239  0.3271  0.4221
 4751SOL    HW125889   2.437   1.561  11.467  1.0135  1.2792  0.4160
 4751SOL    HW225890   2.363   1.671  11.416 -0.2653  1.0498 -0.5840
 4752SOL     OW25891   4.546   0.354  10.295  0.2202 -0.1620  0.6955
 4752SOL    HW125892   4.546   0.275  10.348  2.1037 -0.4324  0.2888
 4752SOL    HW225893   4.590   0.325  10.215 -2.5339 -0.2977 -0.7603
 4753SOL     OW25894   0.503   2.414   6.024  0.4127 -0.1292  0.3553
 4753SOL    HW125895   0.582   2.456   6.057 -0.4117 -0.0845  2.2412
 4753SOL    HW225896   0.533   2.375   5.942 -1.3513  1.5389 -1.0935
 4754SOL     OW25897   4.334   0.398   8.094 -0.6362  0.5497  0.2479
 4754SOL    HW125898   4.280   0.422   8.170 -2.0375 -0.3325 -0.4623
 4754SOL    HW225899   4.398   0.469   8.093 -1.9218  1.6891 -1.4613
 4755SOL     OW25900   3.501   0.725   3.892  0.4624 -0.4214 -0.0667
 4755SOL    HW125901   3.574   0.784   3.872  0.3495 -0.6430 -1.1228
 4755SOL    HW225902   3.437   0.795   3.905  1.8416  0.4136  2.3816
 4756SOL     OW25903   1.065   2.569  14.248 -0.2827 -0.6108  0.5420
 4756SOL    HW125904   1.099   2.499  14.304  1.7342 -1.7336 -2.0901
 4756SOL    HW225905   0.995   2.603  14.304 -0.1404 -1.6140  1.3298
 4757SOL     OW25906   0.116   3.688   3.027 -0.2118  0.3337  0.2168
 4757SOL    HW125907   0.197   3.724   2.991 -0.6179  0.2316 -0.8112
 4757SOL    HW225908   0.097   3.605   2.983 -2.0538  0.3939  0.9299
 4758SOL     OW25909   2.470   0.480  11.823 -0.0230 -0.6830  0.3577
 4758SOL    HW125910   2.410   0.406  11.824 -0.8592  0.0019 -0.4886
 4758SOL    HW225911   2.536   0.441  11.881  1.5008 -0.8987 -1.5093
 4759SOL     OW25912   1.901   3.059  13.995  0.0158 -0.0371 -0.8750
 4759SOL    HW125913   1.958   2.993  14.035 -0.9799 -0.8934 -0.8547
 4759SOL    HW225914   1.943   3.073  13.910 -0.2479  1.7641 -0.7068
 4760SOL     OW25915   0.056   2.680  13.694 -0.0608  0.0833  0.1177
 4760SOL    HW125916   0.091   2.769  13.697 -2.4544  1.0912 -1.5193
 4760SOL    HW225917   0.027   2.680  13.785 -0.8794 -0.5066 -0.1521
 4761SOL     OW25918   3.636   3.235   6.092  0.8247  0.2772  0.3552
 4761SOL    HW125919   3.700   3.207   6.158 -0.1539 -1.6977  0.4600
 4761SOL    HW225920   3.671   3.323   6.083  2.4638 -0.6194 -2.1972
 4762SOL     OW25921   3.824   4.595  17.151  0.7684 -0.4935  0.7077
 4762SOL    HW125922   3.844   4.540  17.075  1.3333  1.1188 -0.3076
 4762SOL    HW225923   3.808   4.676  17.103  0.9416 -1.3392 -0.7694
 4763SOL     OW25924   3.668   2.048   3.301 -0.1403 -0.1578 -0.0032
 4763SOL    HW125925   3.573   2.055   3.298 -0.2647 -2.1924 -0.9276
 4763SOL    HW225926   3.681   1.973   3.360  1.6514  0.3842  0.3034
 4764SOL     OW25927   3.410   3.175   2.880 -0.3229  0.3084 -0.9775
 4764SOL    HW125928   3.395   3.243   2.815 -3.9330 -1.5776 -2.0923
 4764SOL    HW225929   3.505   3.161   2.881 -0.4139 -0.3570 -1.4402
 4765SOL     OW25930   2.247   3.263   3.399 -0.2442 -0.3200 -0.1544
 4765SOL    HW125931   2.211   3.176   3.417 -0.8855  0.0648  0.4215
 4765SOL    HW225932   2.178   3.317   3.361  1.0206  0.0630 -1.9566
 4766SOL     OW25933   1.538   2.408   1.643 -0.3732  0.5643 -0.6523
 4766SOL    HW125934   1.591   2.476   1.601  0.3396 -0.6111 -1.6503
 4766SOL    HW225935   1.447   2.437   1.646  0.0478  1.8946 -0.6338
 4767SOL     OW25936   4.224   3.942   7.449  0.0564 -0.1147 -0.0878
 4767SOL    HW125937   4.317   3.919   7.459  0.4297  1.8757  0.8820
 4767SOL    HW225938   4.209   3.971   7.539 -0.0399 -0.5367  0.0337
 4768SOL     OW25939   0.474   3.867  16.570 -0.1139 -0.5493 -0.9382
 4768SOL    HW125940   0.494   3.830  16.484 -2.5241 -0.9498 -1.3171
 4768SOL    HW225941   0.396   3.919  16.550 -0.3315  0.1550  1.7625
 4769SOL     OW25942   0.461   1.307   7.061 -0.4035 -0.0327  0.0311
 4769SOL    HW125943   0.522   1.237   7.040 -0.8925 -0.1990 -0.8121
 4769SOL    HW225944   0.377   1.272   7.032 -0.1545  0.4763 -1.2792
 4770SOL     OW25945   3.009   2.647   6.488 -0.3121 -0.1927 -0.3059
 4770SOL    HW125946   2.976   2.558   6.483  1.9324 -1.1424  1.7787
 4770SOL    HW225947   3.096   2.631   6.450  0.1492  0.6450  0.3827
 4771SOL     OW25948   4.599   2.713  16.683 -0.1776  0.0601  0.4650
 4771SOL    HW125949   4.524   2.668  16.644 -0.9418  2.0942 -0.4161
 4771SOL    HW225950   4.561   2.740  16.766 -0.1777  2.1822 -0.2378
 4772SOL     OW25951   2.212   0.382   1.451 -0.5033 -0.2339  0.1677
 4772SOL    HW125952   2.225   0.314   1.385  1.9617 -0.7672  1.2185
 4772SOL    HW225953   2.123   0.404   1.425 -0.2841 -0.9064 -1.1675
 4773SOL     OW25954   2.695   1.194   6.182  0.8849 -0.0073  0.6064
 4773SOL    HW125955   2.721   1.106   6.155  0.2150  0.0737 -0.2859
 4773SOL    HW225956   2.671   1.178   6.274 -0.5960 -0.2475  0.1797
 4774SOL     OW25957   2.140   1.613  15.776  0.8275  0.2981 -0.4911
 4774SOL    HW125958   2.203   1.672  15.735  1.3428  0.3768  0.4102
 4774SOL    HW225959   2.189   1.530  15.776 -0.0120 -0.2077 -0.1831
 4775SOL     OW25960   0.132   0.643   5.104  0.1590  0.6045  0.0347
 4775SOL    HW125961   0.170   0.660   5.190 -1.3798  0.7592  0.6683
 4775SOL    HW225962   0.044   0.681   5.106 -0.6784 -1.3594  0.9165
 4776SOL     OW25963   0.133   2.740  16.579  0.0346 -0.1928  0.6541
 4776SOL    HW125964   0.051   2.727  16.626  0.1824 -0.5770  0.8059
 4776SOL    HW225965   0.099   2.800  16.512  1.0584 -2.3675 -1.8398
 4777SOL     OW25966   4.655   1.475   4.402  0.3986 -0.8967  0.0213
 4777SOL    HW125967   4.695   1.546   4.352 -0.3388 -2.3210 -2.6122
 4777SOL    HW225968   4.681   1.394   4.358 -0.7426 -1.6571  0.7488
 4778SOL     OW25969   0.355   2.848   1.537 -0.5811 -0.1397 -0.1597
 4778SOL    HW125970   0.261   2.853   1.521 -0.6133  0.4048  0.1773
 4778SOL    HW225971   0.367   2.926   1.592  1.0677 -1.0568  0.7603
 4779SOL     OW25972   1.517   3.174   5.349  0.0964  0.4960 -0.1565
 4779SOL    HW125973   1.445   3.141   5.402  1.4976 -0.8486  0.8997
 4779SOL    HW225974   1.593   3.140   5.397  0.4351 -0.0652 -1.0892
 4780SOL     OW25975   0.481   4.171   6.211 -0.9217 -0.2902  0.0814
 4780SOL    HW125976   0.574   4.149   6.212 -1.1265 -1.0666  2.2976
 4780SOL    HW225977   0.468   4.175   6.116  3.0893 -1.6770 -0.5249
 4781SOL     OW25978   4.574   4.052   5.597 -0.2024 -0.3792 -0.2042
 4781SOL    HW125979   4.564   3.964   5.560  2.9433 -0.4399 -0.9633
 4781SOL    HW225980   4.664   4.068   5.567  0.3562  0.8748  2.1773
 4782SOL     OW25981   0.165   1.926   0.681 -0.5947 -0.2400 -0.6682
 4782SOL    HW125982   0.214   1.863   0.734 -0.6439 -1.0494 -1.5882
 4782SOL    HW225983   0.222   1.923   0.604  0.5542 -3.3798  0.2879
 4783SOL     OW25984   0.674   3.734   8.169  0.0440  1.1299  0.3415
 4783SOL    HW125985   0.652   3.649   8.208  1.8725 -0.1222 -1.4038
 4783SOL    HW225986   0.593   3.743   8.119 -0.0559 -0.4950  0.2058
 4784SOL     OW25987   4.045   2.468   4.897 -0.0002 -0.4551 -0.5915
 4784SOL    HW125988   4.056   2.524   4.974 -1.7080 -1.1076  0.1263
 4784SOL    HW225989   3.982   2.516   4.843 -0.4189 -0.9699 -0.5599
 4785SOL     OW25990   3.505   0.650   8.794 -0.1105 -0.5689  0.1760
 4785SOL    HW125991   3.578   0.702   8.828  0.3910 -0.3722 -1.2075
 4785SOL    HW225992   3.486   0.668   8.702 -1.3633  0.0216  0.5492
 4786SOL     OW25993   0.022   2.916  12.414 -0.1575  0.2214  0.0469
 4786SOL    HW125994   0.006   2.857  12.487  1.3816  1.8370  1.6652
 4786SOL    HW225995   0.114   2.941  12.422  0.1994 -0.8255 -0.6236
 4787SOL     OW25996   1.796   1.255   6.590 -0.3530  0.2584 -0.5423
 4787SOL    HW125997   1.846   1.336   6.592  1.5685 -0.8817 -2.1451
 4787SOL    HW225998   1.855   1.189   6.553  1.4309  0.7466  1.4495
 4788SOL     OW25999   0.042   4.333   6.040  0.5277  0.4188 -0.0350
 4788SOL    HW126000   0.018   4.268   6.107 -1.0697  2.5230  1.4431
 4788SOL    HW226001   4.727   4.409   6.071  0.3939  0.5110 -0.4842
 4789SOL     OW26002   0.404   3.524   6.715 -0.4900  0.0357  0.6902
 4789SOL    HW126003   0.441   3.521   6.627  0.1546 -1.7914  1.0310
 4789SOL    HW226004   0.318   3.563   6.701  0.2965  1.2669 -0.6218
 4790SOL     OW26005   3.929   2.050   3.701 -0.6922  0.0015  0.4184
 4790SOL    HW126006   3.964   2.095   3.625 -2.1175  0.7724  0.2209
 4790SOL    HW226007   4.006   1.995   3.717 -0.8787 -0.8871 -1.6258
 4791SOL     OW26008   1.947   2.469   9.670  0.2424  0.2129  0.3067
 4791SOL    HW126009   1.990   2.495   9.589  1.1005  2.9620  1.6593
 4791SOL    HW226010   1.869   2.525   9.673 -0.8577 -1.3255  0.8768
 4792SOL     OW26011   2.504   0.722   3.995  0.2413 -0.1223  0.3988
 4792SOL    HW126012   2.531   0.652   3.936 -0.1920  0.4018 -0.4364
 4792SOL    HW226013   2.582   0.730   4.050  1.2819 -2.1225 -0.8096
 4793SOL     OW26014   0.008   1.438   1.715 -0.0018  0.1627 -0.5141
 4793SOL    HW126015   0.008   1.515   1.658 -2.2178  1.0517  0.7121
 4793SOL    HW226016   0.069   1.381   1.668 -0.0719 -2.2581  2.3177
 4794SOL     OW26017   4.154   2.455   5.309  0.0577 -0.1529  0.0569
 4794SOL    HW126018   4.206   2.392   5.258 -1.4395 -0.6856 -0.8009
 4794SOL    HW226019   4.221   2.519   5.332 -0.8831  0.9197 -0.2139
 4795SOL     OW26020   2.488   2.377   2.017  0.2833  0.2307  0.3462
 4795SOL    HW126021   2.538   2.333   2.086 -2.6545 -3.0070  0.4485
 4795SOL    HW226022   2.550   2.442   1.984 -1.2240  1.0268 -0.9120
 4796SOL     OW26023   0.060   3.928   7.362 -0.1243 -0.2388  0.0623
 4796SOL    HW126024   0.017   4.005   7.326 -0.2444 -1.2201 -1.8788
 4796SOL    HW226025   0.144   3.970   7.380  0.1548 -0.7384 -0.0579
 4797SOL     OW26026   3.594   2.489   5.814 -0.6667  0.1335  0.4296
 4797SOL    HW126027   3.644   2.467   5.735 -3.0059 -1.5793 -0.5614
 4797SOL    HW226028   3.595   2.406   5.863  0.8898 -0.0932  0.0372
 4798SOL     OW26029   2.332   3.736  14.929 -0.1407 -0.0378 -0.0323
 4798SOL    HW126030   2.275   3.755  15.003 -1.1221  1.1104 -1.0787
 4798SOL    HW226031   2.350   3.643  14.939  1.2246  0.2103 -0.1018
 4799SOL     OW26032   3.101   1.555   8.815 -0.1706  0.2929 -0.4899
 4799SOL    HW126033   3.037   1.588   8.878  0.7971 -0.3199  0.8077
 4799SOL    HW226034   3.176   1.614   8.817  1.1005 -1.3623 -0.0043
 4800SOL     OW26035   4.164   1.794   1.385 -0.3894  0.1723  0.7114
 4800SOL    HW126036   4.182   1.863   1.449  1.2643  0.1024  0.3378
 4800SOL    HW226037   4.126   1.729   1.443 -0.7426 -1.2018 -1.0669
 4801SOL     OW26038   4.228   1.932   2.619  0.1917  0.3866 -0.2322
 4801SOL    HW126039   4.160   1.992   2.650 -0.2346  0.3601 -1.0912
 4801SOL    HW226040   4.304   1.990   2.609  0.0841  0.3662 -1.1950
 4802SOL     OW26041   0.307   2.612   8.024 -0.1514 -0.0484  0.5964
 4802SOL    HW126042   0.287   2.574   7.938 -1.2014  1.8856 -0.0101
 4802SOL    HW226043   0.289   2.705   8.012 -2.0911 -0.3039  1.4037
 4803SOL     OW26044   0.402   3.149   3.836  0.3723 -0.3065  0.0652
 4803SOL    HW126045   0.414   3.054   3.826 -0.3850 -0.3234 -0.6630
 4803SOL    HW226046   0.455   3.169   3.759  0.1512  1.4228  0.3690
 4804SOL     OW26047   4.299   2.417   8.847 -0.5319  0.0824  0.9057
 4804SOL    HW126048   4.255   2.370   8.776  1.6236 -1.1442  0.3793
 4804SOL    HW226049   4.309   2.341   8.904 -1.2892  0.9240  2.1590
 4805SOL     OW26050   3.284   2.272   4.517  0.0462  0.4639  0.5292
 4805SOL    HW126051   3.318   2.243   4.602 -0.5366 -0.3963  0.4636
 4805SOL    HW226052   3.191   2.253   4.526  0.7470 -2.2821  2.0442
 4806SOL     OW26053   2.334   3.912   7.400 -0.3914 -0.0822  0.0420
 4806SOL    HW126054   2.267   3.854   7.365  0.2473  1.1886 -3.2803
 4806SOL    HW226055   2.291   3.998   7.399 -0.6217 -0.2076 -0.7625
 4807SOL     OW26056   1.355   0.707   8.749 -0.3362 -0.0689  0.0436
 4807SOL    HW126057   1.396   0.725   8.664 -0.0425 -1.4640 -0.0983
 4807SOL    HW226058   1.284   0.646   8.732 -0.0706  0.0313 -1.3884
 4808SOL     OW26059   0.308   3.097   5.073  0.4574  0.6242  0.3539
 4808SOL    HW126060   0.374   3.157   5.109 -1.2246  1.7661  1.5300
 4808SOL    HW226061   0.229   3.150   5.071 -1.6182 -2.4828 -0.0672
 4809SOL     OW26062   3.701   2.235   9.239 -0.0760 -0.0444 -0.2926
 4809SOL    HW126063   3.709   2.329   9.256  2.2607 -0.4591  0.8502
 4809SOL    HW226064   3.762   2.233   9.166  0.4122 -0.9295  0.1443
 4810SOL     OW26065   3.968   1.959   6.940 -0.2362  0.5008  0.3881
 4810SOL    HW126066   3.879   1.925   6.926  0.0127 -0.0409  0.1379
 4810SOL    HW226067   4.024   1.881   6.942 -1.7839 -0.6455 -0.9121
 4811SOL     OW26068   0.041   0.759   4.538  0.1499 -0.0694 -0.0161
 4811SOL    HW126069   0.134   0.754   4.560 -0.0851  1.2622  1.2825
 4811SOL    HW226070   0.024   0.667   4.561 -1.7638  0.2866  0.0066
 4812SOL     OW26071   0.640   4.732   9.936 -0.4756  0.2181  0.4561
 4812SOL    HW126072   0.559   4.710   9.981 -0.7836  0.0036 -0.2017
 4812SOL    HW226073   0.668   4.644   9.910 -1.5578 -0.1278  0.4692
 4813SOL     OW26074   0.088   3.214   2.223  0.1404  0.2985 -0.0156
 4813SOL    HW126075   0.183   3.228   2.231  0.1311 -0.4019  1.3388
 4813SOL    HW226076   0.082   3.128   2.263 -1.1863 -0.1617 -1.2336
 4814SOL     OW26077   4.086   0.724  13.089 -0.2519 -0.2626 -0.3349
 4814SOL    HW126078   4.014   0.731  13.027 -0.8656 -1.2486  0.2622
 4814SOL    HW226079   4.061   0.795  13.148 -0.2630 -0.0130 -0.6408
 4815SOL     OW26080   4.031   0.498  13.347 -0.5334 -0.3402 -0.0433
 4815SOL    HW126081   4.062   0.422  13.396 -1.4139 -0.3948  0.4278
 4815SOL    HW226082   4.109   0.521  13.297 -0.9933  0.7012 -0.2761
 4816SOL     OW26083   3.617   1.066  15.753 -0.8402  0.6062  0.0321
 4816SOL    HW126084   3.557   1.137  15.728 -1.0710 -0.2619 -1.8816
 4816SOL    HW226085   3.577   0.999  15.698 -0.8834  0.4675  0.2311
 4817SOL     OW26086   4.348   2.542   8.049 -0.4480 -0.4153 -0.6917
 4817SOL    HW126087   4.263   2.584   8.034 -0.8693  0.0531  3.0381
 4817SOL    HW226088   4.416   2.606   8.070 -2.2370  0.7811  1.3794
 4818SOL     OW26089   4.068   2.466   7.804  0.4867  0.6343 -0.1580
 4818SOL    HW126090   4.157   2.436   7.783  0.4045  0.2782 -0.0098
 4818SOL    HW226091   4.083   2.521   7.881  1.2495  0.4907 -0.1937
 4819SOL     OW26092   3.979   3.092   2.657 -0.2035 -0.3046 -0.4364
 4819SOL    HW126093   3.954   3.113   2.568 -0.7101 -0.0511 -0.2313
 4819SOL    HW226094   3.927   3.012   2.665 -2.8545  1.5832  0.9850
 4820SOL     OW26095   3.738   2.619   2.484  0.0778  0.2720  0.1424
 4820SOL    HW126096   3.714   2.532   2.453 -0.9552  0.2173  1.1079
 4820SOL    HW226097   3.724   2.674   2.407 -1.7676 -0.7373 -0.2274
 4821SOL     OW26098   0.876   3.505   0.676 -0.8069 -0.1769 -0.1194
 4821SOL    HW126099   0.820   3.544   0.609 -0.9961  0.9081  0.6659
 4821SOL    HW226100   0.863   3.563   0.752  1.0308 -0.2608  0.2575
 4822SOL     OW26101   3.947   1.271   9.421  0.1310 -0.1454 -0.2154
 4822SOL    HW126102   4.014   1.338   9.433 -0.6768  0.9059 -1.5502
 4822SOL    HW226103   3.951   1.241   9.512 -0.0849 -0.5330 -0.3364
 4823SOL     OW26104   2.839   4.497   3.300 -0.0456 -0.1024  0.0144
 4823SOL    HW126105   2.821   4.426   3.237  1.1087  0.1802 -0.6505
 4823SOL    HW226106   2.772   4.473   3.363 -0.2794 -0.8609 -0.5162
 4824SOL     OW26107   1.916   4.474   7.321 -0.2358  0.1910  0.6492
 4824SOL    HW126108   1.919   4.386   7.358  0.4652 -0.8486 -1.8887
 4824SOL    HW226109   1.947   4.531   7.391  1.1242  2.5245 -1.8118
 4825SOL     OW26110   1.518   3.629   7.904  0.1846  0.1843 -0.5526
 4825SOL    HW126111   1.500   3.614   7.997  0.6121  0.4390 -0.4295
 4825SOL    HW226112   1.572   3.555   7.878  1.7444  1.2288 -0.2653
 4826SOL     OW26113   3.324   2.495   7.229 -0.1828  0.2619 -0.1107
 4826SOL    HW126114   3.365   2.497   7.142  0.8726 -0.4847  0.3638
 4826SOL    HW226115   3.345   2.584   7.256 -0.1317 -0.2920  1.6629
 4827SOL     OW26116   4.516   0.848   5.713 -0.3440  0.0954  0.7882
 4827SOL    HW126117   4.553   0.923   5.759  0.1451 -1.4812  2.9779
 4827SOL    HW226118   4.423   0.866   5.729  0.0781  0.4446  2.8849
 4828SOL     OW26119   2.593   3.948   7.421 -0.6688 -0.0828  0.2170
 4828SOL    HW126120   2.500   3.928   7.419 -0.9181  1.2293 -1.4884
 4828SOL    HW226121   2.630   3.885   7.483 -0.3869 -0.9368 -0.8133
 4829SOL     OW26122   4.134   0.599  12.472 -0.1102 -0.8504  0.2859
 4829SOL    HW126123   4.051   0.581  12.517 -1.0047 -0.0954 -1.0314
 4829SOL    HW226124   4.200   0.570  12.534  0.3349  0.7331  0.5326
 4830SOL     OW26125   2.604   4.459  16.296 -0.5279  0.4518 -0.1215
 4830SOL    HW126126   2.584   4.378  16.343  1.1881 -0.6976 -1.3968
 4830SOL    HW226127   2.650   4.503  16.367  0.2365  0.5784 -0.6953
 4831SOL     OW26128   2.878   1.071  12.552  0.3820  0.5636  0.2505
 4831SOL    HW126129   2.946   1.047  12.615  3.2872  2.1024 -2.3020
 4831SOL    HW226130   2.926   1.147  12.520  0.6894 -0.2105 -1.1000
 4832SOL     OW26131   2.893   1.996  16.057 -0.0896  0.1239 -0.4208
 4832SOL    HW126132   2.819   2.051  16.031 -0.5423 -0.6556 -0.7561
 4832SOL    HW226133   2.912   1.944  15.979 -0.0291  1.5950 -1.4028
 4833SOL     OW26134   2.990   4.055   5.509 -0.0049 -0.8558 -0.3596
 4833SOL    HW126135   3.032   3.995   5.448 -0.5222 -1.1672 -0.4064
 4833SOL    HW226136   2.899   4.024   5.513  0.2237 -1.6773 -1.4299
 4834SOL     OW26137   2.684   0.605  12.265  0.5250  0.3550 -0.4328
 4834SOL    HW126138   2.670   0.671  12.333 -0.8403  0.3441 -0.7071
 4834SOL    HW226139   2.723   0.659  12.196 -0.1097  2.2015  0.6537
 4835SOL     OW26140   4.312   3.522   2.935 -0.4645  0.1361 -0.6123
 4835SOL    HW126141   4.253   3.451   2.910  2.7736 -2.8024  0.1808
 4835SOL    HW226142   4.348   3.554   2.853 -2.2221  0.8371 -1.1181
 4836SOL     OW26143   4.387   4.615   0.037  0.0143  0.1988  0.0145
 4836SOL    HW126144   4.302   4.660   0.038 -0.3301 -0.4787  1.5020
 4836SOL    HW226145   4.364   4.523   0.052  1.7723 -0.1533  0.5059
 4837SOL     OW26146   2.300   3.695   7.064  0.6825 -0.1239  0.4162
 4837SOL    HW126147   2.386   3.736   7.063 -0.7669  2.9662  2.9358
 4837SOL    HW226148   2.317   3.625   7.127  1.1459  0.7817  1.2848
 4838SOL     OW26149   4.480   2.076   3.727 -0.7453 -0.3775  0.4451
 4838SOL    HW126150   4.401   2.021   3.729 -0.1054 -1.3011  0.2942
 4838SOL    HW226151   4.446   2.161   3.700  2.3173  0.6353 -0.1685
 4839SOL     OW26152   1.296   4.482   4.683 -0.4221 -0.1672 -0.0951
 4839SOL    HW126153   1.382   4.448   4.656 -1.8885 -2.0547 -2.3403
 4839SOL    HW226154   1.285   4.451   4.773 -2.0218  0.8177  0.0337
 4840SOL     OW26155   2.420   1.153   7.497  0.2528  0.4394 -0.1838
 4840SOL    HW126156   2.442   1.151   7.404 -0.4905  0.0477 -0.3525
 4840SOL    HW226157   2.324   1.150   7.492  0.4014  0.0778 -2.6996
 4841SOL     OW26158   2.416   4.458  12.125  0.3749 -0.7147 -0.5401
 4841SOL    HW126159   2.427   4.366  12.100  0.2642 -0.5057 -1.3789
 4841SOL    HW226160   2.321   4.468  12.136  0.5089 -1.8151  1.5300
 4842SOL     OW26161   0.843   0.696  10.208 -0.0908  0.0925 -0.2315
 4842SOL    HW126162   0.882   0.734  10.287  0.5927 -0.5944 -0.2310
 4842SOL    HW226163   0.898   0.748  10.149 -0.6749  1.8185  0.7592
 4843SOL     OW26164   4.612   0.507  12.625  0.2444  0.4996  0.2140
 4843SOL    HW126165   4.697   0.523  12.583 -1.0094 -0.5025 -2.6740
 4843SOL    HW226166   4.626   0.420  12.662 -0.6213  0.0005 -0.6355
 4844SOL     OW26167   0.744   2.633   9.429 -0.5034  0.2163  0.2516
 4844SOL    HW126168   0.711   2.617   9.517 -1.8082  2.4104  0.1716
 4844SOL    HW226169   0.695   2.573   9.373 -1.6395 -0.9241  2.4863
 4845SOL     OW26170   0.516   2.456  11.149  0.0125 -0.2037 -0.0308
 4845SOL    HW126171   0.435   2.494  11.116 -0.2891  1.0587  2.1560
 4845SOL    HW226172   0.589   2.516  11.133  0.8412 -1.5800 -1.4266
 4846SOL     OW26173   2.607   3.609   8.233 -0.1143  0.0903  0.6007
 4846SOL    HW126174   2.563   3.646   8.310  1.6678  1.4524  0.9824
 4846SOL    HW226175   2.534   3.627   8.174 -0.2530 -2.4638  0.0113
 4847SOL     OW26176   3.081   1.603   2.081  0.2368  0.0380  0.0647
 4847SOL    HW126177   3.145   1.549   2.129 -0.9057 -0.6223  0.8359
 4847SOL    HW226178   3.010   1.539   2.082  1.0858 -0.9139  1.5815
 4848SOL     OW26179   3.689   3.931   4.206 -0.7404  1.1081  0.1902
 4848SOL    HW126180   3.623   3.922   4.274  0.5054  2.2293  1.5572
 4848SOL    HW226181   3.754   3.973   4.262  0.0900 -2.1656  1.6606
 4849SOL     OW26182   0.075   0.430   6.374  0.1674 -0.3302 -0.8508
 4849SOL    HW126183   0.134   0.401   6.444  0.3328  3.3560  0.5554
 4849SOL    HW226184   0.037   0.346   6.349  1.4232 -1.5219  1.2290
 4850SOL     OW26185   2.460   2.947  10.074  0.1065 -0.4016  0.0957
 4850SOL    HW126186   2.545   2.969  10.111 -0.5185  0.6848  0.8891
 4850SOL    HW226187   2.402   2.937  10.150 -0.5671  1.2758 -0.2116
 4851SOL     OW26188   0.534   4.130  12.012  0.4535 -0.3407 -0.3525
 4851SOL    HW126189   0.554   4.220  11.986  1.4764 -0.4384  0.0828
 4851SOL    HW226190   0.460   4.105  11.956  0.8505 -0.5477 -0.7902
 4852SOL     OW26191   0.797   0.072   8.412  0.0394  0.0586  0.2737
 4852SOL    HW126192   0.781   0.029   8.327 -0.1681 -0.7973  0.7440
 4852SOL    HW226193   0.720   0.128   8.421  1.1257  1.7419 -0.9364
 4853SOL     OW26194   4.579   3.102  11.423  0.1871 -0.1823  0.1917
 4853SOL    HW126195   4.515   3.173  11.424  0.5613  0.1103  3.7686
 4853SOL    HW226196   4.598   3.092  11.516 -0.0120  0.2905  0.2842
 4854SOL     OW26197   0.979   4.388   5.058  0.0614 -0.3924  0.2121
 4854SOL    HW126198   1.000   4.454   5.124  0.5932  0.2636 -0.6131
 4854SOL    HW226199   1.007   4.313   5.111  0.2369 -1.6023 -1.5409
 4855SOL     OW26200   3.709   1.294   7.804  0.5214  0.0041  0.6063
 4855SOL    HW126201   3.719   1.262   7.894  0.2193  2.4194  1.4931
 4855SOL    HW226202   3.676   1.379   7.833  0.3511 -0.0665  0.6182
 4856SOL     OW26203   4.584   1.777   8.751 -0.2462  0.2004  0.2455
 4856SOL    HW126204   4.610   1.686   8.740 -0.2719  0.0366  1.5133
 4856SOL    HW226205   4.664   1.830   8.750  1.3403 -2.1774  1.5956
 4857SOL     OW26206   2.249   4.207   5.485  0.9273 -0.7982 -0.1073
 4857SOL    HW126207   2.247   4.245   5.398  0.9319  0.1962  0.3284
 4857SOL    HW226208   2.162   4.218   5.525  0.6217  0.1655 -1.0434
 4858SOL     OW26209   4.257   4.311   2.057 -0.2154  0.2812 -0.1944
 4858SOL    HW126210   4.208   4.393   2.070  1.0890  1.0188  0.0734
 4858SOL    HW226211   4.216   4.273   1.980 -0.0509 -0.6890  0.1956
 4859SOL     OW26212   4.002   2.028   4.965 -0.2461 -0.1165  0.0097
 4859SOL    HW126213   3.922   2.002   4.920  1.0197 -2.7667 -0.7649
 4859SOL    HW226214   4.038   2.089   4.900  0.7680 -2.9832 -2.1644
 4860SOL     OW26215   0.644   2.428   4.130 -0.1845  0.3612 -0.9077
 4860SOL    HW126216   0.669   2.360   4.192  2.0737  0.8831 -1.2308
 4860SOL    HW226217   0.559   2.400   4.097  0.3921 -0.3015 -1.8505
 4861SOL     OW26218   0.690   0.604  13.318  1.1235 -0.0790  0.7547
 4861SOL    HW126219   0.702   0.699  13.320 -1.7007  0.2678  0.4828
 4861SOL    HW226220   0.765   0.582  13.374  1.2378  0.5214  0.8403
 4862SOL     OW26221   0.794   1.417  12.967 -0.2306 -0.6019 -0.7889
 4862SOL    HW126222   0.747   1.469  13.032  1.7918 -0.0532  0.2334
 4862SOL    HW226223   0.883   1.451  12.966 -1.3391  2.2631  0.5279
 4863SOL     OW26224   3.346   2.849   9.172  0.3193 -0.0294  0.7695
 4863SOL    HW126225   3.434   2.812   9.178 -0.9124 -3.1277 -0.1786
 4863SOL    HW226226   3.354   2.914   9.242  2.1079 -2.0139  2.4208
 4864SOL     OW26227   4.262   3.372   9.345 -0.2201 -0.5194  0.1110
 4864SOL    HW126228   4.283   3.283   9.316 -0.1322  0.2040 -2.1020
 4864SOL    HW226229   4.334   3.382   9.408 -2.0607  2.1551  1.7863
 4865SOL     OW26230   0.881   4.104   2.934 -0.4995 -0.2474 -0.2743
 4865SOL    HW126231   0.854   4.016   2.963 -0.6570 -0.7795 -2.0537
 4865SOL    HW226232   0.819   4.114   2.861 -0.7881 -1.6468 -0.2233
 4866SOL     OW26233   1.816   3.550  16.188  0.4768  0.0377  0.2398
 4866SOL    HW126234   1.829   3.611  16.261  2.2901  0.6345 -0.5858
 4866SOL    HW226235   1.720   3.555  16.184  0.5293 -0.0396 -1.0724
 4867SOL     OW26236   3.678   2.422   3.576  0.1977 -0.6425  0.3873
 4867SOL    HW126237   3.618   2.354   3.607 -0.2944  0.0684  0.9959
 4867SOL    HW226238   3.714   2.468   3.652  0.2197 -0.1303  0.0657
 4868SOL     OW26239   2.240   2.113  10.067  0.0163 -0.0543 -0.5860
 4868SOL    HW126240   2.183   2.062  10.010 -0.6765 -0.9981  0.9410
 4868SOL    HW226241   2.309   2.135  10.005 -0.3264  3.6194  0.3070
 4869SOL     OW26242   2.467   0.296   7.767 -0.0528 -0.3631  0.2024
 4869SOL    HW126243   2.411   0.374   7.758 -0.3308 -0.5518  0.3163
 4869SOL    HW226244   2.461   0.278   7.861  1.7111 -1.1004  0.1577
 4870SOL     OW26245   0.107   2.065  11.713  0.0904  0.1920 -0.4141
 4870SOL    HW126246   0.111   1.970  11.700 -1.7178 -0.0556  0.8552
 4870SOL    HW226247   0.058   2.078  11.632 -1.4632  0.1283  0.5240
 4871SOL     OW26248   3.539   3.683   9.436  0.2536  0.0376 -0.2834
 4871SOL    HW126249   3.605   3.662   9.370  0.2285  1.6517 -0.8105
 4871SOL    HW226250   3.551   3.600   9.483 -1.2240 -0.5537 -0.9265
 4872SOL     OW26251   0.548   4.288   6.442  0.0406 -0.2074 -0.1830
 4872SOL    HW126252   0.583   4.373   6.418  1.0572 -0.9760 -1.4082
 4872SOL    HW226253   0.495   4.258   6.368 -0.0755 -0.7682  0.1281
 4873SOL     OW26254   4.327   0.022   2.111  0.1284 -0.5712 -0.1567
 4873SOL    HW126255   4.232   0.011   2.104  0.0788  0.5153 -1.0243
 4873SOL    HW226256   4.353   4.681   2.163 -0.3626 -2.6014 -2.9044
 4874SOL     OW26257   1.781   1.151   8.645  0.0391  0.4064 -0.2058
 4874SOL    HW126258   1.819   1.065   8.660  0.2342  0.6969  0.9874
 4874SOL    HW226259   1.853   1.214   8.639 -1.3652  1.8451 -1.9362
 4875SOL     OW26260   4.082   1.155   0.555  0.3349  0.6334 -0.0143
 4875SOL    HW126261   4.061   1.245   0.528  0.4929 -0.1940 -2.8871
 4875SOL    HW226262   4.018   1.131   0.621  0.2065 -1.7122 -1.0170
 4876SOL     OW26263   3.509   4.678  17.194 -0.0961 -0.0301  0.0547
 4876SOL    HW126264   3.581   4.725  17.152  0.9881 -2.5723 -0.9361
 4876SOL    HW226265   3.521   4.701  17.286 -1.6464 -0.7859  0.4423
 4877SOL     OW26266   2.596   1.560   4.117  0.0672 -0.0505 -0.8012
 4877SOL    HW126267   2.621   1.468   4.117  4.3488  1.0618  1.1925
 4877SOL    HW226268   2.678   1.591   4.157  0.3860 -0.3630 -1.2059
 4878SOL     OW26269   1.652   2.257  13.367  0.0740 -0.2753  0.3057
 4878SOL    HW126270   1.573   2.208  13.343  0.5666 -0.8105 -0.2052
 4878SOL    HW226271   1.630   2.351  13.369  0.9313 -0.0781  0.5096
 4879SOL     OW26272   0.164   2.258  15.178 -0.2421 -0.2058  0.5981
 4879SOL    HW126273   0.200   2.207  15.250  2.2174  1.5343  0.6356
 4879SOL    HW226274   0.213   2.341  15.172  1.3968 -1.0594  2.2947
 4880SOL     OW26275   3.367   4.433   7.033  0.6206 -0.7116 -0.1625
 4880SOL    HW126276   3.275   4.440   7.009  0.2594  0.3516  1.5146
 4880SOL    HW226277   3.408   4.513   6.999 -2.0415 -0.0101 -1.6920
 4881SOL     OW26278   3.311   2.153   7.058  0.3188  0.0510  0.0845
 4881SOL    HW126279   3.218   2.149   7.079  0.4756  1.1975  0.9911
 4881SOL    HW226280   3.320   2.095   6.982  3.0165  0.1751  0.3036
 4882SOL     OW26281   2.204   1.803   1.974 -0.1880  0.0426  0.3848
 4882SOL    HW126282   2.125   1.790   2.026  1.4334 -4.4307  1.7244
 4882SOL    HW226283   2.233   1.716   1.947  1.2442 -0.1100  2.4241
 4883SOL     OW26284   0.302   2.884   6.033 -0.6166 -0.0695  0.3830
 4883SOL    HW126285   0.332   2.797   6.007 -2.4990 -0.2816 -1.0714
 4883SOL    HW226286   0.333   2.926   5.953  0.0054  0.0293  0.6783
 4884SOL     OW26287   4.562   1.557  11.691 -0.9878 -0.4812  0.8686
 4884SOL    HW126288   4.567   1.646  11.657 -0.4823 -0.0666  2.0083
 4884SOL    HW226289   4.637   1.566  11.750 -0.5031  1.5431 -0.0698
 4885SOL     OW26290   2.815   0.761  16.926  0.0708  0.7133 -0.7231
 4885SOL    HW126291   2.731   0.759  16.880 -1.6487  0.2356  2.4786
 4885SOL    HW226292   2.870   0.723  16.857  1.8325 -0.3926  1.2864
 4886SOL     OW26293   4.554   3.160   6.376  0.3593  0.3253  0.0539
 4886SOL    HW126294   4.595   3.099   6.315  0.6411  1.8969 -1.3636
 4886SOL    HW226295   4.620   3.171   6.444 -1.3394 -1.1681  1.8930
 4887SOL     OW26296   2.772   3.454  17.199 -0.4501 -0.5627 -0.1433
 4887SOL    HW126297   2.815   3.464  17.284  0.4183 -3.0553 -0.3049
 4887SOL    HW226298   2.686   3.414  17.211 -2.2537  2.2688 -3.6291
 4888SOL     OW26299   1.116   0.798   9.172  0.1222 -0.2393 -0.2746
 4888SOL    HW126300   1.210   0.786   9.163  0.3529  2.3176 -1.3436
 4888SOL    HW226301   1.116   0.887   9.207  0.9150 -0.7040  0.9212
 4889SOL     OW26302   1.110   3.065   2.235 -0.2859  0.0260  0.0710
 4889SOL    HW126303   1.189   3.012   2.229  0.2412  0.8682 -0.5295
 4889SOL    HW226304   1.151   3.149   2.256 -0.2315  0.0210 -0.0135
 4890SOL     OW26305   4.342   1.000  13.382  0.5068 -0.6347 -0.1352
 4890SOL    HW126306   4.353   1.090  13.352  0.8126 -0.8028 -0.5259
 4890SOL    HW226307   4.314   0.951  13.304  1.3194 -1.3443  0.0173
 4891SOL     OW26308   1.115   0.521   5.392  0.1890  0.2799  0.0254
 4891SOL    HW126309   1.056   0.461   5.347  1.4528  0.7199 -2.2094
 4891SOL    HW226310   1.190   0.467   5.416 -0.5153  1.0303  3.9423
 4892SOL     OW26311   3.533   4.547   5.570 -0.8886 -0.4486  0.4092
 4892SOL    HW126312   3.608   4.585   5.524 -1.5146 -0.9082 -0.9946
 4892SOL    HW226313   3.461   4.578   5.515  0.0504 -1.0872 -1.1768
 4893SOL     OW26314   3.044   4.051  13.317  0.0635  0.6541  0.3086
 4893SOL    HW126315   3.059   4.121  13.381  0.2759  1.0838 -0.2104
 4893SOL    HW226316   2.950   4.036  13.322  0.1228 -0.1328 -1.0411
 4894SOL     OW26317   4.475   0.408   1.949  0.2729  0.9439  0.3961
 4894SOL    HW126318   4.505   0.496   1.973 -1.0950  2.1478 -2.3577
 4894SOL    HW226319   4.502   0.350   2.020 -0.7230 -1.4475 -1.1666
 4895SOL     OW26320   4.533   2.115   5.241  0.0290 -0.4509  0.1972
 4895SOL    HW126321   4.572   2.075   5.319 -2.6486 -1.8664  0.8201
 4895SOL    HW226322   4.450   2.134   5.285 -0.3748 -1.5348 -0.0935
 4896SOL     OW26323   2.404   1.754  13.988 -0.0310  0.0665 -0.0780
 4896SOL    HW126324   2.351   1.766  13.909 -0.8050  1.0266  0.5842
 4896SOL    HW226325   2.331   1.766  14.049  1.1757  0.9424  1.1835
 4897SOL     OW26326   4.319   2.446   5.544 -0.2936 -0.7107  0.5103
 4897SOL    HW126327   4.269   2.483   5.617  0.6308  2.3928 -0.4124
 4897SOL    HW226328   4.309   2.522   5.486 -0.8568 -2.1471 -1.2749
 4898SOL     OW26329   0.060   3.885   4.188  0.4987 -0.3512 -0.2094
 4898SOL    HW126330   0.051   3.810   4.129 -0.5836  1.7536 -2.7124
 4898SOL    HW226331   0.114   3.841   4.254 -1.4426  0.5996  2.0233
 4899SOL     OW26332   1.568   2.163   5.637  1.2115  0.1332  0.3910
 4899SOL    HW126333   1.587   2.242   5.586 -0.5859  0.2773 -0.0706
 4899SOL    HW226334   1.523   2.112   5.569 -0.8778  1.2166  0.9507
 4900SOL     OW26335   2.972   0.595  13.185  1.6055  0.3951 -0.6405
 4900SOL    HW126336   2.986   0.520  13.243 -2.2630 -1.0415 -1.5903
 4900SOL    HW226337   2.880   0.576  13.168  0.5182  1.3735  4.0251
 4901SOL     OW26338   4.264   4.091   3.970 -0.4086  0.6518  0.0985
 4901SOL    HW126339   4.303   4.053   3.892 -3.4980  3.5387 -2.8510
 4901SOL    HW226340   4.191   4.139   3.931 -1.1880 -1.7411 -1.4062
 4902SOL     OW26341   2.815   4.422  17.073 -0.0187 -0.4381 -0.5654
 4902SOL    HW126342   2.898   4.466  17.088  0.0104 -1.6198  2.8653
 4902SOL    HW226343   2.831   4.412  16.980  3.2021 -0.1042 -0.0416
 4903SOL     OW26344   2.611   3.290   9.638 -0.1019  0.0645  0.1674
 4903SOL    HW126345   2.707   3.290   9.646 -0.1294  4.1617  0.6402
 4903SOL    HW226346   2.582   3.240   9.714  0.8812 -1.3156 -0.3527
 4904SOL     OW26347   3.320   1.880   4.596 -0.4535 -0.5933  0.6916
 4904SOL    HW126348   3.224   1.873   4.598 -0.5210  0.3690  0.9165
 4904SOL    HW226349   3.336   1.971   4.621  1.7428 -1.0194  0.7913
 4905SOL     OW26350   2.824   3.949   2.785  0.1030 -0.2217 -0.3857
 4905SOL    HW126351   2.871   3.877   2.742  0.4521 -0.7008  0.7815
 4905SOL    HW226352   2.900   3.988   2.829 -1.2933 -0.4056  2.1640
 4906SOL     OW26353   3.806   3.141   9.931  0.3083  0.2004 -0.0559
 4906SOL    HW126354   3.839   3.086  10.002 -1.5577 -1.1416 -0.2144
 4906SOL    HW226355   3.796   3.224   9.977 -0.4790  1.1739 -1.9839
 4907SOL     OW26356   0.968   0.016   3.870  0.1783  0.5232  0.4867
 4907SOL    HW126357   0.944   4.658   3.869 -0.2663  0.6543 -1.2830
 4907SOL    HW226358   0.955   0.013   3.965 -0.6983 -2.3716  0.2617
 4908SOL     OW26359   4.665   1.951   9.691  0.1676  0.2962  0.1976
 4908SOL    HW126360   4.682   2.045   9.699 -2.0238  0.6675  0.6089
 4908SOL    HW226361   4.703   1.923   9.775  0.3343  0.7377  0.2704
 4909SOL     OW26362   0.480   3.565  16.474 -0.4963  0.4836 -0.5470
 4909SOL    HW126363   0.508   3.599  16.389 -0.3872 -0.4428 -0.8750
 4909SOL    HW226364   0.505   3.474  16.457  0.4372  0.8776 -1.2961
 4910SOL     OW26365   2.907   4.415   6.800  0.3321  0.4173  0.1302
 4910SOL    HW126366   2.849   4.452   6.734 -0.0069 -0.9044 -0.3251
 4910SOL    HW226367   2.916   4.322   6.780 -1.4785  0.4022 -0.5429
 4911SOL     OW26368   1.703   3.984  14.309  0.1713  0.0729  0.2223
 4911SOL    HW126369   1.611   3.964  14.328 -0.5057  0.6552 -2.3395
 4911SOL    HW226370   1.749   3.929  14.371  0.3286 -0.0450  0.0021
 4912SOL     OW26371   2.327   3.450   8.788  0.0140 -0.9117 -0.3197
 4912SOL    HW126372   2.391   3.483   8.725 -1.4737  1.3978 -0.6198
 4912SOL    HW226373   2.273   3.528   8.800 -0.0611 -0.8271 -1.2512
 4913SOL     OW26374   2.251   0.507   3.053 -0.2351 -0.1641  0.1692
 4913SOL    HW126375   2.304   0.427   3.059 -0.2581 -0.1850  0.0997
 4913SOL    HW226376   2.282   0.526   2.964  1.3164 -2.5512  0.1929
 4914SOL     OW26377   0.810   1.266  12.656  0.7413 -0.0926  0.2336
 4914SOL    HW126378   0.855   1.189  12.690  0.8477  0.1662  0.6861
 4914SOL    HW226379   0.765   1.308  12.730  2.2186  1.0509  0.4729
 4915SOL     OW26380   3.295   3.857   0.482  0.4950  0.0375  0.3717
 4915SOL    HW126381   3.345   3.911   0.421 -1.6806 -0.4475 -1.8446
 4915SOL    HW226382   3.214   3.854   0.431  1.5579 -0.2195 -1.2941
 4916SOL     OW26383   4.462   4.454   9.039 -0.2329 -0.1095  0.9384
 4916SOL    HW126384   4.545   4.494   9.065  0.3106 -0.1178 -0.7650
 4916SOL    HW226385   4.417   4.455   9.123  0.6931  1.0900  1.4226
 4917SOL     OW26386   3.719   4.107   5.336 -0.0274  0.0869 -0.5128
 4917SOL    HW126387   3.740   4.187   5.384 -0.6228 -0.6133  0.8960
 4917SOL    HW226388   3.683   4.063   5.413  0.2147 -0.2317 -0.5861
 4918SOL     OW26389   0.980   0.659   6.163 -0.2393  0.7018  0.3997
 4918SOL    HW126390   0.939   0.710   6.233  0.3578  0.7391  0.7276
 4918SOL    HW226391   1.073   0.661   6.187  0.1543  0.5117 -1.1257
 4919SOL     OW26392   0.310   3.593   4.991 -0.0953 -0.1822  0.1828
 4919SOL    HW126393   0.335   3.665   4.933 -0.8560  0.5334  0.7459
 4919SOL    HW226394   0.339   3.519   4.937  1.3233  0.1434  0.5038
 4920SOL     OW26395   2.907   3.101   5.705 -0.4908  0.1873  0.1095
 4920SOL    HW126396   2.946   3.183   5.733 -4.2376  1.9177  0.2831
 4920SOL    HW226397   2.990   3.061   5.678 -0.1515  0.9311  0.0400
 4921SOL     OW26398   2.777   0.896   6.630  0.2360 -0.5586 -0.0470
 4921SOL    HW126399   2.832   0.835   6.679  0.4817 -1.7240 -1.7879
 4921SOL    HW226400   2.703   0.888   6.691  0.9212 -1.0521  0.7292
 4922SOL     OW26401   1.684   4.343  14.393  0.3139  0.0721 -0.6513
 4922SOL    HW126402   1.635   4.275  14.348 -0.3183  0.5504 -0.6892
 4922SOL    HW226403   1.628   4.417  14.369  0.3443 -0.1102 -1.2806
 4923SOL     OW26404   2.641   2.401   6.075  0.0583 -0.1078  0.1384
 4923SOL    HW126405   2.600   2.476   6.118 -0.2113 -0.6824  0.9090
 4923SOL    HW226406   2.608   2.336   6.138 -0.0489  1.1037  1.3280
 4924SOL     OW26407   1.796   0.258   8.245 -0.6478 -0.3826  0.2749
 4924SOL    HW126408   1.705   0.238   8.225 -0.3562  0.3816 -1.8284
 4924SOL    HW226409   1.836   0.172   8.232 -1.6679 -0.8161  0.0164
 4925SOL     OW26410   3.635   1.388   1.132 -0.1500  0.2504  0.4016
 4925SOL    HW126411   3.639   1.343   1.217  1.2064  0.4799  0.4577
 4925SOL    HW226412   3.549   1.427   1.120 -0.2973  0.0909  0.9277
 4926SOL     OW26413   0.137   3.413  16.372 -0.4750  0.2144  0.1490
 4926SOL    HW126414   0.066   3.433  16.311 -0.4627  1.3075  0.5074
 4926SOL    HW226415   0.209   3.383  16.316  0.4674  2.0886  0.3724
 4927SOL     OW26416   2.159   1.851   4.222  0.4465  1.1151  0.5832
 4927SOL    HW126417   2.180   1.887   4.308  1.6486 -1.3027  1.3006
 4927SOL    HW226418   2.227   1.784   4.214 -1.1711 -0.8527  3.5080
 4928SOL     OW26419   1.824   3.740   6.360 -0.1872 -0.0137  0.1688
 4928SOL    HW126420   1.898   3.689   6.395  0.1751  1.8729  2.1089
 4928SOL    HW226421   1.865   3.788   6.287 -0.3875  0.3401  0.2913
 4929SOL     OW26422   3.024   1.911   7.702 -0.1441 -0.2310 -0.5281
 4929SOL    HW126423   2.980   1.991   7.732  0.0085 -0.1665 -0.4742
 4929SOL    HW226424   3.114   1.927   7.732  0.7522  0.5701 -3.6568
 4930SOL     OW26425   0.640   1.888   9.368  0.3052  0.2311 -0.5451
 4930SOL    HW126426   0.590   1.955   9.414  1.3704  0.9605 -0.4671
 4930SOL    HW226427   0.727   1.917   9.395  0.6652 -0.5165 -0.8839
 4931SOL     OW26428   1.670   1.594   8.876 -0.7141  0.4057  0.1948
 4931SOL    HW126429   1.765   1.600   8.867 -0.4343 -1.8101  1.7200
 4931SOL    HW226430   1.652   1.584   8.783  1.1097 -1.8644  0.0937
 4932SOL     OW26431   0.394   3.044  13.042 -0.2547  0.1461 -0.0854
 4932SOL    HW126432   0.442   3.096  13.106 -2.5526  2.8298 -0.5277
 4932SOL    HW226433   0.312   3.027  13.089  0.6931 -1.1127  1.1263
 4933SOL     OW26434   0.099   3.034  12.980  0.1599 -0.4379 -0.0316
 4933SOL    HW126435   0.030   3.086  13.021  0.9850  0.7006 -0.0622
 4933SOL    HW226436   0.115   2.977  13.055  2.4721 -0.1502 -0.3040
 4934SOL     OW26437   3.419   1.829   7.079 -0.2504  0.1208  0.1317
 4934SOL    HW126438   3.451   1.740   7.098  1.2115  1.0122  1.8633
 4934SOL    HW226439   3.458   1.870   7.156 -0.8024  1.3444 -0.2503
 4935SOL     OW26440   1.956   0.054   6.272 -0.1104  0.5174  0.3003
 4935SOL    HW126441   1.880   0.015   6.315  0.2747  0.4402  0.9103
 4935SOL    HW226442   1.996   4.708   6.240 -1.3205  0.0636 -0.0619
 4936SOL     OW26443   0.464   4.390  16.932 -0.0081  0.3510 -0.1544
 4936SOL    HW126444   0.495   4.423  16.848 -0.7901  1.4847  0.0005
 4936SOL    HW226445   0.372   4.372  16.913 -0.2953  0.3701  1.1889
 4937SOL     OW26446   0.023   2.933   5.445 -0.4822 -0.2381 -0.4287
 4937SOL    HW126447   4.701   2.857   5.446 -0.1767 -0.4569  0.5555
 4937SOL    HW226448   4.711   3.001   5.397  0.2972  1.2896  0.9643
 4938SOL     OW26449   2.600   0.202   4.817  0.4645 -0.3070 -0.4686
 4938SOL    HW126450   2.664   0.209   4.888  0.0877  2.7630 -0.4393
 4938SOL    HW226451   2.542   0.276   4.833 -0.1342 -1.2025  1.4863
 4939SOL     OW26452   1.973   1.104   6.452  0.7099  0.0999 -0.1685
 4939SOL    HW126453   2.012   1.024   6.485  3.3779  1.9287  1.1622
 4939SOL    HW226454   1.897   1.074   6.403 -2.1976  3.0060  2.4763
 4940SOL     OW26455   1.253   1.344  10.337  0.3638 -0.4326 -0.4548
 4940SOL    HW126456   1.270   1.420  10.393  2.1562  1.2835 -3.2966
 4940SOL    HW226457   1.305   1.376  10.263 -0.1447  0.7042 -0.3054
 4941SOL     OW26458   0.327   0.357   5.502 -0.3610 -0.0682 -0.0388
 4941SOL    HW126459   0.329   0.332   5.594 -0.5230  1.9017  0.5127
 4941SOL    HW226460   0.420   0.361   5.480 -0.4142 -1.2561 -0.4466
 4942SOL     OW26461   2.759   1.130   5.126 -0.4102 -0.1516  0.2437
 4942SOL    HW126462   2.692   1.194   5.148 -0.6663 -1.1444  2.4179
 4942SOL    HW226463   2.733   1.096   5.041 -0.0583  0.6598 -0.1885
 4943SOL     OW26464   1.730   2.314   4.279 -0.5498 -0.0537 -0.3152
 4943SOL    HW126465   1.805   2.365   4.249 -1.1746  0.4520 -1.0172
 4943SOL    HW226466   1.697   2.379   4.342  3.6143  0.8981  0.8760
 4944SOL     OW26467   2.550   1.556  11.924 -0.4207  0.0647  0.0012
 4944SOL    HW126468   2.583   1.634  11.969 -2.9057  0.0482  1.8704
 4944SOL    HW226469   2.605   1.488  11.962 -0.0600 -1.1524 -2.6695
 4945SOL     OW26470   0.311   2.144   3.798 -0.0469 -0.0068 -0.6029
 4945SOL    HW126471   0.275   2.228   3.769  2.1169  0.2791 -2.5266
 4945SOL    HW226472   0.318   2.144   3.893  2.6520 -1.1241 -0.7893
 4946SOL     OW26473   3.536   3.457   0.590 -0.0438 -0.1519 -0.1077
 4946SOL    HW126474   3.506   3.529   0.534  0.5345 -1.1894 -1.7451
 4946SOL    HW226475   3.508   3.381   0.539 -1.3854  1.2325 -1.4532
 4947SOL     OW26476   3.558   0.600   2.509 -1.1316  1.0221 -0.1652
 4947SOL    HW126477   3.500   0.603   2.433  0.2035 -0.7675 -1.2509
 4947SOL    HW226478   3.511   0.658   2.570 -2.7209  0.3036 -0.7288
 4948SOL     OW26479   1.692   3.370  14.460 -0.2347 -0.2003 -0.1574
 4948SOL    HW126480   1.627   3.432  14.428 -1.0993  0.0500  2.1034
 4948SOL    HW226481   1.665   3.288  14.418 -2.4322  0.6139 -0.3159
 4949SOL     OW26482   2.857   2.126   4.121 -0.2474 -0.4663  0.2849
 4949SOL    HW126483   2.932   2.089   4.074 -1.1844 -0.2226 -1.4046
 4949SOL    HW226484   2.904   2.184   4.181 -2.3021  0.7980  0.6666
 4950SOL     OW26485   4.690   4.138   4.140 -0.3156 -0.0602  0.6377
 4950SOL    HW126486   0.005   4.174   4.213  0.4230 -3.4412  1.8201
 4950SOL    HW226487   4.728   4.050   4.140  0.5286  0.2985  1.2521
 4951SOL     OW26488   0.476   1.701   9.540  0.2551 -0.0495 -0.7028
 4951SOL    HW126489   0.434   1.786   9.553  0.8313 -0.1060  1.4628
 4951SOL    HW226490   0.403   1.640   9.531 -0.8430  1.1974 -0.2642
 4952SOL     OW26491   1.581   1.403   5.432  0.1239 -0.2822  0.4463
 4952SOL    HW126492   1.525   1.472   5.467  0.3592 -1.2751  2.7811
 4952SOL    HW226493   1.531   1.325   5.453 -0.7571 -0.6287 -3.0936
 4953SOL     OW26494   3.696   2.765  13.278 -0.4141  0.4999 -0.1471
 4953SOL    HW126495   3.689   2.670  13.288  2.2182  0.2674 -0.7328
 4953SOL    HW226496   3.688   2.776  13.183 -2.2494 -0.3562 -0.1071
 4954SOL     OW26497   0.855   0.408   2.241 -0.1634  0.6361  0.2924
 4954SOL    HW126498   0.903   0.332   2.274 -2.3015 -0.1941  1.4422
 4954SOL    HW226499   0.923   0.443   2.183 -1.4923  0.5777 -1.3006
 4955SOL     OW26500   2.028   0.082   9.629 -0.1473  0.2098 -0.1664
 4955SOL    HW126501   2.000   4.727   9.642 -2.1115  0.6011 -1.5863
 4955SOL    HW226502   2.083   0.100   9.705  1.1588 -0.0909 -1.0390
 4956SOL     OW26503   0.057   3.289   6.461  0.5947 -0.1201 -0.3829
 4956SOL    HW126504   0.141   3.281   6.416 -0.0883 -1.6212 -1.3809
 4956SOL    HW226505   0.007   3.358   6.419  2.2761 -0.1033 -2.3291
 4957SOL     OW26506   0.405   2.619   5.322  0.1294 -0.4401  0.4966
 4957SOL    HW126507   0.363   2.697   5.359 -0.2718 -1.3135  1.8741
 4957SOL    HW226508   0.435   2.643   5.235  0.9453  0.0454  0.9037
 4958SOL     OW26509   0.334   1.896   5.749 -0.3045  0.0595 -0.2955
 4958SOL    HW126510   0.310   1.808   5.777  0.1223  0.8769  2.6578
 4958SOL    HW226511   0.423   1.877   5.722 -0.7079 -2.7818  0.3643
 4959SOL     OW26512   0.974   4.618   6.519  0.1450  0.2078  0.5799
 4959SOL    HW126513   0.901   4.584   6.466 -1.3032  1.3779  1.8172
 4959SOL    HW226514   0.939   4.685   6.578 -2.5038  0.6847 -1.5411
 4960SOL     OW26515   2.643   4.383   7.993 -0.1085  0.0626  0.0941
 4960SOL    HW126516   2.739   4.385   7.998 -0.0978 -1.0232  0.2597
 4960SOL    HW226517   2.631   4.321   7.921  0.4113  0.5292 -0.3938
 4961SOL     OW26518   3.006   4.083  11.001  0.0731 -0.6930 -0.2385
 4961SOL    HW126519   3.029   4.000  11.042 -1.6527 -0.4895  1.1743
 4961SOL    HW226520   2.930   4.050  10.954 -1.2515 -0.0727  1.4732
 4962SOL     OW26521   1.076   0.403   8.217  0.0518 -0.0474 -0.1862
 4962SOL    HW126522   1.095   0.495   8.202 -0.8855  0.3185  0.8687
 4962SOL    HW226523   1.049   0.395   8.308 -1.5457  0.2956 -0.6323
 4963SOL     OW26524   1.868   4.100   1.908  0.5363  0.1754 -0.2960
 4963SOL    HW126525   1.827   4.176   1.949 -2.1999 -0.2506 -2.2983
 4963SOL    HW226526   1.820   4.030   1.952 -1.3368  0.9301 -1.1830
 4964SOL     OW26527   0.404   0.766  12.031 -0.6976 -0.4231  0.8185
 4964SOL    HW126528   0.446   0.686  11.998 -1.7967 -0.0244 -1.5371
 4964SOL    HW226529   0.480   0.793  12.083  0.2999 -0.5279 -0.6053
 4965SOL     OW26530   0.700   0.437   4.170 -0.2975 -0.0788  0.5653
 4965SOL    HW126531   0.705   0.477   4.084 -0.3611  0.8642  0.9966
 4965SOL    HW226532   0.757   0.363   4.149 -1.3938 -0.1169 -2.2442
 4966SOL     OW26533   0.323   0.405   8.585  0.0551  0.0761  0.0747
 4966SOL    HW126534   0.369   0.477   8.627  0.1204 -0.7410  1.4070
 4966SOL    HW226535   0.257   0.463   8.546 -0.3414  0.7908  1.7613
 4967SOL     OW26536   2.740   3.636  10.398  0.3171 -0.1077  0.0896
 4967SOL    HW126537   2.805   3.705  10.381  0.9434 -1.3597 -2.6590
 4967SOL    HW226538   2.728   3.636  10.493  0.0160 -1.0009  0.0420
 4968SOL     OW26539   4.238   1.130   6.029  0.0672  0.1691 -0.6076
 4968SOL    HW126540   4.159   1.159   6.074  0.3111 -2.7908  1.7866
 4968SOL    HW226541   4.288   1.210   6.014  1.2039  0.1879  3.2830
 4969SOL     OW26542   1.684   1.878  16.515  0.6049  0.3171 -0.1682
 4969SOL    HW126543   1.673   1.789  16.483  1.8324  0.2138 -0.3285
 4969SOL    HW226544   1.638   1.886  16.598 -0.0032 -2.1884 -0.2815
 4970SOL     OW26545   2.917   1.743   6.450 -0.0018  0.3355 -0.0332
 4970SOL    HW126546   2.877   1.709   6.370  0.0895  3.1673 -1.2744
 4970SOL    HW226547   2.869   1.716   6.529 -1.2225 -0.1803 -0.9580
 4971SOL     OW26548   2.466   2.561   9.550 -0.6269 -0.5372  0.2711
 4971SOL    HW126549   2.421   2.495   9.496 -1.3343  1.6434 -1.7749
 4971SOL    HW226550   2.542   2.585   9.498 -2.1870 -1.3582 -2.4099
 4972SOL     OW26551   1.010   2.731   5.519  0.2310  0.1494 -0.2874
 4972SOL    HW126552   0.997   2.825   5.529  1.4128  0.2496  0.2968
 4972SOL    HW226553   1.106   2.728   5.517  0.1508 -2.9099  0.7374
 4973SOL     OW26554   1.781   4.331   2.050 -0.1349  0.2436  0.0464
 4973SOL    HW126555   1.816   4.335   2.139 -0.5974  2.9959  0.0756
 4973SOL    HW226556   1.732   4.413   2.051  0.4040  0.5362  1.3846
 4974SOL     OW26557   0.562   3.780  16.832  0.0645  0.2458  0.1323
 4974SOL    HW126558   0.645   3.802  16.789 -0.9177  0.1744 -1.8203
 4974SOL    HW226559   0.499   3.814  16.769 -0.3835 -0.4137  0.2197
 4975SOL     OW26560   4.674   1.431   3.329 -0.7031  0.0653  0.1634
 4975SOL    HW126561   4.667   1.463   3.419  0.4816  0.2758  0.1798
 4975SOL    HW226562   4.634   1.346   3.344 -1.3954  0.3378 -0.1071
 4976SOL     OW26563   2.814   0.176   2.768 -0.0171  0.0755 -0.1805
 4976SOL    HW126564   2.870   0.153   2.693 -0.7557 -0.7541 -0.4726
 4976SOL    HW226565   2.755   0.244   2.735  1.3672  1.8106  0.9354
 4977SOL     OW26566   0.369   2.330   8.532  0.3187  0.4690  0.5137
 4977SOL    HW126567   0.373   2.408   8.476  1.0996  1.8056  2.4439
 4977SOL    HW226568   0.330   2.369   8.610  0.6764  0.7095  0.5717
 4978SOL     OW26569   2.579   1.009  11.580  0.1224 -0.0568  0.3591
 4978SOL    HW126570   2.504   0.956  11.609  0.8341 -0.5041  1.3732
 4978SOL    HW226571   2.548   1.093  11.613 -0.5321 -0.3009  0.3657
 4979SOL     OW26572   3.275   2.579   9.990 -0.3669 -0.1421 -0.0573
 4979SOL    HW126573   3.262   2.657   9.937 -0.9699  0.7343  1.3755
 4979SOL    HW226574   3.185   2.548  10.001  0.6062 -3.0243 -0.2674
 4980SOL     OW26575   1.784   1.676   5.739 -0.2387  0.2676 -0.0692
 4980SOL    HW126576   1.743   1.685   5.654  1.2095  2.0941 -0.5770
 4980SOL    HW226577   1.788   1.767   5.770  0.1676  0.4035 -0.5228
 4981SOL     OW26578   3.248   2.185   2.433 -0.3434 -0.6469  0.9155
 4981SOL    HW126579   3.263   2.129   2.356 -0.2665  0.6601 -0.0284
 4981SOL    HW226580   3.331   2.232   2.437 -0.7449  0.1763 -0.3107
 4982SOL     OW26581   0.208   4.393   5.828  0.1715 -0.0937  0.3572
 4982SOL    HW126582   0.166   4.477   5.808 -1.2625 -0.7001  0.8693
 4982SOL    HW226583   0.179   4.359   5.913 -0.6124  2.0925  0.9658
 4983SOL     OW26584   0.794   0.544  10.935 -0.0576  0.2391  0.1345
 4983SOL    HW126585   0.884   0.575  10.950  0.1368 -0.0193 -0.4576
 4983SOL    HW226586   0.745   0.624  10.954  0.9538  0.8137  0.3354
 4984SOL     OW26587   2.451   2.189   9.920 -0.2462  0.1336 -0.0200
 4984SOL    HW126588   2.532   2.188   9.870  1.9337  1.6190  3.4775
 4984SOL    HW226589   2.435   2.284   9.917 -1.3079 -0.0551 -0.4095
 4985SOL     OW26590   0.931   1.773   7.947  0.5144 -0.3821  0.3529
 4985SOL    HW126591   0.997   1.742   8.010  0.8087  0.3549  0.4022
 4985SOL    HW226592   0.853   1.790   7.998  0.0132  0.2651 -0.6302
 4986SOL     OW26593   1.180   0.878   1.487 -0.2515 -0.2315 -0.1462
 4986SOL    HW126594   1.156   0.950   1.428  0.2562 -1.1991 -1.5472
 4986SOL    HW226595   1.130   0.904   1.564  0.4397  1.5162 -0.2820
 4987SOL     OW26596   4.706   1.942   0.958  0.0426  0.3368  0.1443
 4987SOL    HW126597   0.064   1.925   0.945  0.3803  1.9840  0.5078
 4987SOL    HW226598   4.706   2.032   0.990  0.3751 -0.3854  2.2075
 4988SOL     OW26599   2.341   3.686   2.230  0.7454 -0.1652 -0.6021
 4988SOL    HW126600   2.419   3.637   2.255  1.7046  0.5647 -2.1661
 4988SOL    HW226601   2.283   3.611   2.216 -1.8045  1.4542  1.0724
 4989SOL     OW26602   2.940   2.331   2.342 -0.2721  0.7606  0.3070
 4989SOL    HW126603   3.024   2.320   2.386 -0.0289  0.3014 -0.2715
 4989SOL    HW226604   2.975   2.365   2.260 -1.7637 -0.9275 -1.0188
 4990SOL     OW26605   2.781   3.256   3.403  0.1160  0.2585 -0.5796
 4990SOL    HW126606   2.748   3.340   3.435 -0.2933  0.4967 -1.6687
 4990SOL    HW226607   2.870   3.271   3.437  0.5851  1.5853 -2.4054
 4991SOL     OW26608   4.559   4.247   2.346 -0.6439  1.1956  0.4266
 4991SOL    HW126609   4.574   4.265   2.253 -1.7972 -0.5395 -0.0907
 4991SOL    HW226610   4.635   4.295   2.379  1.2910 -1.9507  0.5471
 4992SOL     OW26611   1.287   0.223   2.009  0.2113  0.7002  0.4206
 4992SOL    HW126612   1.369   0.260   1.977 -0.1068 -0.9983 -2.3214
 4992SOL    HW226613   1.223   0.249   1.942 -0.4707  3.5298  2.1794
 4993SOL     OW26614   0.987   2.015   1.259  0.0906  0.3337 -0.1473
 4993SOL    HW126615   1.011   2.103   1.230  0.7344  0.4777  0.8542
 4993SOL    HW226616   0.910   2.003   1.202 -1.0029  0.4027  1.3190
 4994SOL     OW26617   4.703   4.137  15.969  0.4900 -0.3979 -0.0050
 4994SOL    HW126618   4.665   4.205  15.912  0.1219 -2.1093 -1.8140
 4994SOL    HW226619   4.666   4.057  15.933  1.4468 -0.4754 -0.8268
 4995SOL     OW26620   0.669   0.270   2.492  0.3513 -0.7007  0.2151
 4995SOL    HW126621   0.739   0.275   2.426 -0.4405 -0.4156 -0.6038
 4995SOL    HW226622   0.699   0.342   2.548 -2.4613  0.9697 -0.4008
 4996SOL     OW26623   1.691   0.341   7.377  0.1637 -0.4927  0.0314
 4996SOL    HW126624   1.654   0.260   7.414  1.4862 -1.4339 -0.7123
 4996SOL    HW226625   1.612   0.380   7.340  0.7745 -0.0620 -0.8211
 4997SOL     OW26626   0.377   4.416   1.887 -0.0500 -0.2210  0.3505
 4997SOL    HW126627   0.388   4.509   1.903  0.8573  0.1381 -2.3667
 4997SOL    HW226628   0.286   4.410   1.916 -0.6703  2.1009 -1.1590
 4998SOL     OW26629   1.792   2.953   1.178  0.1493 -0.5728  0.2692
 4998SOL    HW126630   1.741   2.995   1.246 -1.1366 -0.9409 -0.4690
 4998SOL    HW226631   1.869   3.009   1.168  0.3518 -1.1993 -1.7417
 4999SOL     OW26632   1.573   3.549  11.009  0.2619 -0.2164  0.0001
 4999SOL    HW126633   1.565   3.628  11.062 -0.4364  0.2452 -0.7800
 4999SOL    HW226634   1.500   3.498  11.045 -1.7884  1.4683 -1.6895
 5000SOL     OW26635   0.377   2.778  16.965  0.6632  0.3770 -0.0209
 5000SOL    HW126636   0.381   2.691  16.926 -1.7032  0.0723  0.4447
 5000SOL    HW226637   0.468   2.807  16.962  1.0948 -0.9717  0.2990
 5001SOL     OW26638   3.471   0.375   8.517 -0.1330  0.6249  0.2247
 5001SOL    HW126639   3.394   0.319   8.508  0.9339 -0.9579  0.7857
 5001SOL    HW226640   3.433   0.462   8.513  0.3832  0.7188 -2.1926
 5002SOL     OW26641   1.085   2.960   3.091  0.2696  0.3263 -0.3245
 5002SOL    HW126642   1.100   2.980   2.998 -3.4087 -0.2433 -1.0528
 5002SOL    HW226643   1.087   2.865   3.090  0.2917  0.3027  2.6473
 5003SOL     OW26644   3.668   1.028   4.787  0.0732 -0.2174  0.1130
 5003SOL    HW126645   3.738   1.046   4.725 -0.8578  2.9440 -0.0151
 5003SOL    HW226646   3.696   1.083   4.860 -1.2285  0.6332 -0.0295
 5004SOL     OW26647   2.659   2.230  12.083  0.3011 -0.1295  0.4032
 5004SOL    HW126648   2.690   2.181  12.159  0.9096  0.3090  0.4424
 5004SOL    HW226649   2.727   2.223  12.016  0.0521  2.8947 -0.1835
 5005SOL     OW26650   4.539   1.947  12.762 -0.2694  0.0828 -0.0727
 5005SOL    HW126651   4.508   1.974  12.676  0.5490  0.8470 -0.1248
 5005SOL    HW226652   4.520   1.853  12.768  1.3303 -0.3207 -1.3342
 5006SOL     OW26653   3.349   0.371   8.191 -0.3570 -0.2852 -0.1200
 5006SOL    HW126654   3.300   0.447   8.160 -1.3633 -1.8593 -2.4171
 5006SOL    HW226655   3.427   0.390   8.140  0.6604 -0.9605  1.2081
 5007SOL     OW26656   0.627   0.552  10.294  0.2327 -0.1551  0.5297
 5007SOL    HW126657   0.646   0.460  10.279  1.9871  0.3852 -0.6135
 5007SOL    HW226658   0.692   0.594  10.237  0.4159  0.1920  0.9916
 5008SOL     OW26659   2.349   3.417   5.936 -0.1473  0.2221  0.2600
 5008SOL    HW126660   2.326   3.390   5.847  0.8151 -1.8035  0.6113
 5008SOL    HW226661   2.324   3.509   5.941 -0.2342  0.0989  2.1857
 5009SOL     OW26662   4.093   3.178   5.739  0.6138 -0.3315  0.0534
 5009SOL    HW126663   4.176   3.174   5.786 -0.1630 -0.9093  1.3840
 5009SOL    HW226664   4.121   3.212   5.654  0.0017  1.1669  0.4656
 5010SOL     OW26665   4.259   3.916  14.915  0.6061  0.5664  0.0875
 5010SOL    HW126666   4.194   3.905  14.985  1.3478  1.8351  0.9825
 5010SOL    HW226667   4.343   3.904  14.959  0.1105 -1.2685  0.5312
 5011SOL     OW26668   4.627   4.611   4.165  0.4609 -0.1982 -0.4336
 5011SOL    HW126669   4.680   4.573   4.095  1.1825  0.5545 -0.2951
 5011SOL    HW226670   4.551   4.615   4.107  0.9909 -1.5999 -1.2304
 5012SOL     OW26671   3.563   1.107   8.298 -0.3140 -0.8060  0.2411
 5012SOL    HW126672   3.517   1.182   8.335  1.0822  0.8698 -1.4107
 5012SOL    HW226673   3.631   1.159   8.257 -1.6348  1.0920  0.4665
 5013SOL     OW26674   2.090   1.140   9.587  0.0066  0.4280  0.1348
 5013SOL    HW126675   2.030   1.117   9.657 -1.0678 -2.3756 -1.7072
 5013SOL    HW226676   2.153   1.068   9.591  0.4567  0.8629  0.9303
 5014SOL     OW26677   0.226   3.362   2.446 -0.1520  0.0057 -0.1094
 5014SOL    HW126678   0.305   3.309   2.454 -0.2908  0.3241  3.0552
 5014SOL    HW226679   0.269   3.425   2.388  0.6635  0.2430  0.7555
 5015SOL     OW26680   4.589   2.830  14.744  0.2079  0.1070  0.3357
 5015SOL    HW126681   4.556   2.740  14.740 -1.1022  0.6033  0.2885
 5015SOL    HW226682   4.550   2.878  14.671  0.1541 -0.7483 -0.1991
 5016SOL     OW26683   1.973   0.508  14.903 -0.0136 -0.1135  0.1978
 5016SOL    HW126684   1.918   0.545  14.972  0.4723 -0.0285  0.5423
 5016SOL    HW226685   1.952   0.416  14.887 -2.0240  0.7704 -2.2664
 5017SOL     OW26686   0.277   4.009   6.235 -0.0782 -0.2785 -0.7370
 5017SOL    HW126687   0.352   4.067   6.224  0.1804 -0.4880 -0.1388
 5017SOL    HW226688   0.260   4.027   6.328  1.2073 -0.6849 -0.4194
 5018SOL     OW26689   0.362   4.228  13.242 -0.2502 -0.2343  0.0790
 5018SOL    HW126690   0.387   4.318  13.262  1.6383 -0.4128 -1.5626
 5018SOL    HW226691   0.267   4.242  13.247 -0.4703 -1.5254 -0.6331
 5019SOL     OW26692   4.184   2.347   8.209  0.2379 -0.3868 -0.2173
 5019SOL    HW126693   4.238   2.392   8.144  0.4821 -0.9427 -0.4000
 5019SOL    HW226694   4.248   2.284   8.241 -0.6853 -0.9676  0.4739
 5020SOL     OW26695   2.503   0.043   6.381 -0.2208 -0.3229 -0.1245
 5020SOL    HW126696   2.596   0.046   6.357  1.0217 -0.4580  4.6406
 5020SOL    HW226697   2.484   4.719   6.308  3.1249 -2.0765  0.3846
 5021SOL     OW26698   3.103   1.256   2.256 -0.1234  0.0129 -0.4039
 5021SOL    HW126699   3.115   1.177   2.309 -2.3923 -1.6451 -2.3619
 5021SOL    HW226700   3.175   1.242   2.195  1.4317  1.9396  0.9967
 5022SOL     OW26701   3.053   2.947   5.364  0.1617 -0.1421 -0.2357
 5022SOL    HW126702   3.047   2.882   5.294  1.1855  0.3424 -0.7785
 5022SOL    HW226703   3.131   2.990   5.329  0.8278 -1.0737  0.1185
 5023SOL     OW26704   0.811   0.582   5.239  0.0796  0.2266  0.0798
 5023SOL    HW126705   0.799   0.617   5.327  2.0523  0.6206  0.1867
 5023SOL    HW226706   0.856   0.500   5.259 -2.6721 -1.5442 -0.9633
 5024SOL     OW26707   2.041   3.345   5.609 -0.7145  0.6115 -0.3328
 5024SOL    HW126708   1.980   3.346   5.536 -0.5449 -1.5569 -0.5009
 5024SOL    HW226709   2.049   3.436   5.637 -0.4240  0.3074  0.5731
 5025SOL     OW26710   0.644   3.802   2.504 -0.0997  0.0331 -0.4326
 5025SOL    HW126711   0.601   3.846   2.431 -1.9300  1.8281  1.7039
 5025SOL    HW226712   0.733   3.836   2.492  0.2568 -0.8693 -0.3919
 5026SOL     OW26713   4.458   2.817   6.411  0.1193  0.8778 -0.1582
 5026SOL    HW126714   4.437   2.749   6.475  0.4419  2.4034  1.5597
 5026SOL    HW226715   4.553   2.818   6.400  0.0120 -1.4975 -1.1979
 5027SOL     OW26716   2.195   4.255  17.083 -0.0130 -0.7247  0.0766
 5027SOL    HW126717   2.273   4.253  17.028  0.0133  4.4881 -0.0924
 5027SOL    HW226718   2.119   4.268  17.026  0.1010 -0.8125 -0.0964
 5028SOL     OW26719   2.181   3.831   8.131 -0.2710 -0.1563  0.5274
 5028SOL    HW126720   2.184   3.849   8.225  2.1977  1.5850  0.1203
 5028SOL    HW226721   2.099   3.876   8.113  0.0019  0.7287  1.4202
 5029SOL     OW26722   2.417   1.086   1.857 -0.0656  0.0865  0.6174
 5029SOL    HW126723   2.411   1.021   1.787  1.0425 -0.6457  1.1904
 5029SOL    HW226724   2.471   1.031   1.914  0.6463  1.4259  1.2407
 5030SOL     OW26725   4.508   3.131   2.968 -0.1537 -0.0176 -0.2948
 5030SOL    HW126726   4.541   3.185   2.896 -0.8919  1.0814  0.1898
 5030SOL    HW226727   4.521   3.197   3.037  1.0113 -3.2810  2.6143
 5031SOL     OW26728   0.325   3.912  10.163 -0.5138  0.6621  0.1143
 5031SOL    HW126729   0.410   3.941  10.195 -1.3388  0.3617  2.5987
 5031SOL    HW226730   0.310   3.845  10.230  1.9535 -0.6008 -0.5932
 5032SOL     OW26731   0.005   2.082   0.031 -0.2664 -0.0581 -0.1916
 5032SOL    HW126732   0.005   2.170   0.068 -1.4163  0.0122 -0.3719
 5032SOL    HW226733   4.718   2.033   0.110 -2.8815 -1.9712 -2.0818
 5033SOL     OW26734   1.396   2.189   5.114 -0.4405 -0.3522  0.3676
 5033SOL    HW126735   1.428   2.238   5.039  0.9100 -0.4258  0.8902
 5033SOL    HW226736   1.379   2.261   5.175 -0.0405  0.3602 -0.3695
 5034SOL     OW26737   1.436   2.878   9.432 -0.6758  0.2213  0.3407
 5034SOL    HW126738   1.513   2.901   9.380 -0.1619  0.6554  1.2870
 5034SOL    HW226739   1.386   2.842   9.359 -2.0931  1.7003  0.5815
 5035SOL     OW26740   2.793   4.706   7.176  0.3003 -0.7546 -0.2034
 5035SOL    HW126741   2.861   4.664   7.229  1.5723  1.0570 -0.4062
 5035SOL    HW226742   2.838   0.054   7.164  1.6701 -1.2052  1.8335
 5036SOL     OW26743   1.132   1.383   3.904 -0.2935 -0.2434 -0.2149
 5036SOL    HW126744   1.173   1.303   3.935 -0.3290 -0.8209 -1.6206
 5036SOL    HW226745   1.040   1.356   3.895 -0.8850  1.3571  1.1432
 5037SOL     OW26746   2.470   4.013  17.187  0.1600  0.2275 -0.2792
 5037SOL    HW126747   2.555   3.991  17.226 -0.4216 -0.2894  0.6986
 5037SOL    HW226748   2.478   4.103  17.153 -1.7692 -0.2436 -2.0016
 5038SOL     OW26749   1.788   3.031   3.577  0.0213  0.0444  0.7845
 5038SOL    HW126750   1.819   2.955   3.527 -0.2025  0.8299 -0.5199
 5038SOL    HW226751   1.870   3.080   3.589  0.8920 -1.0380 -0.7299
 5039SOL     OW26752   0.759   2.404   5.090  0.2097 -0.0520 -0.2687
 5039SOL    HW126753   0.790   2.406   5.180 -2.9556 -1.2337  0.8361
 5039SOL    HW226754   0.701   2.330   5.107  1.6311 -0.1953  3.8040
 5040SOL     OW26755   3.494   1.824  11.275  0.3870 -0.3177 -0.1850
 5040SOL    HW126756   3.403   1.836  11.303  0.3191  0.0126 -0.5531
 5040SOL    HW226757   3.543   1.849  11.353  0.2274  1.3005 -0.6053
 5041SOL     OW26758   2.221   0.940   5.889  0.3280  0.0218 -0.0367
 5041SOL    HW126759   2.298   0.993   5.872 -1.3286  1.6435 -2.5406
 5041SOL    HW226760   2.178   1.014   5.932  1.3688 -0.3638  1.6334
 5042SOL     OW26761   1.319   2.228  12.621  0.3496  0.0321  0.1886
 5042SOL    HW126762   1.278   2.143  12.606 -0.7068  0.4242  0.8590
 5042SOL    HW226763   1.333   2.244  12.528 -0.4302  0.2394  0.1057
 5043SOL     OW26764   1.458   1.949   3.270  0.0908 -0.3486  0.0295
 5043SOL    HW126765   1.495   1.920   3.186 -1.4477  0.8474 -1.0433
 5043SOL    HW226766   1.422   2.034   3.247  1.3738 -0.1407 -1.2435
 5044SOL     OW26767   2.068   3.269   2.872 -0.0173 -0.1797 -0.2744
 5044SOL    HW126768   2.060   3.181   2.834  2.4344  0.3078 -1.9579
 5044SOL    HW226769   2.014   3.260   2.950  2.0380  0.6048  1.2190
 5045SOL     OW26770   4.024   3.629   1.340  0.2145  0.3660 -0.0420
 5045SOL    HW126771   3.931   3.637   1.359  0.3385  1.5486  0.0878
 5045SOL    HW226772   4.050   3.714   1.377  0.0931  0.3562  0.0621
 5046SOL     OW26773   3.412   3.070   5.580  0.5449 -0.5094  0.1831
 5046SOL    HW126774   3.410   3.002   5.647 -2.7385 -0.6323 -0.0438
 5046SOL    HW226775   3.501   3.099   5.602  0.3085 -0.0424  0.5195
 5047SOL     OW26776   3.131   3.410   7.840 -0.1366 -0.2677  0.4010
 5047SOL    HW126777   3.186   3.400   7.918  0.0451  1.0758  0.4439
 5047SOL    HW226778   3.037   3.404   7.857 -0.2037  1.8407  0.7838
 5048SOL     OW26779   4.706   2.210   4.545  0.1192  0.3228 -0.2089
 5048SOL    HW126780   0.041   2.215   4.610  1.5567 -1.4684 -1.6195
 5048SOL    HW226781   4.665   2.294   4.566 -0.8631 -0.0081 -0.7734
 5049SOL     OW26782   1.645   1.392  10.378 -0.4082 -0.3507 -0.7765
 5049SOL    HW126783   1.693   1.356  10.453 -1.2937  1.8799  0.8855
 5049SOL    HW226784   1.588   1.321  10.350 -1.2663 -0.6610  1.6990
 5050SOL     OW26785   1.644   0.947   5.491  0.0096  0.4063  0.1488
 5050SOL    HW126786   1.589   1.024   5.480 -1.1813 -0.8964 -3.0990
 5050SOL    HW226787   1.735   0.978   5.488  0.5275 -0.8132  2.9854
 5051SOL     OW26788   4.614   4.095  13.920  0.8472 -0.3053 -0.3923
 5051SOL    HW126789   4.550   4.125  13.855  1.7383  0.1796 -1.0469
 5051SOL    HW226790   4.559   4.027  13.959  1.3638 -0.1463  0.6035
 5052SOL     OW26791   0.458   4.497  16.651 -0.7543 -0.3736 -0.3940
 5052SOL    HW126792   0.470   4.421  16.594 -0.5094  0.1035 -0.9829
 5052SOL    HW226793   0.474   4.575  16.597  1.5144 -1.0647 -0.6938
 5053SOL     OW26794   2.740   3.731   4.665 -0.3018 -0.5161  0.0461
 5053SOL    HW126795   2.809   3.735   4.599  0.1785 -2.3884  0.4446
 5053SOL    HW226796   2.668   3.782   4.628 -0.5167 -0.8156  0.0507
 5054SOL     OW26797   2.831   1.744  12.302 -0.0685  0.0136 -0.2180
 5054SOL    HW126798   2.791   1.776  12.383  2.7206 -1.9569  1.9468
 5054SOL    HW226799   2.899   1.685  12.335  0.8025  1.1402 -0.0251
 5055SOL     OW26800   1.237   0.460   4.841  0.2555 -0.7113 -0.4964
 5055SOL    HW126801   1.300   0.481   4.771  0.7771 -0.2010  0.1262
 5055SOL    HW226802   1.260   0.367   4.840  1.1045 -0.4960 -1.7951
 5056SOL     OW26803   1.895   1.547  13.310 -0.3301  0.5289 -0.3006
 5056SOL    HW126804   1.936   1.631  13.328 -2.1276  1.4313 -0.4872
 5056SOL    HW226805   1.960   1.482  13.338  1.1960  2.1839 -0.0465
 5057SOL     OW26806   0.985   3.857   5.242  0.0988  0.4784  0.0318
 5057SOL    HW126807   1.071   3.816   5.248 -0.0010  0.5858  2.1597
 5057SOL    HW226808   0.919   3.787   5.244 -1.7754  2.1735 -2.9136
 5058SOL     OW26809   1.479   0.250   8.656  0.1258 -0.0476 -0.2383
 5058SOL    HW126810   1.436   0.164   8.651  0.2336 -0.2225  1.8393
 5058SOL    HW226811   1.411   0.305   8.618 -2.7882 -1.7960  2.3852
 5059SOL     OW26812   1.997   2.999   0.525 -0.2357  0.0554 -0.8414
 5059SOL    HW126813   1.904   2.982   0.509 -0.1363 -1.8610  0.5461
 5059SOL    HW226814   1.989   3.065   0.594  2.6762  0.0809 -0.5253
 5060SOL     OW26815   0.201   1.750   1.685  0.3796  0.5899  0.4729
 5060SOL    HW126816   0.202   1.755   1.590  0.2957 -2.2277  0.3215
 5060SOL    HW226817   0.218   1.836   1.722 -0.0547  1.6109 -1.7550
 5061SOL     OW26818   3.523   4.446   2.735 -0.1379 -0.5190 -0.0118
 5061SOL    HW126819   3.566   4.437   2.650  2.7761  0.0649  1.4264
 5061SOL    HW226820   3.444   4.394   2.718 -1.3623  2.3825 -3.2657
 5062SOL     OW26821   4.386   2.324   3.594  0.4714  0.4376  0.4363
 5062SOL    HW126822   4.421   2.310   3.506  1.4325  2.4099  0.5147
 5062SOL    HW226823   4.441   2.399   3.618 -1.0305  1.0837  1.8699
 5063SOL     OW26824   1.154   0.769  15.608  0.0842 -0.4323 -0.3649
 5063SOL    HW126825   1.104   0.833  15.659 -2.6863 -3.8703  1.1969
 5063SOL    HW226826   1.168   0.822  15.529 -3.0073  0.3953 -0.3800
 5064SOL     OW26827   4.478   0.960  13.591  0.1659 -0.0841 -0.3453
 5064SOL    HW126828   4.555   1.013  13.569  0.7373 -0.8751 -0.2242
 5064SOL    HW226829   4.424   0.966  13.512 -1.6032 -1.6978  0.7276
 5065SOL     OW26830   2.945   0.106   5.639 -0.1019  0.0879 -0.3274
 5065SOL    HW126831   2.895   0.185   5.619  0.0658  1.0086  2.9248
 5065SOL    HW226832   3.016   0.121   5.577 -0.4288 -2.0411 -1.2435
 5066SOL     OW26833   4.395   0.470   5.406 -0.3401 -0.2894 -1.1042
 5066SOL    HW126834   4.434   0.546   5.362  0.5813 -1.6253 -2.5640
 5066SOL    HW226835   4.470   0.455   5.464 -0.4110 -0.6894 -1.1187
 5067SOL     OW26836   3.608   1.311   3.529  0.4759 -0.6238  0.2130
 5067SOL    HW126837   3.633   1.220   3.547  0.6843 -0.5106  0.5025
 5067SOL    HW226838   3.627   1.351   3.614 -1.3815  1.8510 -0.5619
 5068SOL     OW26839   3.386   1.127   5.592  0.9421  0.0362 -0.2396
 5068SOL    HW126840   3.452   1.145   5.659  1.1417 -0.2364 -0.3658
 5068SOL    HW226841   3.343   1.212   5.579  0.8296  0.4789  2.8800
 5069SOL     OW26842   0.844   1.512   8.247 -0.2033 -0.1178  0.2854
 5069SOL    HW126843   0.889   1.455   8.185 -0.2098  1.0312 -0.7949
 5069SOL    HW226844   0.799   1.456   8.310 -0.1234  1.9861  2.1972
 5070SOL     OW26845   4.391   2.525  17.115  0.4255  0.4067  0.4906
 5070SOL    HW126846   4.420   2.587  17.048  1.7427 -2.6296 -1.7461
 5070SOL    HW226847   4.316   2.571  17.152  1.1663  0.8607  1.4373
 5071SOL     OW26848   1.265   2.036   6.313 -0.5595 -0.3303  0.0666
 5071SOL    HW126849   1.335   2.091   6.277 -0.1971  0.1964  1.5775
 5071SOL    HW226850   1.243   2.102   6.379 -3.8970  1.3183 -2.7151
 5072SOL     OW26851   0.026   2.486   3.983 -0.5939 -0.1834 -0.1111
 5072SOL    HW126852   4.707   2.558   3.951  0.1265  0.2403 -0.3652
 5072SOL    HW226853   0.091   2.528   4.039 -0.5896 -0.6002  0.1978
 5073SOL     OW26854   2.030   0.017   5.829  0.4806  0.1386  0.5587
 5073SOL    HW126855   2.110   4.717   5.866  0.6374 -0.6391 -0.5203
 5073SOL    HW226856   1.963   4.694   5.866 -1.5362  0.7338 -2.1271
 5074SOL     OW26857   1.863   2.961   9.762 -0.3252 -0.8765 -0.1011
 5074SOL    HW126858   1.955   2.977   9.783 -0.0582  0.2660 -2.1441
 5074SOL    HW226859   1.825   2.990   9.845  0.5473  0.0160 -0.0051
 5075SOL     OW26860   1.307   1.403   8.836  0.3932  0.0447  0.0565
 5075SOL    HW126861   1.348   1.444   8.760  1.9897  1.3043  1.5831
 5075SOL    HW226862   1.228   1.454   8.852  0.5290  0.0832  0.6308
 5076SOL     OW26863   1.195   3.814   8.179  0.6110  0.0222 -0.2606
 5076SOL    HW126864   1.254   3.838   8.108  0.3093 -0.5807 -0.7173
 5076SOL    HW226865   1.115   3.862   8.158  0.6482  0.2757  0.1790
 5077SOL     OW26866   1.360   2.080   2.573 -0.0289  0.4967 -0.2223
 5077SOL    HW126867   1.448   2.071   2.536 -0.1683  0.8552 -0.6356
 5077SOL    HW226868   1.331   1.991   2.551 -2.9921  1.0592  1.5276
 5078SOL     OW26869   2.524   0.818   1.419 -0.1869  0.3038 -0.6503
 5078SOL    HW126870   2.464   0.762   1.369  0.0552  0.7044 -1.3925
 5078SOL    HW226871   2.604   0.767   1.430  0.4899  1.4212 -0.4053
 5079SOL     OW26872   0.688   0.908   3.149 -0.0788 -0.2484 -0.4341
 5079SOL    HW126873   0.734   0.859   3.218 -1.1362 -0.5004  0.0912
 5079SOL    HW226874   0.769   0.935   3.106  0.4333 -2.6443 -0.9603
 5080SOL     OW26875   3.493   1.248  16.632  0.0816 -0.8113 -0.0865
 5080SOL    HW126876   3.567   1.284  16.584 -2.2864  1.0360 -2.3540
 5080SOL    HW226877   3.531   1.211  16.712  1.8960  0.7129 -0.2489
 5081SOL     OW26878   4.016   0.470   4.288 -0.4540 -0.3322  0.1371
 5081SOL    HW126879   4.041   0.460   4.380 -0.0324  1.7659  0.2664
 5081SOL    HW226880   4.064   0.401   4.242 -1.1471  0.1249 -1.2725
 5082SOL     OW26881   2.781   1.605  11.595 -0.2641 -0.0490 -0.4229
 5082SOL    HW126882   2.857   1.558  11.561 -1.7075 -1.7292 -1.3616
 5082SOL    HW226883   2.817   1.651  11.670  0.9113  2.1469 -2.3285
 5083SOL     OW26884   0.236   2.867  10.613  0.2374 -0.3000  0.0974
 5083SOL    HW126885   0.159   2.855  10.557  0.5154  0.0508 -0.3676
 5083SOL    HW226886   0.205   2.946  10.656  1.7571  0.6312 -0.5290
 5084SOL     OW26887   1.287   1.777   3.488 -0.2134  0.0495 -0.2071
 5084SOL    HW126888   1.375   1.795   3.455 -0.0423  0.9271  0.7446
 5084SOL    HW226889   1.300   1.684   3.509 -1.2671  0.3187  1.6195
 5085SOL     OW26890   0.063   2.049   8.995 -0.3976 -0.1312 -0.3818
 5085SOL    HW126891   0.103   2.019   9.076 -1.3337 -0.8300 -0.1671
 5085SOL    HW226892   0.066   1.967   8.945  3.1023 -0.3914  0.3028
 5086SOL     OW26893   2.154   1.401   9.854  0.2821  0.3306 -0.1322
 5086SOL    HW126894   2.125   1.440   9.936  3.0618  0.3775  0.8299
 5086SOL    HW226895   2.181   1.313   9.880 -1.5002  0.3207  1.7030
 5087SOL     OW26896   3.934   1.372  15.889  0.0970  0.2081  0.0887
 5087SOL    HW126897   3.897   1.335  15.809  0.3645  1.0374 -0.4196
 5087SOL    HW226898   3.953   1.460  15.856 -1.2611  0.6109  0.3816
 5088SOL     OW26899   3.228   2.348  12.885  0.4726  0.5966 -0.1864
 5088SOL    HW126900   3.246   2.255  12.895  0.4872  0.8445  2.2521
 5088SOL    HW226901   3.144   2.350  12.931  2.4397  0.0818  3.4057
 5089SOL     OW26902   1.307   0.855  10.679 -0.5020 -0.8351 -0.0682
 5089SOL    HW126903   1.289   0.863  10.585  0.7697  1.0723 -0.1493
 5089SOL    HW226904   1.352   0.939  10.692  1.0950 -1.6332 -0.4621
 5090SOL     OW26905   4.107   2.661   8.022 -0.2932 -0.3898  0.1746
 5090SOL    HW126906   4.017   2.655   8.054 -0.5357  0.2808 -0.3830
 5090SOL    HW226907   4.118   2.756   8.013  0.7104 -0.2706  2.4376
 5091SOL     OW26908   4.584   2.026  13.341  0.4164  0.0705 -0.2581
 5091SOL    HW126909   4.644   2.033  13.415  0.2371 -1.4579  0.0192
 5091SOL    HW226910   4.628   2.065  13.266  1.1060  0.4010  0.3160
 5092SOL     OW26911   2.362   0.034   4.858 -0.2280  0.4281 -0.6166
 5092SOL    HW126912   2.424   0.106   4.852 -0.2955  0.8096  3.4074
 5092SOL    HW226913   2.433   4.713   4.888 -2.6359 -2.6166 -0.5589
 5093SOL     OW26914   0.746   2.772   2.678 -0.5482  0.5827 -0.1468
 5093SOL    HW126915   0.673   2.795   2.736 -1.1733  0.9359 -1.0734
 5093SOL    HW226916   0.787   2.856   2.657  1.9241 -0.1912  1.6228
 5094SOL     OW26917   3.614   3.065   1.894 -0.0471  0.1017  0.3148
 5094SOL    HW126918   3.592   2.974   1.873 -1.4104  0.8411 -1.4278
 5094SOL    HW226919   3.523   3.095   1.895 -0.2481 -0.4997  2.8095
 5095SOL     OW26920   1.355   2.897   2.540 -0.1092  0.0936  0.1499
 5095SOL    HW126921   1.333   2.804   2.552  0.4133  0.0292  0.6022
 5095SOL    HW226922   1.359   2.904   2.444  1.1984  1.5059  0.3069
 5096SOL     OW26923   1.918   4.088   4.513 -0.1690  0.0181 -0.1236
 5096SOL    HW126924   2.001   4.058   4.550  0.0833 -0.3789 -1.0226
 5096SOL    HW226925   1.894   4.007   4.468  0.5057  0.2664 -0.9272
 5097SOL     OW26926   1.684   2.474   2.357  0.2918  0.2141  0.4801
 5097SOL    HW126927   1.640   2.418   2.420 -2.8051  1.0402 -0.9621
 5097SOL    HW226928   1.769   2.466   2.401  0.1526  1.8158  1.0265
 5098SOL     OW26929   3.547   3.812   2.633  0.3255 -0.6902  0.2782
 5098SOL    HW126930   3.519   3.887   2.580  2.9825  0.0297 -0.1128
 5098SOL    HW226931   3.579   3.751   2.566  0.6436 -0.5019  0.2585
 5099SOL     OW26932   4.176   3.808  16.129 -0.7815  0.2487 -0.2611
 5099SOL    HW126933   4.114   3.881  16.132 -0.0489  0.8637  0.1372
 5099SOL    HW226934   4.225   3.821  16.210  0.8913  1.1565 -1.4152
 5100SOL     OW26935   0.971   3.130  15.221  0.0353 -0.1293 -0.1768
 5100SOL    HW126936   0.989   3.167  15.135  0.2075  2.2270  0.8639
 5100SOL    HW226937   1.010   3.043  15.228  3.8768  1.6799  0.9425
 5101SOL     OW26938   3.714   3.620   5.166  0.2251 -0.3558  0.4440
 5101SOL    HW126939   3.681   3.589   5.082  1.4278  0.9185 -0.4931
 5101SOL    HW226940   3.655   3.696   5.173 -1.1795 -1.5288  1.4694
 5102SOL     OW26941   1.100   0.060   1.667 -0.7062  0.0779  0.2075
 5102SOL    HW126942   1.041   0.010   1.611 -0.7604  1.6380 -1.1345
 5102SOL    HW226943   1.188   0.057   1.630 -0.5729 -2.9084  0.8061
 5103SOL     OW26944   1.227   0.373   1.277  0.3067 -0.0607  0.0769
 5103SOL    HW126945   1.200   0.395   1.366 -0.5157  0.0129 -0.1854
 5103SOL    HW226946   1.307   0.425   1.271 -0.1901  0.4028 -2.5320
 5104SOL     OW26947   2.604   3.463   5.354  0.3088 -0.8320  0.0594
 5104SOL    HW126948   2.686   3.513   5.346 -0.5084  0.1565 -1.9501
 5104SOL    HW226949   2.536   3.529   5.343  1.5438  0.5823  0.9605
 5105SOL     OW26950   3.367   1.981  13.812  0.3032 -0.7838 -0.0109
 5105SOL    HW126951   3.400   1.942  13.731  0.6723  1.3412 -0.9072
 5105SOL    HW226952   3.279   1.946  13.819  0.7053 -1.4928  1.4353
 5106SOL     OW26953   1.599   4.562   1.475  0.2439 -0.0405 -0.4489
 5106SOL    HW126954   1.511   4.534   1.503  0.4038 -0.1794 -0.0904
 5106SOL    HW226955   1.592   4.656   1.463  2.5859  0.0305 -1.2808
 5107SOL     OW26956   1.337   3.086   0.887 -0.0304  0.3568 -0.0571
 5107SOL    HW126957   1.259   3.041   0.918  2.0565 -0.9412  3.2757
 5107SOL    HW226958   1.387   3.091   0.968  2.1562  1.4308 -1.4584
 5108SOL     OW26959   1.455   2.873   7.023  0.5104  0.4773 -0.6585
 5108SOL    HW126960   1.525   2.880   6.958 -0.0063  2.1523 -1.0225
 5108SOL    HW226961   1.404   2.953   7.012 -1.4218 -0.3277  2.5141
 5109SOL     OW26962   0.089   3.591   0.842  0.5970  0.0715  0.2447
 5109SOL    HW126963   0.155   3.530   0.874  0.2548 -1.7745 -2.5569
 5109SOL    HW226964   0.137   3.631   0.769 -0.7959  2.9944  0.9083
 5110SOL     OW26965   3.090   1.027  12.732  0.0762  0.2630  0.3171
 5110SOL    HW126966   3.165   1.005  12.677  0.4417  2.0130  0.0875
 5110SOL    HW226967   3.106   1.001  12.823  0.1167 -0.1676  0.1860
 5111SOL     OW26968   0.566   4.663   2.023  0.0987  0.2499  0.3965
 5111SOL    HW126969   0.497   4.719   1.987  0.7808  0.7066 -0.1743
 5111SOL    HW226970   0.621   4.734   2.055 -2.1363  2.2690 -0.2981
 5112SOL     OW26971   2.622   2.319   4.175 -0.0963  0.0825 -0.3050
 5112SOL    HW126972   2.679   2.243   4.168 -1.3400 -0.9444  0.6854
 5112SOL    HW226973   2.574   2.313   4.092 -0.4001 -0.2897 -0.1027
 5113SOL     OW26974   0.461   4.628  12.103 -0.1605  0.2057  0.7217
 5113SOL    HW126975   0.493   4.545  12.067 -2.0250 -0.3827  0.3877
 5113SOL    HW226976   0.538   4.662  12.148  0.9538  0.7224 -1.5871
 5114SOL     OW26977   3.527   3.158   7.739  0.2077  0.4340  0.9417
 5114SOL    HW126978   3.597   3.197   7.791  1.8355  0.8222 -1.5434
 5114SOL    HW226979   3.506   3.241   7.695  0.9776  0.4254  0.5499
 5115SOL     OW26980   2.912   2.284   0.434  0.2585  0.5573 -0.0032
 5115SOL    HW126981   2.955   2.199   0.437 -2.1104 -0.6306  0.3570
 5115SOL    HW226982   2.886   2.288   0.526 -1.4094 -0.1554 -0.4454
 5116SOL     OW26983   0.273   1.859   2.187 -0.2480 -0.7653  0.4585
 5116SOL    HW126984   0.207   1.865   2.256 -1.6857 -0.6925 -0.9200
 5116SOL    HW226985   0.235   1.838   2.101  2.0794 -1.5095 -0.3895
 5117SOL     OW26986   1.865   4.516   0.375 -0.1485  0.4360  0.6399
 5117SOL    HW126987   1.809   4.591   0.393 -1.1468  0.2396 -1.6383
 5117SOL    HW226988   1.879   4.519   0.280  1.1944  0.5021  0.8339
 5118SOL     OW26989   3.106   4.109   6.281 -0.5769 -0.2216  0.1189
 5118SOL    HW126990   3.067   4.195   6.296 -2.1116 -0.8382 -0.3134
 5118SOL    HW226991   3.119   4.096   6.375 -0.5969 -1.7234 -0.0748
 5119SOL     OW26992   2.680   3.564  10.682 -0.0996  0.0769 -0.6274
 5119SOL    HW126993   2.689   3.655  10.713  0.8021 -0.3493  0.3752
 5119SOL    HW226994   2.596   3.575  10.637  0.2859  2.1156 -0.8684
 5120SOL     OW26995   2.241   0.279  10.849  0.0971 -0.9243 -0.1930
 5120SOL    HW126996   2.171   0.224  10.883  1.5617 -1.9142  1.2531
 5120SOL    HW226997   2.200   0.318  10.772 -0.4215 -0.9842  0.0540
 5121SOL     OW26998   3.489   1.306   5.319 -0.0273  0.0868 -0.0672
 5121SOL    HW126999   3.520   1.221   5.351 -0.3184  0.5392  1.4364
 5121SOL    HW227000   3.398   1.287   5.298  0.4695 -1.1385 -1.0788
 5122SOL     OW27001   0.133   2.482   2.214  0.3448  0.4844 -0.0423
 5122SOL    HW127002   0.188   2.411   2.247  0.0696  0.7666  1.0159
 5122SOL    HW227003   0.049   2.452   2.249  0.9465 -0.2651  0.7597
 5123SOL     OW27004   2.333   1.115   5.348  0.1234 -0.4635  0.4789
 5123SOL    HW127005   2.284   1.139   5.269  3.2434 -0.4285 -1.4363
 5123SOL    HW227006   2.330   1.179   5.419 -0.6778 -0.2340  0.2372
 5124SOL     OW27007   0.383   1.532   7.215  0.6743 -0.1403 -0.1931
 5124SOL    HW127008   0.462   1.504   7.261 -0.6578  1.2071  2.9246
 5124SOL    HW227009   0.383   1.469   7.144 -0.0411  0.0973 -0.3967
 5125SOL     OW27010   1.355   2.277   2.772  0.1435 -0.1363  0.2900
 5125SOL    HW127011   1.267   2.315   2.774  0.8018  1.3457  1.7838
 5125SOL    HW227012   1.351   2.231   2.689 -0.0789  0.4211 -0.0102
 5126SOL     OW27013   0.343   3.996   2.777 -0.6343 -0.5553 -0.0704
 5126SOL    HW127014   0.333   4.045   2.859 -0.2827  0.0678 -0.4044
 5126SOL    HW227015   0.362   4.075   2.727 -1.9250 -0.3208 -0.1896
 5127SOL     OW27016   3.276   2.796   0.801 -0.3947 -0.5445 -0.0072
 5127SOL    HW127017   3.225   2.873   0.776 -0.3673 -0.6562 -0.4128
 5127SOL    HW227018   3.207   2.751   0.848 -0.2720 -3.3162 -2.4488
 5128SOL     OW27019   2.683   3.852   5.207  0.4010  0.4051  0.8746
 5128SOL    HW127020   2.773   3.827   5.188  0.5701  1.4268  0.3522
 5128SOL    HW227021   2.640   3.835   5.123  0.5746  2.1862  0.4218
 5129SOL     OW27022   4.632   4.445   5.200 -0.5866 -0.0352 -0.5777
 5129SOL    HW127023   4.685   4.523   5.218 -1.3369  0.2619  0.3808
 5129SOL    HW227024   4.548   4.491   5.192  0.3055  1.5820 -0.5253
 5130SOL     OW27025   3.891   0.659   6.612  0.7809 -0.1238  0.0475
 5130SOL    HW127026   3.956   0.593   6.587  0.8364 -0.0915  0.1092
 5130SOL    HW227027   3.885   0.719   6.537  0.1670 -1.7497 -1.2231
 5131SOL     OW27028   1.542   1.463   0.064  0.7190 -0.2246 -0.0458
 5131SOL    HW127029   1.602   1.484   0.135  0.4208 -0.2510  0.2163
 5131SOL    HW227030   1.556   1.369   0.059  0.8548 -0.2492  0.8169
 5132SOL     OW27031   2.503   2.004   9.350  0.0673 -0.3633  0.1220
 5132SOL    HW127032   2.459   2.014   9.435  0.9952  1.4202  0.3935
 5132SOL    HW227033   2.534   2.093   9.334 -0.6285  0.0741  1.1540
 5133SOL     OW27034   4.651   2.210   4.048  0.3831 -0.1919  0.2362
 5133SOL    HW127035   4.710   2.281   4.023  0.7440 -0.4485  0.3489
 5133SOL    HW227036   4.565   2.243   4.073  0.1152 -0.1728 -0.6834
 5134SOL     OW27037   2.891   2.685  12.056 -0.0661 -0.4283  0.2288
 5134SOL    HW127038   2.844   2.620  12.003  1.7206  0.3570 -2.3520
 5134SOL    HW227039   2.950   2.716  11.987 -1.4259 -1.0166 -1.1882
 5135SOL     OW27040   4.395   1.191   5.768 -0.3247  0.3855 -0.7302
 5135SOL    HW127041   4.380   1.278   5.731  0.7505 -0.0432 -2.1623
 5135SOL    HW227042   4.488   1.185   5.792 -0.6491 -1.5840  0.0663
 5136SOL     OW27043   3.696   3.036   7.259  0.0208  0.3127 -0.6337
 5136SOL    HW127044   3.614   3.055   7.304  1.1352  1.8132  0.7389
 5136SOL    HW227045   3.697   2.942   7.277  0.2965  0.1532 -1.4777
 5137SOL     OW27046   0.778   3.246   9.264  0.3756 -0.4925  0.3329
 5137SOL    HW127047   0.750   3.177   9.324 -1.3518  1.2368  1.5034
 5137SOL    HW227048   0.842   3.298   9.313 -0.2656  1.7301 -1.1727
 5138SOL     OW27049   1.068   0.470   7.579  0.3612 -0.0030 -0.1728
 5138SOL    HW127050   1.110   0.543   7.623 -1.1462  0.1843  0.9411
 5138SOL    HW227051   1.008   0.524   7.529  0.5515  1.2900  1.0102
 5139SOL     OW27052   1.428   0.831   0.369 -0.4835  0.2434  0.0821
 5139SOL    HW127053   1.498   0.811   0.431  0.4935  0.3872 -0.9679
 5139SOL    HW227054   1.372   0.755   0.377  2.9414 -2.5728 -2.9161
 5140SOL     OW27055   3.033   2.216  10.176 -0.0734  0.4084 -0.1476
 5140SOL    HW127056   3.082   2.137  10.154 -1.5787 -0.4167 -0.5556
 5140SOL    HW227057   3.097   2.237  10.244  1.5516  0.2568 -1.6104
 5141SOL     OW27058   2.214   1.346  10.521 -0.2471  0.4459 -0.4657
 5141SOL    HW127059   2.168   1.371  10.601  1.5791  2.6512 -0.0836
 5141SOL    HW227060   2.306   1.342  10.547 -0.4304 -1.5239 -0.0977
 5142SOL     OW27061   1.923   4.449  10.483  0.8533 -0.4149  0.0271
 5142SOL    HW127062   1.860   4.517  10.506  1.6009 -0.6584  2.7581
 5142SOL    HW227063   1.882   4.414  10.404  1.1339 -1.5532  0.3833
 5143SOL     OW27064   0.884   4.003   7.705 -0.3160 -0.0102 -0.3710
 5143SOL    HW127065   0.918   3.994   7.616  2.3683  2.7018  0.3839
 5143SOL    HW227066   0.866   3.915   7.738  0.8990 -0.2404 -0.3440
 5144SOL     OW27067   0.348   4.106  16.772 -0.1977  0.0376  0.6575
 5144SOL    HW127068   0.327   4.196  16.797 -2.8549 -0.7224  1.0775
 5144SOL    HW227069   0.278   4.048  16.800 -0.6573  1.9322  3.3802
 5145SOL     OW27070   4.165   3.672   3.504  0.1072 -0.1609  0.0932
 5145SOL    HW127071   4.230   3.742   3.510 -1.5839  1.3442  0.7350
 5145SOL    HW227072   4.089   3.710   3.549  1.1945  3.1641 -0.9474
 5146SOL     OW27073   0.599   4.309  11.698  0.1263 -0.2271 -0.0833
 5146SOL    HW127074   0.679   4.353  11.669  1.8296 -2.8413  0.6799
 5146SOL    HW227075   0.565   4.259  11.624 -0.3534  1.0265 -0.7082
 5147SOL     OW27076   3.405   0.348   2.878  0.4555 -0.0829  0.0507
 5147SOL    HW127077   3.475   0.401   2.916  0.9769 -0.1680 -0.7869
 5147SOL    HW227078   3.425   0.365   2.786  2.0711 -2.5227 -0.0780
 5148SOL     OW27079   1.174   1.788   7.527  0.3167 -0.2179 -0.3106
 5148SOL    HW127080   1.152   1.736   7.449 -1.3476 -0.6808  0.4650
 5148SOL    HW227081   1.200   1.717   7.585  0.4912 -0.1295 -0.2831
 5149SOL     OW27082   4.007   1.488  10.494  0.2501 -0.6523  0.1938
 5149SOL    HW127083   3.922   1.522  10.465  0.3551 -2.4967 -2.2056
 5149SOL    HW227084   3.990   1.402  10.456 -0.0693 -0.1174 -0.8833
 5150SOL     OW27085   2.980   0.672   7.071 -0.4340 -0.1064 -0.3810
 5150SOL    HW127086   2.926   0.603   7.109  2.0107 -0.0367  3.1995
 5150SOL    HW227087   3.059   0.665   7.125 -0.4320  0.0558 -0.3629
 5151SOL     OW27088   3.706   3.576   8.805 -0.3524 -0.1811  0.0742
 5151SOL    HW127089   3.780   3.531   8.845 -1.3663 -0.1624  2.0218
 5151SOL    HW227090   3.706   3.537   8.718  2.1079  0.2233 -0.1001
 5152SOL     OW27091   1.514   1.655   1.476  0.2470  0.1053 -0.3269
 5152SOL    HW127092   1.538   1.562   1.481 -2.4781 -0.4012  3.1442
 5152SOL    HW227093   1.577   1.704   1.529 -0.1998  0.7400 -0.3992
 5153SOL     OW27094   0.056   1.848   9.913 -0.3743  0.0397  0.2669
 5153SOL    HW127095   4.723   1.878   9.972  0.9348  3.5702 -0.0122
 5153SOL    HW227096   0.043   1.754   9.922  1.2314 -0.4489 -2.3733
 5154SOL     OW27097   0.978   3.811   9.175 -0.0884  0.2094 -0.3329
 5154SOL    HW127098   0.937   3.731   9.142  1.9090 -1.1854  0.5083
 5154SOL    HW227099   1.037   3.824   9.101  0.6594 -1.3721 -0.0314
 5155SOL     OW27100   2.440   2.133   5.742 -0.3537 -0.6231 -0.6416
 5155SOL    HW127101   2.364   2.094   5.784 -1.0040  1.6401  0.2631
 5155SOL    HW227102   2.491   2.145   5.822 -1.3091 -1.9847  0.1616
 5156SOL     OW27103   0.321   2.476  15.156  0.8558  0.0291 -0.5003
 5156SOL    HW127104   0.387   2.516  15.212  1.3893  0.9425 -1.7865
 5156SOL    HW227105   0.340   2.517  15.072  0.8829  0.0572 -0.4802
 5157SOL     OW27106   3.860   0.915   5.988  0.7463 -0.7157  0.3998
 5157SOL    HW127107   3.947   0.914   6.028  0.6440  0.2346  0.6320
 5157SOL    HW227108   3.880   0.873   5.904  0.0031 -0.1082 -0.0713
 5158SOL     OW27109   0.309   0.885   4.472  0.1332 -0.1456  0.0564
 5158SOL    HW127110   0.319   0.811   4.412  1.8889  1.5123 -1.7060
 5158SOL    HW227111   0.400   0.880   4.502  0.3350  2.2164 -0.1497
 5159SOL     OW27112   0.104   4.055   6.035 -0.1639  0.3869 -0.2658
 5159SOL    HW127113   0.040   4.073   6.104  1.3605 -1.4858  1.6490
 5159SOL    HW227114   0.174   4.016   6.088 -0.7534  0.3048  0.4431
 5160SOL     OW27115   3.148   3.082   4.961  0.8695  0.4736 -0.7527
 5160SOL    HW127116   3.054   3.100   4.968  0.8501  0.1657 -0.2091
 5160SOL    HW227117   3.152   2.988   4.976  1.0902  0.6983  0.5978
 5161SOL     OW27118   1.748   4.341   3.712  0.3169 -0.3400  0.2437
 5161SOL    HW127119   1.802   4.356   3.790  1.4063  1.2635 -0.8172
 5161SOL    HW227120   1.775   4.249   3.717  0.2026 -0.4040 -0.4278
 5162SOL     OW27121   2.623   0.750   3.000  0.0647  0.2318  0.3914
 5162SOL    HW127122   2.699   0.758   2.942 -0.2456  0.5052  0.0248
 5162SOL    HW227123   2.651   0.809   3.070 -0.7681  0.7601  0.2709
 5163SOL     OW27124   1.778   4.459  12.197  0.6554 -0.4484 -0.1144
 5163SOL    HW127125   1.815   4.484  12.282 -2.2031 -1.5466  1.4527
 5163SOL    HW227126   1.770   4.364  12.207  2.9729 -0.7175 -0.7337
 5164SOL     OW27127   0.547   0.809  13.013  0.2559  0.3413 -0.4324
 5164SOL    HW127128   0.584   0.880  13.066 -0.2085 -0.8341  1.4232
 5164SOL    HW227129   0.577   0.842  12.927 -0.5137  0.1651 -0.7633
 5165SOL     OW27130   2.032   4.541   9.353  0.2437 -0.4263 -0.3637
 5165SOL    HW127131   2.074   4.508   9.433  0.0555 -0.2081 -0.1748
 5165SOL    HW227132   1.940   4.551   9.378  0.7246 -0.2744  1.3767
 5166SOL     OW27133   2.613   3.338   8.638  0.3448 -0.1847 -0.6216
 5166SOL    HW127134   2.691   3.289   8.663 -0.1596 -0.1825  0.9876
 5166SOL    HW227135   2.537   3.285   8.662  1.5202 -0.3003  2.9724
 5167SOL     OW27136   1.969   0.214  14.294  0.0526  0.1093 -0.0467
 5167SOL    HW127137   1.879   0.224  14.264 -0.2033 -0.9446  0.3808
 5167SOL    HW227138   2.016   0.296  14.275  1.7794 -1.0081 -0.6243
 5168SOL     OW27139   2.879   3.803   4.198  0.1264 -0.1424 -0.2003
 5168SOL    HW127140   2.961   3.757   4.218  0.7596  1.0246 -0.1320
 5168SOL    HW227141   2.862   3.749   4.121  1.7034 -0.4291 -0.3497
 5169SOL     OW27142   0.473   0.729   6.043  0.4560 -0.1430 -0.5855
 5169SOL    HW127143   0.423   0.656   6.080 -0.0946  0.7640  0.4349
 5169SOL    HW227144   0.566   0.715   6.060  0.3029  1.4636  1.4670
 5170SOL     OW27145   3.077   4.702   3.258 -0.0275 -0.0932 -0.1754
 5170SOL    HW127146   3.058   0.056   3.287 -0.4222 -0.2585  0.0886
 5170SOL    HW227147   3.007   4.653   3.302  0.9657 -0.7355  0.6946
 5171SOL     OW27148   1.346   2.936   2.186  0.3266  0.4281 -0.3051
 5171SOL    HW127149   1.372   3.026   2.204 -1.4445  0.8489  0.1083
 5171SOL    HW227150   1.436   2.904   2.186 -0.2686 -1.2838 -4.0507
 5172SOL     OW27151   0.988   3.615   8.075  0.7547 -0.9545 -0.1522
 5172SOL    HW127152   0.926   3.652   8.138  1.5053 -0.2438  0.1533
 5172SOL    HW227153   1.065   3.660   8.107 -0.0183  1.6958 -2.0037
 5173SOL     OW27154   0.401   4.302   8.566  0.5210  0.3572  0.0181
 5173SOL    HW127155   0.460   4.363   8.520  0.9675  0.3183  0.5479
 5173SOL    HW227156   0.390   4.349   8.649 -2.3100 -1.4991  0.6681
 5174SOL     OW27157   2.358   3.366   5.514  0.1405  0.0047 -0.3487
 5174SOL    HW127158   2.391   3.277   5.501 -1.4639 -0.6345 -0.0101
 5174SOL    HW227159   2.289   3.358   5.448  0.0606 -0.2268 -0.2363
 5175SOL     OW27160   3.036   2.588  12.280  0.6293  0.1350  0.8687
 5175SOL    HW127161   3.125   2.622  12.279 -0.2849  2.5057  1.2050
 5175SOL    HW227162   2.985   2.639  12.217 -0.8977 -2.1909  0.1903
 5176SOL     OW27163   0.677   1.244   6.413  0.1516  0.1482 -0.3178
 5176SOL    HW127164   0.634   1.319   6.371  1.3435  1.0929  0.1578
 5176SOL    HW227165   0.768   1.262   6.392 -0.2078  3.5356  0.9780
 5177SOL     OW27166   2.151   3.993   9.901  0.2364 -0.2589 -0.1875
 5177SOL    HW127167   2.064   3.972   9.936  0.0378 -1.9650 -1.6746
 5177SOL    HW227168   2.193   3.911   9.929 -2.3981 -0.8051  2.1555
 5178SOL     OW27169   4.477   1.373   5.554 -0.0623 -0.2517  0.3003
 5178SOL    HW127170   4.535   1.437   5.514 -0.9360  1.1820  1.3085
 5178SOL    HW227171   4.541   1.302   5.554  0.2720  0.0510 -0.4678
 5179SOL     OW27172   3.209   2.816   9.881  0.4120 -0.8870 -0.4770
 5179SOL    HW127173   3.241   2.788   9.795  2.5341  0.7172 -0.2002
 5179SOL    HW227174   3.124   2.772   9.883 -0.4247  0.7753  0.1456
 5180SOL     OW27175   4.441   0.117   6.132 -0.0497 -0.0340  0.1830
 5180SOL    HW127176   4.391   0.189   6.092  2.5748  1.7754  0.1980
 5180SOL    HW227177   4.379   0.045   6.115  1.2872 -1.2527  0.5359
 5181SOL     OW27178   2.290   2.980   8.446 -0.3952  0.5472 -0.3691
 5181SOL    HW127179   2.265   2.888   8.455 -2.3234  1.3553  2.6139
 5181SOL    HW227180   2.349   2.973   8.371  1.2813  3.0451  0.7314
 5182SOL     OW27181   2.005   1.778   6.064  0.0434 -0.0749 -0.2771
 5182SOL    HW127182   1.982   1.844   5.998 -0.5209 -0.0854 -0.0943
 5182SOL    HW227183   1.939   1.710   6.050  1.6828 -1.9718  1.1624
 5183SOL     OW27184   0.354   0.661   4.333 -0.0303 -0.0619  0.1205
 5183SOL    HW127185   0.348   0.567   4.312 -0.5999 -0.0118  0.0433
 5183SOL    HW227186   0.330   0.699   4.249 -0.4215 -0.4579  0.0503
 5184SOL     OW27187   3.086   0.907   2.313  0.5540  0.6972  0.1335
 5184SOL    HW127188   3.160   0.879   2.259  1.2656  0.4414  1.2292
 5184SOL    HW227189   3.020   0.915   2.245  0.7165 -0.4956 -0.1518
 5185SOL     OW27190   3.835   2.583  13.522  0.0871 -0.1247  0.0960
 5185SOL    HW127191   3.776   2.568  13.448 -0.4273  1.2091  0.2369
 5185SOL    HW227192   3.763   2.564  13.582 -0.7387  0.4991 -0.6970
 5186SOL     OW27193   1.416   2.241   6.221  0.3959  0.1221 -0.2824
 5186SOL    HW127194   1.398   2.321   6.170  0.9449 -0.7039 -1.7934
 5186SOL    HW227195   1.502   2.219   6.185  0.5209  0.1155  0.0202
 5187SOL     OW27196   4.073   3.098   4.681 -0.4428 -0.1206  0.0308
 5187SOL    HW127197   4.155   3.128   4.719 -0.7551 -1.2203  1.5698
 5187SOL    HW227198   4.051   3.024   4.737 -2.3354  0.3399 -0.0900
 5188SOL     OW27199   0.531   4.502  13.060  0.0623 -0.0482  0.3423
 5188SOL    HW127200   0.469   4.556  13.109 -0.5314 -2.5398  2.2903
 5188SOL    HW227201   0.509   4.541  12.975  1.0748 -1.1045 -0.3937
 5189SOL     OW27202   1.134   4.488   2.360  0.1174 -0.3034  0.2641
 5189SOL    HW127203   1.089   4.481   2.444 -1.6473  1.4448 -0.5454
 5189SOL    HW227204   1.225   4.463   2.379  0.2321  0.5102  0.7705
 5190SOL     OW27205   0.711   2.481   1.603 -0.2580  0.3074  0.6350
 5190SOL    HW127206   0.655   2.553   1.630 -0.9735 -0.8567  2.2601
 5190SOL    HW227207   0.780   2.485   1.668 -0.8154 -1.5544  1.3616
 5191SOL     OW27208   0.754   0.853   7.571 -0.0412 -0.3579  0.2680
 5191SOL    HW127209   0.665   0.889   7.579 -0.0668 -0.7245  1.5590
 5191SOL    HW227210   0.801   0.935   7.551 -1.2388  0.5423  1.1261
 5192SOL     OW27211   1.951   4.396   5.848  0.5696 -0.8471 -0.3880
 5192SOL    HW127212   1.937   4.435   5.762 -0.8455 -0.8899 -0.1747
 5192SOL    HW227213   1.859   4.381   5.871  0.6568  1.7717  1.6572
 5193SOL     OW27214   0.148   0.596  12.676 -0.5653  0.1622  0.2300
 5193SOL    HW127215   0.234   0.628  12.649  0.7075 -1.4210  2.4296
 5193SOL    HW227216   0.179   0.512  12.709  1.7091  0.9955  0.2353
 5194SOL     OW27217   4.546   4.168   7.576  0.6479 -0.1004 -0.0917
 5194SOL    HW127218   4.484   4.215   7.631 -0.3323  1.8385 -2.8178
 5194SOL    HW227219   4.508   4.186   7.490  1.5505 -1.3918 -0.7657
 5195SOL     OW27220   4.049   0.139   0.436 -0.1791 -0.3317  0.3751
 5195SOL    HW127221   4.033   0.197   0.361  1.6532  0.3521  0.5074
 5195SOL    HW227222   4.030   0.199   0.508  1.1205 -0.6563  0.9868
 5196SOL     OW27223   4.649   0.806   8.986 -0.0890 -0.1645 -0.1764
 5196SOL    HW127224   4.698   0.771   9.060 -0.4386 -0.8972 -0.3004
 5196SOL    HW227225   4.581   0.850   9.038  1.9674  1.4721  1.1513
 5197SOL     OW27226   3.923   1.220   9.149  0.6461 -0.2696  0.3557
 5197SOL    HW127227   3.925   1.214   9.244  0.3833 -0.2292  0.3619
 5197SOL    HW227228   3.967   1.305   9.138  0.1922 -0.0476  0.2677
 5198SOL     OW27229   0.487   0.917   0.189  0.4480 -0.0887 -0.4415
 5198SOL    HW127230   0.400   0.883   0.212  0.1208  0.6951 -0.5143
 5198SOL    HW227231   0.469   1.005   0.157 -1.2460  0.1591  1.1847
 5199SOL     OW27232   1.454   2.992  14.117 -0.0714  0.2679 -0.5923
 5199SOL    HW127233   1.512   2.975  14.042 -0.8255  1.9547 -1.5664
 5199SOL    HW227234   1.366   2.958  14.098  0.5802 -1.0411 -1.2363
 5200SOL     OW27235   1.979   4.704   5.465 -0.2993  0.0413 -0.0550
 5200SOL    HW127236   1.954   4.716   5.373 -2.0730  0.1364  0.4375
 5200SOL    HW227237   2.068   0.004   5.468 -0.7514  1.2607 -1.3523
 5201SOL     OW27238   0.845   1.595   4.848  0.8024 -0.2076  0.4574
 5201SOL    HW127239   0.937   1.621   4.853  0.6044  0.4194  0.7884
 5201SOL    HW227240   0.798   1.672   4.880 -1.4837 -0.1423 -2.9925
 5202SOL     OW27241   4.526   1.584  15.485 -0.3604 -0.4832  0.1186
 5202SOL    HW127242   4.452   1.534  15.450 -0.7793 -1.7120  2.8043
 5202SOL    HW227243   4.509   1.596  15.578 -1.6094  1.0525 -0.3047
 5203SOL     OW27244   1.563   4.685   4.758  0.4130  0.1149  0.0970
 5203SOL    HW127245   1.556   4.616   4.692 -2.7524 -0.7210  1.3256
 5203SOL    HW227246   1.471   4.709   4.767  0.3995 -0.1499  0.6535
 5204SOL     OW27247   2.196   3.960   5.784  0.5150 -0.3569  0.0457
 5204SOL    HW127248   2.246   3.944   5.864  1.2075 -0.6195 -0.4413
 5204SOL    HW227249   2.105   3.938   5.804  0.5138 -0.0234  0.4149
 5205SOL     OW27250   2.479   3.222   9.200 -0.2869  0.0314 -0.2191
 5205SOL    HW127251   2.520   3.151   9.151  1.2091  0.4444  0.4210
 5205SOL    HW227252   2.433   3.267   9.129 -1.2347 -0.5137  0.0467
 5206SOL     OW27253   0.984   3.914   3.634 -0.3259  0.0543  0.4205
 5206SOL    HW127254   1.071   3.881   3.610  0.0750  0.2304  1.6662
 5206SOL    HW227255   0.974   3.916   3.729  0.2207  2.3089  0.4275
 5207SOL     OW27256   0.082   1.790   1.957 -0.2093  0.3555 -0.1686
 5207SOL    HW127257   0.042   1.749   1.881  0.7495 -0.6175 -0.1451
 5207SOL    HW227258   0.071   1.881   1.932 -2.1260  0.2023  0.1135
 5208SOL     OW27259   4.681   1.642  14.900 -0.7084 -0.4382  0.1661
 5208SOL    HW127260   4.605   1.689  14.936 -1.0657 -0.5135 -0.4768
 5208SOL    HW227261   4.722   1.715  14.854 -1.3569 -0.4462 -0.4267
 5209SOL     OW27262   1.757   2.416   4.754  0.3500  0.2392  0.5962
 5209SOL    HW127263   1.814   2.368   4.694  0.1155 -0.1617  0.6933
 5209SOL    HW227264   1.766   2.356   4.829  2.2211  0.2245  0.3782
 5210SOL     OW27265   1.352   3.030  12.747  0.9332 -0.2176 -0.6689
 5210SOL    HW127266   1.426   3.089  12.761 -0.2786  0.8368  1.5270
 5210SOL    HW227267   1.283   3.097  12.748 -0.5862 -1.7881  0.7387
 5211SOL     OW27268   2.568   3.927   0.066 -0.2576 -0.4627 -0.3906
 5211SOL    HW127269   2.499   3.885   0.014 -1.1824 -0.0193  0.4658
 5211SOL    HW227270   2.647   3.914   0.014 -0.1508 -0.2880 -0.2702
 5212SOL     OW27271   0.604   4.716   1.644  0.4675 -0.2635  0.0086
 5212SOL    HW127272   0.645   4.661   1.711  1.0940  0.8256  0.5202
 5212SOL    HW227273   0.609   4.654   1.571  0.0446  0.7369 -0.8604
 5213SOL     OW27274   0.104   0.871   6.286 -0.0766 -0.0793  0.8797
 5213SOL    HW127275   0.033   0.844   6.344 -0.7005 -1.1899 -0.4074
 5213SOL    HW227276   0.101   0.830   6.200 -0.2796  1.2814  0.2494
 5214SOL     OW27277   3.724   0.700   7.765  0.0686  0.0632 -0.1984
 5214SOL    HW127278   3.772   0.618   7.764 -0.8844 -0.4934  0.6383
 5214SOL    HW227279   3.790   0.765   7.738  1.2776 -1.4264 -0.7971
 5215SOL     OW27280   1.068   0.731   9.577  0.6727  0.3615  0.0797
 5215SOL    HW127281   1.022   0.708   9.657 -0.3935  1.9569 -0.0683
 5215SOL    HW227282   1.158   0.750   9.604  1.5477  1.3885 -3.4954
 5216SOL     OW27283   3.930   1.388   8.248  0.3141 -0.1252 -0.4669
 5216SOL    HW127284   3.985   1.325   8.295  0.3980  0.1124 -0.2474
 5216SOL    HW227285   3.865   1.415   8.313  0.2017 -0.0354 -0.6166
 5217SOL     OW27286   4.571   2.196   8.559  0.4816 -0.0713 -0.1655
 5217SOL    HW127287   4.601   2.118   8.605  1.0653  0.2223 -0.0456
 5217SOL    HW227288   4.584   2.262   8.627  1.0278  1.8108 -2.0991
 5218SOL     OW27289   3.292   1.564   7.926  0.2003 -0.3362  0.0407
 5218SOL    HW127290   3.324   1.503   7.860 -1.7958 -0.5387 -0.7414
 5218SOL    HW227291   3.259   1.502   7.992 -2.5490 -0.2566 -1.2561
 5219SOL     OW27292   0.399   0.807  16.999  0.4953  0.2558  0.1094
 5219SOL    HW127293   0.378   0.795  16.907  2.1451 -1.1302 -0.0919
 5219SOL    HW227294   0.478   0.859  16.987  0.3498  0.5970  0.5966
 5220SOL     OW27295   3.239   0.896   6.169 -0.0877  0.2470 -0.3981
 5220SOL    HW127296   3.184   0.819   6.159  2.7601 -1.9931  1.1709
 5220SOL    HW227297   3.204   0.920   6.255 -0.8525 -0.2183 -0.5796
 5221SOL     OW27298   3.607   4.060   5.651 -0.6534  0.6096  0.3593
 5221SOL    HW127299   3.565   4.142   5.676 -3.2988 -1.2637  2.1309
 5221SOL    HW227300   3.539   4.000   5.684  0.8506 -1.0213  0.4981
 5222SOL     OW27301   4.705   1.893   0.323 -0.4150 -0.0447  0.1647
 5222SOL    HW127302   4.612   1.875   0.311 -0.3598 -2.0780  2.7601
 5222SOL    HW227303   4.731   1.821   0.380  0.9611 -1.2547 -2.0267
 5223SOL     OW27304   1.351   1.128  17.284 -0.2260  0.7535  0.0823
 5223SOL    HW127305   1.408   1.100  17.355  1.5462  1.0607 -1.2145
 5223SOL    HW227306   1.302   1.204  17.316 -0.2994  0.1189  1.4456
 5224SOL     OW27307   1.636   3.214   7.088 -0.3319  0.2769  0.0996
 5224SOL    HW127308   1.714   3.159   7.100 -0.3610  0.0839 -0.5688
 5224SOL    HW227309   1.577   3.161   7.035 -1.1429  1.0595  0.2218
 5225SOL     OW27310   1.922   0.100  15.570 -0.3835 -0.2357 -0.2603
 5225SOL    HW127311   1.929   0.196  15.572 -0.2899 -0.2221 -1.0912
 5225SOL    HW227312   1.873   0.085  15.489  2.3773 -0.9275 -1.8373
 5226SOL     OW27313   2.962   2.586  12.805 -0.2979  0.1565  0.0935
 5226SOL    HW127314   3.003   2.595  12.719  1.6796 -1.5803  0.8551
 5226SOL    HW227315   3.040   2.600  12.859 -0.7239  1.1652  0.4343
 5227SOL     OW27316   3.745   3.635   9.229 -0.3988  0.1458  0.7155
 5227SOL    HW127317   3.818   3.694   9.248 -0.3136 -0.0646  1.0455
 5227SOL    HW227318   3.791   3.553   9.210 -1.5079 -1.2277  3.9599
 5228SOL     OW27319   0.635   3.981  13.899 -0.2585  0.0493 -0.2670
 5228SOL    HW127320   0.699   4.050  13.914 -0.2060  0.3558 -1.9387
 5228SOL    HW227321   0.697   3.910  13.885  0.7417  0.8815 -0.0512
 5229SOL     OW27322   0.140   2.885   6.651 -0.2088  0.4088  0.3538
 5229SOL    HW127323   0.096   2.814   6.604  0.1873  0.7774 -0.5600
 5229SOL    HW227324   0.225   2.856   6.684 -0.5473  0.0132  0.8921
 5230SOL     OW27325   4.030   3.888   7.272  0.6667 -0.5295  0.3094
 5230SOL    HW127326   3.972   3.946   7.322 -1.3395 -2.5766  0.3531
 5230SOL    HW227327   4.097   3.872   7.339  0.9997 -1.2583 -0.1986
 5231SOL     OW27328   3.061   4.220  14.970 -0.0340  0.4280 -0.2016
 5231SOL    HW127329   3.122   4.211  15.044 -0.1656  4.8935  0.4242
 5231SOL    HW227330   3.059   4.314  14.955 -0.0452  0.5312  0.4139
 5232SOL     OW27331   4.689   2.915   8.526  0.1447 -0.1885 -0.2827
 5232SOL    HW127332   4.609   2.864   8.544  1.3721 -1.6468  1.0853
 5232SOL    HW227333   4.679   3.009   8.541 -0.0647 -0.6560  2.5496
 5233SOL     OW27334   2.083   1.385   4.971  0.3813 -0.3923 -0.5088
 5233SOL    HW127335   2.116   1.401   5.060  0.3962 -2.3302 -0.1779
 5233SOL    HW227336   1.989   1.394   4.985  0.6254  0.2896  0.6941
 5234SOL     OW27337   4.562   0.864   4.915 -0.0270 -0.2367  0.4706
 5234SOL    HW127338   4.517   0.780   4.908 -1.7922  0.8205 -1.0079
 5234SOL    HW227339   4.654   0.847   4.894 -0.7131 -1.4564 -1.5715
 5235SOL     OW27340   3.154   3.041   8.242 -0.2638 -0.3086  0.3648
 5235SOL    HW127341   3.200   3.113   8.197  0.0213 -0.4809  0.3794
 5235SOL    HW227342   3.085   3.098   8.274 -2.2296 -1.6055 -1.5542
 5236SOL     OW27343   4.257   1.780   5.321  0.2416  0.7050 -0.2686
 5236SOL    HW127344   4.352   1.792   5.324  0.5896 -1.9756 -0.2222
 5236SOL    HW227345   4.253   1.689   5.292  0.2119  0.1579  1.4825
 5237SOL     OW27346   2.487   2.748   5.621 -0.5234 -0.0192  0.2684
 5237SOL    HW127347   2.467   2.683   5.688 -1.4310 -1.2340 -1.1737
 5237SOL    HW227348   2.434   2.824   5.642  0.5137  0.5712  0.7295
 5238SOL     OW27349   2.400   3.151   4.142 -0.7069 -0.3058  0.3779
 5238SOL    HW127350   2.459   3.119   4.210 -1.7813 -2.9187  0.0968
 5238SOL    HW227351   2.450   3.200   4.077 -1.2337  0.8157  0.8335
 5239SOL     OW27352   0.312   2.643  11.223 -0.1928 -0.6917 -0.1158
 5239SOL    HW127353   0.339   2.668  11.311 -0.8199  0.3788 -0.2379
 5239SOL    HW227354   0.300   2.730  11.186  1.3620 -0.7156 -0.6467
 5240SOL     OW27355   4.221   0.594   1.719  0.0641  0.3293  0.0553
 5240SOL    HW127356   4.186   0.593   1.809  0.9890 -0.4471  0.3953
 5240SOL    HW227357   4.272   0.675   1.713 -1.3708  1.2206 -0.2382
 5241SOL     OW27358   1.420   1.654   2.729  0.1021 -0.0816  0.5823
 5241SOL    HW127359   1.375   1.570   2.741 -1.8501  1.0958  1.4506
 5241SOL    HW227360   1.452   1.678   2.816  1.5078  0.6682 -0.1318
 5242SOL     OW27361   3.293   4.491   8.739  0.2651 -0.6065 -0.0507
 5242SOL    HW127362   3.387   4.487   8.726  0.2667 -2.2674  0.4444
 5242SOL    HW227363   3.278   4.558   8.673  0.6794  1.8351  2.3249
 5243SOL     OW27364   3.633   4.021  16.266 -0.0305 -0.1475 -0.1567
 5243SOL    HW127365   3.547   3.991  16.237  0.3644 -0.1157 -1.3474
 5243SOL    HW227366   3.624   4.114  16.244  1.8433 -0.4385 -2.1466
 5244SOL     OW27367   2.367   0.780   2.608 -0.1271  0.2814  0.2083
 5244SOL    HW127368   2.379   0.710   2.672 -3.1658  0.2793  0.7669
 5244SOL    HW227369   2.455   0.785   2.572 -0.9713 -0.6048 -1.9385
 5245SOL     OW27370   2.376   4.595   9.148 -0.1598 -0.1692 -0.2244
 5245SOL    HW127371   2.323   4.646   9.210  0.8444  2.2990 -1.3951
 5245SOL    HW227372   2.405   4.652   9.077  1.3989 -1.5243 -0.6541
 5246SOL     OW27373   1.942   1.415  15.729 -0.9073 -0.6282 -0.8569
 5246SOL    HW127374   1.881   1.417  15.655 -1.4230 -0.4682 -0.4270
 5246SOL    HW227375   1.990   1.498  15.723 -1.3615 -0.3936 -1.2172
 5247SOL     OW27376   3.994   3.997   6.600  0.1012 -0.1941 -0.8892
 5247SOL    HW127377   4.036   4.015   6.515  0.8709  2.1999 -0.0078
 5247SOL    HW227378   3.948   4.081   6.606  1.1500  0.4289 -1.4214
 5248SOL     OW27379   0.771   3.673   9.349 -0.7214 -0.2470 -0.3740
 5248SOL    HW127380   0.726   3.755   9.329  4.2542  1.9809 -2.5681
 5248SOL    HW227381   0.703   3.606   9.357 -0.7213 -0.3526 -1.2300
 5249SOL     OW27382   4.426   1.615   9.750 -0.0996 -0.3983  0.4661
 5249SOL    HW127383   4.446   1.566   9.830  0.0896  1.6691  1.6702
 5249SOL    HW227384   4.354   1.670   9.780 -1.6937 -1.6643 -0.9770
 5250SOL     OW27385   3.716   0.848   2.226 -0.2670  0.2831 -0.4509
 5250SOL    HW127386   3.674   0.897   2.296  1.2090  0.5815  0.2378
 5250SOL    HW227387   3.805   0.844   2.262 -0.1942 -0.1650 -0.6786
 5251SOL     OW27388   3.813   3.896   6.172  0.0618 -0.3784  0.4781
 5251SOL    HW127389   3.894   3.942   6.192  0.4681 -2.0287  2.7086
 5251SOL    HW227390   3.848   3.843   6.102  0.8690  1.3716 -0.4517
 5252SOL     OW27391   2.751   0.460   2.749 -0.6457  0.4607 -0.0326
 5252SOL    HW127392   2.795   0.529   2.699  0.7052  1.7607  2.9593
 5252SOL    HW227393   2.792   0.461   2.836  0.6106  1.6900 -0.6337
 5253SOL     OW27394   4.524   2.922  11.937 -0.0822  0.0642  0.1994
 5253SOL    HW127395   4.461   2.949  12.004 -0.3799 -0.3533  0.0915
 5253SOL    HW227396   4.585   2.887  12.001 -0.3047 -1.2455 -0.3192
 5254SOL     OW27397   2.210   2.369   4.032  0.5798 -0.4849  0.0551
 5254SOL    HW127398   2.179   2.351   3.943  1.4945  1.2436 -0.6091
 5254SOL    HW227399   2.290   2.419   4.018 -0.0089  0.9229  1.6918
 5255SOL     OW27400   4.621   1.538  13.799  0.9394 -0.3090  0.0274
 5255SOL    HW127401   4.605   1.522  13.706  0.2715  0.5849 -0.0104
 5255SOL    HW227402   4.644   1.447  13.819 -3.4815 -0.7464  3.0981
 5256SOL     OW27403   2.286   3.868   6.409 -0.1042  0.1636  0.1350
 5256SOL    HW127404   2.331   3.845   6.491 -0.5606  0.5823  0.4972
 5256SOL    HW227405   2.207   3.908   6.443  0.3068  1.7920 -0.8115
 5257SOL     OW27406   3.752   1.040   2.903  0.6498 -0.1048  0.2524
 5257SOL    HW127407   3.783   1.106   2.964  1.2269  1.1207 -1.3571
 5257SOL    HW227408   3.826   0.980   2.893  2.0828  1.6764  0.1678
 5258SOL     OW27409   2.671   0.073   9.252  0.6311  0.0237 -0.0261
 5258SOL    HW127410   2.663   4.728   9.202  1.0540 -0.0425  0.0136
 5258SOL    HW227411   2.606   0.059   9.322  0.7405  2.1505  0.5075
 5259SOL     OW27412   2.113   3.038   9.779 -0.7644  0.0932 -0.1660
 5259SOL    HW127413   2.147   3.020   9.867 -1.0513 -0.1359 -0.1024
 5259SOL    HW227414   2.195   3.069   9.741 -0.7139 -1.3867 -1.2811
 5260SOL     OW27415   2.952   0.532   7.491 -0.5809  0.0639 -0.1907
 5260SOL    HW127416   2.894   0.458   7.471  0.2640 -0.1841 -1.7641
 5260SOL    HW227417   2.886   0.600   7.502 -0.1922  0.5348 -0.7176
 5261SOL     OW27418   1.602   2.543  16.075 -0.1310 -0.6798  0.0325
 5261SOL    HW127419   1.520   2.540  16.125  0.0557  0.7563  0.3966
 5261SOL    HW227420   1.651   2.620  16.103 -1.2002 -0.1736  0.5204
 5262SOL     OW27421   0.286   3.816   7.166 -0.1949  0.3625  0.3446
 5262SOL    HW127422   0.267   3.778   7.080 -2.6610  0.5734  0.7992
 5262SOL    HW227423   0.203   3.845   7.204  0.9153  3.1073  0.6377
 5263SOL     OW27424   0.374   0.279   3.167  0.5285 -0.0314  0.5576
 5263SOL    HW127425   0.426   0.217   3.219  2.2137 -0.2806 -1.4357
 5263SOL    HW227426   0.312   0.317   3.230  2.1809  1.6904  1.1325
 5264SOL     OW27427   2.720   2.604   7.728 -0.0182  0.4225  0.1474
 5264SOL    HW127428   2.760   2.569   7.807  0.2979  0.5278  0.0353
 5264SOL    HW227429   2.786   2.581   7.662 -2.0989 -0.5202 -1.6176
 5265SOL     OW27430   1.141   2.458   6.888 -0.1591 -0.6013  0.3278
 5265SOL    HW127431   1.136   2.512   6.966 -0.7247 -0.0432 -0.0952
 5265SOL    HW227432   1.076   2.389   6.899 -0.2329 -0.6344 -0.2902
 5266SOL     OW27433   1.565   3.318  15.292 -0.2671  0.7597 -0.1871
 5266SOL    HW127434   1.526   3.288  15.375 -0.3766 -3.5630 -1.7953
 5266SOL    HW227435   1.512   3.288  15.218  1.4759 -2.3238 -0.1838
 5267SOL     OW27436   1.418   1.531   8.643 -0.3466 -0.0736  0.0966
 5267SOL    HW127437   1.372   1.586   8.580  1.1845  2.0976  0.9058
 5267SOL    HW227438   1.507   1.526   8.608  0.3855  0.4193  1.8940
 5268SOL     OW27439   3.201   2.248   5.003 -0.2432  0.0043  0.3145
 5268SOL    HW127440   3.281   2.299   5.021 -1.3963  1.1552  2.1272
 5268SOL    HW227441   3.139   2.320   5.014 -0.1120  0.2886 -0.8508
 5269SOL     OW27442   0.660   4.088   8.531 -0.1118 -0.0827 -0.0479
 5269SOL    HW127443   0.652   4.132   8.616 -0.6986  0.1836 -0.2457
 5269SOL    HW227444   0.667   4.168   8.478  1.9477 -0.0863  0.2013
 5270SOL     OW27445   2.115   1.499   3.986 -0.1561 -0.2125  0.4366
 5270SOL    HW127446   2.029   1.492   4.025  0.0030  0.2485  0.8597
 5270SOL    HW227447   2.111   1.590   3.957  0.6058 -0.0157  0.9413
 5271SOL     OW27448   3.409   2.151   4.290  0.7653 -0.0221  0.1129
 5271SOL    HW127449   3.423   2.059   4.314 -1.9650 -0.0150  1.7269
 5271SOL    HW227450   3.385   2.184   4.376  1.7159 -0.8706  0.7157
 5272SOL     OW27451   2.281   4.411   2.801  0.6263 -0.1670  0.2135
 5272SOL    HW127452   2.269   4.325   2.841  1.1642 -0.7223 -0.8092
 5272SOL    HW227453   2.375   4.396   2.789  0.2474 -0.7134 -2.0357
 5273SOL     OW27454   1.540   1.301   2.831  0.6982 -0.7459  0.2132
 5273SOL    HW127455   1.453   1.270   2.805  1.8027 -2.0113 -2.0162
 5273SOL    HW227456   1.525   1.322   2.923 -0.9082  0.5609 -0.3314
 5274SOL     OW27457   4.228   4.357   5.218  0.3149  0.5571  0.4386
 5274SOL    HW127458   4.186   4.289   5.166 -0.6463  1.9019 -0.5537
 5274SOL    HW227459   4.209   4.436   5.166 -1.3458 -0.9107 -1.1721
 5275SOL     OW27460   4.662   0.206   6.276  0.6496  0.2739 -0.3117
 5275SOL    HW127461   4.584   0.204   6.332  2.1995  1.4852  1.8535
 5275SOL    HW227462   4.612   0.187   6.196 -1.2695 -0.5688  1.0751
 5276SOL     OW27463   3.947   1.030   8.008 -0.6824 -0.0760 -0.5363
 5276SOL    HW127464   3.955   1.006   8.100  0.5639  0.3718 -0.5360
 5276SOL    HW227465   4.005   0.961   7.977  0.4035  0.7265 -0.2535
 5277SOL     OW27466   4.096   1.159  15.861  0.5004 -0.0835 -0.7656
 5277SOL    HW127467   4.026   1.220  15.886  0.3795  0.0128 -1.3259
 5277SOL    HW227468   4.042   1.108  15.800 -0.4716  1.3722 -1.1393
 5278SOL     OW27469   2.264   1.346  10.260  0.5027  0.8992 -0.4317
 5278SOL    HW127470   2.248   1.355  10.354  2.8652 -0.1992  0.0922
 5278SOL    HW227471   2.185   1.380  10.218  1.7988 -1.8397 -5.0447
 5279SOL     OW27472   0.636   0.265   5.960 -0.2567  0.0720 -0.6215
 5279SOL    HW127473   0.648   0.170   5.968  1.0532  0.1656 -1.4687
 5279SOL    HW227474   0.657   0.280   6.052 -2.6701  0.9657 -0.2103
 5280SOL     OW27475   0.933   1.101  13.546 -0.1425 -0.3076  0.1412
 5280SOL    HW127476   0.919   1.015  13.505  1.8478 -1.1841  1.2833
 5280SOL    HW227477   0.908   1.153  13.470  0.2370 -1.7874 -1.0033
 5281SOL     OW27478   1.680   1.153   1.750  0.1248 -0.0860  0.0032
 5281SOL    HW127479   1.707   1.076   1.801  0.8982  0.3488  0.2376
 5281SOL    HW227480   1.739   1.160   1.676  0.4210  2.0106  0.4414
 5282SOL     OW27481   4.243   4.593   3.119  0.0143 -0.2218 -0.1032
 5282SOL    HW127482   4.225   4.666   3.061 -0.5769  0.0370  0.3990
 5282SOL    HW227483   4.328   4.563   3.086  0.6846  1.0368  0.4683
 5283SOL     OW27484   4.680   3.728   8.714  0.0303  0.1897  0.1649
 5283SOL    HW127485   0.007   3.710   8.643 -0.7552 -0.2937 -0.4100
 5283SOL    HW227486   4.697   3.654   8.773  0.1744  1.4129  1.6411
 5284SOL     OW27487   4.106   3.542  16.054  0.1001  0.1968 -0.4408
 5284SOL    HW127488   4.073   3.561  15.966 -2.4999  0.1169  0.5103
 5284SOL    HW227489   4.128   3.628  16.090  1.9759 -0.0670 -0.9560
 5285SOL     OW27490   0.212   0.872   6.758 -0.7649 -0.5318 -0.2049
 5285SOL    HW127491   0.161   0.946   6.791 -0.2082  0.0870 -0.7550
 5285SOL    HW227492   0.203   0.898   6.667 -1.5049  1.3057  0.3878
 5286SOL     OW27493   1.806   0.134  13.230  0.6820  0.0672 -0.2153
 5286SOL    HW127494   1.823   0.211  13.284  1.6856 -0.1752 -0.1777
 5286SOL    HW227495   1.895   0.100  13.216  0.5719 -1.0451  1.6922
 5287SOL     OW27496   2.582   3.139   5.776  0.1945 -0.1200  0.5372
 5287SOL    HW127497   2.626   3.057   5.797 -0.2273 -0.7771 -1.1216
 5287SOL    HW227498   2.605   3.193   5.851  1.4254 -0.3070  0.2920
 5288SOL     OW27499   0.531   0.717   7.384  0.4472  1.2754 -0.1884
 5288SOL    HW127500   0.446   0.760   7.398  0.5618  2.1435 -2.1889
 5288SOL    HW227501   0.529   0.676   7.471  1.1410  3.1532  0.7200
 5289SOL     OW27502   4.517   3.823   4.215  0.3023  0.0359 -0.5450
 5289SOL    HW127503   4.541   3.748   4.270  1.3957  0.8002  0.0381
 5289SOL    HW227504   4.587   3.885   4.238  1.6817 -2.0698  0.9371
 5290SOL     OW27505   2.120   0.968   7.168 -0.4422 -0.9971 -0.4004
 5290SOL    HW127506   2.156   0.894   7.119  2.6205  0.8919 -1.0074
 5290SOL    HW227507   2.027   0.947   7.167 -1.2531  2.5200  1.1837
 5291SOL     OW27508   3.827   4.428  13.224 -0.1683 -0.0431 -0.1851
 5291SOL    HW127509   3.780   4.498  13.270  2.2773  1.5384 -0.1126
 5291SOL    HW227510   3.757   4.391  13.170 -0.9992  3.3826 -1.4180
 5292SOL     OW27511   3.678   2.587   6.194 -0.8182  0.2346  0.1021
 5292SOL    HW127512   3.753   2.528   6.189 -2.4319 -1.9406  1.2945
 5292SOL    HW227513   3.607   2.523   6.191 -0.3872 -0.2303 -0.0919
 5293SOL     OW27514   0.534   2.412   8.956  0.6842 -0.6645 -0.0876
 5293SOL    HW127515   0.601   2.417   8.889  0.7239 -2.6910 -0.1808
 5293SOL    HW227516   0.543   2.326   8.997 -1.6831 -0.8777  0.0047
 5294SOL     OW27517   4.228   4.386   0.775  0.5502 -0.3843 -0.1124
 5294SOL    HW127518   4.217   4.351   0.863  1.5199  0.5952  0.3961
 5294SOL    HW227519   4.280   4.315   0.735  0.1839 -0.7012 -0.0256
 5295SOL     OW27520   2.377   3.644   5.593  0.5067  0.0193  0.1163
 5295SOL    HW127521   2.345   3.558   5.566  0.1599 -0.4570  2.0356
 5295SOL    HW227522   2.452   3.620   5.648  0.0346 -3.5124 -0.7655
 5296SOL     OW27523   1.435   3.890   7.090 -0.1001  0.0106  0.5983
 5296SOL    HW127524   1.406   3.929   7.007  0.6947 -1.5941 -0.4344
 5296SOL    HW227525   1.489   3.967   7.110  0.4335  0.1878 -1.5585
 5297SOL     OW27526   3.871   1.390   4.114 -0.6826  0.1120 -0.0608
 5297SOL    HW127527   3.947   1.348   4.073 -1.7997 -1.7772 -0.2042
 5297SOL    HW227528   3.802   1.336   4.076  1.0270 -0.4650 -2.3989
 5298SOL     OW27529   0.637   3.229   4.661  0.2497  0.6058 -0.5617
 5298SOL    HW127530   0.627   3.233   4.756  2.3755  0.2141 -0.3132
 5298SOL    HW227531   0.685   3.312   4.654 -0.5504  1.1337  0.2772
 5299SOL     OW27532   4.479   4.682   3.481  0.2706  0.0836  0.0098
 5299SOL    HW127533   4.461   4.589   3.468 -2.8789  0.9522 -1.7869
 5299SOL    HW227534   4.533   4.664   3.557 -0.2841  2.0066  0.8556
 5300SOL     OW27535   3.106   2.361   9.085 -0.5478 -0.0250 -0.2296
 5300SOL    HW127536   3.177   2.303   9.058 -0.6206  0.0240 -0.5246
 5300SOL    HW227537   3.146   2.448   9.083  0.9265 -0.6998 -0.1589
 5301SOL     OW27538   4.230   1.439  11.561 -0.0519  0.1856 -0.4967
 5301SOL    HW127539   4.166   1.470  11.625  1.1273  0.7643  0.4018
 5301SOL    HW227540   4.258   1.519  11.517  0.3428 -0.9236 -2.2312
 5302SOL     OW27541   0.895   1.970   9.416  0.0204 -0.6274  0.0406
 5302SOL    HW127542   0.980   1.961   9.373  1.5267  1.1136  2.6797
 5302SOL    HW227543   0.913   2.042   9.476  0.5024  1.1031 -2.2053
 5303SOL     OW27544   3.765   3.408   4.251 -0.1794 -0.3691  0.2246
 5303SOL    HW127545   3.798   3.320   4.264  2.5218  0.6359  0.2908
 5303SOL    HW227546   3.688   3.391   4.196  0.0607 -1.1763  0.1438
 5304SOL     OW27547   4.368   0.088   3.952  0.0918  0.0287 -0.0607
 5304SOL    HW127548   4.304   0.100   4.022 -1.2342  0.0956 -1.2907
 5304SOL    HW227549   4.319   0.116   3.874  1.5841  1.1356 -0.6053
 5305SOL     OW27550   1.287   0.488  13.058  0.2156  0.3210 -0.2874
 5305SOL    HW127551   1.311   0.430  12.986 -1.3973  0.0162 -0.5660
 5305SOL    HW227552   1.292   0.435  13.138  1.4985  1.7093  0.5578
 5306SOL     OW27553   4.259   0.084  13.348 -0.0256  0.1711 -0.4352
 5306SOL    HW127554   4.253   0.048  13.259 -1.4469 -1.5675  0.3521
 5306SOL    HW227555   4.204   0.025  13.400  1.3627 -3.0870 -2.6703
 5307SOL     OW27556   2.664   0.332   1.129  0.0886  0.1210 -0.5758
 5307SOL    HW127557   2.621   0.417   1.122  2.8835  1.6281  0.5317
 5307SOL    HW227558   2.732   0.343   1.063 -1.0360  1.5965 -1.5020
 5308SOL     OW27559   1.099   4.432   8.304 -0.2394  0.5595 -0.8091
 5308SOL    HW127560   1.173   4.374   8.322  0.6330  2.6941  2.7066
 5308SOL    HW227561   1.031   4.368   8.325  0.1276  0.9084  1.4601
 5309SOL     OW27562   4.303   1.095   2.918  0.0966  0.2089 -0.4255
 5309SOL    HW127563   4.347   1.013   2.895 -1.9432 -0.7444 -0.8980
 5309SOL    HW227564   4.332   1.107   3.008 -1.6774  0.2167  0.1400
 5310SOL     OW27565   0.676   3.687   4.784  0.4535  1.0165 -0.0200
 5310SOL    HW127566   0.751   3.643   4.743 -0.5795 -0.0815 -0.7476
 5310SOL    HW227567   0.622   3.733   4.719 -0.6441  1.1836  1.0074
 5311SOL     OW27568   4.121   3.344   9.967 -0.2533 -0.2808 -0.7223
 5311SOL    HW127569   4.064   3.306  10.034 -0.6511  0.7997 -0.4417
 5311SOL    HW227570   4.211   3.335   9.998 -0.2415  1.8014 -0.1263
 5312SOL     OW27571   2.157   3.958   2.697 -0.4360  0.2010  0.5025
 5312SOL    HW127572   2.185   3.901   2.626  0.6953 -0.1553  1.2194
 5312SOL    HW227573   2.105   3.890   2.740  1.2099 -0.7959  0.9471
 5313SOL     OW27574   1.034   0.435   2.974 -0.1225  0.1110  0.4083
 5313SOL    HW127575   1.019   0.341   2.964  0.0221  0.1531 -0.1760
 5313SOL    HW227576   1.116   0.438   2.925 -0.4220 -1.3717 -0.1766
 5314SOL     OW27577   4.378   2.305   6.633 -0.4542 -0.1645 -0.3251
 5314SOL    HW127578   4.321   2.314   6.709  1.0729  0.4511  0.7661
 5314SOL    HW227579   4.460   2.289   6.680 -0.6617 -1.4012 -0.3945
 5315SOL     OW27580   3.262   1.039   5.933  0.0766  0.1776 -0.3229
 5315SOL    HW127581   3.338   1.095   5.945 -0.8407  1.3783 -0.0738
 5315SOL    HW227582   3.261   1.001   6.021  0.1092  1.0015  0.0333
 5316SOL     OW27583   3.661   2.824   3.580  0.1010 -0.5522 -0.3390
 5316SOL    HW127584   3.691   2.765   3.511  1.6340 -1.3526  0.9961
 5316SOL    HW227585   3.576   2.792   3.611 -0.3397 -0.2133 -1.2015
 5317SOL     OW27586   3.449   1.841   4.200 -0.3245 -0.1853  0.5740
 5317SOL    HW127587   3.478   1.779   4.267  0.4081 -1.1617 -0.6612
 5317SOL    HW227588   3.357   1.858   4.219 -0.4253 -1.0059  0.7832
 5318SOL     OW27589   0.817   1.470   1.498 -0.2473  0.2176 -0.1263
 5318SOL    HW127590   0.811   1.561   1.528  1.1682  0.6766 -1.2306
 5318SOL    HW227591   0.778   1.479   1.411 -0.4549 -2.1368 -0.2779
 5319SOL     OW27592   2.646   0.922   8.312 -0.0817  0.1813  0.3645
 5319SOL    HW127593   2.603   0.962   8.237 -0.5584  1.0029  1.0647
 5319SOL    HW227594   2.648   1.002   8.365 -0.4101  0.6864 -0.3884
 5320SOL     OW27595   3.587   2.956   3.881  0.4739  0.0359 -0.5046
 5320SOL    HW127596   3.649   2.961   3.809  1.7030 -1.0574  0.4619
 5320SOL    HW227597   3.512   2.995   3.837  0.4447 -1.1006 -1.4629
 5321SOL     OW27598   1.426   3.149   6.035  0.7528  0.4017 -0.7456
 5321SOL    HW127599   1.354   3.166   6.095  0.8087  1.6750 -1.0477
 5321SOL    HW227600   1.488   3.218   6.058 -0.8265  1.1361  1.2336
 5322SOL     OW27601   1.576   3.170   9.612  0.1126 -0.1941  0.9424
 5322SOL    HW127602   1.540   3.177   9.701 -2.7371 -0.4547 -0.1749
 5322SOL    HW227603   1.499   3.136   9.567 -0.2635  1.4927  0.3077
 5323SOL     OW27604   0.720   0.331   6.227 -0.0440 -0.2257  0.1492
 5323SOL    HW127605   0.810   0.316   6.255  0.3774 -0.0857 -1.1151
 5323SOL    HW227606   0.681   0.282   6.299 -1.6777  0.1921 -0.4252
 5324SOL     OW27607   3.885   1.361  16.514  0.2724 -0.1203 -0.1577
 5324SOL    HW127608   3.937   1.381  16.436 -0.8456  1.7878 -0.4096
 5324SOL    HW227609   3.856   1.444  16.552  2.1414  0.6693 -0.4376
 5325SOL     OW27610   0.733   4.703  14.241 -0.6831  0.5008 -0.2042
 5325SOL    HW127611   0.711   0.038  14.302  0.5294  3.5497 -3.3016
 5325SOL    HW227612   0.643   4.670  14.234 -0.9463  0.9202  1.2533
 5326SOL     OW27613   3.869   3.131   4.228  0.1976  0.6583 -0.3699
 5326SOL    HW127614   3.938   3.068   4.206  0.9804  1.1557  0.7049
 5326SOL    HW227615   3.834   3.134   4.139 -0.9858 -0.6418  0.0443
 5327SOL     OW27616   4.077   2.083   2.886  0.0052 -0.1488 -0.1219
 5327SOL    HW127617   4.070   2.100   2.980 -2.2995 -2.7108  0.1663
 5327SOL    HW227618   3.989   2.049   2.870  0.2639  0.1007 -2.0814
 5328SOL     OW27619   4.035   3.676  15.819  1.0178  0.1189 -0.0914
 5328SOL    HW127620   3.977   3.654  15.747  0.1252  0.0754  0.6333
 5328SOL    HW227621   4.009   3.765  15.845  1.0319 -0.6002  2.3932
 5329SOL     OW27622   1.194   2.874   8.301 -0.1499 -0.1527 -0.1137
 5329SOL    HW127623   1.284   2.895   8.275 -0.2905 -1.2992 -1.5781
 5329SOL    HW227624   1.184   2.792   8.252  0.4509  0.2596 -0.9298
 5330SOL     OW27625   3.095   2.894   7.295 -0.1709  0.3775 -0.2822
 5330SOL    HW127626   3.067   2.804   7.308 -0.8543  0.3872 -1.7475
 5330SOL    HW227627   3.052   2.937   7.369  1.2104 -0.3006  0.9138
 5331SOL     OW27628   4.451   3.574   6.187  0.7897  0.1079  0.1223
 5331SOL    HW127629   4.373   3.629   6.177 -0.7294 -1.7383  1.6907
 5331SOL    HW227630   4.417   3.492   6.222  1.0287 -0.4433 -0.9538
 5332SOL     OW27631   3.234   4.731   8.195  0.1661 -0.7315  0.4226
 5332SOL    HW127632   3.317   4.722   8.148  0.1816  0.1086  0.2978
 5332SOL    HW227633   3.259   0.052   8.268 -0.0194 -1.3270  0.9460
 5333SOL     OW27634   0.845   3.298  13.313  0.1152 -0.4729 -0.0025
 5333SOL    HW127635   0.891   3.382  13.314  3.4180 -2.2973 -0.4075
 5333SOL    HW227636   0.920   3.249  13.347 -0.8549 -1.5779  0.5582
 5334SOL     OW27637   3.527   3.373   4.714  0.1291  0.3931 -0.3725
 5334SOL    HW127638   3.437   3.387   4.685 -0.4016 -2.2123 -0.0651
 5334SOL    HW227639   3.524   3.277   4.708  1.9483  0.5578 -3.3738
 5335SOL     OW27640   1.416   3.184   2.273  0.1254  0.5740  1.1232
 5335SOL    HW127641   1.339   3.237   2.253 -1.0924 -1.2160  1.0928
 5335SOL    HW227642   1.487   3.248   2.281  0.1577  0.8577 -1.5416
 5336SOL     OW27643   0.904   0.723   7.134 -0.4763 -0.6877 -0.3719
 5336SOL    HW127644   0.929   0.801   7.183  0.6440 -0.5050 -1.2175
 5336SOL    HW227645   0.951   0.653   7.179 -0.5502  1.9198  3.7209
 5337SOL     OW27646   1.391   4.406   7.349  0.3637 -0.6727  0.2145
 5337SOL    HW127647   1.355   4.366   7.269  1.6187 -3.1998  0.9246
 5337SOL    HW227648   1.343   4.362   7.419 -0.4345 -1.2571 -0.6851
 5338SOL     OW27649   1.606   2.211   1.453 -0.7442 -0.5697 -0.1570
 5338SOL    HW127650   1.644   2.282   1.402  1.7348 -0.7154  1.5464
 5338SOL    HW227651   1.559   2.261   1.520 -1.7345 -0.8664 -0.6180
 5339SOL     OW27652   3.975   2.497  16.925 -0.3060  0.3390 -0.0244
 5339SOL    HW127653   3.931   2.417  16.897 -1.9167  2.5147 -3.7298
 5339SOL    HW227654   4.022   2.517  16.844 -0.8986  0.2749 -0.3870
 5340SOL     OW27655   2.407   3.066  15.335  0.2135 -0.1550 -0.2744
 5340SOL    HW127656   2.370   3.154  15.343 -0.7113 -0.2790 -3.2900
 5340SOL    HW227657   2.349   3.007  15.383 -1.0556 -0.1697 -1.8600
 5341SOL     OW27658   3.238   1.636   1.689  0.0514  0.3882 -0.0428
 5341SOL    HW127659   3.321   1.603   1.657 -0.6264  2.0410 -3.6153
 5341SOL    HW227660   3.179   1.615   1.616  1.3863 -0.7602 -0.7692
 5342SOL     OW27661   2.160   2.058   3.439 -0.4787 -0.3800 -0.3611
 5342SOL    HW127662   2.140   2.076   3.531  1.6936 -0.8377  0.1842
 5342SOL    HW227663   2.250   2.027   3.450 -0.4335 -0.1080  0.0145
 5343SOL     OW27664   3.824   0.457   7.855  0.6722  0.3112 -0.2971
 5343SOL    HW127665   3.905   0.459   7.906  0.2089  3.0806  0.3708
 5343SOL    HW227666   3.757   0.414   7.907  0.2324 -0.1957 -1.2833
 5344SOL     OW27667   4.017   2.009  11.252  0.4120 -0.7902 -0.5371
 5344SOL    HW127668   3.981   1.953  11.321  0.2101 -1.1891 -0.9672
 5344SOL    HW227669   3.943   2.050  11.209  0.4488 -0.5861 -0.4037
 5345SOL     OW27670   2.069   4.224   3.667  0.1257  0.2511 -0.5956
 5345SOL    HW127671   2.102   4.139   3.636  1.6275  0.1600  1.2471
 5345SOL    HW227672   2.098   4.213   3.757  1.2538  1.7891 -0.7604
 5346SOL     OW27673   1.357   1.433  13.412 -0.0561 -0.7747 -0.4742
 5346SOL    HW127674   1.400   1.505  13.366 -0.6760  1.0839  1.9088
 5346SOL    HW227675   1.393   1.359  13.362 -1.8857 -0.8165 -1.7400
 5347SOL     OW27676   3.379   1.827  17.437 -0.4471  0.3044  0.2134
 5347SOL    HW127677   3.472   1.829  17.459 -0.4220 -1.8865  0.3053
 5347SOL    HW227678   3.368   1.763  17.367  1.6101 -0.0862  0.2392
 5348SOL     OW27679   1.431   1.757   5.666  0.1954  0.0760 -0.0982
 5348SOL    HW127680   1.359   1.702   5.634 -0.8158 -1.3219  4.4713
 5348SOL    HW227681   1.384   1.837   5.690 -0.0722 -0.4929  1.3201
 5349SOL     OW27682   4.539   4.022   5.286 -0.3964 -0.4553  0.0789
 5349SOL    HW127683   4.610   4.075   5.323 -1.6527  0.4710  1.1439
 5349SOL    HW227684   4.589   3.987   5.212 -0.6916  3.2837 -1.8475
 5350SOL     OW27685   3.549   4.549   8.267  0.5999 -0.0512  0.0889
 5350SOL    HW127686   3.556   4.575   8.175 -3.0342  1.4560  0.2489
 5350SOL    HW227687   3.455   4.533   8.273  0.2955  1.4729 -0.6808
 5351SOL     OW27688   3.815   3.278   9.463  0.5013  0.0286 -0.1082
 5351SOL    HW127689   3.773   3.219   9.526  0.1096  2.0183  1.4926
 5351SOL    HW227690   3.789   3.360   9.504 -0.4166 -1.0423  1.4685
 5352SOL     OW27691   1.240   3.758   2.806  0.2882 -0.0252  0.2979
 5352SOL    HW127692   1.266   3.666   2.799 -1.8982 -0.7245  1.5420
 5352SOL    HW227693   1.326   3.798   2.820  0.0021  1.2580 -1.6377
 5353SOL     OW27694   1.945   2.530  12.814  0.8732 -0.3827  0.1442
 5353SOL    HW127695   2.016   2.534  12.750  1.4443 -0.5676  0.7705
 5353SOL    HW227696   1.871   2.508  12.758  0.1730  0.0867  0.8831
 5354SOL     OW27697   1.839   2.654   4.622 -0.2252 -0.1854  0.1452
 5354SOL    HW127698   1.759   2.625   4.578  0.8767 -1.7980 -0.7812
 5354SOL    HW227699   1.849   2.588   4.691  0.1983  0.9910  1.2166
 5355SOL     OW27700   0.576   3.427   4.865 -0.1857  0.2082 -0.2003
 5355SOL    HW127701   0.608   3.516   4.851 -1.1076  0.4644 -0.6953
 5355SOL    HW227702   0.648   3.371   4.894  0.4202  1.5511  0.8769
 5356SOL     OW27703   2.260   2.957   8.786 -0.3197  0.6914  0.2866
 5356SOL    HW127704   2.166   2.975   8.777 -0.3848  0.1290 -0.1295
 5356SOL    HW227705   2.275   2.948   8.880  1.2965 -0.0156 -0.0403
 5357SOL     OW27706   4.498   3.465   8.216  0.2015 -0.0822 -0.1710
 5357SOL    HW127707   4.485   3.378   8.177 -1.8048  0.8002 -1.4592
 5357SOL    HW227708   4.431   3.508   8.163 -0.9932 -1.0496  0.5461
 5358SOL     OW27709   2.470   0.482   8.190 -0.0107  0.1138 -0.3350
 5358SOL    HW127710   2.556   0.521   8.173 -1.3878  3.2329  0.0140
 5358SOL    HW227711   2.420   0.560   8.214  1.2617  0.7362  0.2962
 5359SOL     OW27712   0.310   4.514   2.957 -0.1645  0.1081  0.1115
 5359SOL    HW127713   0.390   4.482   2.916 -1.2902 -1.1732 -1.0787
 5359SOL    HW227714   0.315   4.484   3.048 -0.1616 -0.0149  0.0701
 5360SOL     OW27715   1.162   4.406  17.735 -0.3084  0.0704  0.3861
 5360SOL    HW127716   1.197   4.459  17.663 -1.0389  1.7119  1.2446
 5360SOL    HW227717   1.196   4.322  17.703 -0.4456  0.4024 -0.6294
 5361SOL     OW27718   3.355   1.903  13.261  0.5421 -0.0345 -0.1951
 5361SOL    HW127719   3.315   1.881  13.177  0.1305 -0.4629  0.1058
 5361SOL    HW227720   3.272   1.923  13.306 -0.0810  0.9735 -1.8197
 5362SOL     OW27721   2.661   1.847   7.800  0.0044 -0.5684 -0.3443
 5362SOL    HW127722   2.669   1.911   7.729  1.1508  0.1280  0.4124
 5362SOL    HW227723   2.591   1.785   7.783 -0.6245 -0.7378  2.8948
 5363SOL     OW27724   4.676   1.243   9.010  0.1397  0.4910  0.1351
 5363SOL    HW127725   4.592   1.288   9.001  0.4186  0.8185 -0.7600
 5363SOL    HW227726   4.730   1.310   9.053  0.1063 -0.9901  2.4902
 5364SOL     OW27727   1.513   3.576  10.550 -0.4548 -0.0953  0.0719
 5364SOL    HW127728   1.485   3.521  10.623 -1.2777 -0.6150 -0.6389
 5364SOL    HW227729   1.522   3.651  10.608 -0.1887  0.6904 -0.9922
 5365SOL     OW27730   1.003   0.523  14.655  0.1487  0.8109  0.1430
 5365SOL    HW127731   0.982   0.616  14.652 -0.0872  0.7615  0.2094
 5365SOL    HW227732   1.027   0.507  14.564 -0.1531  1.4821 -0.0528
 5366SOL     OW27733   3.140   2.037   5.137 -0.2025  0.2494  0.7176
 5366SOL    HW127734   3.216   2.026   5.194  1.0282  0.0909 -0.9587
 5366SOL    HW227735   3.164   2.114   5.087  2.4314 -1.0325 -0.0028
 5367SOL     OW27736   1.356   1.861   6.911  0.0503  0.2841 -0.3454
 5367SOL    HW127737   1.386   1.930   6.971  0.0577 -0.0405  0.0229
 5367SOL    HW227738   1.282   1.903   6.868  0.1601  0.4861 -0.3386
 5368SOL     OW27739   2.572   1.471  15.814  0.9692  0.0271 -0.1321
 5368SOL    HW127740   2.618   1.519  15.745 -0.9322  0.0790 -1.3797
 5368SOL    HW227741   2.606   1.506  15.896 -0.1574 -1.1589  0.8520
 5369SOL     OW27742   1.944   2.913   5.594  0.5108 -0.3057 -0.0249
 5369SOL    HW127743   1.962   3.007   5.590  0.4215 -0.3749 -2.4116
 5369SOL    HW227744   1.997   2.889   5.670  1.8442 -1.1262 -1.1818
 5370SOL     OW27745   1.872   0.582  13.342 -0.1195  0.2479  0.0440
 5370SOL    HW127746   1.911   0.653  13.291 -0.9077 -0.0134 -0.9368
 5370SOL    HW227747   1.938   0.571  13.410  1.4469  2.2007 -1.1717
 5371SOL     OW27748   0.328   2.206  13.564 -0.3782  0.1787  0.5351
 5371SOL    HW127749   0.304   2.241  13.650  1.7751  3.4711 -0.1811
 5371SOL    HW227750   0.243   2.216  13.522 -0.3444 -1.7622  0.0346
 5372SOL     OW27751   3.715   1.691   3.033 -0.2841  0.5012  0.1876
 5372SOL    HW127752   3.644   1.707   3.095  0.0218  3.2198 -0.1225
 5372SOL    HW227753   3.794   1.682   3.085  0.0264  0.3009 -0.3271
 5373SOL     OW27754   4.717   1.586  11.950 -0.6431 -0.7405 -0.3070
 5373SOL    HW127755   4.686   1.520  12.012  0.1596 -0.4906  0.3607
 5373SOL    HW227756   4.699   1.667  11.999 -0.2968 -0.0202 -1.3677
 5374SOL     OW27757   0.709   1.568  15.973  0.6614  0.4085  0.3683
 5374SOL    HW127758   0.637   1.527  15.924 -0.1704 -1.1093  2.8254
 5374SOL    HW227759   0.686   1.659  15.956  0.7906 -0.0012 -2.0009
 5375SOL     OW27760   4.025   2.908   3.133  0.1757  0.0521  0.5203
 5375SOL    HW127761   3.960   2.911   3.062 -1.3545 -1.1008  1.8668
 5375SOL    HW227762   4.100   2.915   3.074  0.6853  0.5409  1.2343
 5376SOL     OW27763   2.326   0.076   3.856  0.3343  0.2714  0.0306
 5376SOL    HW127764   2.396   0.043   3.912 -0.2002  0.4424  0.8047
 5376SOL    HW227765   2.351   0.166   3.879  0.4976 -0.0403  1.0552
 5377SOL     OW27766   3.842   0.197   4.665  0.1677  0.7580 -0.3107
 5377SOL    HW127767   3.807   0.186   4.576  0.6414  1.6412 -0.6055
 5377SOL    HW227768   3.924   0.241   4.646  0.5768  0.7527  1.4419
 5378SOL     OW27769   3.042   3.647   1.329  0.0270  0.0171  0.6820
 5378SOL    HW127770   3.078   3.681   1.411 -1.0770 -0.6517  1.4425
 5378SOL    HW227771   2.969   3.709   1.321 -0.6806 -0.6398  2.1395
 5379SOL     OW27772   3.304   2.761  12.307 -0.3447  0.4551 -0.1942
 5379SOL    HW127773   3.275   2.780  12.396 -0.1093  1.6828 -0.3802
 5379SOL    HW227774   3.308   2.848  12.267 -0.2008  0.0165 -1.1491
 5380SOL     OW27775   2.464   3.490   6.371  0.1395 -0.0513  0.1380
 5380SOL    HW127776   2.549   3.528   6.347  0.4677 -0.8703  0.0100
 5380SOL    HW227777   2.458   3.428   6.299 -0.9873 -0.4409  0.5654
 5381SOL     OW27778   0.726   4.712   8.994 -0.1014  0.0891  0.3253
 5381SOL    HW127779   0.736   0.027   9.075 -2.4506 -0.1075  0.7206
 5381SOL    HW227780   0.797   0.011   8.939  0.8007  0.5197  1.7437
 5382SOL     OW27781   4.401   0.680   2.546 -0.1108 -0.0742 -0.1737
 5382SOL    HW127782   4.494   0.700   2.538  0.4501 -1.0736  4.0397
 5382SOL    HW227783   4.396   0.589   2.518 -0.2156 -0.1339  0.0343
 5383SOL     OW27784   1.191   2.354  11.916 -0.2736  0.1912  0.0921
 5383SOL    HW127785   1.276   2.313  11.930  0.3032  1.7028  0.9413
 5383SOL    HW227786   1.214   2.444  11.936 -1.1664  0.6745 -1.0196
 5384SOL     OW27787   2.474   4.687  15.455  0.3514  0.6506 -0.2594
 5384SOL    HW127788   2.494   4.640  15.375  2.7908  0.6425  0.3455
 5384SOL    HW227789   2.379   4.691  15.451  0.1584 -2.1859  1.0883
 5385SOL     OW27790   0.458   1.001  10.990 -0.0072 -0.2075  0.4313
 5385SOL    HW127791   0.450   0.935  10.921 -2.0156 -0.9379  1.3696
 5385SOL    HW227792   0.527   0.955  11.038 -0.8349  0.3882  2.2166
 5386SOL     OW27793   2.542   2.428   1.485 -0.1867 -0.4046  1.1368
 5386SOL    HW127794   2.612   2.363   1.481  0.0105 -0.0973 -0.6241
 5386SOL    HW227795   2.483   2.384   1.547 -0.4169 -1.7608 -0.0347
 5387SOL     OW27796   2.097   4.125   7.165 -0.1448 -0.3789  0.5365
 5387SOL    HW127797   2.015   4.125   7.214  0.1831 -0.0353  1.0813
 5387SOL    HW227798   2.169   4.175   7.204  0.8634  0.8040 -2.8092
 5388SOL     OW27799   4.595   2.007  17.540 -0.4651 -0.1991  0.6854
 5388SOL    HW127800   4.642   2.030  17.620  0.4663 -1.2537  0.4287
 5388SOL    HW227801   4.536   2.082  17.524  1.3637  1.6964  2.7931
 5389SOL     OW27802   3.469   1.957   9.844  0.5108  0.2196  0.2047
 5389SOL    HW127803   3.396   1.919   9.893  2.4875 -1.3651  1.9222
 5389SOL    HW227804   3.472   2.042   9.889  1.7221  0.4062 -0.2443
 5390SOL     OW27805   1.420   4.700  14.370 -0.5096 -0.4536  0.4421
 5390SOL    HW127806   1.449   4.682  14.459 -0.1438 -1.1823  0.1724
 5390SOL    HW227807   1.470   4.644  14.311 -1.2350 -0.4862 -0.1449
 5391SOL     OW27808   3.503   0.962  17.516  0.0808  0.2001 -0.0053
 5391SOL    HW127809   3.420   1.010  17.524 -1.7466 -2.8038 -0.9947
 5391SOL    HW227810   3.508   0.942  17.423 -0.4697 -1.8194  0.4045
 5392SOL     OW27811   1.876   0.428   3.672  0.5205  0.4372 -0.1026
 5392SOL    HW127812   1.831   0.485   3.609  1.5004  3.4733  1.9565
 5392SOL    HW227813   1.814   0.399   3.739 -0.3566  0.5296 -0.8709
 5393SOL     OW27814   0.368   3.186   8.766 -0.4051  1.1758  0.2984
 5393SOL    HW127815   0.450   3.145   8.738 -0.2883  0.8526  1.1127
 5393SOL    HW227816   0.320   3.195   8.683 -2.0965  1.2686  1.2809
 5394SOL     OW27817   2.621   0.774   7.908 -0.7243  0.2666 -0.0750
 5394SOL    HW127818   2.670   0.856   7.899 -0.2373 -0.0533 -0.3221
 5394SOL    HW227819   2.531   0.805   7.915 -1.0906 -0.7448 -0.3726
 5395SOL     OW27820   1.562   2.651   4.474  0.2385  0.5944 -0.3085
 5395SOL    HW127821   1.566   2.742   4.447  1.1197  0.7884  0.4996
 5395SOL    HW227822   1.534   2.608   4.393 -3.0441  0.0764  1.0864
 5396SOL     OW27823   1.102   0.477   2.144 -0.3510  0.4262 -0.0825
 5396SOL    HW127824   1.108   0.563   2.102  3.0776 -1.2836 -3.0396
 5396SOL    HW227825   1.187   0.480   2.187  0.2991 -1.8719 -1.2132
 5397SOL     OW27826   4.151   3.507   9.142  0.3456  0.0735 -0.1578
 5397SOL    HW127827   4.193   3.480   9.060  2.4911  1.9189  0.3225
 5397SOL    HW227828   4.212   3.478   9.210 -0.1494  1.5071  0.8876
 5398SOL     OW27829   3.758   2.115  11.215  0.0390  0.2903 -0.8449
 5398SOL    HW127830   3.722   2.090  11.300 -0.3067 -2.7147 -1.9023
 5398SOL    HW227831   3.691   2.179  11.191 -1.5998 -0.2817  2.2362
 5399SOL     OW27832   4.548   3.978  17.087  0.1606  0.0339  0.0372
 5399SOL    HW127833   4.563   4.073  17.086 -1.6784  0.3314  2.5521
 5399SOL    HW227834   4.631   3.946  17.123 -1.3263 -0.2699  3.1771
 5400SOL     OW27835   1.209   2.339   4.764 -0.3075  0.0269 -0.0938
 5400SOL    HW127836   1.152   2.298   4.698  1.1008 -1.0343 -0.6483
 5400SOL    HW227837   1.297   2.309   4.743  0.5286  2.2869  0.1528
 5401SOL     OW27838   4.483   4.262   4.053  0.3148  0.3045  0.2286
 5401SOL    HW127839   4.423   4.191   4.029  0.2962  0.0803  0.9398
 5401SOL    HW227840   4.552   4.217   4.102 -1.1821 -1.1831  0.9786
 5402SOL     OW27841   0.932   0.710   4.003  0.6290  0.6161 -0.4478
 5402SOL    HW127842   0.898   0.621   3.989  2.1879 -0.0136 -0.2889
 5402SOL    HW227843   0.887   0.735   4.083  1.5626 -0.6332  0.4675
 5403SOL     OW27844   4.598   0.402   6.819 -0.0312 -0.4798  0.6141
 5403SOL    HW127845   4.601   0.496   6.837 -2.7349 -0.0128 -1.3948
 5403SOL    HW227846   4.622   0.376   6.908 -0.9520 -2.1732  0.3609
 5404SOL     OW27847   2.520   1.540  11.650 -0.0897  0.1273  0.0177
 5404SOL    HW127848   2.526   1.542  11.745 -0.1194 -1.1190  0.0410
 5404SOL    HW227849   2.605   1.574  11.621  0.8371 -3.2072 -1.0731
 5405SOL     OW27850   2.265   4.239   8.138  0.1413 -0.4646 -0.2288
 5405SOL    HW127851   2.186   4.260   8.189  1.0048  2.0160  0.0747
 5405SOL    HW227852   2.219   4.229   8.055  0.0403  0.0751 -0.2375
 5406SOL     OW27853   3.292   2.717   5.582  0.0223 -0.0784  0.2907
 5406SOL    HW127854   3.303   2.622   5.590  0.6210 -0.2511 -2.2959
 5406SOL    HW227855   3.364   2.755   5.631  0.7652  2.4931 -2.7601
 5407SOL     OW27856   3.133   0.366  10.889  0.3618 -0.5172  0.9720
 5407SOL    HW127857   3.144   0.431  10.820  0.0980 -0.4211  1.0222
 5407SOL    HW227858   3.151   0.416  10.969  0.6725 -0.6517  0.9879
 5408SOL     OW27859   3.967   2.334   8.563 -0.1202  0.3022  0.7224
 5408SOL    HW127860   3.902   2.362   8.628  0.3900 -3.3480  2.7729
 5408SOL    HW227861   3.945   2.241   8.564  1.8699 -0.2171 -1.8491
 5409SOL     OW27862   0.532   0.493   1.295  0.2224  0.7663 -0.0532
 5409SOL    HW127863   0.531   0.454   1.382 -3.8496 -1.6887 -1.2386
 5409SOL    HW227864   0.439   0.509   1.277  0.4474 -1.1234 -3.0119
 5410SOL     OW27865   0.414   3.656   0.957 -0.3054  0.8883  0.8790
 5410SOL    HW127866   0.358   3.718   1.004 -0.0344  0.6752  1.4785
 5410SOL    HW227867   0.382   3.568   0.980  0.6694 -0.2430 -2.0874
 5411SOL     OW27868   1.203   0.993   2.112 -0.1534  0.1948  0.0007
 5411SOL    HW127869   1.109   1.012   2.118 -1.0976 -4.8038  1.3243
 5411SOL    HW227870   1.226   1.025   2.025  0.5896  1.6480  0.7312
 5412SOL     OW27871   1.318   0.931   6.993  0.0677 -0.0493 -0.4490
 5412SOL    HW127872   1.326   0.978   7.076 -1.4728  1.4872 -1.1925
 5412SOL    HW227873   1.361   0.987   6.928 -1.0420  0.0538 -1.0797
 5413SOL     OW27874   0.863   1.973   5.453 -0.2846 -0.3253  0.3122
 5413SOL    HW127875   0.946   1.951   5.411 -0.5487 -1.2305  0.2610
 5413SOL    HW227876   0.829   1.888   5.483 -2.7817  1.0039  1.2235
 5414SOL     OW27877   0.909   3.458   3.676 -0.2955  0.5803  0.0350
 5414SOL    HW127878   0.819   3.425   3.673 -0.3345  0.7867 -1.0342
 5414SOL    HW227879   0.928   3.493   3.589  0.4631  1.5048  0.5707
 5415SOL     OW27880   3.435   1.364   7.190 -0.0797  0.3301 -0.1301
 5415SOL    HW127881   3.393   1.354   7.276  0.0429 -0.2215 -0.1362
 5415SOL    HW227882   3.389   1.294   7.145 -0.4254  1.0281 -0.8629
 5416SOL     OW27883   2.848   4.605   5.554 -0.1389  0.2396  0.0536
 5416SOL    HW127884   2.854   4.694   5.590  2.7317 -0.0069  0.2098
 5416SOL    HW227885   2.829   4.555   5.634 -1.3126  1.9999  0.8655
 5417SOL     OW27886   0.294   1.055   9.222 -0.4555  0.2209 -0.1648
 5417SOL    HW127887   0.213   1.058   9.171  0.1522  0.5798 -1.1088
 5417SOL    HW227888   0.293   0.968   9.263  2.8882  0.2265 -0.1142
 5418SOL     OW27889   2.231   4.474   2.253 -0.3840  0.3957 -0.1887
 5418SOL    HW127890   2.253   4.416   2.325 -0.6396 -1.7390 -1.8188
 5418SOL    HW227891   2.319   4.488   2.218 -0.7251  0.6271 -0.9565
 5419SOL     OW27892   0.200   2.028   0.249  0.1709  0.1778 -0.2058
 5419SOL    HW127893   0.125   1.990   0.295  2.0530  0.0256  2.6987
 5419SOL    HW227894   0.165   2.022   0.159 -0.6117 -0.6208  0.1535
 5420SOL     OW27895   0.263   4.425   3.498  0.0286 -0.1425  0.0531
 5420SOL    HW127896   0.203   4.476   3.553  0.5117 -0.9788  1.3529
 5420SOL    HW227897   0.228   4.337   3.508 -0.2909  0.3078  2.8832
 5421SOL     OW27898   1.768   3.272  11.313  0.1495  0.1475 -0.1002
 5421SOL    HW127899   1.814   3.315  11.242  1.8127  0.3602  1.0965
 5421SOL    HW227900   1.843   3.234  11.359  0.5548  1.1118  0.0292
 5422SOL     OW27901   1.057   4.284   9.093  0.3909  0.8249  0.2455
 5422SOL    HW127902   0.980   4.228   9.093  0.1414  1.1700  0.0276
 5422SOL    HW227903   1.031   4.327   9.012 -1.3159 -2.4060 -0.8987
 5423SOL     OW27904   1.713   2.060  10.234 -0.1083 -0.2266  0.1807
 5423SOL    HW127905   1.766   2.117  10.178  1.4633 -1.1435  0.7317
 5423SOL    HW227906   1.785   2.044  10.296  1.4617 -0.7061 -1.7577
 5424SOL     OW27907   3.265   4.588   2.214  0.0638 -0.1922  0.1233
 5424SOL    HW127908   3.241   4.558   2.126 -0.4790  0.2569  0.1142
 5424SOL    HW227909   3.211   4.522   2.257 -0.1676  0.8025  1.3692
 5425SOL     OW27910   1.241   3.174  14.204 -0.0630 -0.1340 -0.0612
 5425SOL    HW127911   1.302   3.101  14.192  0.4800  0.0793  1.4462
 5425SOL    HW227912   1.295   3.238  14.250 -2.3455  1.1489  0.8216
 5426SOL     OW27913   3.433   1.033  17.223  0.2988 -0.3027 -0.3412
 5426SOL    HW127914   3.339   1.033  17.244 -0.0285  1.0270 -1.8396
 5426SOL    HW227915   3.432   1.120  17.184 -1.0514 -0.5109 -0.7764
 5427SOL     OW27916   4.699   4.716   5.407  0.4160 -0.1903 -0.0703
 5427SOL    HW127917   4.703   0.049   5.340  1.7966  0.1687  0.3777
 5427SOL    HW227918   4.640   0.018   5.473 -1.0235  0.3390 -1.6699
 5428SOL     OW27919   1.076   2.327   8.462 -0.3524  0.4989  0.1017
 5428SOL    HW127920   1.023   2.265   8.411  0.0706  0.8151 -0.7208
 5428SOL    HW227921   1.046   2.295   8.547  0.7343 -0.9372 -0.0521
 5429SOL     OW27922   3.068   0.003   6.311  0.8731  0.3430  0.4442
 5429SOL    HW127923   2.999   4.687   6.267 -0.9609  1.4651  2.0178
 5429SOL    HW227924   3.045   4.730   6.404 -2.4222 -1.4562 -0.4864
 5430SOL     OW27925   1.422   3.481  16.940 -0.1403  0.0597  0.0299
 5430SOL    HW127926   1.433   3.416  17.009  0.1438  0.2976  0.2108
 5430SOL    HW227927   1.410   3.562  16.990  1.0724 -0.2410  0.8113
 5431SOL     OW27928   1.330   0.638  14.518  0.0552 -0.5591  0.0293
 5431SOL    HW127929   1.374   0.710  14.473  1.9563 -1.8160 -0.1118
 5431SOL    HW227930   1.239   0.668  14.517 -0.0970 -0.9430  2.2321
 5432SOL     OW27931   1.154   0.236   6.681 -0.1566  0.3628  0.1175
 5432SOL    HW127932   1.148   0.330   6.693  0.9396  0.8536 -3.1513
 5432SOL    HW227933   1.178   0.215   6.771 -1.0705 -0.5033  0.1558
 5433SOL     OW27934   4.235   0.630   8.446 -0.0834 -0.0077  0.1201
 5433SOL    HW127935   4.277   0.711   8.415 -0.0019  0.8808  2.5968
 5433SOL    HW227936   4.264   0.619   8.536  0.3389 -0.3877 -0.0603
 5434SOL     OW27937   1.975   4.673   3.557 -0.3094 -0.0705  0.0533
 5434SOL    HW127938   2.033   4.689   3.483  0.5157 -0.4427  0.6203
 5434SOL    HW227939   2.036   4.655   3.629  1.7458  0.6018 -1.5055
 5435SOL     OW27940   3.913   0.383   2.615 -0.3843 -0.5789  0.6182
 5435SOL    HW127941   3.872   0.463   2.647 -0.6830 -1.1441  1.6741
 5435SOL    HW227942   3.848   0.317   2.641 -1.8786  0.1270 -1.4266
 5436SOL     OW27943   4.467   0.291   8.783  0.2264 -0.0753 -0.5165
 5436SOL    HW127944   4.525   0.225   8.747 -0.3901 -0.1342 -1.4152
 5436SOL    HW227945   4.414   0.227   8.831  0.3840  0.0327 -0.2038
 5437SOL     OW27946   4.660   4.496   6.388  0.1560 -0.7581  0.2571
 5437SOL    HW127947   4.598   4.438   6.433  0.9828 -0.9290  1.1644
 5437SOL    HW227948   0.006   4.446   6.377  1.9246  2.1475  0.3394
 5438SOL     OW27949   0.470   1.718   6.017  0.3541 -0.6498  0.1195
 5438SOL    HW127950   0.544   1.775   5.995  1.5253 -2.2523 -0.0848
 5438SOL    HW227951   0.460   1.672   5.934 -2.8856  0.0096  0.1460
 5439SOL     OW27952   4.163   1.526  13.249  0.1526  0.1468 -0.0195
 5439SOL    HW127953   4.180   1.619  13.263  2.3290 -0.1005 -1.2150
 5439SOL    HW227954   4.082   1.541  13.200 -1.0605 -3.5027  0.8852
 5440SOL     OW27955   0.440   0.836   8.565 -0.2757 -0.1197  0.3694
 5440SOL    HW127956   0.387   0.891   8.622  1.7579  1.6577  0.5702
 5440SOL    HW227957   0.441   0.764   8.628 -1.7211 -0.5316 -0.0906
 5441SOL     OW27958   3.540   2.252  11.094 -0.2142 -0.3150 -0.0388
 5441SOL    HW127959   3.550   2.346  11.076 -0.3356 -0.3868 -0.4912
 5441SOL    HW227960   3.585   2.225  11.014 -0.0135  2.0917 -0.7313
 5442SOL     OW27961   3.049   4.615   5.766 -0.3414 -0.1315  0.4681
 5442SOL    HW127962   2.978   4.622   5.830 -1.8327 -0.0390 -1.2201
 5442SOL    HW227963   3.019   4.664   5.690 -1.8390  0.4837  1.4672
 5443SOL     OW27964   0.347   4.366  15.577 -0.0509  0.4394  0.6856
 5443SOL    HW127965   0.413   4.327  15.520  0.5167  3.3483 -0.6744
 5443SOL    HW227966   0.285   4.384  15.506  2.6379  1.1726 -1.4858
 5444SOL     OW27967   1.678   1.277   7.332 -0.0400  0.2866  0.2968
 5444SOL    HW127968   1.764   1.266   7.289 -0.1771  1.5981 -0.2995
 5444SOL    HW227969   1.622   1.288   7.256  1.2774 -0.5085 -0.8059
 5445SOL     OW27970   2.106   0.569   3.727 -0.0815 -0.9150  0.9632
 5445SOL    HW127971   2.043   0.509   3.686 -0.4884  1.0711 -1.3647
 5445SOL    HW227972   2.072   0.657   3.744  1.7567  0.1286 -0.8457
 5446SOL     OW27973   3.132   0.969  13.001 -0.2392 -0.4539 -0.7304
 5446SOL    HW127974   3.103   1.002  13.086 -0.3115  0.9829 -1.3099
 5446SOL    HW227975   3.181   0.891  13.025 -1.3521 -1.1157 -0.6227
 5447SOL     OW27976   0.742   0.126  10.671 -0.5233 -0.0177 -0.1507
 5447SOL    HW127977   0.752   0.179  10.750 -2.3825 -0.2377  0.2349
 5447SOL    HW227978   0.822   0.073  10.673 -0.5704 -0.0146  1.3278
 5448SOL     OW27979   3.060   0.550   3.784 -0.7628  0.3340  0.6675
 5448SOL    HW127980   3.013   0.624   3.745 -0.4464  0.7938  1.1512
 5448SOL    HW227981   3.059   0.576   3.876  1.8271 -0.0975  0.8170
 5449SOL     OW27982   0.850   0.783  14.647 -0.1638 -0.0239  0.1181
 5449SOL    HW127983   0.765   0.802  14.606  0.2658  1.9826  0.1837
 5449SOL    HW227984   0.905   0.859  14.633 -2.0302  1.5879  1.5954
 5450SOL     OW27985   2.257   4.651  15.110 -0.0304  0.0957  0.2591
 5450SOL    HW127986   2.235   4.685  15.024  0.3058 -2.8247 -0.9684
 5450SOL    HW227987   2.178   4.672  15.161  0.1683 -1.9867  1.4169
 5451SOL     OW27988   1.982   2.688  17.711  0.1659  0.3791 -0.0298
 5451SOL    HW127989   2.025   2.614  17.668  0.7503  1.3273 -1.0415
 5451SOL    HW227990   1.915   2.720  17.651 -0.5928 -1.1688 -0.0345
 5452SOL     OW27991   0.123   2.423   9.472  0.6502 -0.9142  0.8375
 5452SOL    HW127992   0.079   2.492   9.522  0.8592  0.8689 -1.4304
 5452SOL    HW227993   0.166   2.463   9.396  2.3669  0.3216  2.4664
 5453SOL     OW27994   2.039   1.963   9.918 -0.2548  0.0859 -0.3020
 5453SOL    HW127995   1.977   1.908   9.870 -1.2374  0.6859  0.2741
 5453SOL    HW227996   2.057   1.899   9.987  0.0874 -1.4114 -1.7816
 5454SOL     OW27997   1.975   3.814  12.403 -0.5972 -0.4588 -0.2515
 5454SOL    HW127998   1.954   3.744  12.341  1.2104 -0.9109 -0.3432
 5454SOL    HW227999   1.898   3.871  12.401  0.6739  1.2947  1.4118
 5455SOL     OW28000   0.781   1.068  12.271  0.0874  0.0572  0.4177
 5455SOL    HW128001   0.777   1.157  12.305 -0.9364  0.0914  0.2215
 5455SOL    HW228002   0.824   1.021  12.343 -1.9643 -0.4700  1.3062
 5456SOL     OW28003   4.134   0.402   3.392 -0.3222  0.1900 -0.1872
 5456SOL    HW128004   4.055   0.404   3.339 -1.6679 -0.2375  1.7779
 5456SOL    HW228005   4.145   0.308   3.407 -1.2378  0.0262 -0.4956
 5457SOL     OW28006   4.056   1.259  14.148 -0.0126  0.6269  0.1087
 5457SOL    HW128007   4.022   1.209  14.074  1.3748 -1.3506  0.7957
 5457SOL    HW228008   4.124   1.204  14.187  0.9401 -0.2792 -2.8273
 5458SOL     OW28009   3.734   0.599  10.362 -0.0050  0.7490  0.1046
 5458SOL    HW128010   3.676   0.555  10.300 -0.6919 -0.0312  1.2787
 5458SOL    HW228011   3.716   0.552  10.444 -0.4349  0.1524 -0.3393
 5459SOL     OW28012   1.136   2.336  15.259  0.0172 -0.1598  0.6211
 5459SOL    HW128013   1.096   2.264  15.309 -2.3958  1.0940  0.4968
 5459SOL    HW228014   1.172   2.384  15.334 -0.5324 -1.2737  1.5941
 5460SOL     OW28015   0.328   4.478   4.689 -0.3273  0.2879 -0.2212
 5460SOL    HW128016   0.405   4.432   4.722  0.4749  0.9787 -1.1321
 5460SOL    HW228017   0.362   4.512   4.606  0.1157  0.7327  0.1539
 5461SOL     OW28018   2.892   1.649   5.342  0.5114 -0.2388 -0.0675
 5461SOL    HW128019   2.929   1.580   5.397 -2.1179 -1.3170  0.3296
 5461SOL    HW228020   2.946   1.727   5.356 -0.4082 -0.0819  2.6747
 5462SOL     OW28021   0.393   3.801   8.638  0.0352 -0.1594  0.1231
 5462SOL    HW128022   0.369   3.889   8.666  0.5810  0.1969 -0.5148
 5462SOL    HW228023   0.448   3.816   8.561 -1.1022 -1.1891 -0.8931
 5463SOL     OW28024   2.102   4.089   3.899  0.2291  0.5891 -0.6269
 5463SOL    HW128025   2.056   4.027   3.954  2.3811 -1.5083 -1.2101
 5463SOL    HW228026   2.165   4.129   3.959 -1.0451 -1.8966  2.3491
 5464SOL     OW28027   4.109   1.738   7.043 -0.4445 -0.0417  0.2396
 5464SOL    HW128028   4.081   1.730   7.134 -2.6286 -0.1262 -0.4560
 5464SOL    HW228029   4.200   1.724   7.069 -0.4117  3.0273  1.8049
 5465SOL     OW28030   3.041   4.590   8.546 -0.3160  0.6512 -0.1218
 5465SOL    HW128031   3.044   4.495   8.548  1.3846  0.7040 -0.7907
 5465SOL    HW228032   2.958   4.586   8.498 -0.9295  0.4621  0.9661
 5466SOL     OW28033   1.209   0.899   9.767  0.5228  0.3634  0.0452
 5466SOL    HW128034   1.147   0.972   9.765 -0.6308 -0.6325 -0.1029
 5466SOL    HW228035   1.290   0.948   9.780  2.3311 -2.3711 -1.0964
 5467SOL     OW28036   1.826   0.196  10.745  0.4248  0.2273 -0.2187
 5467SOL    HW128037   1.803   0.132  10.812 -1.4038  2.2603  1.1038
 5467SOL    HW228038   1.890   0.241  10.801 -0.3594 -0.1990  1.0321
 5468SOL     OW28039   2.608   0.155   3.861 -1.0047 -0.4886  0.5336
 5468SOL    HW128040   2.696   0.118   3.869 -0.4514  1.1038  1.9824
 5468SOL    HW228041   2.597   0.146   3.766  1.0210 -0.7783  0.3310
 5469SOL     OW28042   0.822   2.004  13.103 -0.1969  0.2579 -0.7443
 5469SOL    HW128043   0.890   1.990  13.169  0.1411  0.0504 -1.1435
 5469SOL    HW228044   0.747   1.987  13.160  0.0589 -0.1134 -0.5139
 5470SOL     OW28045   1.106   0.871   6.668  0.1837 -0.0577 -0.1107
 5470SOL    HW128046   1.110   0.830   6.755  0.9589 -1.9309 -1.0163
 5470SOL    HW228047   1.164   0.946   6.679 -0.1044  0.1787 -0.2404
 5471SOL     OW28048   2.956   3.756   2.987 -0.1064 -0.8095  0.0950
 5471SOL    HW128049   2.901   3.679   3.003  2.6162 -2.7957 -0.1192
 5471SOL    HW228050   2.975   3.749   2.893 -0.6380 -0.4808 -0.0387
 5472SOL     OW28051   1.747   1.842   5.218  0.4174  0.2925  0.3086
 5472SOL    HW128052   1.674   1.782   5.206  0.8115 -0.2713  0.7873
 5472SOL    HW228053   1.801   1.832   5.139 -0.5846 -1.3504 -0.1470
 5473SOL     OW28054   1.197   2.690   2.153  0.5548 -0.7180 -0.3691
 5473SOL    HW128055   1.269   2.752   2.143 -1.7319  1.8309 -1.1161
 5473SOL    HW228056   1.181   2.681   2.247 -4.4376  1.8808 -0.9665
 5474SOL     OW28057   0.794   2.583  16.267  0.2354  0.0033  0.0256
 5474SOL    HW128058   0.802   2.488  16.258 -1.5667 -0.3719  2.5155
 5474SOL    HW228059   0.709   2.587  16.311 -0.5465  0.3074 -1.5023
 5475SOL     OW28060   0.881   0.462  10.582  0.3247 -0.6087 -0.5862
 5475SOL    HW128061   0.904   0.470  10.489 -1.6700 -0.4454 -1.0693
 5475SOL    HW228062   0.957   0.412  10.613 -0.9485 -0.4918  2.6287
 5476SOL     OW28063   3.889   2.688   5.635 -0.1950 -0.1183  0.3188
 5476SOL    HW128064   3.851   2.723   5.555  2.2105 -2.2944 -1.7485
 5476SOL    HW228065   3.853   2.600   5.638  2.2426 -1.1639 -1.1172
 5477SOL     OW28066   0.627   4.025   4.805 -0.1690  0.2167  0.2850
 5477SOL    HW128067   0.622   3.953   4.742  0.8727  1.7289 -1.5056
 5477SOL    HW228068   0.717   4.025   4.838 -0.2253  0.6323  0.4420
 5478SOL     OW28069   1.476   4.610   8.269 -0.5088  0.2633 -0.0680
 5478SOL    HW128070   1.434   4.599   8.354  1.3603 -0.7756  0.7278
 5478SOL    HW228071   1.426   4.546   8.218 -1.0032 -0.9001  1.9046
 5479SOL     OW28072   0.498   0.415   3.441 -0.4246 -0.1839 -0.1329
 5479SOL    HW128073   0.535   0.472   3.373 -0.5090  1.0670  0.8648
 5479SOL    HW228074   0.556   0.340   3.435  0.5928  0.6165 -0.3491
 5480SOL     OW28075   3.018   2.043   0.446  0.3507  0.6210 -0.4782
 5480SOL    HW128076   2.958   1.972   0.420  1.8207  0.4195 -3.3445
 5480SOL    HW228077   3.070   1.991   0.507  1.4539  1.8627 -0.3889
 5481SOL     OW28078   1.909   1.969   3.390  0.3630 -0.4116  0.6120
 5481SOL    HW128079   1.897   1.876   3.409 -1.6745 -0.5490 -1.3806
 5481SOL    HW228080   2.001   1.983   3.414 -0.2832  0.6991  2.4354
 5482SOL     OW28081   3.990   4.005   0.403 -0.1691 -0.3727 -0.5914
 5482SOL    HW128082   4.056   3.940   0.427  2.2285  2.2912 -0.0645
 5482SOL    HW228083   3.943   4.017   0.485  0.7502 -0.3481 -0.0767
 5483SOL     OW28084   0.968   4.204  14.293  0.1647 -0.8118 -0.1661
 5483SOL    HW128085   1.013   4.278  14.253 -1.5603  0.9449  1.1044
 5483SOL    HW228086   0.905   4.252  14.347 -0.5778 -1.1905 -0.6987
 5484SOL     OW28087   4.418   1.872  17.051  0.3790 -0.1532  0.0010
 5484SOL    HW128088   4.416   1.930  17.127  0.0577  1.3841 -1.1963
 5484SOL    HW228089   4.473   1.919  16.989 -0.2178  0.3167 -0.1653
 5485SOL     OW28090   0.594   1.007   3.453 -0.5749  1.1756  0.3108
 5485SOL    HW128091   0.517   0.951   3.463  1.2722 -1.2998  0.4566
 5485SOL    HW228092   0.617   0.988   3.363  5.2925  2.1258  1.6254
 5486SOL     OW28093   2.701   4.510   3.702 -0.4124 -0.1839 -0.0434
 5486SOL    HW128094   2.706   4.597   3.741  1.2317  0.1886 -1.1003
 5486SOL    HW228095   2.678   4.527   3.610 -0.2093 -0.2711 -0.1104
 5487SOL     OW28096   4.579   1.171   3.348  0.0335 -0.1143 -0.2310
 5487SOL    HW128097   4.525   1.092   3.359 -0.7726  0.5279  0.3536
 5487SOL    HW228098   4.581   1.165   3.252 -0.5830 -2.4908 -0.0927
 5488SOL     OW28099   0.713   4.026   8.850 -0.0351 -0.2239 -0.4222
 5488SOL    HW128100   0.673   3.945   8.818  0.5867  0.1317 -2.0870
 5488SOL    HW228101   0.637   4.083   8.840  1.7521  2.6207  2.3283
 5489SOL     OW28102   0.586   3.805  14.106 -0.0732 -0.0140 -0.5256
 5489SOL    HW128103   0.621   3.851  14.030 -4.3057  1.3175 -1.6358
 5489SOL    HW228104   0.503   3.849  14.123  0.5975 -0.1920  3.2827
 5490SOL     OW28105   1.889   0.010   3.865  0.0803  0.0431  0.0802
 5490SOL    HW128106   1.939   0.090   3.855  1.0453 -0.3524  1.6810
 5490SOL    HW228107   1.949   4.679   3.831  1.9714  1.9557 -0.2554
 5491SOL     OW28108   1.250   2.476   0.528  0.1254  0.6621 -0.2228
 5491SOL    HW128109   1.263   2.509   0.439  0.7982 -0.8337 -0.6792
 5491SOL    HW228110   1.187   2.404   0.518  1.6053 -0.7439  0.6966
 5492SOL     OW28111   0.896   2.140   8.982  0.0608  0.0427 -0.0517
 5492SOL    HW128112   0.889   2.190   9.063 -1.5248 -0.7497  0.2982
 5492SOL    HW228113   0.915   2.050   9.009 -0.1496 -0.2695 -0.9732
 5493SOL     OW28114   3.902   0.259   2.351  0.3628 -0.3426 -0.1439
 5493SOL    HW128115   3.940   0.317   2.285  0.2352 -1.3781 -1.1340
 5493SOL    HW228116   3.940   0.288   2.434 -0.6545  0.1057  0.1635
 5494SOL     OW28117   3.963   2.908  10.619  0.2943 -0.1036  0.7315
 5494SOL    HW128118   3.884   2.854  10.624 -0.3026  0.6184 -1.0922
 5494SOL    HW228119   4.004   2.855  10.550 -1.0334  3.1114 -2.5079
 5495SOL     OW28120   4.252   2.932   5.664  0.1964 -0.4504  0.0349
 5495SOL    HW128121   4.265   2.898   5.752  0.7770 -1.7015 -0.5267
 5495SOL    HW228122   4.221   2.852   5.621 -1.1852  1.0637 -1.8052
 5496SOL     OW28123   4.195   3.336   6.955 -0.0045  0.2589  0.1800
 5496SOL    HW128124   4.252   3.362   6.882 -0.6983  0.9982 -0.0982
 5496SOL    HW228125   4.197   3.419   7.003  1.4239  0.5962 -0.4667
 5497SOL     OW28126   1.766   3.770  15.697 -0.9876 -0.6336 -0.2231
 5497SOL    HW128127   1.790   3.848  15.646 -0.2764 -0.7287 -0.0364
 5497SOL    HW228128   1.822   3.789  15.772  1.6204  0.1001 -2.3190
 5498SOL     OW28129   1.775   0.077   1.521 -0.2135  0.6488 -0.0742
 5498SOL    HW128130   1.842   0.111   1.580 -0.1073 -1.6616  1.1771
 5498SOL    HW228131   1.716   0.151   1.536 -1.9054 -0.8057  0.5253
 5499SOL     OW28132   4.686   2.972   5.044  0.2549 -0.0223  0.5199
 5499SOL    HW128133   4.647   2.956   4.958 -1.6107 -0.7725  1.5083
 5499SOL    HW228134   4.677   3.066   5.059  2.0364  0.1651  0.4362
 5500SOL     OW28135   0.785   2.965   9.919  0.0787  0.7002 -0.3282
 5500SOL    HW128136   0.773   2.878   9.881  2.0665 -0.4287  1.5597
 5500SOL    HW228137   0.832   2.941   9.999  0.9336 -0.4320 -1.1788
 5501SOL     OW28138   1.614   1.476   2.639  0.0061 -0.6602  0.2817
 5501SOL    HW128139   1.589   1.553   2.690 -2.8314 -0.5021 -1.3560
 5501SOL    HW228140   1.595   1.410   2.706  1.1272 -0.3713  0.8878
 5502SOL     OW28141   2.316   2.299   2.641 -0.6097  0.4531 -0.1253
 5502SOL    HW128142   2.400   2.342   2.658 -0.9435  0.2310  2.0507
 5502SOL    HW228143   2.330   2.269   2.551 -2.4204 -1.8991  0.3758
 5503SOL     OW28144   3.428   2.492   6.959 -0.0279  0.0202  0.1891
 5503SOL    HW128145   3.344   2.523   6.927  0.1690 -1.3067 -1.6740
 5503SOL    HW228146   3.477   2.508   6.878 -2.8751 -0.8974 -1.7071
 5504SOL     OW28147   2.967   1.534   9.779  0.3118  0.5429 -0.0542
 5504SOL    HW128148   3.054   1.536   9.819  0.9108  1.9540 -1.4420
 5504SOL    HW228149   2.983   1.587   9.701 -0.6432  0.0547 -0.5871
 5505SOL     OW28150   0.692   1.925   8.395  0.1779  0.3420  0.0134
 5505SOL    HW128151   0.700   1.857   8.328 -0.3954  2.7411 -2.4410
 5505SOL    HW228152   0.627   1.883   8.453  0.2669 -1.8942 -1.4958
 5506SOL     OW28153   0.847   1.216   5.777 -0.2145  0.4934  0.3701
 5506SOL    HW128154   0.816   1.297   5.818 -0.3209  0.4656  0.3423
 5506SOL    HW228155   0.867   1.237   5.686 -0.1419  1.9140  0.7056
 5507SOL     OW28156   3.918   3.471  17.288 -0.1635  0.2175 -0.5119
 5507SOL    HW128157   3.880   3.418  17.358 -0.2921  0.2814 -0.5330
 5507SOL    HW228158   4.011   3.452  17.298 -0.3075  0.3481  1.0962
 5508SOL     OW28159   3.646   3.619   2.448 -0.8905  0.0914 -0.1254
 5508SOL    HW128160   3.669   3.526   2.453  0.0555  0.4977  2.9644
 5508SOL    HW228161   3.604   3.631   2.362 -1.8206  0.3380  0.3701
 5509SOL     OW28162   2.873   1.928  13.386 -0.1126 -0.0968 -0.0824
 5509SOL    HW128163   2.879   1.939  13.481 -1.3549 -0.1628  0.0027
 5509SOL    HW228164   2.960   1.962  13.364  0.2842 -0.6090  0.6466
 5510SOL     OW28165   0.954   2.069  12.832 -0.0987  0.2522  0.3180
 5510SOL    HW128166   1.024   2.067  12.896  0.4267  0.5172 -0.2520
 5510SOL    HW228167   0.911   1.983  12.839  1.5263 -0.5182  0.8167
 5511SOL     OW28168   3.009   3.210   6.907  0.2234  0.0240  0.3267
 5511SOL    HW128169   2.941   3.144   6.920  3.2734 -2.6829  2.3282
 5511SOL    HW228170   3.044   3.240   6.991  0.6588 -0.4139  0.3037
 5512SOL     OW28171   1.518   1.232   4.684 -0.3306  0.1894  0.5730
 5512SOL    HW128172   1.448   1.270   4.631  0.2078  0.7607  0.2666
 5512SOL    HW228173   1.476   1.151   4.711 -1.0073  0.2732 -0.2416
 5513SOL     OW28174   2.246   3.314  17.037  0.2323  0.4276  0.2951
 5513SOL    HW128175   2.309   3.245  17.058 -0.7776 -0.6568 -0.2131
 5513SOL    HW228176   2.203   3.267  16.965 -2.2186  2.0873  0.6507
 5514SOL     OW28177   3.680   1.977   6.973 -0.6314  0.3595 -0.5052
 5514SOL    HW128178   3.660   1.928   7.053  0.6025 -0.3043 -0.6034
 5514SOL    HW228179   3.650   2.064   6.997  0.8527  0.9561 -0.8181
 5515SOL     OW28180   4.118   2.439   9.936 -0.1998 -0.4278  0.2928
 5515SOL    HW128181   4.160   2.451   9.851 -2.1681  1.4519 -0.4171
 5515SOL    HW228182   4.189   2.429   9.999 -1.0353  0.8822  1.4303
 5516SOL     OW28183   2.753   0.262   2.248  0.0370 -0.0327 -0.9982
 5516SOL    HW128184   2.707   0.236   2.328  0.9531  0.2531 -0.3843
 5516SOL    HW228185   2.728   0.354   2.250 -1.0434 -0.3263 -1.2379
 5517SOL     OW28186   3.441   2.132   5.770 -0.7076  0.2151 -0.2387
 5517SOL    HW128187   3.367   2.182   5.804 -1.3054 -0.9003  0.0963
 5517SOL    HW228188   3.518   2.163   5.819  0.2418 -0.1722 -1.4890
 5518SOL     OW28189   1.304   3.291   0.712 -0.0409 -0.2194 -0.1088
 5518SOL    HW128190   1.337   3.264   0.626 -1.5766 -1.4921 -0.2891
 5518SOL    HW228191   1.332   3.216   0.765 -0.4949 -0.2576  0.0728
 5519SOL     OW28192   4.029   0.494   5.504  0.1310 -0.1779  0.1249
 5519SOL    HW128193   4.105   0.538   5.543  0.1149 -2.2088  2.4372
 5519SOL    HW228194   4.020   0.547   5.424 -0.5970 -1.0949 -0.3975
 5520SOL     OW28195   2.720   3.497   7.626 -0.0592 -0.3875  0.4719
 5520SOL    HW128196   2.671   3.433   7.574 -1.7008  0.8827  0.4252
 5520SOL    HW228197   2.662   3.519   7.699 -1.1036 -0.2502 -0.3879
 5521SOL     OW28198   1.214   0.719   2.197  0.1438 -0.2497 -0.0525
 5521SOL    HW128199   1.290   0.670   2.166 -0.6868 -1.0286 -0.8358
 5521SOL    HW228200   1.232   0.806   2.159  1.5523 -0.2645  0.5856
 5522SOL     OW28201   2.590   1.137  12.445  0.2069 -0.2006  0.5525
 5522SOL    HW128202   2.674   1.095  12.463  0.8166  0.5617 -0.4731
 5522SOL    HW228203   2.618   1.176  12.362 -0.8240  1.3171  0.9148
 5523SOL     OW28204   4.276   2.226  14.402 -0.2611  0.2484 -0.1885
 5523SOL    HW128205   4.359   2.200  14.442  1.0301 -0.5199 -3.3692
 5523SOL    HW228206   4.291   2.202  14.310  1.3173 -3.9631  1.2004
 5524SOL     OW28207   2.677   1.180   6.948 -0.6294  0.3070  0.0686
 5524SOL    HW128208   2.601   1.125   6.927  0.5133 -1.7499  1.3338
 5524SOL    HW228209   2.658   1.266   6.912 -0.8228 -0.0255 -0.6278
 5525SOL     OW28210   0.548   2.060   7.813  0.5141 -0.0572  0.1039
 5525SOL    HW128211   0.630   2.094   7.777  0.1774 -0.8413 -1.3918
 5525SOL    HW228212   0.582   2.023   7.894  0.5560 -0.2557 -0.0031
 5526SOL     OW28213   1.242   2.225   6.735  0.2113 -0.7807  0.4729
 5526SOL    HW128214   1.212   2.153   6.791  0.3084 -0.0336  1.4948
 5526SOL    HW228215   1.200   2.291   6.790 -0.6356 -1.9580  1.2376
 5527SOL     OW28216   4.066   3.602   1.916  0.2328  0.3440 -0.5845
 5527SOL    HW128217   4.122   3.676   1.892  0.0764  0.3689 -0.8679
 5527SOL    HW228218   3.990   3.625   1.863 -0.3293 -1.6614 -0.6221
 5528SOL     OW28219   2.093   2.417  10.072 -0.5316  0.0950 -0.3426
 5528SOL    HW128220   1.998   2.421  10.062 -0.6294  0.5298  0.7367
 5528SOL    HW228221   2.121   2.411   9.981 -0.1609 -0.5507 -0.1827
 5529SOL     OW28222   0.545   1.181   3.111 -0.1227  0.3523  0.4994
 5529SOL    HW128223   0.555   1.232   3.031  0.1888 -1.5991 -0.7201
 5529SOL    HW228224   0.624   1.127   3.110  0.2806  0.9410  0.4428
 5530SOL     OW28225   2.235   1.295  16.012 -0.0482 -0.1706 -0.4053
 5530SOL    HW128226   2.143   1.274  16.025  0.8304 -3.0529  1.2811
 5530SOL    HW228227   2.267   1.213  15.975 -0.3122 -0.8182  0.7899
 5531SOL     OW28228   3.340   0.916   0.866  0.3377  0.3151 -0.3597
 5531SOL    HW128229   3.289   0.835   0.864  0.1088  0.4515 -0.0930
 5531SOL    HW228230   3.270   0.979   0.884  0.3727 -0.3818  2.2432
 5532SOL     OW28231   0.098   2.453   6.933 -0.2399 -0.7333 -0.0636
 5532SOL    HW128232   0.126   2.461   7.024 -1.8634 -1.5458  0.5179
 5532SOL    HW228233   0.135   2.371   6.900 -3.6439 -2.4165  0.2347
 5533SOL     OW28234   3.031   3.084   6.600  0.4124  0.0709 -0.3430
 5533SOL    HW128235   3.094   3.081   6.528  0.7922  1.5564 -0.0654
 5533SOL    HW228236   3.071   3.138   6.668 -2.6945 -0.0835  1.6291
 5534SOL     OW28237   3.676   4.282   3.911 -0.3510 -0.0098  0.2655
 5534SOL    HW128238   3.732   4.312   3.840  0.5849 -0.1671  0.9315
 5534SOL    HW228239   3.736   4.216   3.944  1.6057  0.9313 -1.3917
 5535SOL     OW28240   4.554   3.484   5.868  0.4152 -0.5259  0.3929
 5535SOL    HW128241   4.471   3.437   5.863  0.6207 -1.0164  1.4832
 5535SOL    HW228242   4.551   3.528   5.953 -1.4720 -1.0349  0.5935
 5536SOL     OW28243   2.792   0.470   7.160  0.3864 -0.5728  0.0558
 5536SOL    HW128244   2.740   0.540   7.199  0.8355  0.2413 -0.8086
 5536SOL    HW228245   2.791   0.412   7.236  1.7294 -1.1889 -0.3945
 5537SOL     OW28246   0.606   0.569   6.273 -0.4417 -0.0502 -0.0430
 5537SOL    HW128247   0.633   0.480   6.254  0.1686  0.3237 -0.9643
 5537SOL    HW228248   0.543   0.553   6.343 -0.3309 -2.2139 -0.4459
 5538SOL     OW28249   1.560   2.797   3.527 -0.4718  0.2987 -0.5112
 5538SOL    HW128250   1.482   2.779   3.580  0.2404  1.1510  0.7835
 5538SOL    HW228251   1.606   2.714   3.541  1.3851  1.1664 -1.4887
 5539SOL     OW28252   4.108   2.657   4.684  0.0164  0.3715 -0.9478
 5539SOL    HW128253   4.173   2.693   4.744 -0.2058 -2.0999  0.8160
 5539SOL    HW228254   4.137   2.566   4.689 -1.0401  0.3001  4.3773
 5540SOL     OW28255   3.152   4.444  11.422  0.1249  0.3160 -0.0793
 5540SOL    HW128256   3.120   4.532  11.404 -0.9798  0.1880  1.2303
 5540SOL    HW228257   3.245   4.457  11.406  0.4863 -0.8643  1.0725
 5541SOL     OW28258   1.274   0.832  10.153  0.0081  0.9509 -0.4145
 5541SOL    HW128259   1.202   0.842  10.092  0.7428 -1.3328 -1.6656
 5541SOL    HW228260   1.347   0.823  10.091  1.7202 -3.2538  2.2011
 5542SOL     OW28261   4.664   0.229  10.062  0.0241 -0.2238  0.4954
 5542SOL    HW128262   4.655   0.138  10.091  1.0806  0.0385  1.6193
 5542SOL    HW228263   4.654   0.215   9.967 -0.3152  3.1486  0.0298
 5543SOL     OW28264   3.367   1.549   8.626 -0.4781  0.2870  0.3789
 5543SOL    HW128265   3.324   1.592   8.553  0.5743  0.4583 -0.1433
 5543SOL    HW228266   3.319   1.470   8.651 -1.1501  0.6527  0.2275
 5544SOL     OW28267   2.594   2.801   2.992  0.3273 -0.1888 -0.1450
 5544SOL    HW128268   2.671   2.846   2.957 -0.0496 -0.2460 -1.0495
 5544SOL    HW228269   2.538   2.874   3.019 -1.4225 -0.7646 -2.1726
 5545SOL     OW28270   2.472   4.135   0.261  0.2207  0.1035  0.1877
 5545SOL    HW128271   2.508   4.216   0.224 -2.9782  0.4571 -2.2419
 5545SOL    HW228272   2.523   4.066   0.218 -1.6020 -1.1498  0.0502
 5546SOL     OW28273   2.858   2.068   2.409 -0.4405 -0.4144 -0.2445
 5546SOL    HW128274   2.887   2.156   2.385 -0.9865 -0.2755 -0.3846
 5546SOL    HW228275   2.923   2.041   2.474  0.7382  0.9075 -0.8680
 5547SOL     OW28276   1.066   3.125   2.835  0.1631 -0.3121  0.1140
 5547SOL    HW128277   1.158   3.112   2.812  0.4317  0.1304  0.9329
 5547SOL    HW228278   1.067   3.199   2.896 -0.5413  0.3534 -0.6743
 5548SOL     OW28279   2.635   3.714  17.126  0.1606 -0.0570  0.5763
 5548SOL    HW128280   2.681   3.630  17.132 -0.2740 -0.3317  0.0833
 5548SOL    HW228281   2.576   3.691  17.054  0.1744  1.8025 -0.0073
 5549SOL     OW28282   3.857   0.808   1.488  0.1958  0.4648  0.0033
 5549SOL    HW128283   3.840   0.888   1.439  0.5396  0.8800  0.5643
 5549SOL    HW228284   3.952   0.813   1.502  0.1773  2.5285 -0.5115
 5550SOL     OW28285   2.993   1.327   5.041 -0.2092  0.2948  0.2663
 5550SOL    HW128286   2.934   1.254   5.061  0.6797 -0.5259 -0.1454
 5550SOL    HW228287   3.050   1.290   4.974 -1.7261 -0.8154 -0.4012
 5551SOL     OW28288   2.686   1.111   4.055 -0.1749 -0.2751  0.0274
 5551SOL    HW128289   2.635   1.182   4.018  0.8305  0.7968  0.6989
 5551SOL    HW228290   2.700   1.058   3.977 -0.4129 -1.0592  0.5125
 5552SOL     OW28291   3.032   1.883  12.533  0.4894 -0.4872  0.3853
 5552SOL    HW128292   2.939   1.861  12.530  0.8105 -1.7581 -0.5949
 5552SOL    HW228293   3.058   1.883  12.441  0.9632  0.7177  0.5216
 5553SOL     OW28294   0.890   0.645  15.653  0.1984 -0.3468 -0.4587
 5553SOL    HW128295   0.839   0.637  15.572  0.4638 -1.0483 -0.5506
 5553SOL    HW228296   0.914   0.737  15.644 -3.0794  0.7708  2.2339
 5554SOL     OW28297   2.031   1.909   8.728 -0.1500  0.2049 -0.2072
 5554SOL    HW128298   2.037   1.874   8.640  1.1401  0.5546 -0.2562
 5554SOL    HW228299   2.038   1.836   8.789 -0.6068  0.2044 -0.1598
 5555SOL     OW28300   0.926   4.717   4.144  0.5605  0.0309  0.3766
 5555SOL    HW128301   0.914   4.623   4.159 -1.9732  0.7345  2.7064
 5555SOL    HW228302   0.839   0.008   4.174  1.2450  1.2666  1.3040
 5556SOL     OW28303   2.589   0.322  17.227 -0.3119  0.5507 -0.1846
 5556SOL    HW128304   2.615   0.275  17.148 -0.4249  2.7942 -1.5536
 5556SOL    HW228305   2.632   0.273  17.297  2.4899  0.8524 -1.6597
 5557SOL     OW28306   0.038   0.374   4.993  0.3860 -0.2667  0.5713
 5557SOL    HW128307   0.108   0.314   4.967  1.5510  2.3534 -2.3487
 5557SOL    HW228308   0.082   0.456   5.012 -0.9352  0.7373 -0.6834
 5558SOL     OW28309   2.835   1.665   9.240 -0.4167  0.9356 -0.0302
 5558SOL    HW128310   2.868   1.690   9.154  0.9522 -1.1676 -0.1364
 5558SOL    HW228311   2.787   1.745   9.259  0.6191  1.3671  0.7822
 5559SOL     OW28312   0.849   1.365  16.834 -0.0689  0.1179 -0.7317
 5559SOL    HW128313   0.794   1.383  16.910 -0.6965  0.2497 -1.2116
 5559SOL    HW228314   0.915   1.308  16.874 -0.0249  0.9879  0.4416
 5560SOL     OW28315   0.866   3.969   4.992  0.0193 -0.2901  0.1445
 5560SOL    HW128316   0.917   3.900   4.950  0.0919  0.5803 -1.2137
 5560SOL    HW228317   0.934   4.009   5.046 -0.7998 -1.5003  2.0446
 5561SOL     OW28318   0.736   0.733   5.750 -0.1001 -0.2190 -0.2254
 5561SOL    HW128319   0.739   0.823   5.782  0.0760 -0.2726 -0.0941
 5561SOL    HW228320   0.758   0.683   5.828  3.1026  2.1090  0.3763
 5562SOL     OW28321   1.407   1.454   0.781  0.0815 -0.5512  0.2778
 5562SOL    HW128322   1.333   1.514   0.792  0.7063 -0.3172  3.0653
 5562SOL    HW228323   1.354   1.387   0.737  1.0914 -0.5513 -0.9360
 5563SOL     OW28324   3.220   4.133   9.683 -0.0192  0.7139 -0.0986
 5563SOL    HW128325   3.222   4.069   9.612 -2.0144  1.5741 -0.9325
 5563SOL    HW228326   3.263   4.088   9.756 -1.4865 -1.3195 -0.4835
 5564SOL     OW28327   0.488   1.251   2.602  0.6350  0.0462 -0.1620
 5564SOL    HW128328   0.400   1.286   2.587  0.6867  0.0960 -0.3481
 5564SOL    HW228329   0.469   1.158   2.592  0.0495  0.2675 -1.0649
 5565SOL     OW28330   2.649   2.437   2.993  0.3651  0.3732 -0.1318
 5565SOL    HW128331   2.705   2.445   3.070 -2.4693 -1.5508  2.1446
 5565SOL    HW228332   2.633   2.342   2.991 -0.4446  0.4986  0.5706
 5566SOL     OW28333   2.552   4.309   5.931  0.0546 -0.8217  0.2644
 5566SOL    HW128334   2.526   4.335   5.843  0.1162 -0.5216  0.3369
 5566SOL    HW228335   2.481   4.251   5.962 -1.1883  0.3331 -0.4278
 5567SOL     OW28336   0.082   1.302   8.760  0.3435  0.3749 -0.0178
 5567SOL    HW128337   0.093   1.240   8.687 -1.8922  1.0108 -0.8761
 5567SOL    HW228338   0.024   1.254   8.819 -0.7285 -0.5622 -1.8493
 5568SOL     OW28339   4.618   3.329  15.060  0.2229 -0.5856 -0.3957
 5568SOL    HW128340   4.664   3.250  15.086  0.1162 -0.7374 -0.6682
 5568SOL    HW228341   4.622   3.326  14.964 -0.9948  2.5713 -0.5581
 5569SOL     OW28342   1.047   4.467   4.493  0.5455 -0.0527 -0.0881
 5569SOL    HW128343   1.125   4.428   4.533  1.7577  2.6745  0.1641
 5569SOL    HW228344   0.984   4.400   4.518  0.9637 -0.5275 -0.2881
 5570SOL     OW28345   0.326   2.053   8.543  0.4028 -0.2834  0.3426
 5570SOL    HW128346   0.293   2.136   8.578  2.1329 -0.1007  1.5374
 5570SOL    HW228347   0.287   2.055   8.456  0.8038 -1.4219  0.1307
 5571SOL     OW28348   2.117   2.838   7.123  0.1114 -0.4747 -0.3493
 5571SOL    HW128349   2.180   2.768   7.137  0.6317  0.2725  1.0694
 5571SOL    HW228350   2.030   2.800   7.124  0.0637 -0.4082 -1.4773
 5572SOL     OW28351   3.140   2.949   5.620  0.1896 -0.0822 -0.3221
 5572SOL    HW128352   3.200   2.875   5.628 -0.0849 -0.3654 -0.8343
 5572SOL    HW228353   3.107   2.940   5.530  0.3555  0.2984 -0.4170
 5573SOL     OW28354   2.422   4.612   4.209  0.4559  0.7176  0.2495
 5573SOL    HW128355   2.469   4.619   4.292 -0.2869 -0.2134  0.7492
 5573SOL    HW228356   2.376   4.696   4.202  0.6012  0.7491 -0.3053
 5574SOL     OW28357   2.899   1.683   3.199  0.3589 -0.2331  0.2216
 5574SOL    HW128358   2.915   1.758   3.256  3.4400 -1.2267  0.6686
 5574SOL    HW228359   2.842   1.623   3.248  0.0374 -0.0209  0.1116
 5575SOL     OW28360   2.383   2.185   1.355  0.6861 -0.6500  0.0468
 5575SOL    HW128361   2.464   2.144   1.326 -0.9175 -2.2803 -2.1599
 5575SOL    HW228362   2.414   2.275   1.365 -0.7861 -0.3573  1.9843
 5576SOL     OW28363   1.294   2.998  10.150 -0.2015 -0.4365 -0.1185
 5576SOL    HW128364   1.279   3.014  10.056 -0.4931  1.9863  0.3518
 5576SOL    HW228365   1.276   3.087  10.181 -0.4658 -1.4297  2.5634
 5577SOL     OW28366   2.095   4.417   6.767 -0.1039 -0.1642  0.2250
 5577SOL    HW128367   2.148   4.423   6.847 -1.4431  0.6761  1.0396
 5577SOL    HW228368   2.120   4.332   6.730  0.1157 -1.0385  2.3791
 5578SOL     OW28369   1.589   1.450  15.997 -0.2194  0.4494  0.3374
 5578SOL    HW128370   1.648   1.382  16.028 -0.3262  0.7167  1.1278
 5578SOL    HW228371   1.506   1.428  16.040 -0.3958  1.6281  0.6026
 5579SOL     OW28372   1.446   0.213   5.725 -0.2599 -0.2158  0.3082
 5579SOL    HW128373   1.533   0.237   5.693 -0.8763  2.6789  0.7318
 5579SOL    HW228374   1.442   0.293   5.778  0.7010  0.6398 -0.9237
 5580SOL     OW28375   1.190   1.494   6.890 -0.2215 -0.3081 -0.5246
 5580SOL    HW128376   1.201   1.401   6.867  0.1354 -0.2844 -0.4475
 5580SOL    HW228377   1.123   1.525   6.831 -2.3314 -3.7155  0.0466
 5581SOL     OW28378   3.572   2.046  13.174 -0.2937  0.1652 -0.1022
 5581SOL    HW128379   3.491   2.031  13.223 -0.3716 -2.0954 -0.9064
 5581SOL    HW228380   3.620   2.108  13.229 -0.0119  0.4185 -0.6303
 5582SOL     OW28381   4.470   3.522  14.145 -0.2095 -0.4053  0.5990
 5582SOL    HW128382   4.404   3.574  14.100  0.3805  0.5470  0.8338
 5582SOL    HW228383   4.544   3.536  14.086  0.4189 -4.2553  0.4293
 5583SOL     OW28384   4.040   3.872   2.209  0.0080 -0.1165  0.3096
 5583SOL    HW128385   3.999   3.812   2.271 -0.3021 -1.7243 -1.4557
 5583SOL    HW228386   4.133   3.849   2.212  0.0340 -0.0712 -0.1421
 5584SOL     OW28387   3.935   2.414   5.859 -0.5516 -0.2975  0.1693
 5584SOL    HW128388   4.021   2.377   5.839  0.7941  3.0206 -0.2409
 5584SOL    HW228389   3.873   2.360   5.811  1.1700 -0.0351 -2.3452
 5585SOL     OW28390   0.983   2.527   5.952  0.3161  0.0820  0.3808
 5585SOL    HW128391   1.032   2.447   5.936  1.9386  1.0441  0.5316
 5585SOL    HW228392   1.057   2.587   5.962 -0.0947  0.3749  1.6213
 5586SOL     OW28393   3.884   2.818   8.036 -0.7755  0.3537 -0.6942
 5586SOL    HW128394   3.881   2.846   7.944  1.5822  1.0700 -0.5564
 5586SOL    HW228395   3.853   2.897   8.081  0.9602  0.7849 -0.2455
 5587SOL     OW28396   3.714   0.704   6.880 -0.0998 -0.4577  0.2606
 5587SOL    HW128397   3.733   0.616   6.911 -0.1237 -0.6101 -0.1554
 5587SOL    HW228398   3.771   0.691   6.804  0.1736  3.3789 -0.1772
 5588SOL     OW28399   2.769   2.813   4.993  0.1399 -0.4152  0.1703
 5588SOL    HW128400   2.680   2.834   5.022  0.4669  0.8325  0.2504
 5588SOL    HW228401   2.769   2.717   4.986  1.9083 -0.4784  1.0487
 5589SOL     OW28402   3.714   0.284   6.182 -0.0691 -0.0114  0.0535
 5589SOL    HW128403   3.625   0.321   6.182 -0.5571 -1.1972  0.8070
 5589SOL    HW228404   3.743   0.304   6.093 -1.2770 -0.4713 -0.4326
 5590SOL     OW28405   4.013   0.965   0.375  0.7828 -0.6718  0.0448
 5590SOL    HW128406   3.920   0.974   0.355  0.3891 -2.9986  0.8225
 5590SOL    HW228407   4.027   1.050   0.417 -0.2100 -1.1566  1.3417
 5591SOL     OW28408   0.647   0.244   5.646 -0.0795  0.0895  0.1509
 5591SOL    HW128409   0.736   0.250   5.679 -0.5747  1.4068  1.2301
 5591SOL    HW228410   0.601   0.279   5.722 -1.6870 -0.5584 -0.5029
 5592SOL     OW28411   0.776   0.696  10.605 -0.4635 -0.0981 -0.2196
 5592SOL    HW128412   0.821   0.733  10.681 -0.4019 -1.7912  0.5540
 5592SOL    HW228413   0.806   0.605  10.610  0.7876  0.2067 -2.0391
 5593SOL     OW28414   0.950   2.609   8.061  0.4770 -0.1608  0.0554
 5593SOL    HW128415   0.970   2.696   8.026  2.3838  0.0674  1.7709
 5593SOL    HW228416   1.030   2.592   8.110  1.8051  1.1015 -1.6507
 5594SOL     OW28417   0.946   3.513  12.216  0.2266  0.7363 -0.1835
 5594SOL    HW128418   1.024   3.460  12.199 -1.3063 -0.5693 -3.2326
 5594SOL    HW228419   0.876   3.483  12.158 -0.4300  0.5843  0.7031
 5595SOL     OW28420   3.285   3.912  13.356 -0.0941  0.0683 -0.2311
 5595SOL    HW128421   3.268   3.845  13.291  1.5739  0.1956 -0.7961
 5595SOL    HW228422   3.201   3.957  13.355 -0.8203 -1.2302  2.1296
 5596SOL     OW28423   3.202   0.792  13.293 -0.7861  0.2850 -0.1190
 5596SOL    HW128424   3.111   0.769  13.276 -0.7113 -1.6578  2.1235
 5596SOL    HW228425   3.243   0.735  13.227 -1.6306  0.0681 -0.4548
 5597SOL     OW28426   2.700   3.157   0.990 -0.1532  0.3580 -0.4181
 5597SOL    HW128427   2.684   3.119   0.903 -0.0329 -1.3682  0.3281
 5597SOL    HW228428   2.715   3.078   1.042  0.2569  0.6672 -0.0662
 5598SOL     OW28429   4.680   2.212   0.401  0.6566 -0.1070 -0.1582
 5598SOL    HW128430   4.668   2.275   0.331  1.6449  0.9035  0.5746
 5598SOL    HW228431   0.041   2.205   0.407  0.7065  0.0821 -0.7595
 5599SOL     OW28432   0.453   0.097   3.609 -0.6935 -0.4804 -0.1944
 5599SOL    HW128433   0.362   0.090   3.581 -0.1754 -1.4838 -1.6524
 5599SOL    HW228434   0.501   0.113   3.528 -1.0964 -1.7191 -0.6773
 5600SOL     OW28435   2.228   1.408   6.506  0.0567  0.5788  0.0567
 5600SOL    HW128436   2.279   1.371   6.434  2.2164  0.5652  1.6150
 5600SOL    HW228437   2.216   1.327   6.555 -1.6380  0.4789 -0.5059
 5601SOL     OW28438   4.502   2.268   3.351  0.3930 -0.3778 -0.2721
 5601SOL    HW128439   4.519   2.356   3.319  0.7535  0.0712  1.1760
 5601SOL    HW228440   4.585   2.224   3.330  1.2596  0.6487  1.0755
 5602SOL     OW28441   1.416   4.605   1.915  0.4542 -0.3220  0.7467
 5602SOL    HW128442   1.338   4.593   1.970 -0.5567  2.6655  0.0048
 5602SOL    HW228443   1.401   4.533   1.855 -0.5411  0.6897 -0.2179
 5603SOL     OW28444   2.136   2.967  12.941 -0.0057 -0.0769  0.1775
 5603SOL    HW128445   2.228   2.960  12.916  0.5806 -0.0029  2.2760
 5603SOL    HW228446   2.087   2.919  12.874 -0.5666 -2.1508  2.0608
 5604SOL     OW28447   2.160   2.232   5.846 -0.3963  0.2192  0.1571
 5604SOL    HW128448   2.205   2.221   5.762 -1.6534 -0.5966 -0.4162
 5604SOL    HW228449   2.072   2.244   5.811  0.2246 -0.1646 -1.5397
 5605SOL     OW28450   2.563   2.196   4.899  0.5229  0.0459 -0.5111
 5605SOL    HW128451   2.646   2.150   4.914  1.3935  1.8048  0.0270
 5605SOL    HW228452   2.504   2.133   4.941  0.1263  0.8006  0.0498
 5606SOL     OW28453   1.791   4.048   6.005 -0.4099 -0.0663  0.1281
 5606SOL    HW128454   1.793   4.139   6.035 -1.8759 -0.3378  1.0454
 5606SOL    HW228455   1.697   4.034   6.013 -0.5388  0.5260 -0.3461
 5607SOL     OW28456   0.006   1.827   2.409  0.0532 -0.4349 -0.3284
 5607SOL    HW128457   4.705   1.786   2.487  0.8656 -0.1082  0.2154
 5607SOL    HW228458   0.065   1.892   2.448  0.3770 -0.0675 -1.4188
 5608SOL     OW28459   3.247   0.477   6.341 -0.0534 -0.1304 -0.1222
 5608SOL    HW128460   3.248   0.540   6.413  3.1356 -0.3410  0.0282
 5608SOL    HW228461   3.182   0.415   6.373  0.6975 -0.6653  0.3734
 5609SOL     OW28462   2.886   0.194   1.931 -0.4707 -0.7983 -0.3901
 5609SOL    HW128463   2.899   0.261   1.863  1.3090  0.7829  1.5045
 5609SOL    HW228464   2.791   0.195   1.936 -0.3997  1.5472  0.7208
 5610SOL     OW28465   3.541   1.886   0.450  0.0324  0.5737 -0.2520
 5610SOL    HW128466   3.493   1.867   0.370 -1.2110 -3.3629  1.3875
 5610SOL    HW228467   3.600   1.958   0.431  2.1655 -1.1625 -0.2080
 5611SOL     OW28468   0.276   1.595   8.098 -0.4911  0.6170  0.0214
 5611SOL    HW128469   0.187   1.596   8.133 -0.0247 -0.9097  1.2475
 5611SOL    HW228470   0.319   1.644   8.169  0.2753 -0.8335  0.5646
 5612SOL     OW28471   1.129   1.660   6.443  0.1844 -0.9693 -0.6510
 5612SOL    HW128472   1.040   1.664   6.409 -0.2704  0.8763  0.7831
 5612SOL    HW228473   1.176   1.641   6.362  2.6226 -2.4616  1.0808
 5613SOL     OW28474   4.712   4.265   7.296  0.1859  0.5075 -0.1946
 5613SOL    HW128475   4.617   4.260   7.293  0.2872 -1.4346 -0.0128
 5613SOL    HW228476   4.719   4.345   7.349  2.3863 -0.7431  1.3763
 5614SOL     OW28477   4.115   4.439  13.185 -0.5157  0.0490 -0.2270
 5614SOL    HW128478   4.097   4.531  13.166  1.6679  0.3510 -0.8139
 5614SOL    HW228479   4.022   4.417  13.197  0.6897 -3.4602  2.8350
 5615SOL     OW28480   1.016   3.621   1.496  0.4430 -0.2453 -0.0309
 5615SOL    HW128481   1.044   3.691   1.556 -0.9704 -0.3716  0.7971
 5615SOL    HW228482   0.928   3.659   1.491  0.8990  0.7905 -0.1949
 5616SOL     OW28483   2.867   3.351   7.356  0.1669 -0.1864  0.1085
 5616SOL    HW128484   2.868   3.444   7.376 -0.7825  0.2912 -2.1088
 5616SOL    HW228485   2.841   3.327   7.267  1.5311 -2.7860  0.4056
 5617SOL     OW28486   3.403   3.448   3.271 -0.2855  0.3961 -0.2194
 5617SOL    HW128487   3.479   3.397   3.243 -0.3151 -0.0515  0.5291
 5617SOL    HW228488   3.428   3.467   3.361  2.3129 -0.7528 -0.6884
 5618SOL     OW28489   2.191   2.048  16.393 -0.1343 -0.0870  0.6307
 5618SOL    HW128490   2.187   2.064  16.487 -1.0232  1.0434  0.3940
 5618SOL    HW228491   2.109   2.003  16.373  1.9373 -2.5571 -2.3812
 5619SOL     OW28492   4.038   0.175   1.814  0.3410  0.5041 -0.1921
 5619SOL    HW128493   4.082   0.260   1.809  1.4433 -0.0545 -0.0249
 5619SOL    HW228494   3.955   0.217   1.836  0.0400 -0.8424  1.1741
 5620SOL     OW28495   2.199   4.405   7.027 -0.2653 -0.7422  0.2470
 5620SOL    HW128496   2.257   4.342   7.071 -0.0865 -0.2493  0.7213
 5620SOL    HW228497   2.215   4.476   7.090 -1.2088 -0.1915 -0.1363
 5621SOL     OW28498   0.404   0.732   5.486 -0.0768  0.0677  0.1521
 5621SOL    HW128499   0.384   0.819   5.520  0.2960  0.5414 -0.8489
 5621SOL    HW228500   0.408   0.695   5.574  2.8572 -0.2452 -0.0942
 5622SOL     OW28501   3.295   0.138   2.244 -0.0962 -0.5151  0.1350
 5622SOL    HW128502   3.305   0.042   2.242  1.9861 -0.3071  1.8326
 5622SOL    HW228503   3.200   0.152   2.242  0.1928  0.9472 -4.1237
 5623SOL     OW28504   4.190   2.024   8.427  0.5840 -0.0434 -0.0867
 5623SOL    HW128505   4.103   2.025   8.465  1.0472  2.8352  0.9111
 5623SOL    HW228506   4.179   2.012   8.333 -5.0329 -0.8008  0.6762
 5624SOL     OW28507   4.230   4.254   8.870  0.6593  0.2277  0.4612
 5624SOL    HW128508   4.187   4.185   8.819  2.5730 -2.0164  1.9055
 5624SOL    HW228509   4.321   4.226   8.877  0.9357  1.0069 -0.0285
 5625SOL     OW28510   4.311   2.569   6.472 -0.0514  0.3735 -0.2353
 5625SOL    HW128511   4.367   2.524   6.535 -0.4311 -1.5847 -1.3108
 5625SOL    HW228512   4.224   2.559   6.509  0.0750 -0.0884 -0.0623
 5626SOL     OW28513   1.940   0.492   2.427  0.4563 -0.2758 -0.5542
 5626SOL    HW128514   1.982   0.532   2.350 -2.5147  1.9369 -0.9825
 5626SOL    HW228515   1.945   0.565   2.488 -0.0982 -0.8290  0.1498
 5627SOL     OW28516   4.383   3.185   4.820  0.0938  0.0757 -0.1113
 5627SOL    HW128517   4.475   3.208   4.825  0.2878 -0.8911  0.7788
 5627SOL    HW228518   4.342   3.239   4.753 -1.3407 -0.6969  0.1419
 5628SOL     OW28519   3.393   0.445  11.422 -0.0465  0.2398 -0.2054
 5628SOL    HW128520   3.346   0.528  11.415  0.5001  0.6252  0.7324
 5628SOL    HW228521   3.326   0.383  11.393 -0.8978 -0.6963  3.7521
 5629SOL     OW28522   4.203   1.672   6.471 -0.3384 -0.0261 -0.0116
 5629SOL    HW128523   4.195   1.600   6.534 -1.1787  2.4508  2.7112
 5629SOL    HW228524   4.206   1.745   6.533 -0.0993  0.7954 -0.9945
 5630SOL     OW28525   4.498   4.460   5.860  0.0114 -0.0252  0.1372
 5630SOL    HW128526   4.556   4.473   5.785 -0.5912  0.1785 -0.2975
 5630SOL    HW228527   4.501   4.365   5.873 -0.0216 -0.1013 -0.3920
 5631SOL     OW28528   4.010   4.473   6.560 -0.5706 -0.6301 -0.3831
 5631SOL    HW128529   3.986   4.447   6.471 -1.2271  0.0205 -0.3964
 5631SOL    HW228530   4.048   4.556   6.530  1.4059 -1.3949 -0.0135
 5632SOL     OW28531   1.014   0.380   4.971  0.0051 -0.2351 -0.0150
 5632SOL    HW128532   0.956   0.322   4.922 -0.2139  0.5431 -0.6672
 5632SOL    HW228533   1.081   0.413   4.912 -0.2123  0.5058  0.1562
 5633SOL     OW28534   2.753   3.289  16.751 -0.1080  0.2010 -0.0674
 5633SOL    HW128535   2.816   3.232  16.707 -1.5823 -0.3081 -1.5336
 5633SOL    HW228536   2.807   3.331  16.818 -0.5442 -0.4691  0.6988
 5634SOL     OW28537   0.390   3.452   2.701 -0.6940 -0.7218  0.2420
 5634SOL    HW128538   0.469   3.473   2.650 -0.3409 -0.1953  1.0134
 5634SOL    HW228539   0.423   3.434   2.789  0.4805  1.2851  0.2219
 5635SOL     OW28540   4.398   0.921   9.346 -0.0574 -0.5522 -0.0426
 5635SOL    HW128541   4.426   0.962   9.264 -0.1808  0.3050  0.3450
 5635SOL    HW228542   4.395   0.829   9.322 -2.7501 -0.2899 -0.8055
 5636SOL     OW28543   0.372   3.269   7.554  0.5896  0.1719  0.0092
 5636SOL    HW128544   0.369   3.347   7.497  0.1426 -0.4851 -0.8629
 5636SOL    HW228545   0.283   3.237   7.549  0.2416  1.3142 -1.2777
 5637SOL     OW28546   3.731   0.870  10.465  0.4211  0.0238  0.7126
 5637SOL    HW128547   3.740   0.779  10.436  0.7454  1.0131 -2.3205
 5637SOL    HW228548   3.761   0.913  10.385  0.7729  0.8830  1.3120
 5638SOL     OW28549   1.374   0.050   5.354 -0.3838 -0.1031  0.7250
 5638SOL    HW128550   1.439   4.715   5.361 -0.2032 -0.1158 -1.0245
 5638SOL    HW228551   1.298   0.016   5.307 -0.5728  1.9784 -0.5044
 5639SOL     OW28552   4.572   1.983  15.936  0.6233 -0.0845 -0.1318
 5639SOL    HW128553   4.607   1.927  16.005 -1.5215  0.6920  1.5760
 5639SOL    HW228554   4.627   2.061  15.935 -0.1632  0.4585 -1.0993
 5640SOL     OW28555   4.565   2.136   5.674 -0.1013 -0.1093 -0.2728
 5640SOL    HW128556   4.630   2.083   5.720 -0.7949 -0.8452 -0.1341
 5640SOL    HW228557   4.516   2.178   5.744 -0.1473  0.3429 -0.5756
 5641SOL     OW28558   2.173   4.108   7.563  0.1950  0.4207  0.1563
 5641SOL    HW128559   2.127   4.044   7.618  0.8726  1.5892  2.0919
 5641SOL    HW228560   2.260   4.103   7.601 -0.4428 -1.3959  1.3873
 5642SOL     OW28561   1.331   3.590   9.479  0.2712 -0.1026 -0.3527
 5642SOL    HW128562   1.284   3.671   9.458 -0.9837 -0.5518  0.7293
 5642SOL    HW228563   1.274   3.524   9.439 -1.3556 -0.1529  2.0485
 5643SOL     OW28564   4.605   2.267   8.987 -0.4341  0.7147  0.0142
 5643SOL    HW128565   4.676   2.285   9.049 -0.6574  0.5510  0.3205
 5643SOL    HW228566   4.617   2.174   8.971  1.6189  1.3965 -2.4990
 5644SOL     OW28567   0.262   4.440   5.196  0.0058  0.3990  0.8920
 5644SOL    HW128568   0.264   4.485   5.111  0.2024 -1.4038 -0.0435
 5644SOL    HW228569   0.264   4.524   5.242  1.2255  0.0995  1.3716
 5645SOL     OW28570   1.802   2.021   1.945  0.1306 -1.0175 -0.1939
 5645SOL    HW128571   1.797   2.091   2.010  1.3850 -1.4985  0.4323
 5645SOL    HW228572   1.745   2.057   1.878  1.5618 -1.4919 -1.6528
 5646SOL     OW28573   0.984   1.657   1.993 -0.1240 -0.6775  0.0677
 5646SOL    HW128574   0.975   1.562   1.989  0.6369 -0.7665  0.3823
 5646SOL    HW228575   1.069   1.669   1.950 -0.9117 -3.4891 -2.3059
 5647SOL     OW28576   1.061   0.105   7.459  0.0221 -0.2023  0.1419
 5647SOL    HW128577   1.066   0.023   7.411 -1.2376 -0.1972 -0.0198
 5647SOL    HW228578   1.026   0.157   7.386  0.9698  1.9478  1.2334
 5648SOL     OW28579   2.794   3.886   6.785 -0.2682 -0.1035  0.9223
 5648SOL    HW128580   2.726   3.847   6.730  0.8426 -2.0129  0.8814
 5648SOL    HW228581   2.864   3.823   6.803  0.2608 -0.2518 -1.6649
 5649SOL     OW28582   4.306   1.041   3.265 -0.0829 -0.5341  0.2581
 5649SOL    HW128583   4.279   1.020   3.355  0.2860  0.5240  0.6248
 5649SOL    HW228584   4.224   1.078   3.235  0.3417 -1.1162 -1.5840
 5650SOL     OW28585   0.739   2.506  14.156 -0.0347 -0.4128 -0.2760
 5650SOL    HW128586   0.689   2.510  14.075 -0.3602  0.3640 -0.0356
 5650SOL    HW228587   0.803   2.567  14.120  1.8452 -2.0680  0.2566
 5651SOL     OW28588   0.716   1.010  10.605  0.5452  0.2010 -0.1375
 5651SOL    HW128589   0.670   1.069  10.666  0.4182 -0.8122  0.7403
 5651SOL    HW228590   0.780   0.972  10.665 -1.0215 -2.5657 -0.2191
 5652SOL     OW28591   3.317   1.723   5.222 -0.2380  0.3259 -0.5482
 5652SOL    HW128592   3.270   1.642   5.203 -1.2120  0.8206 -0.2594
 5652SOL    HW228593   3.282   1.740   5.310  2.3053  1.7127  0.1936
 5653SOL     OW28594   3.914   0.855  12.918  0.0814  0.1331  0.9282
 5653SOL    HW128595   3.900   0.946  12.945 -1.2539 -0.7351  3.1685
 5653SOL    HW228596   3.828   0.819  12.895  1.0383 -0.6481 -1.4036
 5654SOL     OW28597   0.336   1.958   1.796  0.0970 -0.0256 -0.1050
 5654SOL    HW128598   0.290   2.041   1.803  2.7049  1.0962  3.1784
 5654SOL    HW228599   0.407   1.972   1.858 -0.8834 -0.7979  1.1772
 5655SOL     OW28600   3.005   3.973   9.816  0.2458  0.7342 -0.2945
 5655SOL    HW128601   2.963   4.039   9.761  4.2762  1.9792 -1.9168
 5655SOL    HW228602   3.079   3.953   9.759 -0.5509  0.8802 -1.3634
 5656SOL     OW28603   1.682   1.950   1.315 -0.1855  0.3808  0.3330
 5656SOL    HW128604   1.699   1.994   1.399 -1.5963  1.1176  0.2307
 5656SOL    HW228605   1.605   1.894   1.324  0.4835 -1.0590 -3.0942
 5657SOL     OW28606   3.946   1.967   3.274  0.1988 -0.9804 -0.4090
 5657SOL    HW128607   3.859   2.005   3.286  0.1353 -0.8911 -1.1397
 5657SOL    HW228608   3.994   2.038   3.231  0.4885 -1.3828 -0.7591
 5658SOL     OW28609   0.203   2.165  15.441  0.0283 -0.0841  0.1105
 5658SOL    HW128610   0.161   2.100  15.497  0.3257  1.6536  2.3284
 5658SOL    HW228611   0.159   2.247  15.463 -1.4749 -1.1175  1.0271
 5659SOL     OW28612   0.024   2.184  14.126  0.0491 -0.1200 -0.3641
 5659SOL    HW128613   0.108   2.225  14.104 -0.9214  2.9418  1.5519
 5659SOL    HW228614   0.049   2.093  14.114 -0.1003  0.2534 -3.5639
 5660SOL     OW28615   3.796   2.372  13.040  0.3639  0.4922  0.1681
 5660SOL    HW128616   3.864   2.437  13.057  1.8260  0.2053 -4.5475
 5660SOL    HW228617   3.838   2.290  13.064 -1.0155  0.0590  1.1230
 5661SOL     OW28618   4.156   2.553   2.269 -0.3023 -0.0494 -0.3072
 5661SOL    HW128619   4.074   2.601   2.261  2.2827  4.4748  0.8222
 5661SOL    HW228620   4.127   2.471   2.229 -2.8722 -0.0314  1.5229
 5662SOL     OW28621   2.210   3.106   4.401  0.8479  0.1151 -0.2865
 5662SOL    HW128622   2.178   3.022   4.435 -0.4199  0.7698  0.1130
 5662SOL    HW228623   2.158   3.117   4.321 -1.0559  0.9313  1.0777
 5663SOL     OW28624   0.195   2.359  13.263  0.0563 -0.2585 -0.1392
 5663SOL    HW128625   0.270   2.415  13.285 -0.9040  1.2575 -0.7183
 5663SOL    HW228626   0.170   2.395  13.178 -1.8684 -0.2097  0.4522
 5664SOL     OW28627   1.103   1.851   3.311 -0.1433 -0.5902  0.6110
 5664SOL    HW128628   1.155   1.804   3.246  0.6811  0.5579  0.4540
 5664SOL    HW228629   1.168   1.836   3.381  0.4047  0.9055  0.4141
 5665SOL     OW28630   4.621   0.328   1.013 -0.4690  0.1462 -0.0641
 5665SOL    HW128631   4.581   0.300   1.096  0.0439 -0.6881 -0.1003
 5665SOL    HW228632   4.578   0.264   0.956 -1.2570  0.5047  0.1153
 5666SOL     OW28633   1.019   4.690  10.698 -0.4141 -0.2559  0.3971
 5666SOL    HW128634   1.092   4.684  10.759  0.8605  0.6701 -1.0157
 5666SOL    HW228635   0.990   4.600  10.712 -2.3494  0.5044  1.2389
 5667SOL     OW28636   1.528   0.544   3.030 -0.3419  0.2866  0.7672
 5667SOL    HW128637   1.516   0.450   3.040 -0.4237  0.4157  1.9016
 5667SOL    HW228638   1.605   0.536   2.974 -0.6496 -1.1669  0.5668
 5668SOL     OW28639   2.961   4.193   0.304  0.0597  0.0483 -0.4234
 5668SOL    HW128640   3.048   4.233   0.310 -0.9926  2.3060 -0.1666
 5668SOL    HW228641   2.955   4.145   0.387 -0.2739 -0.5996 -0.8225
 5669SOL     OW28642   3.753   2.309  16.486 -0.0056 -0.0313  0.4230
 5669SOL    HW128643   3.718   2.294  16.398  1.8698  1.7514 -0.6153
 5669SOL    HW228644   3.688   2.364  16.530 -0.6920  0.4258 -1.1449
 5670SOL     OW28645   1.226   4.353   4.916 -0.6603  0.4725  0.5185
 5670SOL    HW128646   1.144   4.369   4.962 -0.1818 -0.5193  1.7065
 5670SOL    HW228647   1.225   4.258   4.926  0.1650  0.4883  0.7437
 5671SOL     OW28648   0.059   4.042   6.923  0.0031  0.6388 -0.5979
 5671SOL    HW128649   0.060   4.079   6.834  0.3254 -0.8738 -1.2199
 5671SOL    HW228650   0.131   4.088   6.965  0.7313 -1.5182  0.5168
 5672SOL     OW28651   2.986   1.441   4.023  0.2045  0.6757  0.3831
 5672SOL    HW128652   2.917   1.410   3.964 -2.0360  1.1954  2.7068
 5672SOL    HW228653   2.937   1.472   4.099 -2.4623  2.6217 -2.1079
 5673SOL     OW28654   1.388   0.095  14.132 -0.0233  0.1386  0.7869
 5673SOL    HW128655   1.387   0.037  14.208 -1.1323 -0.9225 -0.0281
 5673SOL    HW228656   1.314   0.070  14.077  1.0717 -2.5724  0.5307
 5674SOL     OW28657   0.876   4.526   5.289 -0.7344  0.4801 -0.0183
 5674SOL    HW128658   0.788   4.498   5.265  0.6399 -2.5480 -1.4819
 5674SOL    HW228659   0.853   4.605   5.339  0.4678  2.0492 -1.9617
 5675SOL     OW28660   3.543   2.553  14.400 -0.2721 -0.6701 -0.3029
 5675SOL    HW128661   3.592   2.485  14.446 -1.3264 -1.4094 -0.2620
 5675SOL    HW228662   3.597   2.575  14.325 -1.6806  0.7720 -0.8942
 5676SOL     OW28663   4.407   1.871  10.226  0.0838 -0.2941 -0.2644
 5676SOL    HW128664   4.477   1.914  10.176 -1.2932  0.0569 -1.8905
 5676SOL    HW228665   4.345   1.941  10.245  1.0836  0.2111  1.1370
 5677SOL     OW28666   0.806   3.037  17.144  0.5013 -0.0484 -0.2166
 5677SOL    HW128667   0.739   3.091  17.101 -2.8291 -1.3170  3.3920
 5677SOL    HW228668   0.885   3.070  17.102  0.8072  1.4791  1.5733
 5678SOL     OW28669   1.686   3.283   2.864  0.5501  0.2082 -0.3054
 5678SOL    HW128670   1.749   3.314   2.798  1.0307  0.1081  0.1024
 5678SOL    HW228671   1.663   3.362   2.913 -0.8282 -0.0362 -0.5632
 5679SOL     OW28672   1.293   1.394   1.245 -0.7681 -0.3012  0.9392
 5679SOL    HW128673   1.248   1.461   1.194 -0.6486 -0.6607  0.3541
 5679SOL    HW228674   1.364   1.372   1.183  0.0078 -0.0281  1.7289
 5680SOL     OW28675   1.941   0.601  10.532  0.0288 -0.7705  0.2648
 5680SOL    HW128676   1.849   0.611  10.559 -0.2446 -0.1921 -0.8640
 5680SOL    HW228677   1.935   0.595  10.436  1.2619 -1.0986  0.2150
 5681SOL     OW28678   1.853   3.516   5.404  0.1713 -0.5383  0.0905
 5681SOL    HW128679   1.906   3.468   5.340  2.3221 -1.9068  2.8857
 5681SOL    HW228680   1.884   3.606   5.390  1.0275 -0.8316  0.0655
 5682SOL     OW28681   2.196   0.730   7.083 -0.1943  0.2563  0.2886
 5682SOL    HW128682   2.128   0.663   7.090  0.5701 -0.7334 -1.6506
 5682SOL    HW228683   2.278   0.682   7.074 -0.0421  0.3441  1.3046
 5683SOL     OW28684   3.866   3.539  10.976  0.8883 -0.2285 -0.2964
 5683SOL    HW128685   3.845   3.561  10.885  1.0846  0.3907 -0.1901
 5683SOL    HW228686   3.954   3.505  10.960  1.3150 -0.1209  1.8365
 5684SOL     OW28687   2.647   2.182   7.295 -0.3476 -0.3540  0.5873
 5684SOL    HW128688   2.572   2.125   7.308 -2.4205  2.4330  0.9357
 5684SOL    HW228689   2.615   2.272   7.293 -1.5311 -0.7682  1.2291
 5685SOL     OW28690   3.873   2.130   5.793  0.1626  0.1265  0.2481
 5685SOL    HW128691   3.903   2.039   5.790 -0.1829  0.0511 -0.8815
 5685SOL    HW228692   3.828   2.142   5.709  0.0781  0.4088  0.3330
 5686SOL     OW28693   4.449   1.388   9.288 -0.1252  0.1618 -0.0696
 5686SOL    HW128694   4.479   1.368   9.377 -0.4388 -0.2568 -0.0602
 5686SOL    HW228695   4.510   1.460   9.273  0.7969 -0.3815  1.0680
 5687SOL     OW28696   2.099   2.092   5.530 -0.0257  0.3096  0.6626
 5687SOL    HW128697   2.098   2.165   5.468  2.5956 -0.8088 -0.7144
 5687SOL    HW228698   2.014   2.109   5.570  0.6051  1.5722  1.4535
 5688SOL     OW28699   3.580   4.157   3.597  0.0243 -0.5232 -0.3617
 5688SOL    HW128700   3.578   4.184   3.505  1.5676 -0.6232 -0.4388
 5688SOL    HW228701   3.657   4.203   3.632  1.8443 -2.6349 -1.6258
 5689SOL     OW28702   2.680   1.189   5.718 -0.3556  0.2493 -0.1498
 5689SOL    HW128703   2.591   1.193   5.751 -1.3613 -3.4198 -2.4245
 5689SOL    HW228704   2.670   1.129   5.644 -1.5150  1.7901 -1.2535
 5690SOL     OW28705   1.538   1.783  16.282  0.2824 -0.0527  0.4411
 5690SOL    HW128706   1.564   1.852  16.344 -2.0564 -1.3021  2.7904
 5690SOL    HW228707   1.494   1.720  16.339  1.0891 -1.2391 -0.2601
 5691SOL     OW28708   2.757   2.516  11.906  0.5022  0.1643  0.0242
 5691SOL    HW128709   2.672   2.549  11.876  0.3287 -0.0843  0.2431
 5691SOL    HW228710   2.763   2.427  11.871  0.7278  0.5957 -1.0581
 5692SOL     OW28711   4.003   0.473   2.233  0.4368 -0.2340 -0.3417
 5692SOL    HW128712   4.098   0.471   2.222  0.3155  0.6243 -1.4587
 5692SOL    HW228713   3.993   0.521   2.315  0.6205  0.9898 -1.0520
 5693SOL     OW28714   3.904   0.101  16.819 -0.4398  0.3247  0.0958
 5693SOL    HW128715   3.966   0.057  16.760 -1.5278 -0.2536 -0.6035
 5693SOL    HW228716   3.835   0.036  16.828 -0.1266  0.0725  0.6191
 5694SOL     OW28717   1.336   3.937   3.675  0.1975 -0.1366 -0.5807
 5694SOL    HW128718   1.304   4.024   3.697  1.6969  0.0588  0.8048
 5694SOL    HW228719   1.302   3.897   3.755 -1.5111  2.7126  0.0928
 5695SOL     OW28720   1.790   3.020   6.323 -0.0205 -0.0566  0.2727
 5695SOL    HW128721   1.831   3.093   6.276  0.4844  0.3544  1.3587
 5695SOL    HW228722   1.859   3.016   6.389 -0.1242  1.2336  0.4699
 5696SOL     OW28723   4.183   2.901   7.085  0.4459  0.0388 -0.2219
 5696SOL    HW128724   4.233   2.865   7.012  1.3419  1.1030 -0.1353
 5696SOL    HW228725   4.100   2.856   7.069  0.6716 -0.8448  1.0817
 5697SOL     OW28726   2.462   2.285  14.999  0.1148  0.0126  0.2381
 5697SOL    HW128727   2.413   2.210  14.965 -1.8047  0.3963  2.0935
 5697SOL    HW228728   2.434   2.350  14.935  1.3896  1.4169  1.1387
 5698SOL     OW28729   2.481   2.614   4.365 -0.0842  0.4085  0.5460
 5698SOL    HW128730   2.474   2.646   4.275  1.5785  0.5249  0.4496
 5698SOL    HW228731   2.563   2.563   4.369 -1.5056 -2.1113 -1.9498
 5699SOL     OW28732   0.946   0.732   2.939 -0.2931  0.4466  0.2177
 5699SOL    HW128733   0.987   0.704   2.857  0.0516 -0.6058  0.7504
 5699SOL    HW228734   0.867   0.679   2.942 -0.7063  0.9343 -2.1478
 5700SOL     OW28735   0.067   0.160   7.368  0.2113  0.0672 -0.5184
 5700SOL    HW128736   0.095   0.201   7.450  1.2413 -3.0380  0.6875
 5700SOL    HW228737   0.131   0.089   7.370  2.0053  1.7147  0.7806
 5701SOL     OW28738   2.429   2.253   4.392  0.1818  0.3203 -0.4772
 5701SOL    HW128739   2.351   2.218   4.349 -0.9574  1.9696  0.2124
 5701SOL    HW228740   2.476   2.277   4.312  2.4905 -0.8553  0.5332
 5702SOL     OW28741   3.209   1.630   5.797  0.6079 -0.0377 -0.1263
 5702SOL    HW128742   3.117   1.615   5.778  1.1823 -0.2768 -2.6575
 5702SOL    HW228743   3.208   1.724   5.815 -0.7652 -0.2014  0.6738
 5703SOL     OW28744   0.802   2.788   7.409 -0.1765 -0.0871  0.1976
 5703SOL    HW128745   0.735   2.853   7.385  0.0418 -0.4577 -1.4078
 5703SOL    HW228746   0.812   2.799   7.503  2.9135  1.7078 -0.3569
 5704SOL     OW28747   0.169   2.724   0.913  0.4080 -0.2033  0.5279
 5704SOL    HW128748   0.244   2.729   0.973 -0.0319  3.3114  0.7606
 5704SOL    HW228749   0.188   2.801   0.859  0.8529 -1.2447 -0.8035
 5705SOL     OW28750   1.303   1.782   4.080  0.4877 -0.3588  0.4119
 5705SOL    HW128751   1.271   1.745   3.998 -0.2676  2.7834 -0.7136
 5705SOL    HW228752   1.226   1.829   4.112  0.6569 -1.8940  3.0238
 5706SOL     OW28753   0.601   2.948   2.260  0.0070 -0.2065 -0.1079
 5706SOL    HW128754   0.634   2.944   2.170 -1.3470 -3.8328 -0.4646
 5706SOL    HW228755   0.677   2.982   2.308 -0.3877  0.0923  0.2996
 5707SOL     OW28756   2.635   1.364   5.119  0.3935  0.5355 -0.3485
 5707SOL    HW128757   2.671   1.388   5.034  0.1667  4.4841  0.6563
 5707SOL    HW228758   2.558   1.420   5.126 -2.1544 -3.4833  3.3272
 5708SOL     OW28759   2.504   3.506   0.975 -0.3805  0.0527  0.1889
 5708SOL    HW128760   2.457   3.475   0.897 -0.5393  2.0679 -0.4985
 5708SOL    HW228761   2.514   3.421   1.018 -1.5230  0.7820  1.9162
 5709SOL     OW28762   2.567   4.388   4.028  0.1859 -0.3745 -0.4546
 5709SOL    HW128763   2.653   4.367   4.062 -0.8205 -1.7066  1.2595
 5709SOL    HW228764   2.532   4.444   4.097 -0.3346  0.7631 -1.6407
 5710SOL     OW28765   0.016   3.419  10.819  0.2943 -0.0955 -0.6218
 5710SOL    HW128766   0.106   3.406  10.791  0.4646 -1.1756  0.4452
 5710SOL    HW228767   0.013   3.361  10.895  0.0865  0.6407 -0.0690
 5711SOL     OW28768   4.058   1.872   5.816 -0.0563 -0.6355 -0.8236
 5711SOL    HW128769   4.141   1.890   5.860 -1.3216 -1.2335  1.7706
 5711SOL    HW228770   4.079   1.839   5.728 -1.2476 -2.0749 -0.5550
 5712SOL     OW28771   2.499   0.761  17.085 -0.3759  0.0075 -0.0023
 5712SOL    HW128772   2.505   0.734  16.993  1.6901  0.7302 -0.0941
 5712SOL    HW228773   2.546   0.689  17.126 -0.2185  0.0123 -0.1714
 5713SOL     OW28774   2.031   1.308   3.427 -0.0728  0.0797 -0.4374
 5713SOL    HW128775   2.014   1.237   3.366  0.0983  0.5633 -1.0529
 5713SOL    HW228776   2.104   1.275   3.479 -0.8886 -1.8132 -0.4855
 5714SOL     OW28777   2.274   2.624   2.865 -0.2407 -0.0370  0.0828
 5714SOL    HW128778   2.321   2.688   2.918  1.1368 -2.4281  1.7647
 5714SOL    HW228779   2.348   2.566   2.848 -1.2000 -0.5902 -2.1867
 5715SOL     OW28780   0.913   0.829  10.798 -0.4915 -0.2361 -0.2640
 5715SOL    HW128781   1.003   0.798  10.801 -0.1842  0.5929 -0.9345
 5715SOL    HW228782   0.888   0.830  10.890 -0.8956  1.8510 -0.4080
 5716SOL     OW28783   0.024   4.447   0.612 -0.3516  0.4967 -0.0116
 5716SOL    HW128784   4.670   4.420   0.633  0.3442 -2.7887 -1.4295
 5716SOL    HW228785   0.018   4.539   0.586  0.6439  0.1583 -1.4025
 5717SOL     OW28786   3.722   3.952   1.135 -0.0719  0.4912 -0.5039
 5717SOL    HW128787   3.627   3.964   1.127 -0.4368 -1.9370  0.1895
 5717SOL    HW228788   3.745   4.043   1.154  2.3731 -0.4832  1.1763
 5718SOL     OW28789   2.509   1.290   3.274  0.2458  0.6917 -0.0428
 5718SOL    HW128790   2.581   1.238   3.240 -0.1036  0.5858 -0.6283
 5718SOL    HW228791   2.429   1.244   3.247 -0.1790  1.2996  0.1702
 5719SOL     OW28792   3.700   1.064   3.481  0.1951  0.0991  0.0539
 5719SOL    HW128793   3.730   0.998   3.543 -2.9350 -0.6211  0.8307
 5719SOL    HW228794   3.785   1.089   3.445 -0.0680 -1.4760 -1.6957
 5720SOL     OW28795   4.560   2.143  16.972  0.3591  0.0453  0.3275
 5720SOL    HW128796   4.490   2.208  16.964  1.9095  1.6846  0.0928
 5720SOL    HW228797   4.617   2.200  17.024  0.9459 -0.6390  0.4302
 5721SOL     OW28798   0.337   0.083   6.675 -0.6462 -0.5662  0.2299
 5721SOL    HW128799   0.432   0.085   6.680 -0.5547 -0.8521 -1.3002
 5721SOL    HW228800   0.306   0.109   6.762 -0.5950 -0.5816  0.2522
 5722SOL     OW28801   3.334   0.567   4.851 -0.0332  0.1552 -0.0812
 5722SOL    HW128802   3.322   0.492   4.793  0.1777  1.7806 -2.2444
 5722SOL    HW228803   3.428   0.564   4.869  0.0356  1.2863 -0.2602
 5723SOL     OW28804   4.233   2.558   7.227 -0.1680  0.1460  0.9698
 5723SOL    HW128805   4.168   2.559   7.298 -0.3430  0.8152  0.8041
 5723SOL    HW228806   4.191   2.490   7.175  2.0215  0.1681 -0.8088
 5724SOL     OW28807   4.392   2.246   4.131  0.2588  0.2887  0.1824
 5724SOL    HW128808   4.369   2.174   4.189  1.3191 -0.6188 -0.5206
 5724SOL    HW228809   4.364   2.323   4.180  1.1913 -0.0935  1.3317
 5725SOL     OW28810   1.978   0.715   8.124  0.0629 -0.2074  0.2040
 5725SOL    HW128811   2.054   0.690   8.072  0.7212  0.3263  0.8991
 5725SOL    HW228812   2.011   0.706   8.213  1.9226  1.1348 -0.3490
 5726SOL     OW28813   3.379   3.354   6.119  1.0806 -0.1325  0.7497
 5726SOL    HW128814   3.412   3.426   6.173 -0.1419 -0.2369  1.6161
 5726SOL    HW228815   3.459   3.301   6.111  1.2266  0.4105 -1.5356
 5727SOL     OW28816   3.778   4.183  16.822  0.8433  0.2832  0.1107
 5727SOL    HW128817   3.740   4.095  16.829 -0.8443  0.9714 -0.4194
 5727SOL    HW228818   3.776   4.195  16.727  0.1576 -0.9603 -0.0278
 5728SOL     OW28819   0.923   3.419   5.634  0.5461 -1.0176 -0.3807
 5728SOL    HW128820   0.874   3.364   5.696  1.7095 -0.5486  0.9565
 5728SOL    HW228821   1.011   3.385   5.652  0.1833 -2.0071 -0.4531
 5729SOL     OW28822   1.888   2.067   6.439 -0.4824 -0.0645 -0.2501
 5729SOL    HW128823   1.794   2.074   6.423 -0.4421 -1.1900 -0.9361
 5729SOL    HW228824   1.921   2.111   6.361  0.9803 -3.1696 -1.3571
 5730SOL     OW28825   2.922   1.380   9.310 -0.3472  0.2642  0.0628
 5730SOL    HW128826   2.934   1.461   9.262 -0.2570 -1.4445 -2.7635
 5730SOL    HW228827   2.929   1.425   9.395 -0.6698  0.0447  0.2071
 5731SOL     OW28828   2.271   1.347  13.202  0.0105 -0.3593 -0.0453
 5731SOL    HW128829   2.196   1.361  13.260  0.0267 -0.7648  0.0707
 5731SOL    HW228830   2.281   1.436  13.169 -2.1366 -0.5326 -1.1612
 5732SOL     OW28831   1.013   1.879   8.631  0.1248 -0.0145  0.3792
 5732SOL    HW128832   0.957   1.814   8.589 -0.3857  1.7558 -1.7072
 5732SOL    HW228833   0.974   1.903   8.715 -1.5868 -0.3358 -0.3374
 5733SOL     OW28834   4.546   4.477   8.142 -0.1540 -0.2887  0.3528
 5733SOL    HW128835   4.533   4.384   8.127  1.4747 -0.6366  1.0340
 5733SOL    HW228836   4.520   4.482   8.235  0.1945  0.9601  0.3864
 5734SOL     OW28837   1.435   0.138   8.928 -0.1851 -0.0587 -0.2105
 5734SOL    HW128838   1.525   0.135   8.962 -0.2954 -2.0607 -0.0992
 5734SOL    HW228839   1.448   0.169   8.838 -2.1305 -2.5797 -1.3469
 5735SOL     OW28840   3.429   1.754   2.767  0.3903 -0.6985 -0.2615
 5735SOL    HW128841   3.436   1.662   2.793 -0.5774 -0.8557 -0.5342
 5735SOL    HW228842   3.437   1.794   2.853 -1.1708  2.0194 -1.3561
 5736SOL     OW28843   3.644   2.800   1.617  0.2500  0.1827  0.0548
 5736SOL    HW128844   3.736   2.819   1.603  0.3276  0.3395  0.8076
 5736SOL    HW228845   3.643   2.732   1.550  0.1769 -0.8212  1.0733
 5737SOL     OW28846   1.098   4.030   3.282  0.3129  0.1013 -0.2279
 5737SOL    HW128847   1.102   4.091   3.356 -1.9443  1.9456 -1.6201
 5737SOL    HW228848   1.140   4.084   3.215  2.6332 -0.1426  1.0410
 5738SOL     OW28849   0.456   2.675  10.740 -0.2302  0.2146 -0.3721
 5738SOL    HW128850   0.370   2.715  10.726  0.4336  1.8980  0.3545
 5738SOL    HW228851   0.444   2.604  10.804  0.5807  1.0089  0.6616
 5739SOL     OW28852   3.697   2.630   3.140  0.3578 -0.0668 -0.3371
 5739SOL    HW128853   3.628   2.566   3.152  0.8584 -0.5582 -0.1066
 5739SOL    HW228854   3.704   2.616   3.046  0.6974 -0.1531 -0.2996
 5740SOL     OW28855   3.428   0.344   3.390 -0.0467  0.0570 -0.1713
 5740SOL    HW128856   3.353   0.339   3.450  1.3467 -2.1310  1.3982
 5740SOL    HW228857   3.383   0.403   3.330  2.6240  3.5340  1.2579
 5741SOL     OW28858   0.992   1.681   2.462  0.5454  0.3137 -0.1543
 5741SOL    HW128859   0.907   1.666   2.421  1.4601 -0.3143 -1.7869
 5741SOL    HW228860   0.954   1.684   2.550  1.8612  0.8437  0.3954
 5742SOL     OW28861   4.646   1.688   8.385 -0.0472  0.7190 -0.0326
 5742SOL    HW128862   4.730   1.731   8.375 -0.0418  0.7334  0.0758
 5742SOL    HW228863   4.631   1.662   8.294 -2.6495 -1.6046  1.0378
 5743SOL     OW28864   4.180   1.867   9.316  0.1403  0.5558  0.6119
 5743SOL    HW128865   4.264   1.823   9.334  0.2877 -0.4120 -2.4310
 5743SOL    HW228866   4.197   1.910   9.233  0.2822  2.6982  1.7414
 5744SOL     OW28867   4.463   0.590  12.975 -0.4818  0.0848  0.6612
 5744SOL    HW128868   4.506   0.637  13.047  1.3808 -0.4113 -0.1130
 5744SOL    HW228869   4.411   0.654  12.928 -0.8475  0.6047  1.7727
 5745SOL     OW28870   4.512   2.394   7.407  0.8774  0.3515  0.1660
 5745SOL    HW128871   4.501   2.478   7.451 -1.8847  0.1464 -0.1345
 5745SOL    HW228872   4.554   2.342   7.476  0.2478  0.3123  0.5159
 5746SOL     OW28873   2.482   1.786   3.699 -0.4905 -0.1113 -0.1831
 5746SOL    HW128874   2.446   1.718   3.641 -3.5024  0.1844  1.3620
 5746SOL    HW228875   2.406   1.842   3.687  1.3627  2.5201  0.3530
 5747SOL     OW28876   4.299   1.570   5.148  0.3794  0.7158  1.2148
 5747SOL    HW128877   4.308   1.610   5.061 -1.6482 -0.5130  0.4382
 5747SOL    HW228878   4.227   1.508   5.138  1.0403  0.2381 -0.7768
 5748SOL     OW28879   4.029   4.477   2.009 -0.1596 -0.2505 -0.2735
 5748SOL    HW128880   4.018   4.558   2.058 -2.0534 -0.0138 -1.0658
 5748SOL    HW228881   4.015   4.510   1.920 -1.3128  0.9266  0.3492
 5749SOL     OW28882   3.072   1.402   8.402  0.4203  0.9788 -0.3591
 5749SOL    HW128883   3.030   1.333   8.350  0.5305  1.3396 -0.9234
 5749SOL    HW228884   3.051   1.373   8.491  0.7139 -1.0396 -0.9549
 5750SOL     OW28885   0.824   4.549   6.856 -0.7564  0.5503 -0.5638
 5750SOL    HW128886   0.856   4.635   6.881 -1.1393  0.7807 -0.8564
 5750SOL    HW228887   0.801   4.508   6.940  0.8716  0.8570  0.0251
 5751SOL     OW28888   1.668   4.312   6.972 -0.4772 -0.2472  0.0550
 5751SOL    HW128889   1.604   4.350   7.032 -2.1781 -2.5649 -0.2954
 5751SOL    HW228890   1.750   4.351   7.000 -0.1442 -0.1122 -1.1163
 5752SOL     OW28891   0.784   0.355  17.427  0.4765 -0.0672 -0.3550
 5752SOL    HW128892   0.768   0.446  17.403 -0.0913 -0.2920 -0.8333
 5752SOL    HW228893   0.709   0.340  17.485  1.9399  1.0542  1.8397
 5753SOL     OW28894   2.776   4.362  14.720 -0.4309  0.1132 -0.7103
 5753SOL    HW128895   2.717   4.436  14.705 -1.7838 -1.7289 -4.7799
 5753SOL    HW228896   2.856   4.410  14.700 -1.7703  2.6524  0.0178
 5754SOL     OW28897   3.397   4.590   6.562  0.5530  0.4336  0.3863
 5754SOL    HW128898   3.331   4.530   6.529  2.9695 -0.6446 -2.4670
 5754SOL    HW228899   3.460   4.574   6.492 -0.3869  0.7160 -0.5126
 5755SOL     OW28900   1.618   0.641   4.074  0.3695 -0.3530  0.0996
 5755SOL    HW128901   1.534   0.632   4.118 -1.2801 -2.5790 -3.5603
 5755SOL    HW228902   1.604   0.591   3.994 -0.4393  0.8621 -0.5040
 5756SOL     OW28903   4.138   1.219   7.579  0.2500  0.0164  0.2319
 5756SOL    HW128904   4.043   1.232   7.575  0.1343  0.1054  3.0763
 5756SOL    HW228905   4.171   1.308   7.594  0.2196  0.5430 -2.8478
 5757SOL     OW28906   4.095   1.665   3.539 -0.4351 -0.1923 -0.0538
 5757SOL    HW128907   4.181   1.623   3.541 -0.0201  0.7019  1.4163
 5757SOL    HW228908   4.043   1.592   3.506  1.1198 -0.8194 -1.0977
 5758SOL     OW28909   3.648   1.779  17.486 -0.3203  0.0458  0.2622
 5758SOL    HW128910   3.717   1.789  17.551 -1.5556 -0.1157  1.6110
 5758SOL    HW228911   3.699   1.754  17.409  1.4175 -1.2820  1.8764
 5759SOL     OW28912   1.635   2.442   6.109 -0.4262 -0.0080 -0.0774
 5759SOL    HW128913   1.700   2.488   6.056  2.0607 -1.0027  2.1712
 5759SOL    HW228914   1.626   2.504   6.181 -1.4054 -1.4750  1.0681
 5760SOL     OW28915   3.551   1.465   8.042  0.2814 -0.2823  0.1721
 5760SOL    HW128916   3.509   1.520   7.976 -2.6949 -2.5691  0.1595
 5760SOL    HW228917   3.510   1.505   8.118  1.7914 -0.6335  1.1600
 5761SOL     OW28918   1.998   0.931   5.705 -0.2885 -0.1960  0.0279
 5761SOL    HW128919   2.084   0.916   5.666 -1.6360 -1.5009 -2.4521
 5761SOL    HW228920   2.037   0.933   5.793 -1.1411 -2.0838  0.4534
 5762SOL     OW28921   3.061   2.430   4.162  0.3564  0.3710  0.3089
 5762SOL    HW128922   3.147   2.397   4.135 -0.4566 -2.4881  1.2454
 5762SOL    HW228923   3.028   2.355   4.210 -3.2792  2.3173  0.7969
 5763SOL     OW28924   1.529   1.886  16.761 -0.8161  0.0362 -0.0471
 5763SOL    HW128925   1.569   1.973  16.768 -1.3574  0.3177 -0.4473
 5763SOL    HW228926   1.555   1.856  16.848  0.4638 -3.8924 -1.7745
 5764SOL     OW28927   3.497   3.777  16.100 -0.5770 -0.7482 -0.1504
 5764SOL    HW128928   3.575   3.800  16.051 -1.5652  3.2388  0.1638
 5764SOL    HW228929   3.525   3.746  16.186 -0.8383  2.0094  0.9276
 5765SOL     OW28930   0.563   1.042   8.366  0.2778  0.4667 -0.1482
 5765SOL    HW128931   0.525   0.965   8.408  0.2981  1.4387  1.6308
 5765SOL    HW228932   0.642   0.996   8.337  0.8276 -0.5125  2.9015
 5766SOL     OW28933   4.476   1.613   1.890  0.2734 -0.0062  0.1617
 5766SOL    HW128934   4.560   1.590   1.931  0.4533 -2.5641 -1.6224
 5766SOL    HW228935   4.471   1.704   1.917 -0.4262  0.0791 -0.2737
 5767SOL     OW28936   0.484   1.261  15.323 -0.0927  0.3587 -0.1277
 5767SOL    HW128937   0.506   1.354  15.323  0.8457  0.1299 -0.2144
 5767SOL    HW228938   0.399   1.276  15.280  0.7038  1.2368 -1.3843
 5768SOL     OW28939   2.733   2.723  12.867  0.3707 -0.3657  0.6077
 5768SOL    HW128940   2.692   2.675  12.796  2.1897 -1.9439  0.6019
 5768SOL    HW228941   2.820   2.687  12.849  0.3622  0.3724 -0.8775
 5769SOL     OW28942   1.490   1.357   1.048  0.0832 -0.3740  0.2287
 5769SOL    HW128943   1.554   1.419   1.081 -0.6693  0.9419 -0.8053
 5769SOL    HW228944   1.455   1.383   0.963 -3.4578  0.0601  1.7842
 5770SOL     OW28945   4.051   0.712   3.010 -0.2922 -0.0391  0.0621
 5770SOL    HW128946   4.137   0.732   3.048 -0.4073  0.9855 -0.2251
 5770SOL    HW228947   4.074   0.622   2.987 -0.2886 -0.1380  0.4543
 5771SOL     OW28948   2.039   0.524   3.225  0.4826 -0.2998 -0.4327
 5771SOL    HW128949   2.109   0.535   3.161 -0.6129  2.2087 -1.1943
 5771SOL    HW228950   2.086   0.461   3.279 -0.4855  0.2174  1.0207
 5772SOL     OW28951   0.556   4.605  16.081 -0.0628  0.5023 -0.2112
 5772SOL    HW128952   0.591   4.632  15.996  1.0422  0.6497  0.2915
 5772SOL    HW228953   0.485   4.546  16.056 -0.4126 -0.3042  2.5923
 5773SOL     OW28954   2.975   1.849   2.019  0.2531  0.1448 -0.4235
 5773SOL    HW128955   2.945   1.831   2.108  2.2847 -0.9420  0.0599
 5773SOL    HW228956   2.983   1.758   1.989 -1.4446 -0.6415  1.5145
 5774SOL     OW28957   2.194   2.846   5.183 -0.2421  0.4116 -0.1697
 5774SOL    HW128958   2.235   2.880   5.263  1.8001 -2.2748 -0.0696
 5774SOL    HW228959   2.195   2.927   5.132  0.0045  1.5701  1.6689
 5775SOL     OW28960   3.930   2.581   2.683 -0.2351  0.1622  0.8017
 5775SOL    HW128961   3.870   2.598   2.611  1.0353  2.6682  0.3358
 5775SOL    HW228962   4.008   2.633   2.661 -0.7714 -0.6835 -3.0734
 5776SOL     OW28963   1.053   2.094  16.311 -0.3405 -0.0397 -0.1541
 5776SOL    HW128964   1.081   2.185  16.302 -1.0784  0.1275 -0.7287
 5776SOL    HW228965   1.011   2.073  16.228  2.0276 -0.0659 -1.3221
 5777SOL     OW28966   4.192   0.058   1.091 -0.6194 -0.0565  0.4786
 5777SOL    HW128967   4.100   0.051   1.068 -0.2330 -0.6599 -0.9000
 5777SOL    HW228968   4.215   4.721   1.150  0.0107 -1.7355 -1.7937
 5778SOL     OW28969   2.258   1.037  17.028 -0.0696  0.4248  0.4364
 5778SOL    HW128970   2.252   1.103  17.098  0.0851  1.7216 -0.7818
 5778SOL    HW228971   2.222   1.074  16.948 -0.1220 -1.7405 -0.5529
 5779SOL     OW28972   1.233   0.756   5.842 -0.2803 -0.6370  0.0005
 5779SOL    HW128973   1.214   0.691   5.775 -0.3950  0.6660 -1.2327
 5779SOL    HW228974   1.307   0.793   5.794  1.5019 -2.8715  0.9918
 5780SOL     OW28975   1.363   4.228   2.186  0.0868  0.2593  0.0927
 5780SOL    HW128976   1.328   4.258   2.270 -0.4636  0.0430 -0.0607
 5780SOL    HW228977   1.455   4.252   2.191  0.1554  0.0000  0.0331
 5781SOL     OW28978   1.067   0.984   1.157  0.1096 -0.9674  0.4454
 5781SOL    HW128979   0.975   1.003   1.175  0.1789  0.0388 -0.2635
 5781SOL    HW228980   1.095   1.075   1.155 -0.7696 -0.7266 -0.7035
 5782SOL     OW28981   1.218   4.011   2.963 -0.0913 -0.3228 -0.3304
 5782SOL    HW128982   1.214   4.085   3.024 -0.9722  0.4353 -1.3065
 5782SOL    HW228983   1.301   3.969   2.985 -0.1911 -0.3133  0.0637
 5783SOL     OW28984   2.585   1.765   6.729  0.3093 -0.4938  0.1681
 5783SOL    HW128985   2.529   1.815   6.788 -1.0283 -0.1441 -1.4094
 5783SOL    HW228986   2.522   1.748   6.659 -1.4210  1.9234  1.1416
 5784SOL     OW28987   1.876   0.348  11.942  0.1373 -0.3830 -0.1618
 5784SOL    HW128988   1.798   0.342  11.886 -0.2045  0.4432  0.2226
 5784SOL    HW228989   1.832   0.380  12.021  0.6002  1.5291 -0.6620
 5785SOL     OW28990   4.599   4.341  12.240  0.2828 -0.4574 -0.1954
 5785SOL    HW128991   4.606   4.327  12.145 -1.9697  0.1898 -0.4572
 5785SOL    HW228992   4.676   4.293  12.271  0.8301  1.0896  0.8318
 5786SOL     OW28993   0.964   3.479   9.291 -0.6127  0.5686 -0.0739
 5786SOL    HW128994   0.919   3.555   9.329 -0.5515  0.9895 -0.8394
 5786SOL    HW228995   0.935   3.471   9.200  0.5381  2.0791 -0.5917
 5787SOL     OW28996   2.103   0.471  14.261  0.0641  0.1619  0.3211
 5787SOL    HW128997   2.046   0.470  14.184  1.7835  3.6550 -0.9955
 5787SOL    HW228998   2.131   0.563  14.259  0.5330  0.0816  2.4434
 5788SOL     OW28999   1.799   1.183   2.734 -0.5572  0.1013 -0.1805
 5788SOL    HW129000   1.732   1.239   2.775  1.3108  0.8885  1.8082
 5788SOL    HW229001   1.762   1.156   2.651  1.2072 -0.3744 -0.8013
 5789SOL     OW29002   4.702   0.350   2.548  0.4215 -0.5724  0.6872
 5789SOL    HW129003   0.043   0.370   2.495  0.2036 -0.0208  0.5879
 5789SOL    HW229004   4.702   0.254   2.548  0.6954 -0.5775  2.9485
 5790SOL     OW29005   0.453   1.148   3.652 -0.4125  0.2696  0.4018
 5790SOL    HW129006   0.482   1.205   3.723  0.0797 -0.0386  0.4479
 5790SOL    HW229007   0.531   1.127   3.601 -0.6565  0.1735  0.0673
 5791SOL     OW29008   0.291   3.616   3.458  0.4622  0.3722  0.4814
 5791SOL    HW129009   0.314   3.688   3.399 -3.7933  0.1024 -1.5341
 5791SOL    HW229010   0.341   3.632   3.538  0.8371 -1.7845  0.6849
 5792SOL     OW29011   4.124   0.416   3.745 -0.0343 -0.5111 -0.0359
 5792SOL    HW129012   4.216   0.398   3.762 -0.0620  0.2915  1.0070
 5792SOL    HW229013   4.116   0.398   3.651 -0.0030 -0.7030 -0.0017
 5793SOL     OW29014   0.679   4.066   6.531 -0.5471  0.4452 -0.1177
 5793SOL    HW129015   0.653   4.008   6.459 -0.4923 -0.3022  0.4678
 5793SOL    HW229016   0.645   4.148   6.497 -0.6399  1.2786  2.0311
 5794SOL     OW29017   1.543   0.457   9.343 -0.2730  0.7418  0.3049
 5794SOL    HW129018   1.529   0.365   9.366  0.5206 -0.0616 -2.4006
 5794SOL    HW229019   1.478   0.500   9.399 -0.4462  1.9822 -0.8557
 5795SOL     OW29020   2.245   4.189   6.364  0.0158 -0.8701  0.2042
 5795SOL    HW129021   2.288   4.148   6.289 -0.0748  1.3612 -1.0497
 5795SOL    HW229022   2.153   4.178   6.339  0.4909 -0.8760 -1.5942
 5796SOL     OW29023   4.308   4.465  17.294 -0.1739 -0.1410  0.4203
 5796SOL    HW129024   4.323   4.544  17.242  1.2269 -1.2947 -0.9094
 5796SOL    HW229025   4.212   4.455  17.292 -0.1285 -0.2994 -0.7744
 5797SOL     OW29026   3.963   3.228   3.883  0.3782  0.1782 -0.1500
 5797SOL    HW129027   3.944   3.224   3.789 -2.4281  0.0715  0.4243
 5797SOL    HW229028   3.888   3.181   3.920 -0.0959 -0.2343 -1.6279
 5798SOL     OW29029   0.872   0.088   5.474 -0.0202 -0.3390  0.0532
 5798SOL    HW129030   0.857   0.027   5.547  0.2915  1.9158  2.0005
 5798SOL    HW229031   0.794   0.074   5.420 -0.1081  1.2885 -0.2404
 5799SOL     OW29032   3.380   2.036   2.164  0.3083  0.0082  0.0373
 5799SOL    HW129033   3.427   1.953   2.160  1.2103  0.5337 -0.2215
 5799SOL    HW229034   3.312   2.023   2.098  0.1268 -0.9157  0.4167
 5800SOL     OW29035   0.932   4.434   2.561 -0.1457 -0.0042 -0.3609
 5800SOL    HW129036   0.856   4.388   2.525  1.1621 -0.9070 -1.9801
 5800SOL    HW229037   0.929   4.408   2.652  2.1791  0.9919  0.0034
 5801SOL     OW29038   0.105   0.349   2.991  0.1459  0.1375  0.0691
 5801SOL    HW129039   0.189   0.386   2.964 -0.6026  0.5268 -1.7181
 5801SOL    HW229040   0.065   0.421   3.040  0.3302 -1.2386  2.2425
 5802SOL     OW29041   0.228   2.580   7.466 -0.3176 -0.5420  0.0813
 5802SOL    HW129042   0.305   2.627   7.498  0.7607 -0.9639 -1.8911
 5802SOL    HW229043   0.183   2.649   7.418 -0.3314 -0.8604 -0.3617
 5803SOL     OW29044   3.347   0.703  14.863 -0.0947 -0.3560  0.2311
 5803SOL    HW129045   3.306   0.768  14.806  0.1288  0.2934  0.8125
 5803SOL    HW229046   3.272   0.666  14.908  0.2108 -2.3282 -0.8901
 5804SOL     OW29047   0.316   0.239   4.964 -0.3474  0.7335  0.1766
 5804SOL    HW129048   0.396   0.189   4.946  0.5994  2.4697 -0.4759
 5804SOL    HW229049   0.351   0.292   5.036 -1.2108  0.4422  0.7986
 5805SOL     OW29050   0.404   1.393   5.277 -0.4183 -0.4153  0.8604
 5805SOL    HW129051   0.446   1.389   5.191 -2.2354 -1.3193  0.0016
 5805SOL    HW229052   0.369   1.306   5.296  0.2720 -0.8681  0.0289
 5806SOL     OW29053   2.818   0.397  15.424 -0.3676  0.4949  0.1793
 5806SOL    HW129054   2.877   0.453  15.373 -0.4926  2.5188  2.2746
 5806SOL    HW229055   2.761   0.361  15.356  1.8052 -0.7687 -0.9728
 5807SOL     OW29056   3.979   3.147  17.424  0.3697  0.0966  0.0686
 5807SOL    HW129057   4.037   3.174  17.495 -0.0054 -0.3336  0.5416
 5807SOL    HW229058   4.022   3.066  17.397  1.5105  0.5701  0.4830
 5808SOL     OW29059   3.775   3.412  10.038 -0.0153  0.3810 -0.3042
 5808SOL    HW129060   3.827   3.395  10.116  0.6515 -1.1992 -1.0881
 5808SOL    HW229061   3.826   3.484  10.001  2.9825 -1.0723  0.9874
 5809SOL     OW29062   2.289   2.958   4.699  0.4274  0.5624 -0.5294
 5809SOL    HW129063   2.233   2.917   4.633  0.3851  1.3735 -0.9890
 5809SOL    HW229064   2.367   2.911   4.670  0.4977  0.6607 -0.5010
 5810SOL     OW29065   1.477   1.506   3.267 -0.2140  0.2867 -0.3758
 5810SOL    HW129066   1.443   1.587   3.230 -0.8335  0.1589 -0.0858
 5810SOL    HW229067   1.417   1.469   3.332  1.0877  0.9577  1.1962
 5811SOL     OW29068   4.467   3.859   3.940  0.6463  0.6237  0.0775
 5811SOL    HW129069   4.464   3.866   4.036  0.5157  0.9208  0.0482
 5811SOL    HW229070   4.556   3.830   3.917 -0.8238 -3.5191 -0.3682
 5812SOL     OW29071   3.959   4.170   8.225 -0.8037 -0.2341  0.0542
 5812SOL    HW129072   3.948   4.162   8.130 -0.8548  1.0062 -0.0329
 5812SOL    HW229073   3.876   4.203   8.259 -0.3802  1.5182 -0.6510
 5813SOL     OW29074   0.983   0.763   5.584  0.2447  0.0530  0.0762
 5813SOL    HW129075   1.023   0.706   5.649 -1.3337 -0.8304  0.2745
 5813SOL    HW229076   0.898   0.768   5.628 -0.4569  1.4226 -1.4168
 5814SOL     OW29077   1.016   3.885  10.297  0.1142  0.2733  0.1866
 5814SOL    HW129078   1.026   3.927  10.212  0.0823 -0.8474 -0.3816
 5814SOL    HW229079   1.100   3.840  10.310  0.9516  1.5890 -0.7528
 5815SOL     OW29080   2.305   4.076  15.027 -0.4227  0.2736 -0.1082
 5815SOL    HW129081   2.387   4.082  14.978 -0.4748  2.4517  0.0655
 5815SOL    HW229082   2.297   4.170  15.046 -2.4934 -0.1437  1.1594
 5816SOL     OW29083   1.484   4.075   7.320  0.8456 -0.0829  0.1862
 5816SOL    HW129084   1.432   4.154   7.303  3.2785  1.3330 -0.7804
 5816SOL    HW229085   1.428   4.003   7.293  2.4898 -2.5613  3.3372
 5817SOL     OW29086   4.714   0.508  16.179 -0.0051 -0.3069 -0.1087
 5817SOL    HW129087   4.680   0.459  16.104  1.5871  0.7098 -1.4803
 5817SOL    HW229088   4.661   0.587  16.170  0.2507 -0.0641  0.4757
 5818SOL     OW29089   0.627   0.310  11.615 -0.3676  0.0489  0.3975
 5818SOL    HW129090   0.557   0.275  11.560  1.4224 -1.4276 -0.9180
 5818SOL    HW229091   0.576   0.315  11.696 -1.7327  1.4392 -0.5320
 5819SOL     OW29092   1.317   0.523   6.580 -0.1644  0.4560  0.0135
 5819SOL    HW129093   1.239   0.520   6.525  0.5026  1.0027 -0.9822
 5819SOL    HW229094   1.277   0.544   6.664 -0.8229 -2.6291  0.4379
 5820SOL     OW29095   3.935   2.839   9.570  0.6430  0.1860 -0.0104
 5820SOL    HW129096   3.900   2.846   9.658 -0.4193  0.9103 -0.4873
 5820SOL    HW229097   3.899   2.754   9.545 -0.2600  1.0277 -1.5691
 5821SOL     OW29098   1.671   0.286   4.020 -0.5167  0.1979 -0.0115
 5821SOL    HW129099   1.612   0.357   4.043 -1.3876 -0.2640 -0.8197
 5821SOL    HW229100   1.702   0.254   4.104  1.9213 -0.1239 -1.0310
 5822SOL     OW29101   3.532   4.520  16.971 -0.1166 -0.1385  0.7017
 5822SOL    HW129102   3.447   4.476  16.970 -1.2790  2.1253  0.8487
 5822SOL    HW229103   3.515   4.587  17.037  1.3851 -0.5110  1.4797
 5823SOL     OW29104   4.375   0.949   1.491  0.8527  0.5347 -0.3982
 5823SOL    HW129105   4.406   1.018   1.432 -1.0148  0.5912 -1.3032
 5823SOL    HW229106   4.454   0.895   1.496 -0.1272 -0.8063  0.4981
 5824SOL     OW29107   0.435   0.097  17.588 -0.3488  0.2689 -0.1956
 5824SOL    HW129108   0.517   0.048  17.591 -0.2015  0.6989  2.2518
 5824SOL    HW229109   0.471   0.186  17.588  0.9727 -0.2411 -2.5559
 5825SOL     OW29110   1.450   1.710   3.782  0.2583  0.1766 -0.4030
 5825SOL    HW129111   1.355   1.698   3.791  0.1259  1.5688 -0.0337
 5825SOL    HW229112   1.495   1.628   3.803  0.5341  0.3732 -0.2306
 5826SOL     OW29113   2.575   0.117   8.605  0.4658 -0.0596  0.3869
 5826SOL    HW129114   2.597   0.085   8.517 -0.4596 -0.6725  0.3756
 5826SOL    HW229115   2.497   0.169   8.591  1.3179  0.5574 -2.0909
 5827SOL     OW29116   0.622   0.493   7.573  0.1987 -0.4860 -0.2096
 5827SOL    HW129117   0.594   0.512   7.663 -0.0619 -2.8490  0.2056
 5827SOL    HW229118   0.546   0.443   7.542  1.1538 -1.4546 -0.9784
 5828SOL     OW29119   2.684   4.436   7.529  0.1021  0.4381 -0.4632
 5828SOL    HW129120   2.736   4.504   7.574  0.7623 -1.7029  2.0216
 5828SOL    HW229121   2.652   4.486   7.454  0.0768 -0.6761 -1.1857
 5829SOL     OW29122   3.450   0.005   5.371  0.2964  0.4084 -0.3495
 5829SOL    HW129123   3.532   0.050   5.391  1.1708 -1.6861  0.7121
 5829SOL    HW229124   3.418   0.074   5.313  0.5870  2.8260  2.3661
 5830SOL     OW29125   3.844   1.269  10.413 -0.7354  0.0133  0.8657
 5830SOL    HW129126   3.869   1.211  10.485  1.2227  0.8907  0.9061
 5830SOL    HW229127   3.908   1.241  10.347 -1.8830  0.1890 -0.3304
 5831SOL     OW29128   2.646   3.943   9.553  0.5575  0.0623 -0.2883
 5831SOL    HW129129   2.737   3.919   9.536  0.3880 -2.7948  2.8055
 5831SOL    HW229130   2.614   3.967   9.466 -2.1074 -3.2863 -0.2483
 5832SOL     OW29131   4.157   0.400   4.513 -0.6849 -0.0099  0.4582
 5832SOL    HW129132   4.136   0.318   4.557 -0.0275 -1.1353 -1.3154
 5832SOL    HW229133   4.253   0.402   4.519 -0.6030 -0.5615 -0.5813
 5833SOL     OW29134   1.976   4.562   2.212  0.0831 -0.5659 -0.9626
 5833SOL    HW129135   2.071   4.550   2.221  0.0434 -1.6833 -2.0242
 5833SOL    HW229136   1.948   4.475   2.241 -0.6524  0.2728  0.8385
 5834SOL     OW29137   1.414   4.639   7.569  0.1820 -0.7480  0.2909
 5834SOL    HW129138   1.442   4.622   7.659 -1.2213  0.8111  1.0228
 5834SOL    HW229139   1.414   4.552   7.529  1.3808 -0.4426 -0.3959
 5835SOL     OW29140   3.198   1.899   4.261 -0.2374 -0.0424  0.0843
 5835SOL    HW129141   3.130   1.936   4.205  0.2387  1.4838  0.5292
 5835SOL    HW229142   3.143   1.850   4.322  1.1436  0.7535  1.9789
 5836SOL     OW29143   2.815   1.937   8.957 -0.1285  0.1724 -0.5185
 5836SOL    HW129144   2.779   1.934   9.045 -1.6939 -2.3544 -1.2245
 5836SOL    HW229145   2.738   1.974   8.913  0.2598  2.0660  0.4294
 5837SOL     OW29146   1.635   1.250   0.710  0.0519 -0.3641 -0.1993
 5837SOL    HW129147   1.718   1.279   0.671 -0.0208 -1.1465 -0.9281
 5837SOL    HW229148   1.589   1.334   0.720  0.1155 -0.4783  1.0981
 5838SOL     OW29149   0.617   3.074   6.887  0.0731  0.1904 -0.1935
 5838SOL    HW129150   0.530   3.113   6.875  0.2464 -0.1536 -2.5252
 5838SOL    HW229151   0.664   3.139   6.939  0.4465  1.2596 -1.8553
 5839SOL     OW29152   1.870   4.410   3.947 -0.9905  0.3060  0.1514
 5839SOL    HW129153   1.846   4.372   4.032 -1.1334 -0.0593 -0.0483
 5839SOL    HW229154   1.964   4.427   3.952 -0.5575 -2.4968  1.8079
 5840SOL     OW29155   4.620   1.836   2.178 -0.0628 -0.9419 -0.1371
 5840SOL    HW129156   4.672   1.852   2.257 -0.2455  0.9619 -0.3958
 5840SOL    HW229157   4.681   1.817   2.107  1.7450  0.7152  0.9777
 5841SOL     OW29158   3.499   2.690   5.974  0.1716  0.0651  0.0635
 5841SOL    HW129159   3.542   2.620   5.925  2.4681  0.0761  2.0773
 5841SOL    HW229160   3.559   2.700   6.047 -1.0815 -0.6003  1.1783
 5842SOL     OW29161   2.798   4.114   6.563 -0.2636  0.3747  0.3392
 5842SOL    HW129162   2.831   4.035   6.520 -1.5757  0.2960 -0.5429
 5842SOL    HW229163   2.861   4.129   6.634 -1.1891  0.5528  1.1284
 5843SOL     OW29164   0.458   3.144   3.200  0.0582 -0.2520  0.2731
 5843SOL    HW129165   0.449   3.226   3.249 -0.2014  0.7568 -1.4518
 5843SOL    HW229166   0.552   3.132   3.214  0.3829 -0.2807 -2.0430
 5844SOL     OW29167   3.132   3.331   3.230  0.7616 -0.3567  0.3108
 5844SOL    HW129168   3.138   3.257   3.169 -2.1747  0.9775 -1.6039
 5844SOL    HW229169   3.222   3.362   3.225  0.2729  0.9915 -0.4905
 5845SOL     OW29170   2.979   2.576   6.138  0.0780  0.0427 -0.1862
 5845SOL    HW129171   2.908   2.597   6.077  1.4733 -1.3226 -2.2773
 5845SOL    HW229172   3.056   2.600   6.086  0.3831  0.1252  0.3085
 5846SOL     OW29173   3.024   4.175   2.584  0.3555 -0.8796 -0.4149
 5846SOL    HW129174   2.951   4.235   2.567  2.2660  1.0646 -1.8034
 5846SOL    HW229175   2.995   4.138   2.667 -0.9003 -1.0228 -0.9161
 5847SOL     OW29176   4.051   0.473   5.958 -0.7935  0.5522  0.1885
 5847SOL    HW129177   4.048   0.523   5.876 -1.7313 -4.1929 -2.6660
 5847SOL    HW229178   4.108   0.525   6.015  0.2196  1.9883 -2.1085
 5848SOL     OW29179   2.010   3.692  13.795  0.6489 -0.3678  0.0221
 5848SOL    HW129180   1.940   3.736  13.747 -0.3413  0.6788  2.4208
 5848SOL    HW229181   2.079   3.715  13.733 -0.6482  0.0170 -1.2774
 5849SOL     OW29182   0.724   0.241   1.612  0.0750  0.0359  0.2787
 5849SOL    HW129183   0.769   0.227   1.529 -0.5057  2.1900 -0.4114
 5849SOL    HW229184   0.711   0.151   1.642 -1.2467 -0.0676 -0.6132
 5850SOL     OW29185   3.471   3.427  11.556 -0.1769  0.4828  0.2155
 5850SOL    HW129186   3.487   3.406  11.648  0.0960 -1.7607 -0.3516
 5850SOL    HW229187   3.517   3.511  11.556 -0.1971  0.4989 -0.5796
 5851SOL     OW29188   4.327   3.722   8.300  0.6039  0.6414  0.3236
 5851SOL    HW129189   4.255   3.723   8.363  0.0283  2.2071 -0.3623
 5851SOL    HW229190   4.398   3.704   8.362 -0.3671 -0.0563  1.2241
 5852SOL     OW29191   0.513   1.027   7.005  0.4408  0.2604  0.4386
 5852SOL    HW129192   0.465   0.947   6.989  0.0757  1.0447 -2.3642
 5852SOL    HW229193   0.563   1.004   7.084  1.2493  1.6144  0.3342
 5853SOL     OW29194   3.857   4.015   5.100  0.1836 -0.3756 -0.3130
 5853SOL    HW129195   3.937   4.068   5.097 -0.2293  0.1005 -3.3936
 5853SOL    HW229196   3.823   4.053   5.181 -0.0705 -1.5932  0.1403
 5854SOL     OW29197   2.320   1.010  12.485 -0.0207 -0.2264 -0.1260
 5854SOL    HW129198   2.329   0.916  12.500  0.4552 -0.2843 -0.7752
 5854SOL    HW229199   2.410   1.026  12.456  0.6456 -0.5034  1.7838
 5855SOL     OW29200   2.584   4.479  14.984 -0.7997  0.3932  0.3059
 5855SOL    HW129201   2.526   4.465  14.909  0.3415 -0.8772 -0.3418
 5855SOL    HW229202   2.642   4.403  14.978 -0.7507  0.3379  1.4307
 5856SOL     OW29203   3.481   1.632  11.082  0.8703 -0.2315 -0.3600
 5856SOL    HW129204   3.485   1.705  11.144  0.5352 -0.4530 -0.0765
 5856SOL    HW229205   3.566   1.590  11.087  0.7298 -0.0078  3.5787
 5857SOL     OW29206   4.557   4.193   5.882 -0.0733 -0.0754  0.2663
 5857SOL    HW129207   4.636   4.185   5.936 -0.8257 -0.0021  1.3649
 5857SOL    HW229208   4.573   4.131   5.811  3.3092 -1.2864  2.0994
 5858SOL     OW29209   0.550   2.212   6.644  0.7702 -0.0596 -0.3867
 5858SOL    HW129210   0.485   2.283   6.636  1.0402  0.1278 -0.9101
 5858SOL    HW229211   0.598   2.215   6.561 -0.3250 -1.0498 -1.0567
 5859SOL     OW29212   0.905   1.945  15.602  0.3533 -0.3584  0.2775
 5859SOL    HW129213   0.813   1.963  15.587  1.3049  3.6264 -0.7312
 5859SOL    HW229214   0.891   1.859  15.642  1.5731 -0.3698  0.6955
 5860SOL     OW29215   1.385   1.782   6.523 -0.4508 -0.2682 -0.1690
 5860SOL    HW129216   1.393   1.828   6.440 -0.2143  0.0651  0.0396
 5860SOL    HW229217   1.299   1.740   6.516  0.7347 -2.5649 -1.0316
 5861SOL     OW29218   0.793   4.117   2.121  0.0551  0.0998 -0.2970
 5861SOL    HW129219   0.836   4.032   2.131  0.7270  0.6418  1.4648
 5861SOL    HW229220   0.856   4.173   2.077 -0.4954 -0.6539 -2.0682
 5862SOL     OW29221   2.577   1.517   3.775  0.6213  0.1802  0.7008
 5862SOL    HW129222   2.557   1.539   3.684  1.0716 -0.2169  0.5031
 5862SOL    HW229223   2.563   1.601   3.817 -2.0005 -0.1889  0.5610
 5863SOL     OW29224   3.744   1.585   8.752 -0.1183  0.2924 -1.0853
 5863SOL    HW129225   3.821   1.533   8.728  0.9800  1.0730  0.6984
 5863SOL    HW229226   3.758   1.602   8.845 -2.8227  0.0450 -0.6328
 5864SOL     OW29227   0.779   3.393   9.622  0.7010  0.4834  0.1952
 5864SOL    HW129228   0.751   3.336   9.694  0.6762  0.6186  0.2921
 5864SOL    HW229229   0.706   3.379   9.561  0.5372  2.8111 -0.1439
 5865SOL     OW29230   2.453   3.205   3.865  0.8639  0.1913 -0.0594
 5865SOL    HW129231   2.549   3.211   3.861  0.9818 -1.9522 -0.7743
 5865SOL    HW229232   2.433   3.249   3.782 -0.4270 -0.8106 -0.2737
 5866SOL     OW29233   1.476   3.435   9.107 -0.3807  0.1675  0.3719
 5866SOL    HW129234   1.553   3.431   9.050 -0.0533  1.5887  0.7238
 5866SOL    HW229235   1.511   3.479   9.185 -1.0374  0.6367  0.4025
 5867SOL     OW29236   2.484   0.084  14.764  0.8244  0.1315 -0.2091
 5867SOL    HW129237   2.503   0.155  14.702 -0.7116  0.3456 -0.4372
 5867SOL    HW229238   2.406   0.044  14.726 -0.0233  1.1401  0.4530
 5868SOL     OW29239   2.869   0.915   4.786 -0.7086 -0.2218  0.0010
 5868SOL    HW129240   2.814   0.988   4.816 -0.6967 -0.0394 -0.4245
 5868SOL    HW229241   2.808   0.841   4.782 -0.3923 -0.4693 -0.2802
 5869SOL     OW29242   0.328   0.197  16.056 -0.1335  0.0244  0.4146
 5869SOL    HW129243   0.280   0.136  16.000 -0.8388  1.5372 -0.6331
 5869SOL    HW229244   0.272   0.212  16.132  0.0052  0.2270  0.4776
 5870SOL     OW29245   3.200   3.735   7.033  0.9552  0.1465 -0.6802
 5870SOL    HW129246   3.246   3.795   7.091  0.1140  0.0111  0.1198
 5870SOL    HW229247   3.151   3.686   7.099  0.0173  2.1149  0.0730
 5871SOL     OW29248   2.740   0.532   2.231  0.5100 -0.8946  0.2765
 5871SOL    HW129249   2.823   0.547   2.186  1.1485 -1.6410  1.2183
 5871SOL    HW229250   2.686   0.599   2.188  1.8754 -1.9001 -2.9961
 5872SOL     OW29251   3.105   2.597   2.152 -0.1654 -0.0847 -0.2668
 5872SOL    HW129252   3.184   2.601   2.097  0.8580 -1.9262  1.0695
 5872SOL    HW229253   3.097   2.502   2.165 -0.8099 -0.0284 -0.2602
 5873SOL     OW29254   1.054   1.964  11.976  0.3857 -0.4914  0.3762
 5873SOL    HW129255   1.028   2.054  11.955 -0.9936 -0.7199  1.0575
 5873SOL    HW229256   1.007   1.949  12.059 -3.5262 -0.1110 -1.7478
 5874SOL     OW29257   2.895   4.137   6.819  0.4203  0.0375 -0.3730
 5874SOL    HW129258   2.954   4.087   6.876  0.3964  0.6022  0.1440
 5874SOL    HW229259   2.840   4.064   6.792  1.4440 -0.6490 -0.5912
 5875SOL     OW29260   4.309   1.933   5.913  0.2480  0.0187 -0.0679
 5875SOL    HW129261   4.332   1.905   6.001  0.1911 -1.9068 -0.6506
 5875SOL    HW229262   4.369   2.007   5.907 -0.4783  0.7986  2.3664
 5876SOL     OW29263   2.136   4.587   1.464 -0.2804  0.8981 -0.0101
 5876SOL    HW129264   2.097   4.626   1.387 -0.5054 -0.1438 -0.4282
 5876SOL    HW229265   2.062   4.552   1.514 -0.8175 -0.3317 -1.6554
 5877SOL     OW29266   3.217   1.789   5.459  0.4643 -0.0041 -0.2426
 5877SOL    HW129267   3.194   1.882   5.458  2.5470  0.5048 -0.8688
 5877SOL    HW229268   3.138   1.744   5.486  0.9923 -0.4519  0.5734
 5878SOL     OW29269   4.574   0.661   6.922  0.0523  0.2355 -0.1980
 5878SOL    HW129270   4.498   0.668   6.980  0.2042 -0.5746  0.0893
 5878SOL    HW229271   4.578   0.752   6.892 -2.0596  0.5442  0.4240
 5879SOL     OW29272   0.944   2.967   5.322  0.3234  0.1816 -0.1774
 5879SOL    HW129273   1.002   2.988   5.249  0.4679 -2.6302 -0.8646
 5879SOL    HW229274   0.947   3.037   5.387 -2.1073  0.1371  0.0007
 5880SOL     OW29275   0.303   3.266  16.164 -0.3494 -0.7429  0.1838
 5880SOL    HW129276   0.291   3.326  16.090  1.1398  0.4211  0.8903
 5880SOL    HW229277   0.356   3.198  16.122 -0.0713  1.5934 -3.3262
 5881SOL     OW29278   1.830   2.021   5.415 -1.0524  0.2712 -0.0304
 5881SOL    HW129279   1.860   1.960   5.483 -2.4623  0.8625  1.1274
 5881SOL    HW229280   1.828   1.963   5.339  1.1018 -0.8034  0.7415
 5882SOL     OW29281   4.579   4.510   7.697 -0.1143  0.3928 -0.2327
 5882SOL    HW129282   4.513   4.457   7.652  1.5069 -1.9189  0.1180
 5882SOL    HW229283   4.588   4.468   7.782 -0.4476  2.7853  0.9925
 5883SOL     OW29284   2.795   0.797   5.198 -0.4475 -0.3566  0.5148
 5883SOL    HW129285   2.886   0.821   5.214 -0.7603 -0.0883  1.9376
 5883SOL    HW229286   2.757   0.885   5.208 -0.7313 -0.3865 -0.2616
 5884SOL     OW29287   0.196   1.161   3.245 -0.1467 -0.0102 -0.0355
 5884SOL    HW129288   0.258   1.234   3.232 -0.0897  0.2105  1.4801
 5884SOL    HW229289   0.113   1.206   3.231 -0.9730 -1.6053 -0.1704
 5885SOL     OW29290   0.402   0.570  11.516 -0.3479  0.3370  0.2077
 5885SOL    HW129291   0.483   0.568  11.465  0.7064  0.4643  1.9041
 5885SOL    HW229292   0.377   0.662  11.520  0.1821  0.4912  0.0005
 5886SOL     OW29293   3.123   1.302   9.002 -0.5620  0.1224 -0.7399
 5886SOL    HW129294   3.036   1.303   8.962 -0.5937  0.4882 -0.6665
 5886SOL    HW229295   3.120   1.390   9.039  2.1569 -0.4333  0.7581
 5887SOL     OW29296   0.728   3.214   7.425 -0.0799 -0.2393  0.1309
 5887SOL    HW129297   0.745   3.277   7.356 -1.7029  2.2167  1.9906
 5887SOL    HW229298   0.706   3.135   7.375  0.2570 -1.6426  2.1674
 5888SOL     OW29299   3.973   3.915   3.875  0.1173  0.1843  0.2825
 5888SOL    HW129300   3.962   3.963   3.793 -0.6660  1.4302  1.1110
 5888SOL    HW229301   4.059   3.882   3.851 -0.9111 -1.4643 -1.1101
 5889SOL     OW29302   1.981   4.560   8.114 -0.4692  0.3506  0.2953
 5889SOL    HW129303   1.931   4.498   8.168 -2.7428  2.4881  0.6598
 5889SOL    HW229304   1.987   4.632   8.177 -0.4297  1.8009 -1.3405
 5890SOL     OW29305   2.565   2.852   7.631  0.4183 -0.2048 -0.4758
 5890SOL    HW129306   2.628   2.793   7.672 -0.0740 -0.9824 -0.8460
 5890SOL    HW229307   2.483   2.844   7.679 -0.2587  0.7468 -1.4727
 5891SOL     OW29308   0.590   1.085   7.626  0.6114  0.0329 -0.6472
 5891SOL    HW129309   0.568   1.072   7.534 -2.7938  0.1337  0.1519
 5891SOL    HW229310   0.611   1.179   7.626 -1.7129  0.5610  0.7789
 5892SOL     OW29311   1.303   3.516   6.041 -0.8321 -0.8603 -0.5073
 5892SOL    HW129312   1.272   3.600   6.007  0.8764  0.4742  1.1922
 5892SOL    HW229313   1.380   3.545   6.092  1.4343 -3.7434 -2.2889
 5893SOL     OW29314   3.791   2.409   7.205  0.3796  0.3171 -0.2944
 5893SOL    HW129315   3.823   2.366   7.125  2.0418  0.7270  0.1464
 5893SOL    HW229316   3.735   2.340   7.241 -0.1095 -0.3413 -2.2558
 5894SOL     OW29317   0.553   4.600   4.505  0.1582  0.0343  0.2410
 5894SOL    HW129318   0.520   4.683   4.540  1.5966  0.1102  1.4246
 5894SOL    HW229319   0.648   4.608   4.507  0.1731  0.2853 -1.7204
 5895SOL     OW29320   0.395   3.485   6.430 -0.4093  0.6032  0.2748
 5895SOL    HW129321   0.353   3.418   6.376  2.7677 -0.0484 -1.4095
 5895SOL    HW229322   0.327   3.552   6.426  2.4652  3.4114 -2.2814
 5896SOL     OW29323   2.866   4.074   5.061 -0.3844  0.1589 -0.0077
 5896SOL    HW129324   2.951   4.033   5.075 -1.5661 -2.1409  0.3602
 5896SOL    HW229325   2.869   4.156   5.111 -2.6983 -0.6526  1.4403
 5897SOL     OW29326   4.365   1.560   0.504  0.4552 -0.0943 -0.2567
 5897SOL    HW129327   4.351   1.482   0.557  2.1539  0.2122  0.6678
 5897SOL    HW229328   4.323   1.536   0.421 -0.4005  2.2240 -0.4859
 5898SOL     OW29329   2.373   1.791  15.722 -0.1027  0.5943  0.3927
 5898SOL    HW129330   2.302   1.832  15.673 -0.0307 -0.5552 -0.6622
 5898SOL    HW229331   2.372   1.837  15.806  1.8832  1.7838 -0.2227
 5899SOL     OW29332   1.033   4.036  10.032 -0.8028  0.0632  0.0486
 5899SOL    HW129333   1.021   4.115  10.084  2.0782 -0.3774  1.3578
 5899SOL    HW229334   1.128   4.030  10.031 -0.7663  0.5804  0.8130
 5900SOL     OW29335   3.925   1.122  13.454 -0.3927  0.1859 -0.4323
 5900SOL    HW129336   3.838   1.151  13.483 -0.6012 -2.0113  1.1813
 5900SOL    HW229337   3.978   1.107  13.532 -0.0153  1.1501 -0.5073
 5901SOL     OW29338   1.838   4.487   9.109  0.0058  0.1399 -0.2409
 5901SOL    HW129339   1.877   4.573   9.094 -0.5882  0.6839  1.3417
 5901SOL    HW229340   1.845   4.473   9.203 -0.3670 -0.2813 -0.2743
 5902SOL     OW29341   0.250   3.701   8.890 -0.0483 -0.6306 -0.1666
 5902SOL    HW129342   0.271   3.713   8.797  0.9738  1.2950  0.3000
 5902SOL    HW229343   0.165   3.658   8.884 -0.6035  0.0452  2.7825
 5903SOL     OW29344   3.816   0.822   4.569  0.1578  0.2325 -0.3846
 5903SOL    HW129345   3.857   0.744   4.605  0.2218  1.2301  1.7323
 5903SOL    HW229346   3.794   0.780   4.486 -0.0843  0.5742 -0.4975
 5904SOL     OW29347   3.843   0.566   6.174 -0.6691  0.0299 -0.1271
 5904SOL    HW129348   3.796   0.642   6.138  0.8365  0.6636 -0.7513
 5904SOL    HW229349   3.840   0.515   6.093 -2.0099  0.8451 -0.5944
 5905SOL     OW29350   3.412   4.328   7.310  0.5246 -0.1597 -0.2320
 5905SOL    HW129351   3.395   4.418   7.337 -0.8849 -1.3339  2.7122
 5905SOL    HW229352   3.392   4.339   7.217  2.1262  0.2015 -0.5250
 5906SOL     OW29353   0.235   3.284   8.226  0.0317 -0.6901 -0.1164
 5906SOL    HW129354   0.181   3.362   8.211 -0.0959 -0.6200  0.7010
 5906SOL    HW229355   0.188   3.202   8.209 -0.7854 -0.2205 -0.1435
 5907SOL     OW29356   3.486   3.640  14.111  0.3586 -0.2925  0.1179
 5907SOL    HW129357   3.543   3.703  14.067  0.2339 -0.2109  0.0751
 5907SOL    HW229358   3.487   3.676  14.199  1.0178 -0.1167  0.0391
 5908SOL     OW29359   3.878   4.275   1.799 -0.1963 -0.6981 -0.0919
 5908SOL    HW129360   3.808   4.285   1.735  2.1766 -1.6573 -2.8346
 5908SOL    HW229361   3.929   4.349   1.765 -1.5687 -0.0357 -0.7096
 5909SOL     OW29362   3.692   2.879   6.346 -0.7389 -0.1021 -0.3197
 5909SOL    HW129363   3.712   2.973   6.344 -3.2201  0.4903  3.0906
 5909SOL    HW229364   3.760   2.861   6.281 -0.1992 -0.4474  0.3428
 5910SOL     OW29365   0.670   3.732   8.766 -0.3019 -0.4700 -0.0974
 5910SOL    HW129366   0.699   3.751   8.677  0.7951 -0.6959  0.2089
 5910SOL    HW229367   0.755   3.736   8.809 -0.3401  1.0414 -0.1527
 5911SOL     OW29368   0.919   0.084   1.884  0.5605  0.2745 -0.2063
 5911SOL    HW129369   0.998   0.086   1.830  2.3335  0.9496  2.4132
 5911SOL    HW229370   0.880   0.005   1.847 -1.3320  0.4810  1.3314
 5912SOL     OW29371   2.175   0.188   7.335  0.1967 -0.1638 -0.3621
 5912SOL    HW129372   2.123   0.259   7.373 -1.1780 -0.6617 -1.3335
 5912SOL    HW229373   2.185   0.144   7.419 -0.1273  1.0178  0.2967
 5913SOL     OW29374   1.100   0.486   1.489  0.6114  0.6346  0.6327
 5913SOL    HW129375   1.039   0.560   1.485  1.2313  1.1303  0.3041
 5913SOL    HW229376   1.072   0.439   1.568  2.4348  0.5581  1.2320
 5914SOL     OW29377   2.581   3.575  15.987 -0.0433  0.3048  0.5219
 5914SOL    HW129378   2.486   3.576  15.979  0.2285  1.5820 -2.4246
 5914SOL    HW229379   2.585   3.521  16.066  0.7839  0.6004  0.6862
 5915SOL     OW29380   1.928   0.242  14.874 -0.3282 -0.0086 -0.1505
 5915SOL    HW129381   1.999   0.223  14.813 -1.3749 -2.0630 -0.7238
 5915SOL    HW229382   1.855   0.217  14.817 -0.9099 -1.4903  1.2588
 5916SOL     OW29383   3.019   4.622  11.948  0.0969  0.5258 -0.4192
 5916SOL    HW129384   3.056   4.688  12.006 -2.5531  0.2732  1.5496
 5916SOL    HW229385   3.099   4.582  11.914 -1.2083 -0.8700 -1.8541
 5917SOL     OW29386   4.626   4.271   3.618 -0.5752  0.6021 -0.1499
 5917SOL    HW129387   4.696   4.235   3.673 -0.7032  0.2517 -0.2198
 5917SOL    HW229388   4.663   4.353   3.584  0.3960  0.5452  0.7800
 5918SOL     OW29389   4.653   0.438   5.288 -0.0660  0.1076 -0.2334
 5918SOL    HW129390   4.652   0.412   5.380 -1.7657 -0.0111 -0.2872
 5918SOL    HW229391   4.717   0.509   5.292  0.5499 -0.4121 -0.9518
 5919SOL     OW29392   0.350   4.514   0.740  0.0516 -0.8097  0.0754
 5919SOL    HW129393   0.379   4.452   0.673 -0.8165 -0.7674 -0.3423
 5919SOL    HW229394   0.383   4.602   0.723 -0.5088 -0.9635 -1.7855
 5920SOL     OW29395   3.409   4.264  11.652 -0.2714  0.5140  0.3457
 5920SOL    HW129396   3.317   4.283  11.634  0.0614  1.7065 -0.0704
 5920SOL    HW229397   3.406   4.271  11.747  1.4473  1.3071  0.3449
 5921SOL     OW29398   1.870   0.885   1.648 -0.2028  0.1394  0.0620
 5921SOL    HW129399   1.885   0.864   1.556 -0.9232  2.5238 -0.5912
 5921SOL    HW229400   1.958   0.905   1.680 -0.2512 -2.4007  1.7534
 5922SOL     OW29401   3.276   0.891  13.532 -0.3868 -0.2319  0.2716
 5922SOL    HW129402   3.269   0.855  13.444 -2.0574 -2.5563  1.3703
 5922SOL    HW229403   3.264   0.810  13.581 -2.1387 -0.2963 -0.2901
 5923SOL     OW29404   2.178   4.042  16.840 -0.3244 -0.5490 -0.9001
 5923SOL    HW129405   2.122   4.109  16.878 -0.5652 -1.4346  0.3068
 5923SOL    HW229406   2.182   3.976  16.910  0.2704  0.8638  0.4089
 5924SOL     OW29407   4.359   4.487   4.580  0.1369 -0.7510 -0.0906
 5924SOL    HW129408   4.449   4.475   4.609 -0.1605 -0.7588  0.8246
 5924SOL    HW229409   4.312   4.410   4.611 -1.0184  0.5988  1.5081
 5925SOL     OW29410   4.380   2.785   7.222  0.2082  0.4961 -0.3028
 5925SOL    HW129411   4.346   2.696   7.230 -1.9844  1.4951  1.3079
 5925SOL    HW229412   4.298   2.817   7.186  0.5709  1.3419 -0.3678
 5926SOL     OW29413   0.368   2.216   4.312  0.3820 -0.0713 -0.1593
 5926SOL    HW129414   0.275   2.237   4.309  1.0159  2.6923 -1.0443
 5926SOL    HW229415   0.366   2.159   4.389  0.8603  2.2025  1.5400
 5927SOL     OW29416   3.331   2.494  16.343 -0.0323 -0.4833  0.4723
 5927SOL    HW129417   3.242   2.511  16.313  0.4694  0.3278 -0.5571
 5927SOL    HW229418   3.369   2.581  16.358 -2.7626  0.5991  1.1104
 5928SOL     OW29419   2.851   1.848  14.091  0.1482  0.1223  0.3905
 5928SOL    HW129420   2.785   1.797  14.138 -0.4752  1.3416  0.8299
 5928SOL    HW229421   2.893   1.902  14.157 -1.5071  0.4255  1.1815
 5929SOL     OW29422   2.566   2.596   8.291 -0.9697  0.5042  0.0846
 5929SOL    HW129423   2.547   2.543   8.214  1.8701 -1.4546  0.7436
 5929SOL    HW229424   2.657   2.606   8.264 -1.3213  1.5325 -0.7182
 5930SOL     OW29425   3.488   2.507   7.536 -0.2790  0.5108  0.5439
 5930SOL    HW129426   3.471   2.421   7.576  1.3007  0.3382  0.8641
 5930SOL    HW229427   3.568   2.489   7.487 -0.9441  1.0435 -0.7180
 5931SOL     OW29428   0.088   3.954  14.030 -0.6107  0.2599 -0.2313
 5931SOL    HW129429   0.090   4.039  14.075 -0.7573 -0.3687  0.9837
 5931SOL    HW229430   0.028   3.976  13.959 -1.1947  2.8841  1.0445
 5932SOL     OW29431   0.136   3.880  16.633 -0.1363  0.2688  0.4923
 5932SOL    HW129432   0.152   3.912  16.544  0.0454  0.8176  0.7251
 5932SOL    HW229433   0.151   3.785  16.633  3.0530  0.7626  0.2163
 5933SOL     OW29434   0.951   0.100   6.865  0.0952  0.2894  0.2302
 5933SOL    HW129435   1.045   0.089   6.881  0.1665  0.5059 -0.0511
 5933SOL    HW229436   0.939   0.186   6.905  0.7548  0.5259 -0.0686
 5934SOL     OW29437   3.130   3.718   5.269 -0.2721  0.1963 -0.4160
 5934SOL    HW129438   3.206   3.723   5.211 -0.6289 -1.7476 -1.0692
 5934SOL    HW229439   3.058   3.710   5.206 -0.3218 -1.7433 -0.1086
 5935SOL     OW29440   3.924   1.745   1.632 -0.5825  0.0464 -0.1832
 5935SOL    HW129441   3.832   1.766   1.645 -0.2361  2.3766 -1.3977
 5935SOL    HW229442   3.961   1.825   1.670 -2.1274  0.6795 -0.0395
 5936SOL     OW29443   2.646   3.853   3.678 -0.1002  0.1762 -0.5926
 5936SOL    HW129444   2.575   3.917   3.668 -0.3922 -0.2742 -1.3734
 5936SOL    HW229445   2.596   3.792   3.733  2.8803 -0.8399  0.9957
 5937SOL     OW29446   2.951   2.088   1.678 -0.1562 -0.5511  0.7858
 5937SOL    HW129447   2.976   2.034   1.753  2.3382 -0.8828 -0.2726
 5937SOL    HW229448   2.999   2.170   1.691  0.5835 -0.6599 -1.3491
 5938SOL     OW29449   1.487   0.121   6.974 -0.2693 -0.0646  0.1001
 5938SOL    HW129450   1.501   0.131   7.068 -0.9799 -2.1046  0.4231
 5938SOL    HW229451   1.542   0.188   6.934  0.9368 -0.1552  1.5827
 5939SOL     OW29452   0.226   1.776   4.469 -0.3914 -0.3513  0.0053
 5939SOL    HW129453   0.294   1.723   4.428  0.9839  1.6418 -0.3215
 5939SOL    HW229454   0.239   1.750   4.560 -0.4986 -0.2652  0.0466
 5940SOL     OW29455   3.767   1.270   2.182  0.1634  0.3715  0.8107
 5940SOL    HW129456   3.698   1.263   2.115  1.1914  1.2366 -0.3440
 5940SOL    HW229457   3.821   1.197   2.151 -2.0182 -0.2531 -1.5826
 5941SOL     OW29458   0.166   1.620   2.804 -0.1185 -0.0801  0.2046
 5941SOL    HW129459   0.227   1.582   2.868  0.1306  0.9226  0.5611
 5941SOL    HW229460   0.228   1.688   2.779 -1.5464  0.3948 -2.0255
 5942SOL     OW29461   4.656   1.073   4.677  0.1509  0.1987 -0.1551
 5942SOL    HW129462   4.704   1.153   4.654 -1.5183  0.2896 -3.4304
 5942SOL    HW229463   4.639   1.038   4.589  0.8890  1.2156 -0.7115
 5943SOL     OW29464   2.028   1.868   7.718  0.1050 -0.0583  0.2070
 5943SOL    HW129465   2.033   1.858   7.623  1.2951  1.3084  0.1280
 5943SOL    HW229466   2.007   1.961   7.721 -0.7193 -0.2872  1.7062
 5944SOL     OW29467   1.324   4.592   5.822  0.0670  0.5260 -0.0932
 5944SOL    HW129468   1.417   4.614   5.827  0.1242  0.2041  0.3022
 5944SOL    HW229469   1.292   4.644   5.748  1.4815  0.1936 -0.9313
 5945SOL     OW29470   2.462   2.272   8.985 -0.3568 -0.4422 -0.3523
 5945SOL    HW129471   2.468   2.358   8.944 -1.7780 -0.3268 -0.3373
 5945SOL    HW229472   2.370   2.251   8.970 -0.8959  1.1781  0.6535
 5946SOL     OW29473   3.443   1.167   7.938 -0.5112 -0.0962 -0.0906
 5946SOL    HW129474   3.366   1.195   7.888 -0.2935 -0.0351 -0.3907
 5946SOL    HW229475   3.473   1.249   7.976 -0.4523 -0.7128  1.2264
 5947SOL     OW29476   2.861   1.663   1.304  0.0018 -0.1341  0.1372
 5947SOL    HW129477   2.770   1.660   1.273  0.8523  1.1419 -2.4767
 5947SOL    HW229478   2.858   1.747   1.350  1.5926 -0.1825  0.3185
 5948SOL     OW29479   4.329   2.163   1.619 -0.5918  0.0615 -0.1232
 5948SOL    HW129480   4.312   2.189   1.710 -0.6462  0.2722 -0.1951
 5948SOL    HW229481   4.424   2.155   1.621 -0.5213  1.2584  2.1507
 5949SOL     OW29482   1.760   3.156   2.537 -0.4624  0.6946  0.1200
 5949SOL    HW129483   1.730   3.152   2.447  0.6692  0.3582 -0.2403
 5949SOL    HW229484   1.719   3.072   2.561  1.2830 -0.3338 -0.5198
 5950SOL     OW29485   1.455   0.828   7.830 -0.3846  0.1558  0.3988
 5950SOL    HW129486   1.521   0.892   7.803  0.5219 -2.6717 -4.1118
 5950SOL    HW229487   1.485   0.747   7.787  1.0098  0.7222  0.3085
 5951SOL     OW29488   4.350   4.253   6.063  0.3630 -0.1637 -0.3304
 5951SOL    HW129489   4.383   4.242   6.152 -1.3159  0.8767  0.4225
 5951SOL    HW229490   4.418   4.216   6.007  1.0080  1.2971 -0.5193
 5952SOL     OW29491   0.620   4.560   3.526 -0.3110  0.1113  0.0465
 5952SOL    HW129492   0.695   4.604   3.485  0.0532  0.1934  0.8030
 5952SOL    HW229493   0.575   4.637   3.560 -3.1608 -1.0563 -1.1381
 5953SOL     OW29494   1.698   4.308   7.724 -0.6045 -0.4632 -0.0568
 5953SOL    HW129495   1.664   4.340   7.808  0.8014 -0.5703  0.5471
 5953SOL    HW229496   1.761   4.239   7.742 -1.3040 -1.1426 -0.2350
 5954SOL     OW29497   1.055   4.147   8.764  0.6678  0.2097  0.0264
 5954SOL    HW129498   1.097   4.129   8.680 -1.0804  2.6907 -1.4181
 5954SOL    HW229499   0.985   4.081   8.765  0.2777  0.6187  0.0999
 5955SOL     OW29500   4.357   2.326  16.925 -0.0968  0.1130 -0.2801
 5955SOL    HW129501   4.377   2.404  16.978  2.5373  0.6895 -2.1644
 5955SOL    HW229502   4.270   2.310  16.963  0.1371 -0.4576  0.0142
 5956SOL     OW29503   1.633   3.173   7.545 -0.6957 -0.8527 -0.3219
 5956SOL    HW129504   1.568   3.238   7.574 -0.9382 -1.5489  0.7179
 5956SOL    HW229505   1.680   3.209   7.470  2.2105 -0.8717  1.5087
 5957SOL     OW29506   0.743   0.475   8.314 -0.4882 -0.6470  0.1857
 5957SOL    HW129507   0.824   0.525   8.322 -0.8981 -0.0281  0.4018
 5957SOL    HW229508   0.679   0.543   8.334 -1.0781 -0.6341 -1.6874
 5958SOL     OW29509   0.073   1.413   9.167  0.0208  0.3315  0.0710
 5958SOL    HW129510   0.092   1.357   9.242 -0.2504  1.6335  1.1090
 5958SOL    HW229511   0.154   1.463   9.159 -1.0855  2.0017 -0.6242
 5959SOL     OW29512   3.287   1.213   6.997  0.7311  0.1932 -0.0766
 5959SOL    HW129513   3.217   1.166   6.952  0.1287  2.0884 -1.1072
 5959SOL    HW229514   3.330   1.138   7.037 -0.2316 -0.2184  0.1997
 5960SOL     OW29515   4.352   3.268  10.133 -0.0504 -0.0136  0.6003
 5960SOL    HW129516   4.414   3.294  10.065 -0.0446  3.2380  1.8224
 5960SOL    HW229517   4.350   3.174  10.119  0.9216  0.3442 -1.9033
 5961SOL     OW29518   3.659   3.071   3.391  0.9888 -0.3213  0.2718
 5961SOL    HW129519   3.611   2.999   3.431 -0.1779  0.3762  0.1353
 5961SOL    HW229520   3.750   3.044   3.388  1.5861  1.7513 -0.1642
 5962SOL     OW29521   3.396   2.863   5.107  0.5831 -0.4377  0.6223
 5962SOL    HW129522   3.323   2.802   5.114 -0.2191  0.5297  0.6814
 5962SOL    HW229523   3.380   2.920   5.182  1.9570  1.5915 -0.6380
 5963SOL     OW29524   1.862   0.118  15.117  0.0174 -0.2789  0.1960
 5963SOL    HW129525   1.766   0.118  15.111  0.1383 -3.3319 -2.2739
 5963SOL    HW229526   1.886   0.142  15.027  1.4220  0.1473  0.6871
 5964SOL     OW29527   0.395   3.916   4.294 -0.3381 -0.2873 -0.0892
 5964SOL    HW129528   0.392   3.847   4.228  0.6748 -0.5783  0.1636
 5964SOL    HW229529   0.468   3.968   4.261  0.6960 -0.7114  1.5159
 5965SOL     OW29530   3.888   0.296   0.614  0.7085 -0.3342 -0.0186
 5965SOL    HW129531   3.799   0.272   0.586 -0.3958  0.1944  2.9758
 5965SOL    HW229532   3.917   0.344   0.536  0.5016  0.0723  0.1525
 5966SOL     OW29533   0.970   3.128   0.866 -0.5263 -0.0142  0.0720
 5966SOL    HW129534   0.900   3.085   0.914 -1.8180  0.3797 -1.4396
 5966SOL    HW229535   1.021   3.154   0.942 -2.3104 -0.4050  1.3897
 5967SOL     OW29536   1.544   1.818  10.172 -0.2724  0.1724 -0.1803
 5967SOL    HW129537   1.604   1.884  10.205  0.5387 -0.9480  0.5972
 5967SOL    HW229538   1.515   1.781  10.256 -1.6712  1.3867 -0.1350
 5968SOL     OW29539   3.619   1.819   2.144  0.0765 -0.0420 -0.3181
 5968SOL    HW129540   3.676   1.843   2.217  1.0188  1.5420 -1.5756
 5968SOL    HW229541   3.662   1.740   2.113  1.7388  1.2856 -1.3887
 5969SOL     OW29542   2.428   1.553   3.202  0.2634  0.4734 -0.7572
 5969SOL    HW129543   2.341   1.549   3.243  0.2244 -1.7555 -1.0860
 5969SOL    HW229544   2.459   1.464   3.217 -0.7829 -0.0216 -1.5662
 5970SOL     OW29545   1.722   2.577   3.835  0.3983  0.3910  0.5712
 5970SOL    HW129546   1.679   2.523   3.769  0.1741  0.8263  0.3540
 5970SOL    HW229547   1.682   2.662   3.815 -0.3222 -0.4572 -1.6239
 5971SOL     OW29548   1.533   1.782   2.272  0.0689  0.0673 -0.2289
 5971SOL    HW129549   1.539   1.794   2.367 -1.4360  0.0874 -0.1421
 5971SOL    HW229550   1.492   1.864   2.244  0.0529  0.3249  0.5374
 5972SOL     OW29551   1.969   4.119   6.924 -0.5125 -0.8212 -0.2712
 5972SOL    HW129552   1.895   4.168   6.960 -0.8142 -1.1993 -0.3741
 5972SOL    HW229553   2.018   4.123   7.006  0.9916 -0.2303 -1.1942
 5973SOL     OW29554   1.319   2.873   6.179 -0.5004 -0.5894  0.1743
 5973SOL    HW129555   1.409   2.898   6.156 -0.4104  0.8269  2.0245
 5973SOL    HW229556   1.329   2.894   6.272 -2.6427  0.0207  0.2626
 5974SOL     OW29557   3.266   1.056   9.049  0.4922 -0.0786 -0.9466
 5974SOL    HW129558   3.201   1.120   9.021  0.9864  0.8556  0.0081
 5974SOL    HW229559   3.335   1.067   8.983  2.3869 -0.2733  0.9944
 5975SOL     OW29560   3.736   2.834   2.239 -0.0723 -0.1824 -0.0949
 5975SOL    HW129561   3.765   2.899   2.175 -0.8132 -0.4107 -0.6559
 5975SOL    HW229562   3.801   2.769   2.212 -0.3280  0.2416 -1.6821
 5976SOL     OW29563   3.460   1.469  17.309 -0.1322 -0.1683  0.3504
 5976SOL    HW129564   3.394   1.470  17.379 -1.4001 -1.0855 -0.8430
 5976SOL    HW229565   3.461   1.558  17.275 -0.7771  0.1460  1.1311
 5977SOL     OW29566   3.764   1.353  13.079  0.5230  0.4735 -0.3643
 5977SOL    HW129567   3.697   1.405  13.034 -0.1981 -0.2472 -0.1236
 5977SOL    HW229568   3.771   1.403  13.160  2.2552  1.6521 -1.2533
 5978SOL     OW29569   4.060   4.004   6.227  0.4413  0.2412 -0.3867
 5978SOL    HW129570   4.066   4.089   6.271  1.5091 -0.2222  0.3763
 5978SOL    HW229571   4.145   3.960   6.232  0.3380  0.3027  2.1015
 5979SOL     OW29572   1.650   0.912   3.675 -0.0567  0.4932 -0.0608
 5979SOL    HW129573   1.728   0.910   3.731  0.7816  2.8443 -1.1398
 5979SOL    HW229574   1.586   0.885   3.741  0.7246 -2.0681 -0.3530
 5980SOL     OW29575   2.761   2.046   6.439 -0.1582 -0.1637  0.4491
 5980SOL    HW129576   2.731   1.966   6.482  0.1407 -0.8485 -0.6137
 5980SOL    HW229577   2.855   2.034   6.426 -0.5976 -0.7443 -2.2526
 5981SOL     OW29578   2.650   1.576   8.086  0.3074 -0.4470 -0.5798
 5981SOL    HW129579   2.695   1.655   8.115 -0.4924 -0.6414  1.2110
 5981SOL    HW229580   2.629   1.583   7.993  0.1271 -1.8571 -0.6394
 5982SOL     OW29581   4.680   3.407   6.183 -0.1583  0.0008  0.7447
 5982SOL    HW129582   4.622   3.352   6.131 -0.1754  0.1503  0.6040
 5982SOL    HW229583   4.624   3.485   6.186 -1.9204 -1.3183  1.8028
 5983SOL     OW29584   2.241   3.765   3.233 -0.3580  0.1118 -0.0569
 5983SOL    HW129585   2.258   3.777   3.140  3.1980 -0.3214  0.5183
 5983SOL    HW229586   2.273   3.676   3.246 -0.0770  0.3927  1.1718
 5984SOL     OW29587   2.040   4.628  13.695 -0.1576  0.5329  0.1772
 5984SOL    HW129588   2.082   4.652  13.778 -1.1130  1.6957  0.3308
 5984SOL    HW229589   2.017   4.536  13.709 -0.5932  0.6864  0.5015
 5985SOL     OW29590   2.261   3.854  11.867  0.0097  0.0266 -0.1615
 5985SOL    HW129591   2.200   3.820  11.933  0.7771  0.8477  0.9644
 5985SOL    HW229592   2.274   3.947  11.887 -0.4286  0.2320 -0.8289
 5986SOL     OW29593   3.037   4.447   4.337 -0.4068 -0.1924 -0.4151
 5986SOL    HW129594   3.075   4.451   4.425 -1.4083  0.4902 -0.0152
 5986SOL    HW229595   2.970   4.514   4.351 -1.7417 -1.9613  1.6108
 5987SOL     OW29596   3.825   2.901   6.111 -0.3444 -0.7292  0.3500
 5987SOL    HW129597   3.834   2.968   6.044  2.0481 -1.5581 -0.1796
 5987SOL    HW229598   3.837   2.828   6.051  0.1007 -0.1013 -0.3164
 5988SOL     OW29599   3.583   2.574   5.420  0.2481 -0.0920 -0.2141
 5988SOL    HW129600   3.633   2.522   5.357 -0.9603  2.3698 -3.1958
 5988SOL    HW229601   3.638   2.652   5.429 -0.1158  0.1759 -0.3439
 5989SOL     OW29602   0.279   1.810   0.918  0.4530 -0.2173 -0.2090
 5989SOL    HW129603   0.331   1.879   0.961  0.0666  0.7100 -1.2435
 5989SOL    HW229604   0.244   1.769   0.997  1.2144 -0.5411 -0.0421
 5990SOL     OW29605   2.320   1.259  12.614 -0.0289 -0.1925  0.0296
 5990SOL    HW129606   2.403   1.272  12.567 -0.2002  0.7023 -0.0188
 5990SOL    HW229607   2.297   1.171  12.584 -0.9241 -0.1366  0.5705
 5991SOL     OW29608   4.181   4.316   5.793 -0.1684 -0.6905  0.2926
 5991SOL    HW129609   4.229   4.265   5.726  1.8794  0.5108  0.8405
 5991SOL    HW229610   4.248   4.322   5.861 -0.2672  1.3832  0.1824
 5992SOL     OW29611   3.027   1.344   8.675  0.2217 -0.2173 -0.0356
 5992SOL    HW129612   2.950   1.346   8.732 -0.1156  1.2623 -0.5469
 5992SOL    HW229613   3.070   1.422   8.710  0.6716  0.2833 -1.7042
 5993SOL     OW29614   4.341   4.521   7.931 -0.0184 -0.5798  0.3118
 5993SOL    HW129615   4.400   4.527   8.006 -0.6125  3.0391  0.5012
 5993SOL    HW229616   4.343   4.603   7.881 -3.0190 -1.9788 -2.0509
 5994SOL     OW29617   0.146   4.228  11.107  0.0172  0.0336 -0.1398
 5994SOL    HW129618   0.163   4.167  11.179  3.0947  0.5630 -0.4184
 5994SOL    HW229619   0.127   4.161  11.042  0.2480 -1.3029  1.1613
 5995SOL     OW29620   0.292   4.437   6.116 -0.0709  0.0850  0.2349
 5995SOL    HW129621   0.211   4.418   6.068 -0.1799  0.8145  0.1326
 5995SOL    HW229622   0.260   4.435   6.206  1.7971 -3.7371  0.7949
 5996SOL     OW29623   2.681   2.542   3.694  0.0705 -0.2149 -0.3092
 5996SOL    HW129624   2.615   2.610   3.713  0.5984  0.1338  0.2711
 5996SOL    HW229625   2.684   2.561   3.600 -0.1284  3.7507  0.4794
 5997SOL     OW29626   0.629   1.057  17.087  0.1475  0.6207  0.0292
 5997SOL    HW129627   0.620   1.051  16.992 -0.7233  2.2875  0.0062
 5997SOL    HW229628   0.686   0.982  17.100  0.5218  0.7858 -0.7087
 5998SOL     OW29629   1.898   0.145   8.569 -0.6984 -0.5637 -0.4985
 5998SOL    HW129630   1.950   0.134   8.648 -0.6964  1.7099 -0.1795
 5998SOL    HW229631   1.840   0.218   8.595  0.0493 -0.4542  0.8349
 5999SOL     OW29632   2.043   2.195   2.280  0.6058 -0.1571 -0.1022
 5999SOL    HW129633   2.126   2.221   2.241  1.2302 -1.1585  0.5647
 5999SOL    HW229634   2.060   2.130   2.348  0.1067 -0.8122 -0.6092
 6000SOL     OW29635   3.708   0.100  17.065 -0.1438 -0.0159  0.4026
 6000SOL    HW129636   3.744   0.172  17.117  1.0262 -1.3749  1.4799
 6000SOL    HW229637   3.640   0.142  17.012  0.9782  1.2732  0.0115
 6001SOL     OW29638   3.867   3.085   5.913 -0.0731  0.0802  0.0452
 6001SOL    HW129639   3.795   3.049   5.861  0.4900 -1.2410  0.1676
 6001SOL    HW229640   3.924   3.120   5.844 -0.5696  0.9901  0.0992
 6002SOL     OW29641   3.037   1.472   3.029 -0.1936  0.1327  0.3649
 6002SOL    HW129642   3.126   1.475   3.065 -0.5991  2.7123  1.1175
 6002SOL    HW229643   2.995   1.531   3.092  0.2057  1.4699 -0.6214
 6003SOL     OW29644   1.290   1.572   7.653 -0.1606 -0.6791 -0.0929
 6003SOL    HW129645   1.256   1.483   7.664  1.6579 -1.3883 -0.2489
 6003SOL    HW229646   1.261   1.615   7.733 -0.1235 -0.8120 -0.0096
 6004SOL     OW29647   3.312   3.449   3.800  0.0643 -0.5275 -0.2719
 6004SOL    HW129648   3.233   3.502   3.795 -1.3298 -2.4600  1.1803
 6004SOL    HW229649   3.280   3.382   3.861 -0.8358 -2.0326 -2.4160
 6005SOL     OW29650   0.769   3.264   4.054 -0.0762  0.0945 -0.1055
 6005SOL    HW129651   0.714   3.186   4.059 -0.5889  0.4894  0.4078
 6005SOL    HW229652   0.850   3.220   4.079 -0.1383 -0.4701 -0.8858
 6006SOL     OW29653   2.116   1.810   6.432 -0.5186  0.2871 -0.2078
 6006SOL    HW129654   2.101   1.868   6.358 -0.4781  1.5652  0.7898
 6006SOL    HW229655   2.211   1.801   6.431 -0.7259 -2.1563  1.4166
 6007SOL     OW29656   0.277   1.510   9.538 -0.0232  0.1966 -0.2655
 6007SOL    HW129657   0.273   1.467   9.453  0.7880  2.2422 -1.3374
 6007SOL    HW229658   0.202   1.569   9.529  0.8072  1.2502 -0.2452
 6008SOL     OW29659   1.620   0.734   5.271  0.0455 -0.0644  0.3787
 6008SOL    HW129660   1.587   0.675   5.339 -0.2976  0.6100  0.7945
 6008SOL    HW229661   1.585   0.822   5.284  0.9372  0.1151  1.5896
 6009SOL     OW29662   4.650   3.447   8.442  0.0376 -0.4346  0.1127
 6009SOL    HW129663   4.712   3.491   8.383  0.6451 -4.1828 -2.0733
 6009SOL    HW229664   4.574   3.458   8.385 -1.0444  0.1753  1.6719
 6010SOL     OW29665   2.070   0.872  15.266  0.5847  0.1939  0.1372
 6010SOL    HW129666   2.124   0.950  15.260 -0.2843  0.7095 -0.9045
 6010SOL    HW229667   2.094   0.812  15.195 -0.8799  2.2074 -2.0418
 6011SOL     OW29668   4.347   3.489   6.757 -0.5976  0.2230 -0.0518
 6011SOL    HW129669   4.339   3.415   6.697  1.0148 -0.7928  0.9814
 6011SOL    HW229670   4.349   3.556   6.689  2.1318  0.2299  0.0278
 6012SOL     OW29671   3.471   2.630   0.003  0.1906 -0.0175 -0.0612
 6012SOL    HW129672   3.389   2.630  17.694  0.4289  2.1245 -0.4410
 6012SOL    HW229673   3.537   2.662  17.681  0.1627  2.9896  1.4957
 6013SOL     OW29674   0.325   2.382   6.659  0.1087  0.1223  0.2831
 6013SOL    HW129675   0.289   2.343   6.739  1.2239 -0.5403  0.4584
 6013SOL    HW229676   0.241   2.385   6.612  0.0429  0.6258  0.4417
 6014SOL     OW29677   0.666   3.432   3.207  0.3863  0.1595  0.0494
 6014SOL    HW129678   0.726   3.367   3.246 -0.8285 -0.9172  0.1089
 6014SOL    HW229679   0.661   3.500   3.274 -2.5103 -1.9993  2.0462
 6015SOL     OW29680   1.773   3.621   7.090  0.1453 -0.1389  0.2274
 6015SOL    HW129681   1.768   3.601   7.184 -0.6270  0.4282  0.3135
 6015SOL    HW229682   1.844   3.685   7.090 -0.5118  0.5935 -1.6519
 6016SOL     OW29683   1.087   1.627  13.142 -0.3347  0.2015  0.2059
 6016SOL    HW129684   1.129   1.542  13.126  1.5906  1.1711  0.0620
 6016SOL    HW229685   1.148   1.694  13.110  0.4047 -0.0128  1.1454
 6017SOL     OW29686   0.455   1.892   4.088 -0.1546 -0.3800  0.0694
 6017SOL    HW129687   0.392   1.820   4.096  1.1677 -1.7528 -1.8153
 6017SOL    HW229688   0.395   1.957   4.050 -0.6207 -1.0064 -0.2691
 6018SOL     OW29689   3.355   0.043   3.670  0.0885 -0.0672 -0.0252
 6018SOL    HW129690   3.347   0.132   3.637  0.9530 -0.9042 -2.4851
 6018SOL    HW229691   3.352   4.734   3.585 -0.5832 -1.3231  0.6427
 6019SOL     OW29692   1.109   3.812  12.359 -0.7609 -0.3825  0.1219
 6019SOL    HW129693   1.172   3.853  12.418 -1.7569  1.6303 -0.2010
 6019SOL    HW229694   1.148   3.725  12.352  0.7693  0.3902 -0.8981
 6020SOL     OW29695   1.766   0.659   0.978 -0.4133  0.3569  0.2082
 6020SOL    HW129696   1.701   0.727   0.995 -0.8339 -0.5217  2.0645
 6020SOL    HW229697   1.762   0.629   1.069  1.1441 -2.1096 -0.5202
 6021SOL     OW29698   1.464   0.313   1.850  0.3772 -0.2004  0.0194
 6021SOL    HW129699   1.475   0.403   1.820  0.8022 -0.4091 -0.4484
 6021SOL    HW229700   1.550   0.284   1.819  1.1323  1.1548  0.8267
 6022SOL     OW29701   0.729   1.389   6.824  0.4731  0.0901 -0.5780
 6022SOL    HW129702   0.646   1.428   6.797 -0.6101  0.5307  3.3962
 6022SOL    HW229703   0.700   1.299   6.810 -0.3976  0.1992  0.4519
 6023SOL     OW29704   0.527   3.818   5.623  0.6620 -0.3362 -0.6254
 6023SOL    HW129705   0.485   3.887   5.675 -1.3844 -2.2213  0.2193
 6023SOL    HW229706   0.594   3.866   5.575  0.1750 -0.5674 -1.5429
 6024SOL     OW29707   0.866   3.593   6.097 -0.9202 -0.1525 -0.1323
 6024SOL    HW129708   0.919   3.543   6.159 -1.2506 -0.8033 -0.3703
 6024SOL    HW229709   0.842   3.516   6.045  0.4815  0.2327 -1.3477
 6025SOL     OW29710   0.662   1.117   6.086 -0.0139  0.0664  0.0938
 6025SOL    HW129711   0.655   1.208   6.116 -3.5105  0.4565 -1.9345
 6025SOL    HW229712   0.619   1.067   6.156 -0.2953 -0.6815 -0.6188
 6026SOL     OW29713   2.178   0.653   2.438 -0.0738 -0.7265  0.1503
 6026SOL    HW129714   2.236   0.692   2.503 -0.5423 -0.8325  0.6376
 6026SOL    HW229715   2.100   0.701   2.468 -0.6776 -0.4314 -1.9308
 6027SOL     OW29716   3.500   4.329  15.076 -0.3392 -0.5139 -0.3094
 6027SOL    HW129717   3.442   4.334  15.000 -0.8341 -2.2307 -0.0404
 6027SOL    HW229718   3.456   4.386  15.139 -1.2231 -0.9019 -0.5799
 6028SOL     OW29719   2.468   4.503   2.090 -0.0692  0.6124 -0.9715
 6028SOL    HW129720   2.465   4.431   2.027  1.6062 -1.0498  0.8504
 6028SOL    HW229721   2.541   4.470   2.143  0.0608  0.8536 -1.0002
 6029SOL     OW29722   4.618   1.033   5.893 -0.1176  0.2902  0.0384
 6029SOL    HW129723   4.690   1.048   5.954 -1.1955 -0.5606  1.5320
 6029SOL    HW229724   4.558   0.995   5.957 -2.0274 -0.0446 -1.9297
 6030SOL     OW29725   3.410   4.271   6.026  0.1162  0.4003  0.3687
 6030SOL    HW129726   3.426   4.265   5.932 -1.0022  1.7387  0.0839
 6030SOL    HW229727   3.370   4.358   6.027 -0.0812  0.3099  0.3161
 6031SOL     OW29728   0.100   4.443   1.946 -0.1642  0.7899 -0.3068
 6031SOL    HW129729   0.153   4.503   1.998 -0.7958  0.3256  0.8746
 6031SOL    HW229730   0.018   4.492   1.945 -1.0426 -0.6411  1.1295
 6032SOL     OW29731   3.951   2.063   8.584  0.3073  0.0355 -0.2413
 6032SOL    HW129732   3.992   2.040   8.667  2.0444 -0.8168 -1.3184
 6032SOL    HW229733   3.871   2.011   8.591  0.1072  0.1780 -1.4914
 6033SOL     OW29734   3.938   4.306   4.862 -0.3413  0.4629 -0.2913
 6033SOL    HW129735   3.986   4.295   4.780 -1.3772 -0.6105 -0.7500
 6033SOL    HW229736   3.937   4.402   4.870 -1.8500  0.5801 -1.8719
 6034SOL     OW29737   2.305   2.463   7.986 -0.2309 -0.0801 -0.1246
 6034SOL    HW129738   2.399   2.463   8.007 -0.1630 -2.6733 -0.4109
 6034SOL    HW229739   2.288   2.369   7.974 -1.1272  0.1665 -0.7810
 6035SOL     OW29740   4.340   1.259  15.961  0.1145 -0.2539 -0.9464
 6035SOL    HW129741   4.245   1.261  15.966  0.1011 -1.5556 -0.6675
 6035SOL    HW229742   4.349   1.182  15.905 -1.7998 -0.7298 -0.5983
 6036SOL     OW29743   3.631   2.146   6.487 -0.6636  0.2120  0.0663
 6036SOL    HW129744   3.653   2.068   6.539 -1.5139  0.5718  0.9727
 6036SOL    HW229745   3.574   2.106   6.422  1.7156 -2.3687 -0.4531
 6037SOL     OW29746   2.951   3.786   9.257  0.0402  0.4163 -0.1724
 6037SOL    HW129747   2.957   3.845   9.332  0.8298 -0.4991  0.4832
 6037SOL    HW229748   2.873   3.736   9.280  0.5411  0.0311  0.7180
 6038SOL     OW29749   4.723   4.423   3.987  0.2399 -0.1029  0.7981
 6038SOL    HW129750   0.082   4.432   4.005  0.4742 -0.3819 -0.2999
 6038SOL    HW229751   4.714   4.349   3.926 -0.1830 -0.0208  0.7627
 6039SOL     OW29752   0.100   2.017   4.150  0.2566  0.7721  0.5219
 6039SOL    HW129753   0.031   2.080   4.129 -0.9477 -0.7988 -0.2639
 6039SOL    HW229754   0.080   1.979   4.235 -0.2984 -1.9092 -0.8008
 6040SOL     OW29755   4.003   3.179  12.505 -0.2528 -0.2808  0.2778
 6040SOL    HW129756   3.972   3.090  12.518 -1.4425  0.1730  0.5355
 6040SOL    HW229757   4.034   3.194  12.594 -0.1643 -0.3536  0.2598
 6041SOL     OW29758   1.334   3.374   5.801 -0.4580  0.2728 -0.0009
 6041SOL    HW129759   1.329   3.427   5.880  0.5053 -0.0849  0.3039
 6041SOL    HW229760   1.429   3.362   5.812 -1.0299 -1.9224  2.3997
 6042SOL     OW29761   2.960   3.728   2.711 -0.9933 -0.4613  0.2866
 6042SOL    HW129762   2.935   3.664   2.645 -0.3227 -0.7127  0.2813
 6042SOL    HW229763   3.055   3.725   2.710 -1.0046 -0.4971 -0.5161
 6043SOL     OW29764   4.621   2.690   1.500  0.3204  0.2634 -0.0551
 6043SOL    HW129765   4.581   2.753   1.439 -0.7638 -1.2828 -0.9495
 6043SOL    HW229766   4.692   2.747   1.528  1.1549 -0.3818 -0.8794
 6044SOL     OW29767   0.912   2.673   6.742 -0.3619  0.0613  0.1049
 6044SOL    HW129768   0.873   2.733   6.680 -0.7462 -0.5588 -0.2566
 6044SOL    HW229769   0.911   2.584   6.705  1.3887  0.4863 -0.9582
 6045SOL     OW29770   1.589   0.780   9.551 -0.6177  0.2547  0.0981
 6045SOL    HW129771   1.534   0.709   9.584 -0.3062 -0.0053  0.0657
 6045SOL    HW229772   1.548   0.801   9.467 -0.7421  0.4694  0.2136
 6046SOL     OW29773   3.337   2.177   8.985  0.5558  0.3798  0.1385
 6046SOL    HW129774   3.402   2.175   9.056  0.3758 -0.4580  0.2836
 6046SOL    HW229775   3.379   2.234   8.921  0.2671  1.3001  0.7696
 6047SOL     OW29776   4.338   3.110   9.259  0.6227 -0.1043  0.0978
 6047SOL    HW129777   4.274   3.064   9.205  1.3312 -1.1152  0.1163
 6047SOL    HW229778   4.424   3.091   9.221 -0.0065 -3.4450  0.3681
 6048SOL     OW29779   4.118   3.617   6.357  0.0511  0.0191 -0.0100
 6048SOL    HW129780   4.023   3.618   6.366  0.1412  0.0587  0.9439
 6048SOL    HW229781   4.137   3.551   6.291 -0.6095 -2.4397  2.2559
 6049SOL     OW29782   3.530   1.016   6.816  0.1685  0.2685  0.0689
 6049SOL    HW129783   3.594   0.972   6.872  1.1563 -1.1583 -2.1560
 6049SOL    HW229784   3.550   1.108   6.833  1.1546  0.1692 -0.5653
 6050SOL     OW29785   0.933   3.025   3.329 -0.6106  0.3778  0.6008
 6050SOL    HW129786   1.003   3.003   3.267 -1.3544  1.6930 -0.7113
 6050SOL    HW229787   0.969   2.975   3.402  3.1580 -0.5578 -1.8992
 6051SOL     OW29788   1.381   3.106   3.672  0.1755 -0.6607  0.1559
 6051SOL    HW129789   1.290   3.100   3.702  0.1491 -0.9112  0.0281
 6051SOL    HW229790   1.417   3.043   3.734 -2.9005 -1.2293  1.3481
 6052SOL     OW29791   1.618   2.603   4.208  0.6060  0.5861 -0.2177
 6052SOL    HW129792   1.611   2.529   4.148  0.0636 -1.0185  1.8247
 6052SOL    HW229793   1.600   2.681   4.155  0.6366 -0.6857 -2.1014
 6053SOL     OW29794   3.193   3.216   3.892  0.2789 -1.0308  0.2400
 6053SOL    HW129795   3.137   3.275   3.842  1.4078  0.5227  0.8365
 6053SOL    HW229796   3.129   3.150   3.921 -0.2237 -0.2736  0.8422
 6054SOL     OW29797   0.002   1.432   6.811 -0.1724  0.1597  0.0929
 6054SOL    HW129798   0.062   1.496   6.772 -0.6462  0.6481  0.1780
 6054SOL    HW229799   4.664   1.482   6.846 -1.4598 -0.6496 -1.4823
 6055SOL     OW29800   2.178   0.885   9.649 -0.0732 -0.3225  0.1500
 6055SOL    HW129801   2.099   0.830   9.652 -0.8879  0.9005  1.4483
 6055SOL    HW229802   2.186   0.891   9.745 -0.8543  0.5218  0.1647
 6056SOL     OW29803   0.165   4.672  11.462 -0.0603 -0.1996 -0.3592
 6056SOL    HW129804   0.243   4.646  11.511 -1.7989 -0.2439  2.3957
 6056SOL    HW229805   0.199   4.675  11.373 -0.1928 -0.2480 -0.4116
 6057SOL     OW29806   2.216   4.140   9.296  0.7187  0.4682  0.5366
 6057SOL    HW129807   2.150   4.202   9.266  0.7397  1.3240  2.2623
 6057SOL    HW229808   2.174   4.093   9.368  1.6305  3.6958  3.1676
 6058SOL     OW29809   0.299   4.454   0.998 -0.3248  0.5395  0.1006
 6058SOL    HW129810   0.219   4.401   0.997 -1.1537  1.8338 -2.4035
 6058SOL    HW229811   0.318   4.468   0.905  1.2899  0.4574  0.4113
 6059SOL     OW29812   0.284   2.891   7.997  0.0162 -0.5131  0.1646
 6059SOL    HW129813   0.348   2.962   7.984 -0.7152  0.0089 -0.5163
 6059SOL    HW229814   0.226   2.888   7.922 -1.1674 -2.5515  1.1753
 6060SOL     OW29815   2.459   3.716   0.240  0.4272 -0.2476  0.2968
 6060SOL    HW129816   2.475   3.801   0.198  3.4172 -1.0777 -0.2692
 6060SOL    HW229817   2.516   3.660   0.187  0.4248  1.3432 -1.4357
 6061SOL     OW29818   2.369   3.986   1.705  0.2772  0.1510  0.2206
 6061SOL    HW129819   2.426   4.042   1.652 -1.1112  2.1915  0.8423
 6061SOL    HW229820   2.305   4.051   1.735 -0.3807  0.3283 -1.5880
 6062SOL     OW29821   3.060   4.209  16.652 -0.5274  0.3749  0.1500
 6062SOL    HW129822   3.112   4.289  16.663  0.8892 -0.4903 -0.2243
 6062SOL    HW229823   3.072   4.205  16.557  0.8159  1.2832  0.2823
 6063SOL     OW29824   4.319   0.551  12.678  0.3051 -0.0865  0.0380
 6063SOL    HW129825   4.328   0.633  12.726 -1.0899 -1.0496  1.9063
 6063SOL    HW229826   4.410   0.523  12.670  1.2587  2.6108  1.1922
 6064SOL     OW29827   2.842   2.235   9.494  0.1523  0.0141  0.7114
 6064SOL    HW129828   2.826   2.309   9.552  0.2959  1.5873 -1.2603
 6064SOL    HW229829   2.862   2.275   9.410 -0.0112 -1.2693  0.0580
 6065SOL     OW29830   2.217   1.466   0.348 -0.2336  0.7182 -0.8527
 6065SOL    HW129831   2.124   1.456   0.327 -0.0963 -0.3450 -0.9427
 6065SOL    HW229832   2.210   1.557   0.375  1.8977  0.8956 -0.9212
 6066SOL     OW29833   4.522   0.975  16.477  0.3583  0.0059 -0.1152
 6066SOL    HW129834   4.564   0.890  16.472 -1.0131 -0.7290  0.8603
 6066SOL    HW229835   4.459   0.974  16.404  0.5722 -3.0031 -0.2330
 6067SOL     OW29836   1.700   0.109   6.746  0.0285 -0.4951  0.2690
 6067SOL    HW129837   1.742   0.059   6.816  0.2379  0.6858  0.9781
 6067SOL    HW229838   1.747   0.191   6.761  1.0776 -1.2917  1.2955
 6068SOL     OW29839   4.105   1.559   1.556  0.6157 -0.1903  0.4733
 6068SOL    HW129840   4.178   1.592   1.610  1.8820 -1.1975 -0.6237
 6068SOL    HW229841   4.019   1.590   1.585  1.3424  2.3574 -0.0295
 6069SOL     OW29842   3.664   1.725   3.485 -0.8282 -0.3762 -0.0952
 6069SOL    HW129843   3.688   1.796   3.545 -2.9472  1.6021 -1.6115
 6069SOL    HW229844   3.598   1.677   3.535  1.2332 -0.8918  2.1370
 6070SOL     OW29845   1.949   2.984   3.161  0.4650  0.2153 -0.3341
 6070SOL    HW129846   1.921   2.926   3.090 -0.9818 -0.3933  0.7204
 6070SOL    HW229847   1.863   3.017   3.189  0.2552 -2.6094  2.4723
 6071SOL     OW29848   4.291   0.866   5.387 -0.0654  0.5205  0.2672
 6071SOL    HW129849   4.349   0.880   5.312  0.7626  0.3693  0.8827
 6071SOL    HW229850   4.280   0.954   5.424 -1.6486  0.4131  0.0718
 6072SOL     OW29851   2.886   1.256   0.286 -0.3133 -0.0477 -0.5002
 6072SOL    HW129852   2.819   1.312   0.245 -1.1508  0.9013  2.1735
 6072SOL    HW229853   2.935   1.223   0.211  1.0880  0.2473  0.2962
 6073SOL     OW29854   4.228   0.523  12.225 -0.2816 -0.0432 -0.1531
 6073SOL    HW129855   4.310   0.546  12.269 -1.1980 -1.0089  2.0910
 6073SOL    HW229856   4.168   0.561  12.289 -1.1677 -0.5938 -0.6477
 6074SOL     OW29857   3.183   0.503   1.833 -0.1062 -0.2080  0.1771
 6074SOL    HW129858   3.206   0.430   1.890 -0.0693 -0.3436 -0.0152
 6074SOL    HW229859   3.274   0.521   1.809 -0.5491  0.7939 -0.7623
 6075SOL     OW29860   0.867   3.667   0.915  0.4516 -0.7298 -0.4072
 6075SOL    HW129861   0.928   3.607   0.958 -1.0880  0.0307  2.8633
 6075SOL    HW229862   0.843   3.740   0.973  2.1041 -2.5176  2.5735
 6076SOL     OW29863   0.456   1.995   9.514 -0.0753 -1.1503  0.5402
 6076SOL    HW129864   0.498   2.065   9.563 -0.7178 -0.5005  0.1572
 6076SOL    HW229865   0.365   2.025   9.522  0.3519  0.4066 -0.5487
 6077SOL     OW29866   4.326   1.254  10.418  0.4969  0.0627  0.1739
 6077SOL    HW129867   4.304   1.208  10.500 -1.7426  1.1028  0.1676
 6077SOL    HW229868   4.353   1.183  10.360  0.7512 -1.3563  2.0330
 6078SOL     OW29869   3.799   0.363   8.757  0.5165  0.0403  0.0965
 6078SOL    HW129870   3.777   0.283   8.804  0.1243 -0.5507 -1.0996
 6078SOL    HW229871   3.762   0.358   8.669 -0.2360 -0.7874  0.4571
 6079SOL     OW29872   4.130   1.935   3.446 -0.3682  0.5021 -0.0988
 6079SOL    HW129873   4.084   1.936   3.362  0.4329 -0.4341 -0.5356
 6079SOL    HW229874   4.098   1.852   3.483 -3.2988  0.3960 -2.8813
 6080SOL     OW29875   1.934   3.147   4.282 -0.6027  0.3699 -0.3074
 6080SOL    HW129876   1.904   3.062   4.250 -0.0203  0.4007 -0.9270
 6080SOL    HW229877   1.935   3.140   4.378  1.2081 -0.7007 -0.4028
 6081SOL     OW29878   2.770   0.591   5.428 -0.0975  0.0443  0.1055
 6081SOL    HW129879   2.755   0.648   5.353  0.9217  1.2685  0.8231
 6081SOL    HW229880   2.799   0.654   5.494 -0.0401  0.2297 -0.0963
 6082SOL     OW29881   2.982   3.582  11.708 -0.5006  0.1721 -0.4042
 6082SOL    HW129882   2.946   3.569  11.795  0.4646  0.1370 -0.0042
 6082SOL    HW229883   3.048   3.650  11.724 -0.3461  0.6205 -2.9431
 6083SOL     OW29884   0.331   0.344   0.370 -0.1462 -0.4063 -0.1798
 6083SOL    HW129885   0.374   0.369   0.451  1.3540  0.6387 -1.3033
 6083SOL    HW229886   0.242   0.332   0.404  0.4705 -0.6262  1.3582
 6084SOL     OW29887   2.778   3.367   9.038 -0.0789 -0.0743 -0.1613
 6084SOL    HW129888   2.805   3.321   9.117 -1.2172  0.3189  0.4489
 6084SOL    HW229889   2.730   3.297   8.992 -0.3750 -0.7039  1.1115
 6085SOL     OW29890   3.993   4.662   0.280 -0.1377  0.0147 -0.2068
 6085SOL    HW129891   3.978   4.693   0.191 -2.8644  0.9946  0.6126
 6085SOL    HW229892   4.006   0.007   0.330 -0.5007 -0.4931  0.6988
 6086SOL     OW29893   0.406   2.191   7.372 -0.0234  0.0839 -0.1502
 6086SOL    HW129894   0.362   2.224   7.450 -1.5502 -0.2631 -0.8590
 6086SOL    HW229895   0.455   2.270   7.349  0.2100  0.0518  0.2359
 6087SOL     OW29896   2.064   2.560   7.893  0.5420 -0.1349 -0.2760
 6087SOL    HW129897   2.057   2.574   7.799  0.2773  1.7319  0.0210
 6087SOL    HW229898   2.158   2.562   7.911  0.0981 -1.4686  2.2059
 6088SOL     OW29899   0.664   1.416   7.984  0.4497  0.4734 -0.2459
 6088SOL    HW129900   0.612   1.417   8.064  0.1357 -0.0636 -0.4472
 6088SOL    HW229901   0.644   1.506   7.958  2.1792  1.7671  2.9316
 6089SOL     OW29902   1.015   2.603  16.898 -0.3159 -0.5306  0.0544
 6089SOL    HW129903   1.008   2.674  16.961 -1.2127  1.7178 -2.5588
 6089SOL    HW229904   0.923   2.582  16.887 -1.0048  1.9957  1.1828
 6090SOL     OW29905   4.321   0.669   7.867 -0.0924  0.6635 -0.1951
 6090SOL    HW129906   4.390   0.611   7.837 -1.4770  0.5788 -3.2738
 6090SOL    HW229907   4.321   0.639   7.958 -0.2898  1.7677  0.1737
 6091SOL     OW29908   2.581   0.938   2.017 -0.1385  0.0012  0.0456
 6091SOL    HW129909   2.570   0.845   2.036  0.8410 -0.2579 -0.6804
 6091SOL    HW229910   2.676   0.942   2.006 -0.0721 -1.3774  0.1367
 6092SOL     OW29911   0.498   1.668   2.174  0.0828  0.8003  0.5842
 6092SOL    HW129912   0.532   1.666   2.085 -0.4151 -1.9235  0.4673
 6092SOL    HW229913   0.458   1.755   2.178  0.0021  0.7704  0.4219
 6093SOL     OW29914   0.040   4.330   4.491 -0.1921  0.1758  0.4017
 6093SOL    HW129915   4.701   4.374   4.450 -1.1478  0.1122  2.0656
 6093SOL    HW229916   0.028   4.380   4.572 -0.0481  2.1169 -0.7993
 6094SOL     OW29917   0.517   4.563  14.294  0.3085 -0.4993  0.2412
 6094SOL    HW129918   0.440   4.619  14.291  0.7055  0.1289  1.5158
 6094SOL    HW229919   0.468   4.481  14.301 -0.4330 -0.0906 -0.2401
 6095SOL     OW29920   2.412   1.291   8.071 -0.0181 -0.5865  0.0512
 6095SOL    HW129921   2.383   1.352   8.003 -1.2577 -0.9538  0.2455
 6095SOL    HW229922   2.327   1.269   8.109  0.0951 -1.1365 -0.0154
 6096SOL     OW29923   1.470   1.463  13.676  0.0797  0.0105  0.0087
 6096SOL    HW129924   1.474   1.455  13.580  0.7645 -1.1480  0.1287
 6096SOL    HW229925   1.451   1.556  13.677 -1.8699 -0.3905  1.2291
 6097SOL     OW29926   3.724   2.409   4.662 -0.2251 -0.3987  0.5730
 6097SOL    HW129927   3.648   2.466   4.651  0.1126 -0.2889 -1.2054
 6097SOL    HW229928   3.773   2.437   4.584  0.0817 -1.1852  0.4792
 6098SOL     OW29929   2.954   1.375   6.521 -0.0531  0.0552  0.3046
 6098SOL    HW129930   2.964   1.382   6.426  1.5579  0.9291  0.5322
 6098SOL    HW229931   3.042   1.349   6.547 -0.2350  0.0592  0.9195
 6099SOL     OW29932   2.108   0.424   8.133 -0.1215 -0.2898  0.1857
 6099SOL    HW129933   2.098   0.427   8.228 -1.3581 -2.5908  0.1407
 6099SOL    HW229934   2.193   0.468   8.124 -0.1168 -0.0576  1.3793
 6100SOL     OW29935   1.721   2.387   6.745  0.0546  0.4882  0.0825
 6100SOL    HW129936   1.665   2.372   6.668  0.2142 -1.2594  0.3108
 6100SOL    HW229937   1.739   2.294   6.756 -1.3941  0.1104 -0.7660
 6101SOL     OW29938   4.349   3.583   3.765 -0.2993 -0.1795  0.3265
 6101SOL    HW129939   4.266   3.544   3.739 -0.3768 -1.1486  2.0605
 6101SOL    HW229940   4.312   3.671   3.776  1.8365  1.0581 -2.3694
 6102SOL     OW29941   0.376   1.353   8.629 -0.8996 -0.1856 -0.3516
 6102SOL    HW129942   0.448   1.352   8.692 -1.4378  1.4259  0.2966
 6102SOL    HW229943   0.301   1.313   8.672  0.6345  0.7112  3.1487
 6103SOL     OW29944   4.063   4.033   7.676 -0.0583 -0.0803 -0.0993
 6103SOL    HW129945   3.972   4.023   7.646 -0.2602 -2.0498  1.1731
 6103SOL    HW229946   4.078   3.956   7.732  0.7506 -0.6119 -1.0438
 6104SOL     OW29947   1.355   1.569   7.334  0.3569 -0.5321 -0.4381
 6104SOL    HW129948   1.400   1.645   7.297  0.4422  0.1177  0.9907
 6104SOL    HW229949   1.427   1.521   7.375  1.3786  2.6875  1.5533
 6105SOL     OW29950   1.919   0.603  15.303  0.7041  0.2009  0.4684
 6105SOL    HW129951   1.868   0.587  15.224 -0.5535 -0.9307  1.4827
 6105SOL    HW229952   1.904   0.694  15.327 -2.3156  0.0016 -0.6050
 6106SOL     OW29953   0.373   2.237  11.186  0.5298  0.3064 -0.3455
 6106SOL    HW129954   0.423   2.316  11.167  0.2874  0.8697  1.3063
 6106SOL    HW229955   0.444   2.177  11.209  2.0674  1.5385 -1.8968
 6107SOL     OW29956   4.296   0.941   6.610  0.1471  0.5264 -0.7214
 6107SOL    HW129957   4.225   0.999   6.638  0.8723  1.0975 -0.1082
 6107SOL    HW229958   4.245   0.867   6.576 -0.8637  0.1526  1.6338
 6108SOL     OW29959   1.852   0.692   3.915 -0.4227 -0.3514 -0.6358
 6108SOL    HW129960   1.914   0.634   3.959 -0.8199 -0.2899 -0.0035
 6108SOL    HW229961   1.777   0.634   3.899 -1.0938  0.5276 -0.6842
 6109SOL     OW29962   4.625   1.083   8.771  0.3681 -0.6057 -0.4108
 6109SOL    HW129963   4.623   1.088   8.866 -0.8493  2.3390 -0.6167
 6109SOL    HW229964   4.543   1.128   8.751 -0.1680 -1.6405 -0.5492
 6110SOL     OW29965   3.149   2.882   3.776 -0.2664 -0.1046 -0.1723
 6110SOL    HW129966   3.211   2.834   3.831 -0.3403 -0.6753 -0.5884
 6110SOL    HW229967   3.099   2.936   3.837 -0.5551  0.0243 -0.5219
 6111SOL     OW29968   3.369   2.792  15.807 -0.4989  0.3655 -0.2933
 6111SOL    HW129969   3.418   2.865  15.768  0.3579  0.8335  1.6538
 6111SOL    HW229970   3.292   2.844  15.832 -0.0544 -0.2264  2.3605
 6112SOL     OW29971   4.707   1.115   1.534  0.2186  0.0733 -0.5772
 6112SOL    HW129972   4.650   1.102   1.458 -1.4838 -2.1323  1.0613
 6112SOL    HW229973   4.713   1.210   1.534 -3.8916  0.3529  1.5375
 6113SOL     OW29974   4.655   3.061  13.375 -0.8126 -0.1774  0.4017
 6113SOL    HW129975   4.628   3.132  13.433  0.6077  0.7793 -0.1194
 6113SOL    HW229976   4.623   2.982  13.418  1.0575  0.1532  2.3847
 6114SOL     OW29977   3.946   3.260  11.776  0.1828 -0.2737 -0.3194
 6114SOL    HW129978   3.988   3.304  11.851  3.6038 -0.3515 -2.1936
 6114SOL    HW229979   4.003   3.191  11.744 -0.1912 -0.9098  0.4006
 6115SOL     OW29980   3.850   0.632   3.320 -0.5228 -0.5534 -0.2203
 6115SOL    HW129981   3.898   0.556   3.289 -0.6602 -0.2494 -1.1666
 6115SOL    HW229982   3.775   0.588   3.362  0.4428 -2.6237 -0.6508
 6116SOL     OW29983   2.145   4.028   4.225 -0.4315  0.4991  0.4547
 6116SOL    HW129984   2.173   4.015   4.316  0.2234  2.3837  0.5178
 6116SOL    HW229985   2.217   3.981   4.182  1.2142  3.7142 -0.3332
 6117SOL     OW29986   2.362   4.497   3.643 -0.6442 -0.1003  0.3979
 6117SOL    HW129987   2.408   4.456   3.716  1.0089  0.6709 -0.2271
 6117SOL    HW229988   2.363   4.590   3.667  0.9224  0.0023 -0.0841
 6118SOL     OW29989   3.632   2.632  14.139 -0.3466 -0.0076  0.3917
 6118SOL    HW129990   3.564   2.642  14.072 -0.0969  3.5162  0.6515
 6118SOL    HW229991   3.711   2.607  14.090 -0.7767 -0.7645  0.0820
 6119SOL     OW29992   1.025   4.537   7.061  0.2117  0.5297 -0.5557
 6119SOL    HW129993   0.955   4.473   7.074  3.0145 -2.8013 -1.7902
 6119SOL    HW229994   1.091   4.484   7.016  1.7309 -0.2918  2.7082
 6120SOL     OW29995   4.096   0.991   1.503  0.2165  0.0675 -0.1744
 6120SOL    HW129996   4.110   1.085   1.492 -2.8308  0.4551 -0.6603
 6120SOL    HW229997   4.185   0.968   1.531  0.0185  0.1999  0.5507
 6121SOL     OW29998   2.012   0.750   4.953 -0.7125 -0.1254  0.1008
 6121SOL    HW129999   1.921   0.721   4.944 -2.0205  4.2845 -0.9499
 6121SOL    HW230000   2.054   0.669   4.983 -0.5726  0.2128  0.8251
 6122SOL     OW30001   2.520   3.792   4.531  0.0447 -0.4247  0.0132
 6122SOL    HW130002   2.573   3.806   4.453 -0.2571  0.7666  0.0216
 6122SOL    HW230003   2.481   3.708   4.504  0.2612  0.0103 -1.6616
 6123SOL     OW30004   3.486   2.957   7.925 -0.1350  0.3414 -0.3670
 6123SOL    HW130005   3.483   3.050   7.906 -0.8454  0.2207 -0.8775
 6123SOL    HW230006   3.533   2.930   7.846 -1.1563  0.1213 -0.8978
 6124SOL     OW30007   3.256   4.645   3.051 -0.1006 -0.2885 -0.4750
 6124SOL    HW130008   3.241   4.658   2.958  2.1678  1.0067 -0.6680
 6124SOL    HW230009   3.173   4.658   3.097  0.3105  0.4832  0.0492
 6125SOL     OW30010   3.762   1.658   4.136 -0.2055 -0.3441 -0.1152
 6125SOL    HW130011   3.725   1.646   4.049 -1.2295  4.0409 -0.2589
 6125SOL    HW230012   3.823   1.584   4.139 -0.1441 -0.3083 -0.5239
 6126SOL     OW30013   0.867   2.831   8.294  0.8302  0.1043  0.0070
 6126SOL    HW130014   0.849   2.743   8.261  0.3004 -0.5910  2.2041
 6126SOL    HW230015   0.924   2.806   8.367  1.6762 -1.4014 -1.1713
 6127SOL     OW30016   1.149   1.908  10.796 -0.2222 -0.4527 -0.4113
 6127SOL    HW130017   1.073   1.953  10.760  1.9398  1.7316 -2.1825
 6127SOL    HW230018   1.189   1.971  10.856 -2.0777  1.2703 -0.9820
 6128SOL     OW30019   0.325   4.366   3.912 -0.3052 -0.0235 -0.2028
 6128SOL    HW130020   0.304   4.375   4.005  3.4615 -2.0428  0.8607
 6128SOL    HW230021   0.318   4.271   3.909 -1.1412  0.0690 -1.0910
 6129SOL     OW30022   0.200   2.609   2.471 -0.4891 -0.6657  0.4357
 6129SOL    HW130023   0.141   2.593   2.398  1.4837  0.4550 -1.4223
 6129SOL    HW230024   0.269   2.649   2.418 -1.2445  0.2678  0.1590
 6130SOL     OW30025   2.906   4.386   3.799 -0.3376  0.8218 -0.1105
 6130SOL    HW130026   2.959   4.463   3.780  1.1864  0.0968  1.2430
 6130SOL    HW230027   2.822   4.425   3.774 -1.5836 -2.1731 -0.5916
 6131SOL     OW30028   1.775   4.070   2.941 -0.3924 -0.3250 -0.2883
 6131SOL    HW130029   1.738   4.064   3.029 -0.9089  0.8772 -0.4257
 6131SOL    HW230030   1.788   4.164   2.930  2.8071 -0.1964  4.5455
 6132SOL     OW30031   0.724   2.039   3.012 -0.2673  0.1704 -0.3791
 6132SOL    HW130032   0.642   2.050   2.963  1.1408 -0.2587 -2.8280
 6132SOL    HW230033   0.693   2.012   3.098  1.6753 -1.5776 -0.2521
 6133SOL     OW30034   4.260   1.349   4.295 -0.0552  0.1924  0.2227
 6133SOL    HW130035   4.171   1.384   4.307  0.3200  1.2423 -0.0468
 6133SOL    HW230036   4.316   1.413   4.338 -0.1391 -0.8717  1.8961
 6134SOL     OW30037   1.595   1.988   6.426  0.1104 -0.3833 -0.0943
 6134SOL    HW130038   1.597   1.952   6.515  1.1555 -1.9097 -0.7274
 6134SOL    HW230039   1.581   1.913   6.368 -0.5440 -2.0505  2.1984
 6135SOL     OW30040   2.652   4.569   9.113  0.3972  0.1611  0.7964
 6135SOL    HW130041   2.692   4.488   9.079  0.0448  1.2396 -2.2330
 6135SOL    HW230042   2.564   4.541   9.138  0.6382  0.5088  2.0235
 6136SOL     OW30043   4.508   2.303   2.471  0.3579 -0.2748 -0.9081
 6136SOL    HW130044   4.493   2.209   2.464 -2.2714  0.3342 -3.6474
 6136SOL    HW230045   4.563   2.321   2.394 -3.1702  1.0209 -3.1232
 6137SOL     OW30046   0.683   1.968  14.528  0.1196 -0.6237  0.7806
 6137SOL    HW130047   0.685   1.926  14.614 -0.3554 -3.0840 -0.3883
 6137SOL    HW230048   0.775   1.961  14.502 -0.1441 -1.2117  0.0048
 6138SOL     OW30049   1.383   0.258  12.891 -0.3042 -0.3282 -0.5177
 6138SOL    HW130050   1.444   0.205  12.840  1.1622 -1.4682  2.4110
 6138SOL    HW230051   1.330   0.297  12.822 -0.0347  0.1196 -0.4659
 6139SOL     OW30052   0.733   0.478   4.838  0.1078 -0.2864 -0.2386
 6139SOL    HW130053   0.802   0.442   4.782 -1.1230  0.6742 -2.3890
 6139SOL    HW230054   0.667   0.518   4.782  0.0418 -2.3921 -1.6877
 6140SOL     OW30055   0.008   2.871   3.485  0.6637 -0.2716  0.2507
 6140SOL    HW130056   0.019   2.956   3.527  2.1518  0.4307 -1.6041
 6140SOL    HW230057   4.662   2.831   3.517  0.6680  0.4935  1.2131
 6141SOL     OW30058   2.131   4.652   3.778 -0.3924  0.0179  0.3347
 6141SOL    HW130059   2.196   4.716   3.806 -0.4349  1.0847 -1.9852
 6141SOL    HW230060   2.178   4.569   3.787 -0.7968  0.0992  3.1044
 6142SOL     OW30061   2.825   2.609   8.809 -0.4703 -0.5292 -0.0053
 6142SOL    HW130062   2.898   2.671   8.813 -1.3834  0.5225  0.4966
 6142SOL    HW230063   2.792   2.632   8.722  0.0319 -1.5717 -0.4670
 6143SOL     OW30064   0.875   2.222  17.501  0.4245 -0.3665 -0.2645
 6143SOL    HW130065   0.796   2.168  17.505 -0.0666  0.2721 -1.3684
 6143SOL    HW230066   0.908   2.208  17.413  1.3651 -0.9439  0.1892
 6144SOL     OW30067   0.867   1.564   7.497 -0.7356  0.0525  0.5521
 6144SOL    HW130068   0.956   1.582   7.467 -1.5180 -0.7783 -2.2333
 6144SOL    HW230069   0.857   1.639   7.556  0.0003  0.4334  0.1838
 6145SOL     OW30070   0.402   3.394   3.309  0.0417 -0.1347  0.7851
 6145SOL    HW130071   0.361   3.474   3.343  0.7206  0.6476 -0.2176
 6145SOL    HW230072   0.493   3.424   3.303 -1.0491  2.6054 -1.6490
 6146SOL     OW30073   1.365   2.562  16.217  0.2849 -0.1776 -0.1217
 6146SOL    HW130074   1.286   2.616  16.206  0.5123 -0.0118 -0.9517
 6146SOL    HW230075   1.326   2.492  16.269  1.1959  0.1893  1.0540
 6147SOL     OW30076   1.929   2.531   6.273 -0.3390 -0.6692  0.2819
 6147SOL    HW130077   1.989   2.605   6.262 -1.0348  0.0120  0.9983
 6147SOL    HW230078   1.893   2.541   6.362 -3.8531  0.1912 -1.2256
 6148SOL     OW30079   3.818   2.863  14.748  0.3444 -0.0706  0.7393
 6148SOL    HW130080   3.747   2.890  14.690  1.3993 -0.1939 -0.5994
 6148SOL    HW230081   3.880   2.934  14.732  0.2470 -0.3524 -0.9136
 6149SOL     OW30082   2.568   3.555  15.684  0.2177  0.5356  0.5959
 6149SOL    HW130083   2.595   3.579  15.773 -1.7231  0.9143  1.0686
 6149SOL    HW230084   2.516   3.475  15.691 -0.1793  0.7419 -0.0359
 6150SOL     OW30085   2.943   3.473   2.563  0.1346  0.0634  0.5364
 6150SOL    HW130086   2.883   3.437   2.628  1.0821 -0.8425  0.9095
 6150SOL    HW230087   3.013   3.407   2.562  1.1411  1.1355 -0.1213
 6151SOL     OW30088   0.352   1.441  16.936 -0.3499 -0.0653 -0.1937
 6151SOL    HW130089   0.330   1.348  16.945  0.2238 -0.3328 -1.4895
 6151SOL    HW230090   0.439   1.444  16.977 -0.9442  0.2923  1.0185
 6152SOL     OW30091   1.212   4.379   6.929  0.4564 -0.1618  0.1438
 6152SOL    HW130092   1.202   4.404   6.837 -0.4266 -1.1573 -0.0222
 6152SOL    HW230093   1.287   4.437   6.946 -0.2793  0.9319 -0.3439
 6153SOL     OW30094   4.521   4.397  14.400  0.2504 -0.4156  0.1016
 6153SOL    HW130095   4.473   4.478  14.416 -0.2427 -0.8026  0.5769
 6153SOL    HW230096   4.609   4.435  14.403  0.3460 -0.6030 -0.3111
 6154SOL     OW30097   0.181   0.653   8.678 -0.1191  0.3202  0.0814
 6154SOL    HW130098   0.219   0.656   8.766 -0.3428 -1.6078  0.2422
 6154SOL    HW230099   0.099   0.699   8.695 -0.3135  0.1187 -0.3065
 6155SOL     OW30100   0.408   0.310   5.813  0.3244 -0.1466 -0.1465
 6155SOL    HW130101   0.477   0.297   5.877 -0.5314  1.1162  1.0347
 6155SOL    HW230102   0.354   0.232   5.827 -1.5060  0.8447 -1.5823
 6156SOL     OW30103   2.546   2.708   4.117  0.2343 -0.1517  0.2243
 6156SOL    HW130104   2.616   2.739   4.175  1.3158 -1.0252 -0.6181
 6156SOL    HW230105   2.536   2.784   4.058  1.1890  0.5375  0.9369
 6157SOL     OW30106   0.764   0.705   3.387  0.2040 -0.8126  0.0346
 6157SOL    HW130107   0.775   0.733   3.478 -2.8209 -1.3139  0.5557
 6157SOL    HW230108   0.843   0.744   3.349  0.3145 -0.8147  0.2631
 6158SOL     OW30109   1.814   4.612   7.802 -0.5624 -0.1964  0.4527
 6158SOL    HW130110   1.886   4.561   7.839 -0.1083  2.1331  2.7871
 6158SOL    HW230111   1.846   4.632   7.715 -1.5364  2.7220  0.7519
 6159SOL     OW30112   0.491   3.544   9.249  0.4787  0.1065 -0.1897
 6159SOL    HW130113   0.479   3.630   9.208 -0.5125 -0.6688 -1.5283
 6159SOL    HW230114   0.491   3.491   9.169 -0.8293 -0.5310  0.2313
 6160SOL     OW30115   4.056   4.340   4.224  0.1169 -0.8467  0.2893
 6160SOL    HW130116   4.013   4.255   4.222 -2.1331  0.3073 -0.7366
 6160SOL    HW230117   3.987   4.398   4.191  1.7122  1.1838  0.5026
 6161SOL     OW30118   4.637   0.105  10.467  0.1105  0.1034  0.1174
 6161SOL    HW130119   4.679   0.027  10.503 -1.2546 -0.7460 -0.1720
 6161SOL    HW230120   4.716   0.159  10.471 -1.3651  2.2540  0.1095
 6162SOL     OW30121   0.673   0.686   5.489  0.2739 -0.2030 -0.0358
 6162SOL    HW130122   0.711   0.713   5.573 -2.0031  1.8637  0.3414
 6162SOL    HW230123   0.580   0.711   5.489  0.7468  1.5104 -1.2868
 6163SOL     OW30124   3.070   2.855  11.828  0.0132 -0.1848  0.1962
 6163SOL    HW130125   3.039   2.782  11.776  0.7704  0.1147 -0.6846
 6163SOL    HW230126   3.016   2.927  11.796 -0.5762 -0.6822  0.0864
 6164SOL     OW30127   2.366   2.838   0.988  0.1576 -0.6141  0.1354
 6164SOL    HW130128   2.390   2.810   1.076  1.0524 -1.0813 -0.2548
 6164SOL    HW230129   2.295   2.896   1.015  0.4596 -0.3262  0.2974
 6165SOL     OW30130   0.110   1.383   0.449 -0.0607 -0.7972 -0.1530
 6165SOL    HW130131   0.030   1.396   0.499 -1.2232 -0.6252 -2.0620
 6165SOL    HW230132   0.161   1.346   0.521 -0.3669 -0.0950  0.4283
 6166SOL     OW30133   2.610   3.890   6.541  0.6891  0.1852  0.3960
 6166SOL    HW130134   2.629   3.983   6.533 -0.1727  0.3564  0.3632
 6166SOL    HW230135   2.638   3.851   6.458 -0.8994  1.0733 -0.5584
 6167SOL     OW30136   2.627   3.472  11.102  0.2331  0.7144  0.3963
 6167SOL    HW130137   2.578   3.540  11.148  2.3608  1.7419  1.1233
 6167SOL    HW230138   2.701   3.523  11.070  0.7144 -0.5686 -0.5156
 6168SOL     OW30139   1.183   3.580   6.528  0.7087 -0.3134  0.1397
 6168SOL    HW130140   1.181   3.675   6.529 -0.8698 -0.3462  0.0762
 6168SOL    HW230141   1.120   3.561   6.598 -1.4957  1.0315 -1.5175
 6169SOL     OW30142   2.484   3.782   8.920 -0.2510  0.1229 -0.1573
 6169SOL    HW130143   2.544   3.797   8.847 -2.4080 -0.5857 -2.0542
 6169SOL    HW230144   2.523   3.700   8.951 -0.7749 -0.0779 -0.0237
 6170SOL     OW30145   3.270   0.217   6.123 -0.6107 -0.8526  0.4081
 6170SOL    HW130146   3.195   0.206   6.065  0.0283 -0.7988 -0.4323
 6170SOL    HW230147   3.225   0.191   6.203  0.3311 -1.8368  0.6296
 6171SOL     OW30148   2.087   4.495   7.883 -0.1321  0.5967  0.3327
 6171SOL    HW130149   2.042   4.504   7.967 -0.8193  1.0647 -0.0853
 6171SOL    HW230150   2.140   4.574   7.882 -0.4084  0.7492 -3.3498
 6172SOL     OW30151   1.741   0.591   8.428  0.1458 -0.6901 -0.0182
 6172SOL    HW130152   1.746   0.686   8.437 -0.3273 -0.6005 -0.6724
 6172SOL    HW230153   1.719   0.574   8.336  1.1071 -1.5449 -0.0922
 6173SOL     OW30154   4.414   3.779   7.009 -0.8874 -0.0321 -0.1130
 6173SOL    HW130155   4.368   3.769   6.926 -2.5917 -0.1190  0.8553
 6173SOL    HW230156   4.504   3.795   6.980  0.1298 -2.5366  1.7088
 6174SOL     OW30157   3.112   0.713   4.033 -0.5503 -0.7631  0.3603
 6174SOL    HW130158   3.151   0.719   4.120  4.5193 -1.5959 -1.8869
 6174SOL    HW230159   3.132   0.797   3.991 -1.8063 -0.9586 -0.6247
 6175SOL     OW30160   3.439   0.119   7.431  0.1908  0.4809  0.5365
 6175SOL    HW130161   3.474   0.203   7.402 -0.0048  0.7792  1.1609
 6175SOL    HW230162   3.480   0.108   7.516  1.3460  1.5878  0.1203
 6176SOL     OW30163   0.256   3.636   4.204  0.0349 -0.6227  0.7293
 6176SOL    HW130164   0.221   3.586   4.277 -1.2377 -1.0220 -0.1478
 6176SOL    HW230165   0.188   3.620   4.138  0.5238 -0.5643  0.2147
 6177SOL     OW30166   4.092   2.049   4.063  0.1689 -0.2041 -0.8518
 6177SOL    HW130167   4.045   2.127   4.092 -0.8490 -0.9393 -0.5296
 6177SOL    HW230168   4.151   2.035   4.137 -1.5218 -2.1933  0.0947
 6178SOL     OW30169   4.086   1.129   8.787 -0.3448  0.1582 -0.0370
 6178SOL    HW130170   4.138   1.069   8.734 -1.2534  1.0163 -1.8770
 6178SOL    HW230171   4.070   1.075   8.864 -1.1055  0.4754  0.0303
 6179SOL     OW30172   3.241   2.693   2.950  0.0106 -0.1063 -0.0452
 6179SOL    HW130173   3.300   2.759   2.988  0.6734 -1.0840  0.6290
 6179SOL    HW230174   3.162   2.739   2.923 -0.0800 -0.2682 -0.0524
 6180SOL     OW30175   1.731   0.747   2.780  0.2904 -0.5175  0.0616
 6180SOL    HW130176   1.715   0.654   2.762  0.1315 -0.2308 -1.2461
 6180SOL    HW230177   1.786   0.734   2.857 -0.6993 -2.9273  0.3766
 6181SOL     OW30178   3.067   1.306   4.691 -0.0259  0.0134 -0.0287
 6181SOL    HW130179   3.111   1.263   4.764 -0.9970  0.5916  0.8905
 6181SOL    HW230180   3.083   1.237   4.627  1.1204 -0.6166  0.9234
 6182SOL     OW30181   4.373   1.908   2.255  0.4656 -0.3918  0.1103
 6182SOL    HW130182   4.414   1.893   2.340 -1.8477 -2.5003  0.8454
 6182SOL    HW230183   4.455   1.912   2.205 -0.2702 -1.7409 -1.2179
 6183SOL     OW30184   2.766   0.565   7.809  0.2878  0.0409 -0.0577
 6183SOL    HW130185   2.784   0.476   7.838 -4.0159 -1.0249 -0.7212
 6183SOL    HW230186   2.716   0.606   7.879  2.9089  1.2694  1.0812
 6184SOL     OW30187   3.067   3.606  12.291  0.3662  0.0247 -0.2431
 6184SOL    HW130188   3.155   3.592  12.326 -0.4654 -2.2162  0.9949
 6184SOL    HW230189   3.059   3.517  12.255  0.5422 -0.6729  1.4228
 6185SOL     OW30190   0.619   0.966   7.239  0.0171  0.1096 -0.5350
 6185SOL    HW130191   0.710   0.991   7.249 -0.2421  0.1871  1.6047
 6185SOL    HW230192   0.615   0.882   7.284  1.4073  0.3616  0.0617
 6186SOL     OW30193   3.559   3.043   5.907  0.6338 -1.1923 -0.0547
 6186SOL    HW130194   3.576   3.080   5.994  0.1689 -0.8701 -0.0974
 6186SOL    HW230195   3.551   3.119   5.850  2.1489  0.5024  1.9923
 6187SOL     OW30196   3.027   1.588  12.393 -0.2919  0.5138  0.6576
 6187SOL    HW130197   2.991   1.507  12.430 -2.4778  0.4970 -1.4993
 6187SOL    HW230198   3.122   1.576  12.390 -0.3637 -0.2122  1.4034
 6188SOL     OW30199   0.633   2.410   0.876 -0.0496 -0.0005 -0.0330
 6188SOL    HW130200   0.605   2.501   0.865  0.3791  0.5393  3.5113
 6188SOL    HW230201   0.642   2.398   0.970  0.3415 -2.9971 -0.4478
 6189SOL     OW30202   2.902   3.003   7.883 -0.3671 -0.0866  0.0802
 6189SOL    HW130203   2.923   3.070   7.818 -2.4713 -0.2037 -0.7345
 6189SOL    HW230204   2.841   3.051   7.939 -0.8630 -0.9503  0.2861
 6190SOL     OW30205   2.030   3.172  11.516 -0.1752  0.2974  0.0202
 6190SOL    HW130206   2.021   3.153  11.609 -0.6610 -0.0808 -0.1075
 6190SOL    HW230207   2.081   3.253  11.517 -1.0278  0.8143  1.1486
 6191SOL     OW30208   2.148   0.711  14.204  0.1996 -0.0138 -0.3580
 6191SOL    HW130209   2.125   0.693  14.113  0.1725  0.3598 -0.4264
 6191SOL    HW230210   2.237   0.744  14.214  0.5525 -1.2254  0.4886
 6192SOL     OW30211   2.178   0.735  16.179 -0.0609 -0.1533 -0.1304
 6192SOL    HW130212   2.104   0.772  16.131 -0.5891 -1.1250 -0.0669
 6192SOL    HW230213   2.148   0.723  16.269  0.1727  0.7634  0.0689
 6193SOL     OW30214   1.910   1.064   4.710 -0.5733  0.0117  0.1708
 6193SOL    HW130215   1.935   1.047   4.801 -1.6679  3.4217  1.1064
 6193SOL    HW230216   1.892   1.157   4.705  2.3540  0.5892  0.0669
 6194SOL     OW30217   2.195   2.948   2.033 -0.3801  0.1245  0.2552
 6194SOL    HW130218   2.186   2.873   1.974 -0.6834  1.6717 -1.6683
 6194SOL    HW230219   2.106   2.983   2.043  0.0070  0.5034  2.3272
 6195SOL     OW30220   1.295   2.776  15.418 -0.3308  0.2310  0.1258
 6195SOL    HW130221   1.348   2.849  15.450  0.5481 -0.3557  0.0081
 6195SOL    HW230222   1.255   2.826  15.347 -0.4829 -0.6512 -0.4111
 6196SOL     OW30223   1.515   3.132   9.882 -0.0252  0.1769 -0.6643
 6196SOL    HW130224   1.586   3.146   9.945  1.0303 -2.8740 -1.1476
 6196SOL    HW230225   1.513   3.037   9.889 -1.6211  0.0779 -2.5240
 6197SOL     OW30226   1.884   4.152   7.880  0.5664 -0.1127 -0.3596
 6197SOL    HW130227   1.891   4.080   7.817 -0.1181 -1.4008  1.0362
 6197SOL    HW230228   1.839   4.108   7.952 -1.1477 -1.5905 -2.3126
 6198SOL     OW30229   2.925   3.547   9.597  0.5847  0.4235 -0.0927
 6198SOL    HW130230   2.936   3.480   9.665  0.7339 -0.2868 -0.8128
 6198SOL    HW230231   2.851   3.604   9.615  2.1720  2.2057  0.7739
 6199SOL     OW30232   0.254   1.518   5.580  0.0837  0.1127  0.0792
 6199SOL    HW130233   0.186   1.476   5.526 -0.8778  1.2022  0.4394
 6199SOL    HW230234   0.298   1.451   5.633 -2.7001 -3.1707 -1.7078
 6200SOL     OW30235   2.870   0.309   3.772  0.1253  0.5485  0.0337
 6200SOL    HW130236   2.801   0.359   3.729  1.0255  0.8631 -1.0517
 6200SOL    HW230237   2.887   0.357   3.852  2.7697  0.6028 -0.5359
 6201SOL     OW30238   2.292   3.717   0.433  0.2277 -0.3101  0.5840
 6201SOL    HW130239   2.203   3.697   0.403  0.8013 -0.2005 -1.2147
 6201SOL    HW230240   2.341   3.710   0.351 -1.5929 -0.5633 -0.4853
 6202SOL     OW30241   4.365   2.693  12.627 -0.2579 -0.3226  0.1299
 6202SOL    HW130242   4.425   2.671  12.556 -0.6380 -1.0328  0.0283
 6202SOL    HW230243   4.317   2.768  12.592 -2.3488 -1.3624  0.8047
 6203SOL     OW30244   4.424   0.626   4.876  0.4511  0.0127 -0.2947
 6203SOL    HW130245   4.335   0.601   4.850  0.6538 -1.5116  0.4827
 6203SOL    HW230246   4.460   0.548   4.919 -0.6493 -1.2224 -1.5984
 6204SOL     OW30247   3.493   4.175   0.663 -0.5118 -0.2534 -0.6424
 6204SOL    HW130248   3.528   4.241   0.603  3.6100 -2.3041 -0.5193
 6204SOL    HW230249   3.570   4.130   0.697  1.3014  1.3503 -2.6225
 6205SOL     OW30250   4.498   2.490   4.900  0.4208  0.2722  0.0977
 6205SOL    HW130251   4.442   2.437   4.958  2.1114 -1.4701  0.1475
 6205SOL    HW230252   4.576   2.507   4.952  2.3622 -1.0183 -2.3769
 6206SOL     OW30253   3.640   2.424  10.622 -0.4794 -0.1286 -0.5688
 6206SOL    HW130254   3.703   2.436  10.693 -0.2050 -1.6236 -0.5701
 6206SOL    HW230255   3.695   2.468  10.558  0.6761 -0.4972  0.1719
 6207SOL     OW30256   0.886   1.560   6.338  0.0485 -0.3575 -0.1260
 6207SOL    HW130257   0.807   1.549   6.391  0.7205  1.8017  1.3451
 6207SOL    HW230258   0.921   1.471   6.339 -0.3324 -0.5136 -1.2687
 6208SOL     OW30259   2.513   1.262  11.633  0.0223  0.3420 -1.1062
 6208SOL    HW130260   2.418   1.263  11.644  0.3555  2.0174  1.4061
 6208SOL    HW230261   2.516   1.355  11.654 -0.1595 -0.2720  1.6041
 6209SOL     OW30262   1.060   1.956   6.161 -0.0404 -0.5425 -0.0265
 6209SOL    HW130263   1.024   2.045   6.158 -3.6089 -1.8843  3.1169
 6209SOL    HW230264   1.134   1.962   6.221  0.3327 -0.3338 -0.5041
 6210SOL     OW30265   1.888   4.523   1.528 -0.8930 -1.0712  0.2192
 6210SOL    HW130266   1.834   4.567   1.462 -0.7196 -1.9977 -0.5448
 6210SOL    HW230267   1.822   4.502   1.594  0.9114 -1.1570  1.9670
 6211SOL     OW30268   4.495   3.058   2.328 -0.1970  0.3148  0.0548
 6211SOL    HW130269   4.407   3.024   2.344 -0.1967  0.0685 -0.4627
 6211SOL    HW230270   4.486   3.122   2.257 -1.9334  0.2567  0.2298
 6212SOL     OW30271   2.496   0.122  15.040 -0.3158  0.0194  0.0080
 6212SOL    HW130272   2.537   0.043  15.075  1.7124  0.5542 -1.1019
 6212SOL    HW230273   2.465   0.100  14.953  0.2911 -2.5644  0.4603
 6213SOL     OW30274   3.248   0.921   6.826 -0.1253 -0.4392 -0.1938
 6213SOL    HW130275   3.334   0.961   6.836  0.3954 -1.2033 -1.5726
 6213SOL    HW230276   3.278   0.834   6.799 -0.2332 -0.3741 -0.5274
 6214SOL     OW30277   4.442   1.890   8.357 -0.4463  0.4208 -0.1097
 6214SOL    HW130278   4.411   1.839   8.432 -2.7848  0.4981 -1.0271
 6214SOL    HW230279   4.409   1.973   8.393  2.5316  1.8915 -0.7536
 6215SOL     OW30280   3.980   4.557   5.803 -0.0808  0.5721  0.6263
 6215SOL    HW130281   4.015   4.474   5.772 -1.9177  0.5014 -1.2290
 6215SOL    HW230282   3.891   4.542   5.837  0.6517 -1.0727  1.8299
 6216SOL     OW30283   0.203   0.064  13.331  0.0249 -0.2082  0.1697
 6216SOL    HW130284   0.204   0.041  13.424  1.3485  0.5245  0.3302
 6216SOL    HW230285   0.150   0.143  13.323  1.5774  1.1215  3.0815
 6217SOL     OW30286   4.644   0.007  16.366 -0.5131 -0.1482  0.1119
 6217SOL    HW130287   4.633   0.060  16.444  0.0635  1.1639 -0.7024
 6217SOL    HW230288   4.560   4.697  16.364  0.7862 -2.5875 -0.0802
 6218SOL     OW30289   3.178   4.078   6.553 -0.3887  0.0971  0.2820
 6218SOL    HW130290   3.205   4.144   6.617 -0.6560 -1.5680  2.1315
 6218SOL    HW230291   3.202   3.992   6.588  0.2331 -0.6625 -2.0456
 6219SOL     OW30292   1.305   0.995   8.449 -0.8119  0.2499  0.0732
 6219SOL    HW130293   1.323   1.042   8.367  2.7148  0.2534  0.8372
 6219SOL    HW230294   1.332   1.060   8.514  0.9002  1.4634 -1.8514
 6220SOL     OW30295   3.984   4.623  13.803 -0.2196 -0.2027 -0.1576
 6220SOL    HW130296   3.919   4.556  13.779 -0.5951  0.6082 -1.4472
 6220SOL    HW230297   4.052   4.561  13.829 -0.9551 -0.7489  0.4805
 6221SOL     OW30298   4.382   2.190  10.955  0.0413 -0.1091 -0.5237
 6221SOL    HW130299   4.389   2.095  10.943 -1.3099 -0.2108 -0.4007
 6221SOL    HW230300   4.387   2.198  11.050 -1.5875 -0.9428 -0.3741
 6222SOL     OW30301   2.802   1.234   2.075 -0.0019 -0.0855  0.0830
 6222SOL    HW130302   2.801   1.171   2.147 -0.9843  1.8084  1.7445
 6222SOL    HW230303   2.869   1.291   2.112 -0.7534  0.2998  0.8730
 6223SOL     OW30304   0.372   0.305   9.121 -0.1011  0.0259  0.4201
 6223SOL    HW130305   0.322   0.363   9.064  0.1974  1.0409  1.1859
 6223SOL    HW230306   0.459   0.304   9.082  0.0541  1.7640  0.6885
 6224SOL     OW30307   4.345   3.065  10.400  0.6317  0.4266  0.3297
 6224SOL    HW130308   4.366   3.048  10.308 -1.5691  2.1664 -0.4910
 6224SOL    HW230309   4.421   3.123  10.411 -0.2500  1.5118  0.7126
 6225SOL     OW30310   2.070   1.773   3.669  0.0473 -0.4030  0.0377
 6225SOL    HW130311   2.069   1.751   3.762  0.9691  0.3777  0.2273
 6225SOL    HW230312   1.988   1.822   3.660 -0.0585 -0.3004  1.6825
 6226SOL     OW30313   3.236   0.564  15.953 -0.1724 -0.4183 -0.0342
 6226SOL    HW130314   3.261   0.652  15.926  0.2710 -1.0275 -1.6080
 6226SOL    HW230315   3.285   0.542  16.032  1.4364  0.8422 -0.6760
 6227SOL     OW30316   2.931   4.543   0.941  0.0571  0.0393 -0.2827
 6227SOL    HW130317   2.924   4.562   1.035 -1.2142 -0.0802 -0.3597
 6227SOL    HW230318   2.844   4.508   0.925 -0.0047  0.2899 -0.4964
 6228SOL     OW30319   2.355   2.777  11.879  0.0406  0.2326 -0.4604
 6228SOL    HW130320   2.306   2.739  11.953 -0.4985  0.8390 -0.5098
 6228SOL    HW230321   2.387   2.858  11.919  0.9328  0.4859 -1.7062
 6229SOL     OW30322   0.731   0.827   2.695 -0.0046 -0.4042 -0.7706
 6229SOL    HW130323   0.787   0.853   2.768 -0.4187 -1.1966 -0.1641
 6229SOL    HW230324   0.786   0.758   2.657 -1.0305 -0.8765 -1.3801
 6230SOL     OW30325   0.654   1.027   9.971  0.5095 -0.0680  0.1108
 6230SOL    HW130326   0.669   1.121   9.984  3.1035 -0.6149  0.9819
 6230SOL    HW230327   0.662   1.007  10.064 -2.3086 -2.3815 -0.1548
 6231SOL     OW30328   4.172   3.150   4.421  0.1218  0.3499  0.3113
 6231SOL    HW130329   4.105   3.091   4.385 -0.9771  1.2820  0.8145
 6231SOL    HW230330   4.163   3.150   4.517  1.2542 -1.7571  0.4108
 6232SOL     OW30331   2.755   1.733   4.860 -0.5211  0.0893  0.1147
 6232SOL    HW130332   2.758   1.639   4.839 -0.9463 -0.4526  2.4646
 6232SOL    HW230333   2.812   1.734   4.936  2.4587 -2.7056 -2.1022
 6233SOL     OW30334   2.463   1.472  11.141  0.2505 -0.2475  0.0227
 6233SOL    HW130335   2.425   1.518  11.216 -2.2933 -0.7882 -0.9541
 6233SOL    HW230336   2.509   1.402  11.188  0.2858  0.6582  1.3619
 6234SOL     OW30337   0.809   1.079   9.659 -0.0090  0.4154  0.0178
 6234SOL    HW130338   0.766   1.154   9.700  0.9787 -0.4253  2.6084
 6234SOL    HW230339   0.898   1.107   9.681  0.4704 -2.4593  1.7982
 6235SOL     OW30340   1.445   2.167  15.637  0.2539  0.3549  0.1293
 6235SOL    HW130341   1.369   2.223  15.653  1.7321  2.8455 -1.5417
 6235SOL    HW230342   1.472   2.129  15.720 -0.9320  0.6324  0.6500
 6236SOL     OW30343   0.835   2.742  13.996 -0.4175  0.0073  0.5370
 6236SOL    HW130344   0.749   2.778  14.018 -0.3064 -0.6343  2.0102
 6236SOL    HW230345   0.884   2.817  14.028 -1.4836  1.2255 -0.6936
 6237SOL     OW30346   4.286   2.083   7.459 -0.1257 -0.1945 -0.1201
 6237SOL    HW130347   4.226   2.148   7.497  0.4912  2.1016 -3.0602
 6237SOL    HW230348   4.307   2.122   7.374  2.1090 -0.7004  0.2231
 6238SOL     OW30349   0.171   0.185   9.516 -0.3259 -0.2464  0.7566
 6238SOL    HW130350   0.255   0.179   9.470 -0.3639 -2.9281  1.0631
 6238SOL    HW230351   0.175   0.280   9.527 -0.7638 -0.0508 -0.7959
 6239SOL     OW30352   2.060   3.021   2.393  0.2513 -0.1028  0.5623
 6239SOL    HW130353   2.149   3.014   2.359  0.5526  0.9256  1.1369
 6239SOL    HW230354   2.071   2.976   2.477  2.2929  1.0029  0.9026
 6240SOL     OW30355   0.491   0.663  14.878 -0.7299 -0.1234 -0.2785
 6240SOL    HW130356   0.563   0.657  14.941 -2.4602 -0.8889  1.6375
 6240SOL    HW230357   0.408   0.664  14.925 -1.0759 -0.3205 -0.8824
 6241SOL     OW30358   2.316   3.261   9.592 -0.7380  0.2368  0.6433
 6241SOL    HW130359   2.367   3.204   9.535 -2.5174  0.7350 -1.4498
 6241SOL    HW230360   2.372   3.337   9.607 -1.4130  0.7055  0.7891
 6242SOL     OW30361   0.711   0.178   9.646  0.2044 -0.1339 -0.4732
 6242SOL    HW130362   0.693   0.085   9.635 -1.1600 -0.2387  2.7447
 6242SOL    HW230363   0.784   0.181   9.707  0.7998  2.3438 -1.3191
 6243SOL     OW30364   3.197   0.708   4.321  0.0122  0.4527 -0.0467
 6243SOL    HW130365   3.126   0.675   4.377 -0.5994 -0.2122 -1.2302
 6243SOL    HW230366   3.264   0.732   4.386 -0.1746 -1.0111  0.6687
 6244SOL     OW30367   4.677   1.689   7.084  0.0573  0.6125 -0.5332
 6244SOL    HW130368   4.652   1.597   7.079 -0.3298  0.5410  3.0349
 6244SOL    HW230369   4.662   1.701   7.178  0.3129  1.1385 -0.5599
 6245SOL     OW30370   4.159   0.011   5.927  0.6541 -0.1494 -0.2042
 6245SOL    HW130371   4.096   4.680   5.900  0.4637 -0.3981  0.8728
 6245SOL    HW230372   4.140   0.030   6.019 -2.1778 -2.4957 -0.3288
 6246SOL     OW30373   1.205   1.118  14.817 -0.4775 -0.7910 -0.2574
 6246SOL    HW130374   1.194   1.141  14.725  1.0149  2.7995  0.4694
 6246SOL    HW230375   1.122   1.071  14.827 -0.5996 -0.0642  2.1435
 6247SOL     OW30376   1.224   4.729  15.975  0.1557 -0.0013  0.1441
 6247SOL    HW130377   1.268   0.071  16.009  1.0785  0.9811 -3.2418
 6247SOL    HW230378   1.131   0.009  15.991  0.1650 -1.2424  1.3114
 6248SOL     OW30379   1.994   2.246   2.812  0.1154 -0.3564  0.6920
 6248SOL    HW130380   2.020   2.156   2.790  0.1482 -1.0160  3.3522
 6248SOL    HW230381   1.924   2.259   2.749  1.6946  0.9478 -0.7571
 6249SOL     OW30382   4.182   1.618  16.020  0.0175 -0.0745  0.0246
 6249SOL    HW130383   4.194   1.626  15.926 -2.6222  1.2478 -0.1905
 6249SOL    HW230384   4.231   1.694  16.051 -0.9312  0.1991  0.8416
 6250SOL     OW30385   1.406   3.813   9.128  0.1272 -0.2838  0.2560
 6250SOL    HW130386   1.474   3.811   9.196 -0.4051 -1.2471  0.7419
 6250SOL    HW230387   1.341   3.762   9.175  0.8927 -1.2026  0.3126
 6251SOL     OW30388   2.923   4.309   5.157  0.0809 -0.1656  0.4395
 6251SOL    HW130389   2.939   4.391   5.111  2.3015 -0.8859 -0.0641
 6251SOL    HW230390   2.944   4.329   5.248 -2.6950 -0.0656  1.0699
 6252SOL     OW30391   2.986   0.575   3.427 -0.0305 -1.2393 -0.2633
 6252SOL    HW130392   2.933   0.640   3.472  1.2561  1.5848 -2.8156
 6252SOL    HW230393   2.956   0.586   3.337  0.8010 -3.2549 -0.7703
 6253SOL     OW30394   2.992   2.059  11.083 -0.2082 -0.0095 -0.5925
 6253SOL    HW130395   3.003   2.016  11.167 -0.9792  0.2120 -0.3788
 6253SOL    HW230396   2.896   2.061  11.082 -0.2048 -0.4329 -2.6991
 6254SOL     OW30397   1.079   3.487   6.257 -0.1651 -0.0799 -0.4523
 6254SOL    HW130398   1.072   3.436   6.337  1.4203  2.5687  1.3861
 6254SOL    HW230399   1.109   3.568   6.299  1.4743 -1.6128  1.3256
 6255SOL     OW30400   1.543   1.669   5.166  0.9793 -0.1840 -0.2118
 6255SOL    HW130401   1.538   1.684   5.072  1.7817 -0.3369 -0.2776
 6255SOL    HW230402   1.557   1.574   5.169 -0.2416 -0.2910  2.0868
 6256SOL     OW30403   2.700   4.289   8.395 -0.6108  0.1283 -0.3159
 6256SOL    HW130404   2.635   4.309   8.328 -0.0420 -2.1145 -1.5242
 6256SOL    HW230405   2.676   4.211   8.445  1.0674  0.1077  0.4750
 6257SOL     OW30406   0.059   3.169   8.917 -0.7616 -0.4946  0.3081
 6257SOL    HW130407   0.053   3.211   8.832  0.2265 -0.4747  0.2472
 6257SOL    HW230408   0.060   3.240   8.981  0.6043 -0.6240  0.4410
 6258SOL     OW30409   3.953   2.799   5.874  0.7002 -0.1004  0.1463
 6258SOL    HW130410   3.926   2.757   5.792 -0.0111  2.0858 -0.7452
 6258SOL    HW230411   3.989   2.882   5.844 -1.4636 -0.1275 -2.5919
 6259SOL     OW30412   2.686   2.998   3.324  0.0894  0.0284 -0.4321
 6259SOL    HW130413   2.760   3.055   3.342 -0.9620  1.4243 -0.5432
 6259SOL    HW230414   2.722   2.928   3.378 -1.0882 -3.2548 -3.9012
 6260SOL     OW30415   4.406   0.451   4.333  0.4764 -0.4609 -0.2252
 6260SOL    HW130416   4.404   0.513   4.406 -1.6291 -1.5706  0.6428
 6260SOL    HW230417   4.457   0.384   4.377  0.3824 -0.0543  0.4964
 6261SOL     OW30418   0.753   3.054   8.202 -0.7034 -0.5066  0.1275
 6261SOL    HW130419   0.778   3.073   8.111  0.5333 -1.9737  0.1669
 6261SOL    HW230420   0.796   2.969   8.214  1.2236  0.4368 -0.1603
 6262SOL     OW30421   1.902   3.911   7.787  0.2488 -0.3518 -0.4492
 6262SOL    HW130422   1.806   3.917   7.781  0.4311  0.5668 -2.2816
 6262SOL    HW230423   1.907   3.837   7.848  0.5811  0.0431 -0.0008
 6263SOL     OW30424   1.128   2.292   0.129 -0.5712  0.1088  0.0893
 6263SOL    HW130425   1.042   2.334   0.121 -0.3812  0.5909  0.6091
 6263SOL    HW230426   1.175   2.367   0.165  1.0621 -1.0151  0.2536
 6264SOL     OW30427   4.209   4.510  15.100 -0.2520 -0.2412 -0.2220
 6264SOL    HW130428   4.251   4.529  15.017  0.1371  1.8977  0.4546
 6264SOL    HW230429   4.117   4.534  15.089 -0.3186  0.5535  1.9721
 6265SOL     OW30430   1.518   2.397  15.855 -0.3502  0.3027 -0.3529
 6265SOL    HW130431   1.557   2.438  15.778  0.1471  0.4918 -0.0046
 6265SOL    HW230432   1.551   2.451  15.927 -0.3687  1.7385 -1.4386
 6266SOL     OW30433   3.127   1.139   4.511 -0.4080 -0.4273 -0.5136
 6266SOL    HW130434   3.222   1.142   4.504 -0.4013  0.4587 -0.0394
 6266SOL    HW230435   3.105   1.046   4.516  0.3016 -0.5737 -0.0939
 6267SOL     OW30436   3.498   3.437  17.117 -0.1406 -0.5913 -0.2147
 6267SOL    HW130437   3.575   3.492  17.122  0.0435 -0.8184 -0.5721
 6267SOL    HW230438   3.438   3.509  17.136  1.2267  0.2990  0.7216
 6268SOL     OW30439   1.901   1.968   3.676 -0.5045 -0.1620 -0.5263
 6268SOL    HW130440   1.834   1.915   3.720 -0.6163 -0.8225 -1.4988
 6268SOL    HW230441   1.841   2.034   3.641 -2.9647 -2.0924  0.0450
 6269SOL     OW30442   2.292   0.420   4.026  0.0620 -0.0370  0.4275
 6269SOL    HW130443   2.278   0.325   4.030 -0.4144  0.1067  2.0308
 6269SOL    HW230444   2.362   0.423   3.961  0.3606 -0.6334  0.7260
 6270SOL     OW30445   3.525   1.661  13.321  0.5127 -0.0587  0.1147
 6270SOL    HW130446   3.481   1.741  13.294  0.2551 -0.5770 -0.9906
 6270SOL    HW230447   3.595   1.655  13.256 -0.0639 -1.9746 -0.3514
 6271SOL     OW30448   0.960   0.342   5.255  0.1090  0.7484 -0.0114
 6271SOL    HW130449   0.990   0.341   5.164  1.7169 -3.0361  0.5390
 6271SOL    HW230450   0.961   0.249   5.278  1.3426  1.3047  2.2274
 6272SOL     OW30451   4.288   0.756  12.848  0.5324  0.9102 -0.6173
 6272SOL    HW130452   4.198   0.775  12.875  1.0451  2.0489  0.3061
 6272SOL    HW230453   4.321   0.843  12.826  1.9314  1.1371  2.2491
 6273SOL     OW30454   3.129   3.685   7.805  0.4648 -0.1965  0.0259
 6273SOL    HW130455   3.214   3.717   7.775 -1.0037  2.2485 -1.5208
 6273SOL    HW230456   3.138   3.591   7.819  1.0363 -0.4124 -1.8814
 6274SOL     OW30457   3.210   4.416  12.403 -0.0578 -0.5114 -0.0652
 6274SOL    HW130458   3.280   4.480  12.416  0.7901 -1.2150 -1.1859
 6274SOL    HW230459   3.211   4.378  12.491  2.0909 -0.7491 -0.2005
 6275SOL     OW30460   3.121   2.381   8.500  0.1600 -0.3603  0.0332
 6275SOL    HW130461   3.203   2.408   8.542 -0.4709 -0.0087  1.0292
 6275SOL    HW230462   3.058   2.371   8.571 -1.9607 -0.4853 -1.8756
 6276SOL     OW30463   4.246   0.673   0.423 -0.6325 -0.6032  0.2296
 6276SOL    HW130464   4.256   0.768   0.417  0.0863 -0.5004  3.1457
 6276SOL    HW230465   4.152   0.663   0.411 -0.5454 -0.8708 -0.2434
 6277SOL     OW30466   4.529   1.135  14.740  0.2657  0.2260  0.4678
 6277SOL    HW130467   4.572   1.220  14.752  0.6053  0.0259  0.6730
 6277SOL    HW230468   4.504   1.145  14.648 -1.7583  1.6299  1.1621
 6278SOL     OW30469   0.947   3.831   6.916 -0.1422  0.6008 -0.6469
 6278SOL    HW130470   0.906   3.795   6.837  0.3126 -1.3100 -0.0108
 6278SOL    HW230471   0.906   3.916   6.927  0.4577  1.0277 -1.6941
 6279SOL     OW30472   2.589   4.201  13.202 -0.1223 -0.3024  0.0001
 6279SOL    HW130473   2.599   4.131  13.267 -0.1900 -1.2782 -1.0505
 6279SOL    HW230474   2.630   4.149  13.133  0.2620 -2.6229  1.9706
 6280SOL     OW30475   2.996   2.206  15.445 -0.3421 -0.1043 -0.2513
 6280SOL    HW130476   2.927   2.243  15.389  0.1442  0.9082 -0.1814
 6280SOL    HW230477   2.953   2.214  15.530 -1.7904 -0.3982 -0.9667
 6281SOL     OW30478   0.515   1.591  10.320  0.5491 -0.0843 -0.3126
 6281SOL    HW130479   0.430   1.635  10.311 -0.3843 -1.5826  0.9983
 6281SOL    HW230480   0.482   1.501  10.321  0.8167 -0.2054 -1.6708
 6282SOL     OW30481   0.162   1.601   6.655 -0.0190 -0.8565  0.1518
 6282SOL    HW130482   0.111   1.630   6.579  1.6240 -1.0509 -1.0527
 6282SOL    HW230483   0.251   1.623   6.627 -1.4203  1.1073 -2.8096
 6283SOL     OW30484   3.420   3.511   5.397  0.1928 -0.5759 -0.0117
 6283SOL    HW130485   3.420   3.502   5.302  2.8984 -0.5387 -0.0036
 6283SOL    HW230486   3.361   3.440   5.422 -0.9301  0.2827 -0.2174
 6284SOL     OW30487   3.574   0.750   4.353 -0.3542 -0.2149 -0.1043
 6284SOL    HW130488   3.513   0.693   4.307  0.8902 -1.4419 -0.2240
 6284SOL    HW230489   3.518   0.823   4.383 -0.2230 -0.2837  0.3102
 6285SOL     OW30490   3.978   1.379  16.152  0.4321 -0.2558  0.3024
 6285SOL    HW130491   4.067   1.410  16.163  0.7904 -0.5057 -1.9291
 6285SOL    HW230492   3.970   1.367  16.058  0.8853 -0.4372  0.2895
 6286SOL     OW30493   1.610   3.983   1.143  0.3221 -0.4618 -0.4420
 6286SOL    HW130494   1.674   3.984   1.072  3.0488 -0.1746  2.0213
 6286SOL    HW230495   1.645   3.907   1.188 -1.5615  0.4560  2.5706
 6287SOL     OW30496   0.209   4.730  16.405 -0.3887  0.0741 -0.5798
 6287SOL    HW130497   0.180   0.081  16.376  1.4765  0.0472 -2.5150
 6287SOL    HW230498   0.131   4.690  16.445  0.8777  0.8361  2.6137
 6288SOL     OW30499   0.927   1.896   4.708  0.5119 -0.1990 -0.0901
 6288SOL    HW130500   0.849   1.867   4.755  0.3475 -1.9749 -1.4416
 6288SOL    HW230501   0.913   1.856   4.621  0.1133 -0.6001  0.1568
 6289SOL     OW30502   2.450   3.524   4.927  0.9428  0.4460  0.3566
 6289SOL    HW130503   2.401   3.577   4.863  1.3524  1.5217  0.9243
 6289SOL    HW230504   2.380   3.508   4.991 -1.0167  0.5313 -1.7407
 6290SOL     OW30505   1.972   0.534   6.305  0.3089  0.1592 -0.0355
 6290SOL    HW130506   2.050   0.482   6.325  0.0799  0.3579  1.3381
 6290SOL    HW230507   1.904   0.474   6.336  0.3122  0.8090  1.1919
 6291SOL     OW30508   0.947   4.320   7.407 -0.0959 -0.0566  0.1714
 6291SOL    HW130509   0.878   4.385   7.396  0.5230 -0.0278 -3.7199
 6291SOL    HW230510   0.893   4.243   7.421  0.8137 -0.9172 -1.0127
 6292SOL     OW30511   4.204   4.298   6.983  0.0987  0.0055  0.0459
 6292SOL    HW130512   4.286   4.329   7.020 -0.2482  0.4682  0.4324
 6292SOL    HW230513   4.177   4.365   6.921 -0.7925  0.8078  1.2964
 6293SOL     OW30514   3.559   1.724   8.613 -0.3158  0.5047 -0.1697
 6293SOL    HW130515   3.502   1.650   8.593 -0.1629  0.2508  0.3362
 6293SOL    HW230516   3.632   1.682   8.658 -0.9910  2.4408  2.7730
 6294SOL     OW30517   1.961   0.823   6.843  0.2106 -0.3249  0.5392
 6294SOL    HW130518   1.942   0.731   6.864  1.3794 -0.3420  1.4842
 6294SOL    HW230519   1.938   0.864   6.925 -2.6114  1.0655 -0.9699
 6295SOL     OW30520   2.656   0.808   6.304 -0.3867 -0.1760 -0.3973
 6295SOL    HW130521   2.652   0.769   6.391  0.0909 -0.0660 -0.3253
 6295SOL    HW230522   2.581   0.758   6.271 -1.1673  0.3854  0.5134
 6296SOL     OW30523   0.498   0.371   1.940 -0.3268  0.6226  0.1018
 6296SOL    HW130524   0.555   0.379   2.016 -0.3021 -1.2985  0.2921
 6296SOL    HW230525   0.468   0.281   1.949  2.3569 -0.1984  0.6199
 6297SOL     OW30526   0.825   2.513   6.987  0.0692  0.1325  0.6168
 6297SOL    HW130527   0.827   2.582   7.053  0.0379  1.1504 -0.4538
 6297SOL    HW230528   0.853   2.555   6.906 -0.5644  1.4594  1.0761
 6298SOL     OW30529   4.558   1.918  16.818  0.3888 -0.2609 -0.4748
 6298SOL    HW130530   4.564   2.010  16.847 -1.7448 -1.2289  3.0676
 6298SOL    HW230531   4.622   1.879  16.878 -1.3251 -1.6185  0.4756
 6299SOL     OW30532   4.047   1.083   4.426 -0.1704  0.3790  0.3852
 6299SOL    HW130533   3.972   1.062   4.370  0.8159 -0.1333 -0.7450
 6299SOL    HW230534   4.117   1.048   4.372  0.4495  1.5744  0.4142
 6300SOL     OW30535   3.144   2.430   9.641 -0.3045  0.1110 -0.1060
 6300SOL    HW130536   3.166   2.366   9.573  1.6844  1.8796 -1.1507
 6300SOL    HW230537   3.049   2.425   9.642 -0.3100  0.2889  0.4287
 6301SOL     OW30538   0.651   4.665   2.692 -0.1191  0.0400 -0.0774
 6301SOL    HW130539   0.661   4.705   2.778  3.4439  0.9355 -0.8946
 6301SOL    HW230540   0.591   4.723   2.645  0.1002  0.5985  0.3420
 6302SOL     OW30541   3.202   3.192   7.418 -0.1847  0.6232 -0.0973
 6302SOL    HW130542   3.134   3.133   7.450 -0.1859  1.0251  0.6396
 6302SOL    HW230543   3.196   3.272   7.471  0.4100  0.5517  0.0748
 6303SOL     OW30544   1.867   3.697   7.962  0.1295  0.6711 -0.6588
 6303SOL    HW130545   1.896   3.615   8.002 -0.5434  1.0808  0.6516
 6303SOL    HW230546   1.860   3.664   7.872  0.4104  2.0380 -1.1858
 6304SOL     OW30547   3.072   2.809  17.695 -0.5519 -0.0568 -0.3811
 6304SOL    HW130548   3.142   2.861  17.656 -0.4537 -1.0713 -1.5770
 6304SOL    HW230549   3.009   2.813  17.622 -1.2151 -2.2645  0.0472
 6305SOL     OW30550   2.241   3.581   4.756  0.4032  0.5684  0.7423
 6305SOL    HW130551   2.196   3.496   4.748 -0.4957  1.1776 -0.7267
 6305SOL    HW230552   2.170   3.636   4.789  2.3428  2.2376  2.1189
 6306SOL     OW30553   4.451   1.876  15.294  0.0996 -0.0570  0.7491
 6306SOL    HW130554   4.441   1.971  15.281 -0.9051 -0.2904 -0.1547
 6306SOL    HW230555   4.425   1.869  15.385 -0.5842  0.5162  0.5991
 6307SOL     OW30556   1.036   0.991   1.705 -0.3489  0.3961  0.7960
 6307SOL    HW130557   1.001   0.946   1.782 -0.4247  0.9410  1.0778
 6307SOL    HW230558   0.952   1.011   1.663  0.6641  0.1325 -1.3595
 6308SOL     OW30559   0.299   2.013   9.916  0.4148 -0.0821  0.6852
 6308SOL    HW130560   0.366   1.969   9.968  1.8346 -0.4139 -1.4296
 6308SOL    HW230561   0.232   1.946   9.910 -1.8617  2.2905 -0.5830
 6309SOL     OW30562   2.188   4.306   4.472 -0.4802 -0.1074 -0.2698
 6309SOL    HW130563   2.270   4.298   4.424  0.1351 -2.5939  1.2249
 6309SOL    HW230564   2.176   4.213   4.491  3.5843 -0.5524 -0.0131
 6310SOL     OW30565   1.285   4.625   4.437 -0.4771 -0.2642 -0.2323
 6310SOL    HW130566   1.313   4.574   4.513  3.8344  0.3425 -1.3698
 6310SOL    HW230567   1.190   4.621   4.427 -0.3423  1.2887 -2.1520
 6311SOL     OW30568   0.909   4.164   5.886 -0.0678  0.1905 -0.1374
 6311SOL    HW130569   0.988   4.158   5.939 -1.2673 -0.0417  1.6205
 6311SOL    HW230570   0.905   4.083   5.835  1.3455  1.4331 -2.2124
 6312SOL     OW30571   0.133   3.111   7.273  0.0409  0.1692  0.0856
 6312SOL    HW130572   0.219   3.100   7.231 -0.6703 -1.4443 -0.9428
 6312SOL    HW230573   0.093   3.185   7.228  0.6808 -0.7079 -1.9520
 6313SOL     OW30574   0.957   4.456   4.218 -0.4643  0.5135 -0.4081
 6313SOL    HW130575   1.030   4.419   4.168 -1.3845  0.8739 -2.0253
 6313SOL    HW230576   0.994   4.467   4.306  0.2451  0.5839 -0.7106
 6314SOL     OW30577   2.832   0.703   4.314 -0.7304  0.4031 -0.4175
 6314SOL    HW130578   2.765   0.643   4.345 -0.0194 -0.7121 -1.0301
 6314SOL    HW230579   2.836   0.689   4.219  1.0454 -2.7198  0.1448
 6315SOL     OW30580   0.696   0.667  16.758 -0.1899  0.1215  0.3433
 6315SOL    HW130581   0.641   0.609  16.810 -1.1445  1.5830  0.9824
 6315SOL    HW230582   0.687   0.750  16.805 -0.1204 -0.3840  1.2484
 6316SOL     OW30583   3.326   0.542   9.741 -0.3452 -0.2215  0.3757
 6316SOL    HW130584   3.237   0.575   9.731 -0.1941  0.0258 -0.1210
 6316SOL    HW230585   3.309   0.479   9.812 -0.1672  1.5275  1.9900
 6317SOL     OW30586   2.390   3.864   1.967  0.4267  0.2480 -0.0176
 6317SOL    HW130587   2.307   3.879   2.014 -1.1267  1.7417 -3.2251
 6317SOL    HW230588   2.364   3.882   1.877  0.3613  2.4200  0.4150
 6318SOL     OW30589   0.987   0.902   5.360 -0.1406  0.1709 -0.1098
 6318SOL    HW130590   1.037   0.981   5.381 -0.5148 -0.1460  1.9825
 6318SOL    HW230591   1.003   0.844   5.435  0.6743 -0.6334 -0.9041
 6319SOL     OW30592   2.504   1.283   6.504  0.2028  0.4115 -0.1251
 6319SOL    HW130593   2.575   1.223   6.529 -0.0720  0.9073  1.7774
 6319SOL    HW230594   2.521   1.356   6.564  1.2261 -1.0073  1.3051
 6320SOL     OW30595   3.770   0.157   1.310 -0.5303  0.5691 -0.0666
 6320SOL    HW130596   3.842   0.169   1.372 -0.8132 -1.3790  0.6575
 6320SOL    HW230597   3.716   0.232   1.334  0.6435  1.1921  0.5710
 6321SOL     OW30598   0.012   3.788  11.677  0.4375 -0.7994  0.0826
 6321SOL    HW130599   4.702   3.833  11.605  2.3263  1.6817  0.4521
 6321SOL    HW230600   4.730   3.699  11.647 -0.5946  0.0254 -1.8051
 6322SOL     OW30601   4.727   0.084   4.297 -0.3525  0.0281  0.5185
 6322SOL    HW130602   4.691   0.016   4.241 -0.5388  0.5982 -0.0589
 6322SOL    HW230603   4.646   0.120   4.332  0.4916  3.4164 -0.9098
 6323SOL     OW30604   1.755   1.527   2.345 -0.0554 -0.3065  0.3288
 6323SOL    HW130605   1.773   1.590   2.415 -1.9831  2.2096 -1.4244
 6323SOL    HW230606   1.679   1.487   2.388 -0.4020  0.6990  0.6701
 6324SOL     OW30607   2.142   1.194   5.944  0.1791 -0.7340 -0.5665
 6324SOL    HW130608   2.114   1.195   6.035  0.0357 -0.8082 -0.6100
 6324SOL    HW230609   2.144   1.288   5.928  1.4944 -0.4029  1.5271
 6325SOL     OW30610   1.123   0.791   3.832  0.1508 -0.7168 -0.1671
 6325SOL    HW130611   1.069   0.762   3.906  1.1978  0.2222  0.9811
 6325SOL    HW230612   1.067   0.743   3.772  0.2455 -0.0041 -0.8233
 6326SOL     OW30613   0.896   0.740   9.350  0.3179 -0.0310  0.0913
 6326SOL    HW130614   0.954   0.762   9.423 -1.4288  0.6559  1.2594
 6326SOL    HW230615   0.956   0.764   9.280  0.7023 -1.3412 -0.0260
 6327SOL     OW30616   2.805   0.639   1.405 -0.5482  0.5833  0.0314
 6327SOL    HW130617   2.875   0.703   1.417 -1.2277  1.5466 -1.1337
 6327SOL    HW230618   2.853   0.568   1.363 -0.9446 -0.0633  0.6639
 6328SOL     OW30619   3.442   2.865   5.765 -0.4939  0.3785  0.3185
 6328SOL    HW130620   3.493   2.935   5.805  0.1402  1.1169 -1.7663
 6328SOL    HW230621   3.452   2.805   5.839  0.0806  1.4644  1.1210
 6329SOL     OW30622   0.383   1.665   1.889 -0.4781 -0.4327  0.7180
 6329SOL    HW130623   0.323   1.699   1.823 -0.9427 -0.3376  1.1849
 6329SOL    HW230624   0.325   1.675   1.965 -1.1189  3.4740 -0.2889
 6330SOL     OW30625   1.263   0.724  11.620 -0.2057  0.2423 -0.2791
 6330SOL    HW130626   1.209   0.654  11.583  0.8673 -0.9453  0.3999
 6330SOL    HW230627   1.307   0.676  11.690  2.2122 -0.1338 -2.0430
 6331SOL     OW30628   0.122   2.656   5.245 -0.3785 -0.3235 -1.1423
 6331SOL    HW130629   0.154   2.711   5.174  0.7498 -1.0087 -1.1680
 6331SOL    HW230630   0.181   2.580   5.242 -0.7246 -0.6886  1.3989
 6332SOL     OW30631   2.645   2.928   1.122 -0.4722 -0.5123 -0.0819
 6332SOL    HW130632   2.709   2.865   1.154 -0.7789 -0.4028  0.7452
 6332SOL    HW230633   2.567   2.915   1.177 -1.2618  3.3224 -0.2847
 6333SOL     OW30634   3.710   1.667   8.307  0.2397  0.0859  0.2213
 6333SOL    HW130635   3.714   1.701   8.217  1.2488 -1.4841 -0.3250
 6333SOL    HW230636   3.618   1.685   8.325  0.3480  1.0713 -0.2139
 6334SOL     OW30637   2.822   4.386   4.105 -0.4851  0.1428 -0.1149
 6334SOL    HW130638   2.908   4.381   4.148  0.0535 -0.5076 -1.2508
 6334SOL    HW230639   2.853   4.405   4.016 -0.6892 -1.2401 -0.4781
 6335SOL     OW30640   0.088   1.651  14.614  0.5576 -0.5654  0.0626
 6335SOL    HW130641   4.731   1.638  14.637  0.0748  0.5496 -1.2680
 6335SOL    HW230642   0.117   1.563  14.594 -0.1644 -0.5351 -1.0945
 6336SOL     OW30643   3.005   0.202   4.338 -0.5234 -0.1821  0.3210
 6336SOL    HW130644   3.027   0.264   4.268  0.2980 -0.9631 -0.1103
 6336SOL    HW230645   2.909   0.197   4.343 -0.4402 -0.3444  1.6468
 6337SOL     OW30646   1.900   0.488   9.085  0.0854 -0.6133 -0.1290
 6337SOL    HW130647   1.874   0.443   9.165  1.3733  0.3720  0.8412
 6337SOL    HW230648   1.891   0.577   9.117  3.4700 -0.4689  0.4522
 6338SOL     OW30649   2.819   1.684   3.881  0.3279  0.7295  0.0411
 6338SOL    HW130650   2.775   1.602   3.860  3.8014 -0.8082 -1.2369
 6338SOL    HW230651   2.837   1.672   3.974  0.7039  1.3963  0.0536
 6339SOL     OW30652   0.949   2.164   3.635 -0.4816  0.3300  0.6910
 6339SOL    HW130653   0.993   2.215   3.567  0.5658 -0.6961  0.6104
 6339SOL    HW230654   1.019   2.156   3.699 -0.7843 -0.7711  0.8845
 6340SOL     OW30655   4.197   0.997   3.518  0.7446  0.1251 -0.1382
 6340SOL    HW130656   4.104   1.021   3.514  0.5722 -0.5942 -0.5919
 6340SOL    HW230657   4.211   1.046   3.599  1.6795  2.7188 -1.8892
 6341SOL     OW30658   1.027   2.345   2.806 -0.1728  0.2644 -0.0180
 6341SOL    HW130659   1.016   2.314   2.896  3.3556 -0.8619  0.0432
 6341SOL    HW230660   1.003   2.269   2.754 -1.5806  0.6864  0.0205
 6342SOL     OW30661   0.091   2.341   6.492 -0.1833 -0.0740 -0.2155
 6342SOL    HW130662   0.042   2.406   6.442  1.0861  0.7883 -0.3400
 6342SOL    HW230663   0.140   2.304   6.419  1.4777  1.1084  0.2828
 6343SOL     OW30664   0.541   4.236   7.772  0.1068 -0.1449  0.3024
 6343SOL    HW130665   0.482   4.228   7.847 -1.2341 -0.9874 -0.8336
 6343SOL    HW230666   0.628   4.249   7.807  0.0316 -0.4926  0.6176
 6344SOL     OW30667   4.591   2.271   7.672  0.3035  0.3259  0.0832
 6344SOL    HW130668   4.583   2.318   7.755 -0.4639 -0.3518  0.3971
 6344SOL    HW230669   4.619   2.188   7.711 -1.0986 -0.5137 -0.6933
 6345SOL     OW30670   4.527   0.941   3.486  0.3598 -0.0913 -0.6898
 6345SOL    HW130671   4.485   0.920   3.569 -1.6466  1.8136 -1.2316
 6345SOL    HW230672   4.618   0.961   3.510 -0.1005  0.2794  0.7578
 6346SOL     OW30673   2.062   4.285  17.688 -0.5173  0.2248 -0.5052
 6346SOL    HW130674   1.992   4.291  17.622 -0.3364  0.9057 -0.6345
 6346SOL    HW230675   2.119   4.213  17.660 -0.6470  0.3001 -0.9615
 6347SOL     OW30676   2.275   3.020   7.231 -0.0323  0.9490 -0.3441
 6347SOL    HW130677   2.217   2.962   7.183 -1.6002  1.4574  0.9399
 6347SOL    HW230678   2.298   2.954   7.296  1.9602 -1.9363 -3.9583
 6348SOL     OW30679   4.582   4.326   9.970 -0.4042  0.0404 -0.3886
 6348SOL    HW130680   4.604   4.370   9.888  0.2621  0.0550 -0.2048
 6348SOL    HW230681   4.499   4.367   9.995  0.0134  0.6221  0.0361
 6349SOL     OW30682   1.102   1.640   4.716  0.4565 -0.1455  0.3078
 6349SOL    HW130683   1.119   1.650   4.623 -0.7762  0.8750  0.1847
 6349SOL    HW230684   1.175   1.585   4.743 -0.4468 -2.1900 -1.4404
 6350SOL     OW30685   0.671   0.182   1.145 -0.2019  0.0851  0.3295
 6350SOL    HW130686   0.676   0.274   1.117 -1.1614  0.0012 -0.1335
 6350SOL    HW230687   0.617   0.142   1.076  0.3697 -0.1690  0.0281
 6351SOL     OW30688   2.248   0.010   5.575 -0.6789  0.0795  0.1893
 6351SOL    HW130689   2.216   0.048   5.657 -0.4151  0.7758 -0.0325
 6351SOL    HW230690   2.292   4.665   5.604  2.4653  1.1963 -1.4568
 6352SOL     OW30691   1.723   3.674   3.577  0.1598  0.5128 -0.0852
 6352SOL    HW130692   1.686   3.760   3.555 -1.2030 -0.5231 -1.7978
 6352SOL    HW230693   1.765   3.662   3.491  0.7434  2.6976 -0.0990
 6353SOL     OW30694   0.259   2.216   1.736 -0.2844  0.3462 -0.4975
 6353SOL    HW130695   0.294   2.206   1.647  1.3807 -1.1285  0.3249
 6353SOL    HW230696   0.278   2.309   1.745 -0.7238  0.3960 -0.1029
 6354SOL     OW30697   4.064   2.274   4.566  0.1357  0.4564 -0.4856
 6354SOL    HW130698   3.993   2.333   4.542  0.3455  0.5721 -0.8051
 6354SOL    HW230699   4.048   2.206   4.501  0.1226 -0.9531  0.9737
 6355SOL     OW30700   0.192   3.610  16.557  0.2094 -0.4666  0.1710
 6355SOL    HW130701   0.149   3.545  16.502 -0.4484  0.2527 -0.1581
 6355SOL    HW230702   0.283   3.610  16.525 -0.2784  1.1376 -1.2322
 6356SOL     OW30703   4.391   4.207  14.983 -0.2272 -0.4537  0.4334
 6356SOL    HW130704   4.299   4.199  14.959 -0.2880 -1.2074  0.9393
 6356SOL    HW230705   4.438   4.155  14.918 -1.6423  1.6748 -2.2966
 6357SOL     OW30706   0.520   0.163  16.544  0.1803  0.1424 -0.3111
 6357SOL    HW130707   0.432   0.126  16.536  1.0373 -1.5305 -2.1756
 6357SOL    HW230708   0.501   0.256  16.532  0.3908  0.2290  0.0349
 6358SOL     OW30709   0.850   0.062   4.810 -0.1056 -0.1216  0.5743
 6358SOL    HW130710   0.943   0.056   4.789 -0.0514  2.2756  0.0833
 6358SOL    HW230711   0.841   4.724   4.870  3.0422  0.4686  1.7514
 6359SOL     OW30712   3.188   0.969   7.395 -0.3765 -0.0038  0.2506
 6359SOL    HW130713   3.187   0.885   7.440 -1.7962  0.6357  1.3965
 6359SOL    HW230714   3.200   0.939   7.304  3.5293  1.5499  0.2789
 6360SOL     OW30715   1.661   0.364   5.327  0.4615  0.1178 -0.2140
 6360SOL    HW130716   1.756   0.377   5.332  0.4474 -0.3102  1.0831
 6360SOL    HW230717   1.633   0.456   5.334 -0.3282 -0.1834  0.5358
 6361SOL     OW30718   3.048   2.884   2.925 -0.2668  0.1231 -0.3643
 6361SOL    HW130719   2.963   2.919   2.953 -0.4977 -0.3467 -0.4756
 6361SOL    HW230720   3.102   2.958   2.951 -0.5201 -0.1002  0.7865
 6362SOL     OW30721   3.202   0.070  14.450  0.2405  0.6455  0.6549
 6362SOL    HW130722   3.146   0.069  14.372  0.2855 -1.9724  0.6391
 6362SOL    HW230723   3.284   0.085  14.403  0.7346  0.5166  1.4635
 6363SOL     OW30724   1.675   0.319   5.644 -0.1350 -0.0373 -0.0925
 6363SOL    HW130725   1.671   0.306   5.549  0.6313 -0.1503 -0.1090
 6363SOL    HW230726   1.763   0.286   5.666 -0.3581 -0.6863 -0.1799
 6364SOL     OW30727   3.921   3.485   2.325  0.0909  0.4142  0.3512
 6364SOL    HW130728   3.864   3.456   2.254  0.8021 -0.8756  0.2945
 6364SOL    HW230729   4.006   3.498   2.283  0.4605  2.1609  1.6667
 6365SOL     OW30730   2.446   2.207  15.290 -0.5290 -0.6572  0.2251
 6365SOL    HW130731   2.500   2.280  15.320 -2.7195  1.2986 -0.5652
 6365SOL    HW230732   2.433   2.232  15.199 -0.0778 -1.1587  0.0204
 6366SOL     OW30733   1.927   3.058   4.921 -0.0211 -0.6561  0.3436
 6366SOL    HW130734   1.879   2.977   4.938 -3.4314  0.9812 -1.5697
 6366SOL    HW230735   2.018   3.030   4.916  0.7059  1.9685 -0.8257
 6367SOL     OW30736   1.166   3.862  15.872  0.0819 -0.1034  0.6532
 6367SOL    HW130737   1.141   3.788  15.816  1.0109  0.3146 -0.3213
 6367SOL    HW230738   1.229   3.915  15.823 -1.7836 -0.1922 -1.8778
 6368SOL     OW30739   0.613   4.032   4.170 -0.1030 -0.4224  0.3705
 6368SOL    HW130740   0.621   3.946   4.128  1.6097  0.3248 -0.8195
 6368SOL    HW230741   0.642   4.089   4.099  0.2770 -2.0956 -0.8164
 6369SOL     OW30742   4.339   1.005   8.128 -0.1615  0.1352 -0.1228
 6369SOL    HW130743   4.420   1.054   8.112  1.0246 -2.0427 -0.7438
 6369SOL    HW230744   4.303   0.976   8.044 -1.0150  1.4256 -0.2041
 6370SOL     OW30745   3.227   2.616   6.846  0.1511  0.2989 -0.3607
 6370SOL    HW130746   3.141   2.627   6.886  0.2060  0.2927 -0.2392
 6370SOL    HW230747   3.212   2.642   6.755 -2.5989  0.9806  0.3120
 6371SOL     OW30748   0.796   4.244   2.371  0.3310 -0.9330  0.5983
 6371SOL    HW130749   0.727   4.185   2.340 -0.4228  0.9880 -1.3907
 6371SOL    HW230750   0.851   4.257   2.294 -0.3631 -0.0230  0.2614
 6372SOL     OW30751   3.077   3.510   9.186  0.1936  0.0061  0.6508
 6372SOL    HW130752   3.036   3.593   9.213 -0.2544  0.9818 -3.0163
 6372SOL    HW230753   3.108   3.483   9.272  0.8394 -0.9976  0.0903
 6373SOL     OW30754   2.517   0.659   2.099  0.3418 -0.0503  0.1773
 6373SOL    HW130755   2.447   0.626   2.155  0.6430 -1.0222 -0.0323
 6373SOL    HW230756   2.505   0.598   2.026  2.7907 -0.4830  0.1395
 6374SOL     OW30757   4.459   4.456  10.394 -0.1536 -0.0184  0.3992
 6374SOL    HW130758   4.408   4.456  10.475  1.4926 -1.4297  1.4504
 6374SOL    HW230759   4.477   4.550  10.388  0.0995 -0.1368 -0.7963
 6375SOL     OW30760   4.452   2.994  16.938  0.2022  0.4863  0.4202
 6375SOL    HW130761   4.542   2.970  16.959 -0.1379 -1.3689 -0.3047
 6375SOL    HW230762   4.469   3.058  16.868 -2.3767  1.4465  0.6752
 6376SOL     OW30763   0.930   3.079   5.976 -0.2116  0.0128  0.1510
 6376SOL    HW130764   0.846   3.109   6.011 -1.3347 -2.5560 -0.3726
 6376SOL    HW230765   0.987   3.139   6.025 -1.0979  0.3612  0.7477
 6377SOL     OW30766   4.126   3.416   7.990 -0.2940 -0.6774  0.4183
 6377SOL    HW130767   4.208   3.462   8.006 -0.3936 -0.3764  0.0902
 6377SOL    HW230768   4.101   3.469   7.914  0.1919 -1.2358 -0.1301
 6378SOL     OW30769   1.201   1.850   2.455  0.0261 -0.1313 -0.0149
 6378SOL    HW130770   1.120   1.804   2.477  0.6116 -1.3688 -0.3887
 6378SOL    HW230771   1.206   1.819   2.364  2.1697 -1.1293  0.4305
 6379SOL     OW30772   2.645   0.623   6.513 -0.3927  0.0105  0.0668
 6379SOL    HW130773   2.697   0.569   6.573  0.7375 -0.7639 -1.6113
 6379SOL    HW230774   2.555   0.598   6.535 -1.2331  0.5164 -2.8241
 6380SOL     OW30775   3.858   0.265   5.388  0.0752  0.7659 -0.2533
 6380SOL    HW130776   3.851   0.313   5.305 -1.0914 -1.0118 -1.1871
 6380SOL    HW230777   3.919   0.317   5.441  0.0489 -0.8653  1.3697
 6381SOL     OW30778   2.542   3.572  16.880  0.0755 -0.1046  0.3296
 6381SOL    HW130779   2.467   3.611  16.836 -1.4287 -0.0922  2.8637
 6381SOL    HW230780   2.615   3.627  16.853 -0.0082 -0.8227 -1.3828
 6382SOL     OW30781   2.346   1.310   5.556 -0.0334  0.1737 -0.1486
 6382SOL    HW130782   2.430   1.355   5.549 -0.8443  1.7701  0.2988
 6382SOL    HW230783   2.286   1.384   5.552 -0.3924 -0.1200 -0.2327
 6383SOL     OW30784   2.707   3.158   4.327 -0.4692 -0.4063 -0.3808
 6383SOL    HW130785   2.782   3.125   4.376 -0.3587 -0.6600 -0.7180
 6383SOL    HW230786   2.645   3.158   4.400  0.4097  0.2758  0.3561
 6384SOL     OW30787   4.147   2.221   5.117  0.1447 -0.0281 -0.5138
 6384SOL    HW130788   4.115   2.172   5.041  1.2811  1.0304 -1.6858
 6384SOL    HW230789   4.158   2.150   5.180 -0.6750 -0.6606 -1.0848
 6385SOL     OW30790   1.682   0.432  14.258 -0.7351 -0.2353  0.0251
 6385SOL    HW130791   1.624   0.475  14.194 -0.0287 -0.9486 -1.0947
 6385SOL    HW230792   1.667   0.340  14.234 -0.2905 -0.6946  1.5532
 6386SOL     OW30793   2.158   2.567   6.911 -0.1885  0.3834  0.5182
 6386SOL    HW130794   2.112   2.483   6.909  0.9916 -0.2344 -0.9469
 6386SOL    HW230795   2.171   2.568   6.816  0.6248 -0.1333  0.6232
 6387SOL     OW30796   4.269   2.480   9.334  0.3844  0.4730 -0.1118
 6387SOL    HW130797   4.291   2.446   9.247  1.0507  3.2338 -1.0450
 6387SOL    HW230798   4.337   2.546   9.345  1.6406 -0.5481 -1.7520
 6388SOL     OW30799   1.895   0.023   9.043 -0.1790  0.2084 -0.0426
 6388SOL    HW130800   1.937   0.028   8.957  1.4254 -0.5079  0.6802
 6388SOL    HW230801   1.944   0.088   9.093  1.3843 -0.7257 -0.3587
 6389SOL     OW30802   1.261   1.679   1.969  0.0824 -0.5143 -0.3544
 6389SOL    HW130803   1.316   1.601   1.971 -1.6414 -1.6894  1.5455
 6389SOL    HW230804   1.299   1.726   1.895 -0.6725  1.1033  0.2923
 6390SOL     OW30805   2.614   0.081  14.088  0.1239 -0.4036 -0.3214
 6390SOL    HW130806   2.590   0.161  14.040 -0.5278  0.2323  1.0644
 6390SOL    HW230807   2.700   0.111  14.117  0.9716 -1.8011 -1.4164
 6391SOL     OW30808   1.441   3.090   7.939 -0.2884 -0.0721 -0.2615
 6391SOL    HW130809   1.432   3.023   7.871 -0.3274 -0.7825  0.4384
 6391SOL    HW230810   1.352   3.123   7.948 -0.8505 -1.8022  0.6085
 6392SOL     OW30811   2.797   0.749  11.712 -0.1144 -0.5694  0.3423
 6392SOL    HW130812   2.787   0.683  11.643 -1.4845 -1.2783  1.2256
 6392SOL    HW230813   2.799   0.684  11.781  4.2528 -0.9662 -0.1444
 6393SOL     OW30814   0.770   4.057  16.118 -0.7910 -0.0337  0.2970
 6393SOL    HW130815   0.812   4.014  16.043 -0.1321 -2.1808  1.9043
 6393SOL    HW230816   0.736   4.135  16.073 -2.9347 -1.1807 -0.0744
 6394SOL     OW30817   3.789   3.023  15.761  0.4862 -0.3194  0.1294
 6394SOL    HW130818   3.803   3.114  15.733  1.4422 -0.8137 -0.9827
 6394SOL    HW230819   3.833   2.984  15.685  1.4154 -2.1410  1.6045
 6395SOL     OW30820   0.945   1.669   8.441  0.2629  0.5171  0.1558
 6395SOL    HW130821   0.877   1.615   8.481  0.4756  0.9820  1.1324
 6395SOL    HW230822   0.931   1.641   8.350 -1.9264  1.4703  0.1993
 6396SOL     OW30823   2.157   3.750   4.354 -0.3903 -0.3059  0.2846
 6396SOL    HW130824   2.234   3.727   4.406 -1.9660 -1.1183  2.2520
 6396SOL    HW230825   2.192   3.739   4.265 -2.3561 -1.2899 -0.3685
 6397SOL     OW30826   0.898   0.886  10.405 -0.5999  0.1195 -0.4099
 6397SOL    HW130827   0.867   0.848  10.488  0.7841  0.8961  0.4597
 6397SOL    HW230828   0.901   0.979  10.427  2.0192 -0.0363 -0.0866
 6398SOL     OW30829   4.485   1.214   8.421  0.4910  0.2316  0.2527
 6398SOL    HW130830   4.564   1.221   8.367  0.4760 -3.0326 -0.2344
 6398SOL    HW230831   4.518   1.144   8.478  1.7381  0.4480 -0.2144
 6399SOL     OW30832   0.936   1.677  13.373 -0.0004  0.2214 -0.2974
 6399SOL    HW130833   0.936   1.773  13.378 -1.3720  0.1336  1.6854
 6399SOL    HW230834   0.996   1.664  13.300  0.2316  0.1832 -0.0995
 6400SOL     OW30835   1.295   3.082   7.633 -0.0309  0.0540  0.4709
 6400SOL    HW130836   1.205   3.083   7.665 -0.2256  2.6291 -0.2370
 6400SOL    HW230837   1.329   2.998   7.664 -0.3958 -0.5271 -0.7173
 6401SOL     OW30838   3.869   3.267   4.980 -1.0168 -0.3803 -0.1340
 6401SOL    HW130839   3.874   3.176   5.009 -0.3527 -0.8549 -1.7762
 6401SOL    HW230840   3.902   3.310   5.059 -2.2008  0.7979 -0.2746
 6402SOL     OW30841   4.636   3.326   7.533  0.3728 -0.0120 -0.5498
 6402SOL    HW130842   4.601   3.314   7.444  0.3282 -1.2268 -0.3674
 6402SOL    HW230843   4.578   3.383   7.583 -0.1600 -0.2558 -0.8893
 6403SOL     OW30844   4.288   0.038   6.695 -0.2622  0.3738 -0.0641
 6403SOL    HW130845   4.197   0.040   6.668 -0.4073 -1.4193  0.2722
 6403SOL    HW230846   4.333   0.112   6.654 -0.6536  0.6814  0.0632
 6404SOL     OW30847   2.630   0.805   3.567 -0.3237  0.5515 -0.3807
 6404SOL    HW130848   2.622   0.883   3.511 -0.3607  2.0247  1.6841
 6404SOL    HW230849   2.574   0.833   3.639  0.1140 -0.6008  0.3891
 6405SOL     OW30850   3.872   3.784   3.544  0.2395 -0.1926 -0.1114
 6405SOL    HW130851   3.795   3.809   3.595  0.4626 -1.0811  0.6572
 6405SOL    HW230852   3.903   3.866   3.506 -0.6944 -0.1522 -0.8003
 6406SOL     OW30853   1.218   0.343   3.181 -0.1577  0.1737 -0.0284
 6406SOL    HW130854   1.128   0.372   3.175  0.0760  0.7274 -0.8502
 6406SOL    HW230855   1.266   0.419   3.213  0.7714  0.3279 -1.7744
 6407SOL     OW30856   0.235   2.440   2.916  0.1900  0.4108  0.0737
 6407SOL    HW130857   0.167   2.460   2.980  0.4262 -0.4824  0.5921
 6407SOL    HW230858   0.268   2.523   2.879 -0.6095  1.1081  0.9231
 6408SOL     OW30859   2.039   2.849   4.579  0.5080 -0.1464 -0.3205
 6408SOL    HW130860   2.026   2.845   4.484  2.3211 -0.0910 -0.5676
 6408SOL    HW230861   1.976   2.784   4.609 -2.6009  2.9943  0.0059
 6409SOL     OW30862   0.018   3.419  13.502  0.1019  0.3958  0.0453
 6409SOL    HW130863   0.096   3.415  13.448  0.4173 -2.4768  0.6959
 6409SOL    HW230864   4.704   3.490  13.461  0.6591  0.7167 -0.0551
 6410SOL     OW30865   4.456   0.944   6.085  0.1919 -0.4477  0.5237
 6410SOL    HW130866   4.382   0.988   6.042  2.2947  1.9003 -0.7198
 6410SOL    HW230867   4.451   0.989   6.170 -0.7594  1.2541 -0.4381
 6411SOL     OW30868   3.973   0.118  13.949 -0.3954  0.0347  0.6183
 6411SOL    HW130869   4.013   0.072  14.022 -0.4678 -1.0674 -0.0473
 6411SOL    HW230870   3.942   0.041  13.901 -0.0978  0.7754 -0.7696
 6412SOL     OW30871   1.465   1.982   5.874 -0.0384  0.8059  0.8529
 6412SOL    HW130872   1.413   2.062   5.874 -0.6268  0.4204 -0.4441
 6412SOL    HW230873   1.406   1.922   5.920 -0.6181  1.9408  1.5852
 6413SOL     OW30874   2.783   1.149   7.207  0.2411 -0.4103  0.1702
 6413SOL    HW130875   2.810   1.058   7.195 -2.4431 -1.0620 -0.7725
 6413SOL    HW230876   2.725   1.163   7.133 -0.4502  0.3335  0.8505
 6414SOL     OW30877   4.646   4.093   2.725 -0.3929  0.5555 -0.0169
 6414SOL    HW130878   4.602   4.051   2.650  3.1339  0.7202 -2.1593
 6414SOL    HW230879   4.646   4.018   2.784  0.2211  0.4874 -0.1120
 6415SOL     OW30880   3.915   1.888  10.363  0.4807  0.5120  0.2242
 6415SOL    HW130881   3.848   1.939  10.410  0.1179 -0.2936  0.5793
 6415SOL    HW230882   3.897   1.796  10.381  0.4334  0.4776  0.0123
 6416SOL     OW30883   1.930   0.299  15.316  0.0695  0.1468  0.2528
 6416SOL    HW130884   1.840   0.302  15.350 -0.0568 -1.1373  0.0387
 6416SOL    HW230885   1.912   0.243  15.241  4.2268 -2.1396  0.9688
 6417SOL     OW30886   1.320   3.036   1.901  0.7764 -0.3370  0.1360
 6417SOL    HW130887   1.293   2.959   1.951  1.5806 -2.1672 -2.2108
 6417SOL    HW230888   1.398   3.059   1.951 -0.5353  0.1799  1.9206
 6418SOL     OW30889   2.242   4.233   8.945  0.0236  0.1195  0.8052
 6418SOL    HW130890   2.238   4.309   9.003  1.7670  1.4281 -0.7741
 6418SOL    HW230891   2.160   4.196   8.977  0.7653 -1.7634  0.5340
 6419SOL     OW30892   1.844   4.690  11.998 -0.0250 -0.4614  0.2277
 6419SOL    HW130893   1.890   4.618  11.955 -0.8342 -0.9120  0.1200
 6419SOL    HW230894   1.803   4.635  12.065  1.3498  0.3858  1.7696
 6420SOL     OW30895   3.629   3.321   1.749 -0.0965  0.3131  0.2695
 6420SOL    HW130896   3.543   3.317   1.706  0.5313  1.4213 -1.0544
 6420SOL    HW230897   3.636   3.230   1.779 -2.2090 -0.4640 -1.5952
 6421SOL     OW30898   0.812   3.278  14.395 -0.3460  0.2381 -0.0639
 6421SOL    HW130899   0.846   3.366  14.377  0.9979 -0.0950  0.9320
 6421SOL    HW230900   0.858   3.235  14.323  0.9830  0.7153  0.5017
 6422SOL     OW30901   2.080   2.991   3.404 -0.4310  0.2823  0.1955
 6422SOL    HW130902   1.991   2.969   3.376 -0.1194 -2.0624  1.0406
 6422SOL    HW230903   2.127   2.962   3.326 -2.7152  3.0548 -2.1813
 6423SOL     OW30904   1.985   1.973   5.882  0.1927 -0.6761 -0.1685
 6423SOL    HW130905   1.914   1.991   5.820  2.2714  0.1992 -2.2882
 6423SOL    HW230906   2.027   2.059   5.881 -2.5635  0.6858  1.1445
 6424SOL     OW30907   3.582   1.253   2.659 -0.5794 -0.2145 -0.1026
 6424SOL    HW130908   3.611   1.244   2.569  1.5065  0.0971  0.5324
 6424SOL    HW230909   3.536   1.173   2.683  0.0131 -0.1317  1.3503
 6425SOL     OW30910   2.819   1.971  17.509  0.0264  0.3105 -0.2059
 6425SOL    HW130911   2.843   1.997  17.598  3.2140 -3.0097 -0.0921
 6425SOL    HW230912   2.871   1.892  17.495 -1.2297 -0.2704 -1.6807
 6426SOL     OW30913   4.223   4.544   4.350  0.2780 -0.5185 -0.0367
 6426SOL    HW130914   4.182   4.461   4.326 -0.5244 -0.1089 -0.0921
 6426SOL    HW230915   4.276   4.523   4.426  1.3990  0.0989 -0.6493
 6427SOL     OW30916   0.630   3.149   2.675 -0.6321 -0.7699 -0.1276
 6427SOL    HW130917   0.543   3.162   2.636 -0.7211 -0.0983  0.3044
 6427SOL    HW230918   0.605   3.165   2.766  0.9228  0.4362  0.0751
 6428SOL     OW30919   0.402   4.186   5.925 -0.3494 -0.4050  0.4320
 6428SOL    HW130920   0.435   4.156   5.840 -0.4778  2.8240 -0.7788
 6428SOL    HW230921   0.349   4.255   5.885 -0.9132 -1.1428 -0.0953
 6429SOL     OW30922   0.633   1.009  14.890  0.1023  0.0935 -0.5403
 6429SOL    HW130923   0.612   0.943  14.824 -1.5201  0.4116 -0.3429
 6429SOL    HW230924   0.726   1.025  14.872  0.1643 -1.0186 -1.2194
 6430SOL     OW30925   2.924   3.338   8.699  0.0949  0.1459 -0.1359
 6430SOL    HW130926   3.004   3.294   8.670 -0.3305 -0.2380 -0.7403
 6430SOL    HW230927   2.923   3.311   8.791  2.4422 -0.6008 -0.3423
 6431SOL     OW30928   0.566   3.518  16.725 -0.1189  0.1854  0.4747
 6431SOL    HW130929   0.554   3.598  16.776  2.4299  1.6158 -1.1680
 6431SOL    HW230930   0.531   3.544  16.639 -1.6048 -2.8564  0.1559
 6432SOL     OW30931   0.770   1.328   2.464  0.4495  0.2176 -0.3698
 6432SOL    HW130932   0.697   1.277   2.498 -0.6160  1.6067 -0.5509
 6432SOL    HW230933   0.791   1.279   2.385  2.0926  0.0256  0.1965
 6433SOL     OW30934   1.482   4.153   7.615 -0.2486  0.2046 -0.3742
 6433SOL    HW130935   1.555   4.215   7.618  0.5618 -0.7302 -0.6716
 6433SOL    HW230936   1.480   4.124   7.524 -1.4074 -0.5684 -0.1008
 6434SOL     OW30937   1.300   1.887  12.001  0.5831  0.3480 -0.3074
 6434SOL    HW130938   1.209   1.914  11.984  0.3980  0.9150  1.5104
 6434SOL    HW230939   1.325   1.816  11.943 -0.1789 -0.7164  0.6520
 6435SOL     OW30940   1.397   2.635   7.915  0.2712 -0.0452  0.2733
 6435SOL    HW130941   1.479   2.683   7.924 -0.5042  1.5676 -1.2217
 6435SOL    HW230942   1.424   2.547   7.892  0.2078  0.1557 -0.5550
 6436SOL     OW30943   2.039   4.709   4.390  0.6902  0.3651 -0.5761
 6436SOL    HW130944   2.029   0.058   4.345 -0.7773  1.4451  1.7811
 6436SOL    HW230945   2.113   4.734   4.445  0.5773  1.1290 -0.7742
 6437SOL     OW30946   2.921   3.906   9.530  0.0296  0.4360 -0.2237
 6437SOL    HW130947   2.992   3.869   9.582 -0.1891  0.8889  0.3915
 6437SOL    HW230948   2.930   3.998   9.552  1.8136  0.6038 -1.6125
 6438SOL     OW30949   0.994   0.552   3.215 -0.0751  0.4801 -0.0746
 6438SOL    HW130950   0.998   0.506   3.131 -3.1050  1.6662 -0.8477
 6438SOL    HW230951   1.043   0.634   3.202  1.6003 -0.4892  0.0765
 6439SOL     OW30952   1.169   3.272  15.380  0.3918  0.1185 -0.6522
 6439SOL    HW130953   1.098   3.336  15.388  0.4278  0.2391 -1.2291
 6439SOL    HW230954   1.117   3.201  15.343  1.2990 -0.9100  0.0603
 6440SOL     OW30955   3.652   2.238   5.927 -0.5843 -0.6442  0.0309
 6440SOL    HW130956   3.663   2.182   6.004 -0.6517 -0.5431  0.1137
 6440SOL    HW230957   3.724   2.197   5.879 -0.1761  0.5624 -0.3863
 6441SOL     OW30958   4.709   2.836  12.120 -0.8492 -0.0523 -0.2488
 6441SOL    HW130959   0.064   2.813  12.100 -0.7628  1.2646 -1.3302
 6441SOL    HW230960   4.729   2.865  12.209 -1.0146 -0.3624 -0.1091
 6442SOL     OW30961   4.350   0.216   3.236 -0.0293  0.1866  0.3100
 6442SOL    HW130962   4.434   0.172   3.220 -1.7159 -2.6075 -1.0365
 6442SOL    HW230963   4.296   0.204   3.157 -0.7182  1.4737  0.5963
 6443SOL     OW30964   3.927   0.555   4.634 -0.1574 -0.2666  0.4071
 6443SOL    HW130965   4.011   0.518   4.608  0.0072  0.5126 -0.1686
 6443SOL    HW230966   3.954   0.585   4.721 -1.6475 -0.3789  0.9060
 6444SOL     OW30967   3.269   2.735   3.974 -0.3621  0.3720  0.2468
 6444SOL    HW130968   3.184   2.708   4.009 -0.2075 -0.7290 -0.1986
 6444SOL    HW230969   3.317   2.759   4.053  2.0768 -0.8702 -0.8385
 6445SOL     OW30970   0.507   3.791   7.332  0.4742  0.6770 -0.0113
 6445SOL    HW130971   0.586   3.791   7.277  0.8019  1.2742  0.4600
 6445SOL    HW230972   0.448   3.834   7.271  0.5163 -1.0726 -1.2658
 6446SOL     OW30973   2.469   4.418   8.203  0.5172 -0.4858 -0.0156
 6446SOL    HW130974   2.383   4.380   8.184 -0.0232  0.1318  1.1507
 6446SOL    HW230975   2.516   4.401   8.122 -0.4893 -2.9487 -0.0792
 6447SOL     OW30976   2.692   3.890   1.656 -0.0895 -0.1955  0.0850
 6447SOL    HW130977   2.656   3.979   1.657  1.3007  0.3747 -1.6320
 6447SOL    HW230978   2.624   3.842   1.609  0.5990 -0.7825 -0.2989
 6448SOL     OW30979   2.361   3.704  13.662 -0.8662  0.5662  0.4030
 6448SOL    HW130980   2.371   3.754  13.582 -1.4238  0.3899  0.2305
 6448SOL    HW230981   2.444   3.717  13.709 -2.2422  1.9042  2.4881
 6449SOL     OW30982   1.736   2.489   2.942  0.0271  0.2945  0.0351
 6449SOL    HW130983   1.721   2.442   3.024 -1.2164  0.0607 -0.3307
 6449SOL    HW230984   1.829   2.465   2.939 -0.1780 -0.8411  2.4698
 6450SOL     OW30985   2.843   0.216  14.058  0.3586 -0.3624 -0.1252
 6450SOL    HW130986   2.841   0.170  13.974  0.9826 -1.0331  0.2287
 6450SOL    HW230987   2.848   0.305  14.023  2.9397  0.4989  2.4624
 6451SOL     OW30988   2.735   3.201   6.291 -0.4398 -0.4216 -0.3793
 6451SOL    HW130989   2.681   3.126   6.265  1.2441 -1.7781  0.0224
 6451SOL    HW230990   2.678   3.275   6.270 -0.2548 -0.2574 -0.3006
 6452SOL     OW30991   4.675   0.827   8.710  0.8171 -0.1583  0.0250
 6452SOL    HW130992   4.615   0.787   8.772 -0.7047  0.6541 -0.9025
 6452SOL    HW230993   4.690   0.915   8.745 -1.2854 -0.7750  2.4744
 6453SOL     OW30994   0.422   3.775   3.027  0.1998  0.0897  0.1172
 6453SOL    HW130995   0.426   3.690   2.983 -1.0144 -0.4968  1.1416
 6453SOL    HW230996   0.406   3.828   2.948  0.9129  1.3133  0.7903
 6454SOL     OW30997   4.544   2.856   9.947  0.6588 -0.6087 -0.0039
 6454SOL    HW130998   4.621   2.875   9.894 -0.8069 -1.3502 -2.3718
 6454SOL    HW230999   4.479   2.835   9.880  0.6664  2.5033 -0.9538
 6455SOL     OW31000   3.417   4.112  14.678 -0.0567  0.2804 -0.0562
 6455SOL    HW131001   3.387   4.023  14.656  1.9537 -0.7398  1.3994
 6455SOL    HW231002   3.428   4.160  14.597 -1.6593  0.7524  0.0056
 6456SOL     OW31003   2.497   2.500   8.840 -0.0782  0.0280  0.3668
 6456SOL    HW131004   2.443   2.570   8.803  0.6660 -0.3064 -1.3178
 6456SOL    HW231005   2.544   2.476   8.760  0.9110 -0.2812  1.0407
 6457SOL     OW31006   3.454   2.460   1.804  0.1055  0.2822  0.4376
 6457SOL    HW131007   3.418   2.519   1.738  1.2977  0.7453  0.1990
 6457SOL    HW231008   3.468   2.379   1.755  2.1427  1.0641 -0.2570
 6458SOL     OW31009   3.912   3.093   1.232  0.5144  0.0250  0.4769
 6458SOL    HW131010   3.839   3.155   1.230 -0.7775 -1.5936 -3.1677
 6458SOL    HW231011   3.993   3.138   1.210  0.6634 -0.1398  0.7008
 6459SOL     OW31012   3.817   0.127   3.224  0.6073 -0.3380  0.6186
 6459SOL    HW131013   3.863   0.044   3.212  3.3814  1.0086  2.1194
 6459SOL    HW231014   3.764   0.144   3.146 -0.0170 -0.7466  0.9516
 6460SOL     OW31015   4.350   1.678   2.629  0.1305 -0.5624 -0.3727
 6460SOL    HW131016   4.279   1.622   2.596  1.1736 -1.6480 -0.7968
 6460SOL    HW231017   4.298   1.753   2.658  0.2625 -1.0986  1.2216
 6461SOL     OW31018   2.190   4.435  14.331  0.5574  0.5834 -0.1269
 6461SOL    HW131019   2.100   4.454  14.301  1.1029  0.3165 -1.9285
 6461SOL    HW231020   2.175   4.413  14.423  1.3863  1.1404  0.1358
 6462SOL     OW31021   3.504   0.836   7.387  0.0260 -0.0720  0.3458
 6462SOL    HW131022   3.430   0.795   7.432 -1.8035  1.9271 -0.8677
 6462SOL    HW231023   3.549   0.858   7.469 -0.9946 -2.3268  1.4953
 6463SOL     OW31024   2.073   4.186   5.696 -0.6840  0.4125  0.6870
 6463SOL    HW131025   2.051   4.235   5.775  1.4909  0.2026  1.4198
 6463SOL    HW231026   2.134   4.117   5.721 -0.8030  0.4381  1.0465
 6464SOL     OW31027   3.575   2.179  12.932  0.7722 -0.4718  0.1341
 6464SOL    HW131028   3.484   2.151  12.921 -0.3070  2.5723  1.2409
 6464SOL    HW231029   3.591   2.170  13.026  0.9032 -0.6644  0.0939
 6465SOL     OW31030   3.685   3.809   8.535 -0.5011  0.0204 -0.7175
 6465SOL    HW131031   3.605   3.779   8.493  0.4534 -4.1741  0.4287
 6465SOL    HW231032   3.749   3.743   8.508 -0.1572 -0.6660  1.7469
 6466SOL     OW31033   2.699   2.822  11.763 -0.3118 -0.1712 -0.5444
 6466SOL    HW131034   2.636   2.894  11.755 -1.9885 -1.4335  1.2813
 6466SOL    HW231035   2.753   2.855  11.691  0.1106  0.7876  0.2048
 6467SOL     OW31036   1.674   1.209   2.503 -0.3928  0.4537  0.4792
 6467SOL    HW131037   1.686   1.245   2.415 -0.1767  2.2777  1.2360
 6467SOL    HW231038   1.598   1.263   2.528 -0.4704 -0.4223  2.0881
 6468SOL     OW31039   0.078   1.272   7.531 -0.7866 -0.8777  0.2237
 6468SOL    HW131040   0.149   1.209   7.543 -1.8957 -2.1292  0.1437
 6468SOL    HW231041   0.129   1.349   7.505  0.5745 -1.1769  2.0024
 6469SOL     OW31042   3.090   3.833  17.551  0.3357 -0.0677 -0.0179
 6469SOL    HW131043   3.113   3.868  17.465  0.7619 -1.4433 -0.4576
 6469SOL    HW231044   3.175   3.821  17.593  1.8154  1.5903 -2.5083
 6470SOL     OW31045   3.567   1.781   9.449  0.4743  0.0364  0.0712
 6470SOL    HW131046   3.487   1.807   9.496 -0.1610  1.5241 -1.8411
 6470SOL    HW231047   3.589   1.857   9.396 -3.0082  1.2013  0.3039
 6471SOL     OW31048   1.336   3.483   2.049 -0.2646  0.0432  0.0846
 6471SOL    HW131049   1.372   3.424   1.984  0.4546 -0.6402  1.0986
 6471SOL    HW231050   1.273   3.539   2.003  1.1746  0.6590 -1.1113
 6472SOL     OW31051   1.327   0.069   1.494 -0.1416 -0.0844 -0.4192
 6472SOL    HW131052   1.379   0.057   1.574 -0.5514 -0.0520 -0.1479
 6472SOL    HW231053   1.337   0.163   1.480 -1.5101  0.0618 -0.4493
 6473SOL     OW31054   0.830   1.204   9.285  0.5682  0.1964  0.2679
 6473SOL    HW131055   0.781   1.134   9.329  3.0762 -1.3318  0.6185
 6473SOL    HW231056   0.821   1.279   9.343 -3.3776  0.9263 -1.2303
 6474SOL     OW31057   0.097   4.477  11.072 -0.3662  0.0117  0.1521
 6474SOL    HW131058   0.112   4.385  11.093 -1.4693 -0.4572 -1.1026
 6474SOL    HW231059   0.026   4.472  11.007 -0.0360  0.5260 -0.2490
 6475SOL     OW31060   0.424   1.224  12.258 -1.1167  0.0148  0.1451
 6475SOL    HW131061   0.457   1.221  12.347  0.7353  1.6567 -0.4867
 6475SOL    HW231062   0.498   1.255  12.207 -1.6158 -1.1273 -1.2800
 6476SOL     OW31063   4.595   0.349   3.723  0.6112 -0.5631  0.1607
 6476SOL    HW131064   4.598   0.277   3.661 -0.1159  0.5258 -1.1385
 6476SOL    HW231065   4.624   0.421   3.667  0.4996 -0.4601  0.2356
 6477SOL     OW31066   3.472   4.019  11.553  0.2348 -0.3692  0.3408
 6477SOL    HW131067   3.463   4.109  11.583  3.0651  0.1804 -0.4438
 6477SOL    HW231068   3.515   3.987  11.633  0.8653 -2.5866 -0.8741
 6478SOL     OW31069   4.106   1.256   4.024 -0.0784 -0.1416 -0.0655
 6478SOL    HW131070   4.166   1.248   4.099  1.4689 -2.9377 -1.5956
 6478SOL    HW231071   4.159   1.328   3.990  1.8986 -1.6511 -0.2155
 6479SOL     OW31072   0.333   1.605  15.954  0.0631  0.3899  0.9161
 6479SOL    HW131073   0.328   1.701  15.956  2.0424  0.5161 -0.2722
 6479SOL    HW231074   0.398   1.597  15.884  0.9353  1.7471  1.5789
 6480SOL     OW31075   1.833   4.338   2.933 -0.8933 -0.7020 -0.4276
 6480SOL    HW131076   1.874   4.419   2.964 -1.7394 -0.0584 -0.9866
 6480SOL    HW231077   1.860   4.327   2.842  2.7774 -1.8012  0.7853
 6481SOL     OW31078   0.519   2.672   9.043 -0.7316  0.1053 -0.4001
 6481SOL    HW131079   0.536   2.588   9.001 -0.7329  0.2938 -0.7703
 6481SOL    HW231080   0.597   2.725   9.027  1.2527 -2.7260 -0.2015
 6482SOL     OW31081   2.057   0.247   4.265  0.1214  0.0991 -0.3804
 6482SOL    HW131082   2.034   0.336   4.241 -1.0459  0.0023  0.3792
 6482SOL    HW231083   2.113   0.257   4.342  0.1289 -1.8649 -0.1237
 6483SOL     OW31084   0.049   0.924   5.505  0.1892  0.4782  0.1936
 6483SOL    HW131085   0.125   0.902   5.558 -1.7957 -2.1539  1.8871
 6483SOL    HW231086   0.083   0.900   5.419 -0.7044  0.9159 -0.2841
 6484SOL     OW31087   4.137   2.819   2.048 -0.6531 -0.1770  0.1795
 6484SOL    HW131088   4.196   2.759   2.095 -1.6006 -0.0951  1.5003
 6484SOL    HW231089   4.187   2.860   1.978  0.3975 -1.2618  0.2863
 6485SOL     OW31090   1.383   2.078  13.769  0.5881  0.4675 -0.5152
 6485SOL    HW131091   1.388   1.990  13.731  3.0913  0.4452 -0.1529
 6485SOL    HW231092   1.319   2.059  13.838  0.3887  1.9090 -0.3031
 6486SOL     OW31093   2.062   1.539   6.802  0.9472 -0.2400 -0.3283
 6486SOL    HW131094   2.017   1.501   6.726 -0.3175  1.2399 -0.3075
 6486SOL    HW231095   2.015   1.499   6.875  1.7193  0.8377  0.7348
 6487SOL     OW31096   0.331   2.373  12.140 -0.3075  0.0466 -0.2673
 6487SOL    HW131097   0.412   2.376  12.089 -0.7161  0.6204 -0.8850
 6487SOL    HW231098   0.261   2.393  12.077 -1.3863 -0.9335  0.6217
 6488SOL     OW31099   2.581   2.240   7.832  0.0811  0.0910 -0.2869
 6488SOL    HW131100   2.502   2.204   7.792 -0.4642 -0.2330  1.0755
 6488SOL    HW231101   2.560   2.333   7.828 -0.7923 -0.1826 -2.0433
 6489SOL     OW31102   2.971   3.101  17.523 -0.0055  0.3620  0.4050
 6489SOL    HW131103   3.066   3.084  17.529  0.2509  2.9036  3.1667
 6489SOL    HW231104   2.934   3.015  17.542  0.0684 -0.5686 -3.6159
 6490SOL     OW31105   2.155   3.675   8.628  0.2223 -0.2569  0.1090
 6490SOL    HW131106   2.061   3.688   8.635  0.1045 -0.7853 -0.5234
 6490SOL    HW231107   2.177   3.689   8.721 -0.5832 -0.0898  0.2704
 6491SOL     OW31108   2.845   1.771   9.514  0.0263 -0.5500  0.1074
 6491SOL    HW131109   2.788   1.758   9.590 -3.6019 -2.2600 -2.9301
 6491SOL    HW231110   2.835   1.687   9.469  0.1693 -0.1908 -0.5922
 6492SOL     OW31111   0.340   4.407  11.344  0.1590 -0.3947 -0.2315
 6492SOL    HW131112   0.417   4.382  11.292  1.8440 -0.3467  2.2479
 6492SOL    HW231113   0.326   4.327  11.395  0.4229 -0.1412  0.2311
 6493SOL     OW31114   4.734   3.671  14.866 -0.3127  0.2218  0.4041
 6493SOL    HW131115   4.716   3.640  14.955 -1.8689  1.2650  0.4545
 6493SOL    HW231116   0.065   3.607  14.841 -0.9567 -0.4887  0.5302
 6494SOL     OW31117   1.060   0.290   5.584  0.3706 -0.0051 -0.2588
 6494SOL    HW131118   1.011   0.228   5.530  0.2526  0.0445 -0.2079
 6494SOL    HW231119   0.990   0.309   5.647 -0.9257  0.4493 -1.8380
 6495SOL     OW31120   1.856   1.250   5.824  0.0585  0.4945 -0.1855
 6495SOL    HW131121   1.919   1.190   5.864 -0.4591  1.2130  1.6747
 6495SOL    HW231122   1.778   1.195   5.829 -0.9035  1.7246 -1.5837
 6496SOL     OW31123   0.128   2.604   1.700 -0.4908  0.1913 -0.7414
 6496SOL    HW131124   0.165   2.544   1.634  1.3445 -0.6433  1.0452
 6496SOL    HW231125   0.077   2.550   1.761 -0.8780  0.3784 -0.8978
 6497SOL     OW31126   2.711   2.499   6.551 -0.4554 -0.1206 -0.8642
 6497SOL    HW131127   2.669   2.422   6.587  2.4948 -2.7280 -2.9742
 6497SOL    HW231128   2.778   2.453   6.500 -0.4432  0.0501 -1.0036
 6498SOL     OW31129   2.680   0.782   9.886  0.3556  0.1814 -0.3736
 6498SOL    HW131130   2.645   0.703   9.844 -0.2854  0.3092 -0.0803
 6498SOL    HW231131   2.713   0.831   9.811  0.6585  0.0978 -0.2935
 6499SOL     OW31132   3.069   1.024   1.728 -0.4839  0.3887 -0.1689
 6499SOL    HW131133   3.014   1.025   1.650 -1.5155  2.8774  0.5634
 6499SOL    HW231134   3.116   0.944   1.707 -0.2602  0.0288  1.6655
 6500SOL     OW31135   0.574   1.325   8.850  0.0589 -0.2336 -0.2336
 6500SOL    HW131136   0.554   1.272   8.928 -0.8495  1.6866  0.8299
 6500SOL    HW231137   0.613   1.265   8.787  1.8099  1.4696 -0.7617
 6501SOL     OW31138   3.252   3.415   4.631  0.5918  0.6750  0.3236
 6501SOL    HW131139   3.244   3.460   4.548  2.1424 -0.6819 -0.5638
 6501SOL    HW231140   3.182   3.350   4.624 -1.9840  3.2646  2.1276
 6502SOL     OW31141   2.549   1.639   2.290  0.1792  0.3123 -0.0871
 6502SOL    HW131142   2.556   1.678   2.377  0.6614  1.8380 -0.8097
 6502SOL    HW231143   2.454   1.625   2.283  0.1797  1.5494 -2.6144
 6503SOL     OW31144   1.936   2.369   7.249 -0.5518  0.2031 -0.5533
 6503SOL    HW131145   1.975   2.453   7.273 -0.0730 -0.5322  1.2561
 6503SOL    HW231146   1.893   2.348   7.332 -1.7474 -0.9200 -1.4488
 6504SOL     OW31147   3.311   3.229   8.095  0.6121 -0.0834  0.1417
 6504SOL    HW131148   3.372   3.242   8.023  1.1582  1.1281  0.8215
 6504SOL    HW231149   3.278   3.318   8.107  3.2200  1.0576 -1.2465
 6505SOL     OW31150   1.168   1.945   9.307  1.0149 -0.0832  0.3078
 6505SOL    HW131151   1.234   1.947   9.377  2.3726 -0.6867 -0.9548
 6505SOL    HW231152   1.188   1.864   9.260  0.9507 -0.4273  0.8736
 6506SOL     OW31153   0.128   1.959   4.791  0.6977 -0.2674  0.1668
 6506SOL    HW131154   0.156   2.049   4.777 -1.6220  0.4331  0.1103
 6506SOL    HW231155   0.098   1.968   4.881  2.6384  1.1124  0.6737
 6507SOL     OW31156   1.245   0.943   5.598  0.2139 -0.0763  0.9103
 6507SOL    HW131157   1.195   0.881   5.545  0.6421 -0.0255  0.4443
 6507SOL    HW231158   1.331   0.901   5.598  1.8266  3.2688  3.4721
 6508SOL     OW31159   4.315   2.671   2.928  0.3991 -0.0445  0.5313
 6508SOL    HW131160   4.291   2.603   2.865 -0.7790  1.0171 -0.1520
 6508SOL    HW231161   4.244   2.657   2.991 -1.0906 -1.7114 -1.5016
 6509SOL     OW31162   1.004   3.664   5.712  0.0302 -0.0122  0.0104
 6509SOL    HW131163   0.958   3.593   5.667  0.4276 -0.1466 -0.1760
 6509SOL    HW231164   1.045   3.612   5.781 -1.2936 -0.9908  0.0743
 6510SOL     OW31165   0.668   0.407  15.260  0.0511  0.1070 -0.1293
 6510SOL    HW131166   0.720   0.346  15.314  2.5364  1.9641 -0.4285
 6510SOL    HW231167   0.734   0.441  15.199  1.0063 -1.3158  0.1066
 6511SOL     OW31168   4.441   2.046   0.873 -0.1022  0.4216  0.2342
 6511SOL    HW131169   4.388   2.016   0.800 -1.9882  1.6358  1.0845
 6511SOL    HW231170   4.498   1.969   0.875 -0.9465 -0.1006  3.7824
 6512SOL     OW31171   1.146   3.927  11.342  0.0241  0.0881  0.2478
 6512SOL    HW131172   1.113   3.999  11.287  0.3341 -0.9855 -1.3214
 6512SOL    HW231173   1.217   3.907  11.282 -0.3860  0.8674 -0.5050
 6513SOL     OW31174   4.401   4.177   6.301 -0.1669  0.3168  0.2933
 6513SOL    HW131175   4.428   4.225   6.379  0.5264  0.2345  0.1077
 6513SOL    HW231176   4.310   4.175   6.330 -0.4218  0.5761 -0.4934
 6514SOL     OW31177   0.162   1.443   0.783 -0.1392 -0.3613  0.1090
 6514SOL    HW131178   0.239   1.394   0.812  0.7490 -0.2983 -2.1519
 6514SOL    HW231179   0.099   1.419   0.851  1.2781 -2.8733  0.5140
 6515SOL     OW31180   0.336   1.623   7.837 -0.4730 -0.1659  0.1792
 6515SOL    HW131181   0.297   1.635   7.924 -4.8302 -0.0073 -1.8241
 6515SOL    HW231182   0.259   1.586   7.794  0.4214  1.3408 -2.6703
 6516SOL     OW31183   0.192   0.129   6.435 -0.2165  0.0151  0.2063
 6516SOL    HW131184   0.101   0.099   6.439  0.0698 -0.7726  0.9536
 6516SOL    HW231185   0.216   0.125   6.528 -1.7608 -2.0164  0.5333
 6517SOL     OW31186   2.412   2.525   3.964 -0.2317  0.6234 -0.6952
 6517SOL    HW131187   2.406   2.576   3.883 -2.7915  1.1424 -0.2073
 6517SOL    HW231188   2.466   2.585   4.016 -1.4220  1.6278 -0.5957
 6518SOL     OW31189   2.947   1.195   5.314  0.5820 -0.1887  0.0416
 6518SOL    HW131190   2.909   1.236   5.392  3.3405  1.3694  0.5510
 6518SOL    HW231191   2.871   1.195   5.255  0.0449  0.8289  0.7270
 6519SOL     OW31192   4.551   1.150   6.530  0.1531 -0.4199 -0.2396
 6519SOL    HW131193   4.596   1.234   6.534  0.8545 -0.8296  0.6259
 6519SOL    HW231194   4.473   1.157   6.585 -0.1501 -0.4629 -0.6686
 6520SOL     OW31195   0.735   4.136   7.482  0.1032 -0.0968  0.1061
 6520SOL    HW131196   0.715   4.082   7.558  0.5797 -0.5919 -0.1195
 6520SOL    HW231197   0.707   4.074   7.414  1.3861 -0.5895  0.0339
 6521SOL     OW31198   0.883   2.213  17.228  0.7360  0.6768  0.0193
 6521SOL    HW131199   0.951   2.223  17.162  1.2774 -0.7855  0.3615
 6521SOL    HW231200   0.806   2.220  17.171  0.2207 -1.3712  0.4545
 6522SOL     OW31201   3.267   0.841   7.130  0.1474 -0.1407  0.2571
 6522SOL    HW131202   3.256   0.880   7.044 -0.9148  1.5232  1.1475
 6522SOL    HW231203   3.337   0.776   7.125 -0.2982 -0.4975 -1.2824
 6523SOL     OW31204   0.197   4.674   7.080 -0.3259  0.2117  0.1568
 6523SOL    HW131205   0.209   4.682   7.174  0.9418  0.1521 -0.0006
 6523SOL    HW231206   0.122   4.733   7.069 -1.2238 -1.2148 -1.3078
 6524SOL     OW31207   3.415   3.969   2.037  0.2720  0.3223 -0.4454
 6524SOL    HW131208   3.441   3.935   1.952 -1.7802 -0.9995 -0.5497
 6524SOL    HW231209   3.319   3.965   2.042  0.2515 -0.5821 -1.6580
 6525SOL     OW31210   4.087   1.980  14.033 -0.5967 -0.3159 -0.2403
 6525SOL    HW131211   4.152   1.937  13.977 -1.9305 -2.3920 -0.1550
 6525SOL    HW231212   4.013   1.926  14.006 -0.1729 -0.3351 -1.3601
 6526SOL     OW31213   0.434   1.181   9.641 -0.1355 -0.3045 -0.0753
 6526SOL    HW131214   0.510   1.176   9.699  0.1699 -0.7826 -0.5168
 6526SOL    HW231215   0.366   1.212   9.700  0.1981  0.5405 -0.1382
 6527SOL     OW31216   0.688   1.167   0.329  0.3032  0.0516 -0.0792
 6527SOL    HW131217   0.597   1.152   0.301  0.8487 -1.9311 -0.8119
 6527SOL    HW231218   0.701   1.257   0.297  1.3651 -1.3122 -3.4334
 6528SOL     OW31219   1.956   0.274   6.124  0.2095 -0.4138  0.2685
 6528SOL    HW131220   1.974   0.201   6.183  1.5816 -1.1311 -1.0550
 6528SOL    HW231221   1.899   0.330   6.177 -1.8689 -1.2744 -1.0650
 6529SOL     OW31222   0.193   1.647  12.336 -0.3249 -0.4837 -0.2616
 6529SOL    HW131223   0.260   1.710  12.363  1.2981 -2.1063 -0.4998
 6529SOL    HW231224   0.132   1.704  12.290 -0.8883 -1.0226 -0.1791
 6530SOL     OW31225   4.421   4.089   7.901  0.1939  0.6507  0.1571
 6530SOL    HW131226   4.404   4.166   7.845 -1.7566  1.7236  2.2352
 6530SOL    HW231227   4.447   4.020   7.840  2.8996  2.5982 -0.9025
 6531SOL     OW31228   3.436   3.570  12.974 -0.1209 -0.6903  0.0649
 6531SOL    HW131229   3.517   3.520  12.970  0.4260 -0.0644  3.3404
 6531SOL    HW231230   3.406   3.560  12.884  2.9949 -1.4854 -0.8652
 6532SOL     OW31231   2.592   0.571  12.740 -0.5571 -0.1978  0.3413
 6532SOL    HW131232   2.677   0.539  12.772  0.5001  2.0305 -0.2468
 6532SOL    HW231233   2.546   0.489  12.722  0.2458 -1.0367  2.0670
 6533SOL     OW31234   4.154   1.116  10.017 -0.2281  0.1051  0.0880
 6533SOL    HW131235   4.144   1.051   9.948  3.0582  0.0964 -0.3486
 6533SOL    HW231236   4.175   1.193   9.966 -0.3546  1.0709  1.4931
 6534SOL     OW31237   1.025   3.227   4.360  0.1362  0.3554 -0.3016
 6534SOL    HW131238   0.971   3.305   4.358  0.7801  0.7239 -3.2341
 6534SOL    HW231239   0.986   3.171   4.428  2.0506  1.2905  1.5825
 6535SOL     OW31240   3.336   1.576   9.524 -0.2444  0.5973  0.3219
 6535SOL    HW131241   3.405   1.561   9.460  0.6830  2.0146  0.9822
 6535SOL    HW231242   3.365   1.518   9.594  0.0903 -0.2047 -0.4771
 6536SOL     OW31243   3.079   4.083   2.871  0.3716  0.1087  0.1102
 6536SOL    HW131244   3.105   4.050   2.957  1.8099 -0.8661 -0.7056
 6536SOL    HW231245   3.166   4.072   2.833 -0.8425 -1.7708 -2.1076
 6537SOL     OW31246   3.170   0.387   2.094  0.2804 -0.6511  0.6126
 6537SOL    HW131247   3.108   0.353   2.159 -0.6147  0.3325  0.2743
 6537SOL    HW231248   3.252   0.382   2.142  0.0974 -1.3808  0.8415
 6538SOL     OW31249   4.178   2.071   5.330  0.0291  0.3757  0.4165
 6538SOL    HW131250   4.200   1.988   5.372  1.6085 -0.0789 -1.2716
 6538SOL    HW231251   4.235   2.121   5.387  0.5185 -1.6339  1.6921
 6539SOL     OW31252   1.628   2.191  13.672 -0.3758 -0.2397 -0.1737
 6539SOL    HW131253   1.624   2.180  13.577  1.1192 -0.8557 -0.1599
 6539SOL    HW231254   1.536   2.178  13.695  0.1448 -1.0163  1.4979
 6540SOL     OW31255   4.176   4.140  16.517  0.1517 -0.4418  0.4316
 6540SOL    HW131256   4.129   4.101  16.590  1.0725 -0.5859  0.9504
 6540SOL    HW231257   4.268   4.117  16.535  0.5342  0.7557  0.0031
 6541SOL     OW31258   2.421   3.688   6.751 -0.2200  0.0334 -0.4425
 6541SOL    HW131259   2.501   3.636   6.758  1.3216  2.5056  0.3348
 6541SOL    HW231260   2.382   3.685   6.839  1.7215  2.1929  0.4982
 6542SOL     OW31261   0.733   4.015   4.463 -0.0608  0.5517  0.7876
 6542SOL    HW131262   0.700   4.049   4.380 -0.4177  0.6429  0.9652
 6542SOL    HW231263   0.758   3.925   4.446  1.0471  1.4128 -2.1147
 6543SOL     OW31264   2.737   1.256   4.635  0.4029 -0.4707  0.1734
 6543SOL    HW131265   2.805   1.209   4.587 -0.4191 -2.0242  0.5292
 6543SOL    HW231266   2.684   1.289   4.563 -0.3091 -0.9002  0.4939
 6544SOL     OW31267   0.019   0.526   8.075  0.2284 -0.7108 -0.1984
 6544SOL    HW131268   0.077   0.602   8.062  0.0642 -0.4999  0.3069
 6544SOL    HW231269   4.709   0.552   8.155 -4.0685 -0.9563 -2.5453
 6545SOL     OW31270   4.321   2.495  12.787 -0.0636 -0.0938 -0.2283
 6545SOL    HW131271   4.346   2.419  12.734  1.8134  0.3851 -0.0241
 6545SOL    HW231272   4.340   2.563  12.723  4.5296 -1.1185  0.0791
 6546SOL     OW31273   2.246   2.177   2.087  0.6656 -0.2718 -0.6841
 6546SOL    HW131274   2.187   2.132   2.027  1.2536  1.0669 -2.2613
 6546SOL    HW231275   2.257   2.258   2.038  3.0384 -1.0003 -1.3888
 6547SOL     OW31276   0.993   2.226   6.887  0.1898  0.0239 -0.1985
 6547SOL    HW131277   0.927   2.177   6.838  2.6705 -3.8703  0.2921
 6547SOL    HW231278   0.997   2.169   6.965  2.4744  1.1727  0.4953
 6548SOL     OW31279   2.896   2.825   9.118 -0.4433 -0.4778 -0.5542
 6548SOL    HW131280   2.888   2.895   9.053 -2.1651 -0.4804 -0.3402
 6548SOL    HW231281   2.960   2.771   9.071  1.5406  0.9960  0.4941
 6549SOL     OW31282   4.109   0.140   4.592  0.7692  0.0319 -0.1479
 6549SOL    HW131283   4.179   0.103   4.646  1.6650  0.8835 -0.7430
 6549SOL    HW231284   4.071   0.054   4.573  1.1890 -0.0895 -0.4407
 6550SOL     OW31285   2.487   2.072  16.240 -0.7351 -0.0958  0.2147
 6550SOL    HW131286   2.444   2.090  16.324  1.6589  1.6148  1.0581
 6550SOL    HW231287   2.421   2.092  16.174 -0.1888  1.7604  0.2585
 6551SOL     OW31288   2.471   2.806   4.605  0.1191  0.7489  0.3479
 6551SOL    HW131289   2.430   2.723   4.578  0.1445  1.3120 -1.4055
 6551SOL    HW231290   2.564   2.786   4.601 -0.3552 -1.6107  0.8642
 6552SOL     OW31291   3.962   4.054   4.260 -0.0201 -0.0575  0.0094
 6552SOL    HW131292   3.908   4.043   4.338 -1.4592 -2.5372 -1.3288
 6552SOL    HW231293   4.052   4.026   4.279  0.1689  0.0348 -0.7697
 6553SOL     OW31294   1.832   4.104  13.760  0.6856  0.0313 -0.2179
 6553SOL    HW131295   1.900   4.073  13.819  0.4358 -0.1205 -0.0085
 6553SOL    HW231296   1.758   4.050  13.787  1.3721 -0.4902  0.6286
 6554SOL     OW31297   2.477   1.409  10.653 -0.1551  0.0513 -0.2693
 6554SOL    HW131298   2.536   1.334  10.665  2.2302  1.7425 -1.3028
 6554SOL    HW231299   2.439   1.416  10.740  2.0796 -0.2818  0.7556
 6555SOL     OW31300   3.463   2.314   1.562 -0.8557 -0.3539 -0.3339
 6555SOL    HW131301   3.378   2.350   1.538 -1.1580 -0.5428  0.4416
 6555SOL    HW231302   3.512   2.375   1.508 -0.5388  2.1599  2.7825
 6556SOL     OW31303   0.175   1.293   6.976 -0.1874 -0.0925 -0.3523
 6556SOL    HW131304   0.140   1.337   6.899 -0.5957  0.1533 -0.0263
 6556SOL    HW231305   0.109   1.315   7.041 -0.1190  4.0033 -1.6541
 6557SOL     OW31306   2.619   3.643   7.403 -0.2548 -0.0858  0.1144
 6557SOL    HW131307   2.535   3.689   7.413  0.0943  0.7914 -0.9855
 6557SOL    HW231308   2.631   3.632   7.498  0.7455 -1.1592 -0.1382
 6558SOL     OW31309   2.277   0.518  15.286  0.3192 -0.1421  0.2967
 6558SOL    HW131310   2.320   0.585  15.340  1.3780 -0.2054 -0.4686
 6558SOL    HW231311   2.349   0.483  15.233 -0.4603  0.3272 -1.0542
 6559SOL     OW31312   0.259   4.546   4.938 -0.5246  0.0315 -0.7665
 6559SOL    HW131313   0.257   4.531   4.843 -0.2326 -2.5496 -0.3767
 6559SOL    HW231314   0.339   4.595   4.956 -2.5813  2.7428  0.9303
 6560SOL     OW31315   2.207   0.729   7.976 -0.4457  0.1478  0.1259
 6560SOL    HW131316   2.199   0.789   7.901  0.9837  1.1161  0.7451
 6560SOL    HW231317   2.255   0.654   7.941  0.9241  1.0946 -0.0167
 6561SOL     OW31318   1.759   4.549  16.268  0.1841 -0.3995 -0.5646
 6561SOL    HW131319   1.717   4.595  16.340  0.5049  0.2162 -0.7653
 6561SOL    HW231320   1.718   4.597  16.196  0.7591  0.7955 -0.0964
 6562SOL     OW31321   4.387   1.041   4.791  0.6035 -0.4820  0.4963
 6562SOL    HW131322   4.476   1.008   4.802  1.9669  2.8717 -0.2481
 6562SOL    HW231323   4.396   1.134   4.813  0.4811  0.3328 -2.8630
 6563SOL     OW31324   4.654   2.292   2.981  0.2978  0.6543  0.1468
 6563SOL    HW131325   4.604   2.298   2.900  0.7023 -0.7161 -0.2050
 6563SOL    HW231326   4.609   2.216   3.016 -0.9196  1.4230  0.2351
 6564SOL     OW31327   4.725   2.279   1.597 -0.3215  0.3557 -0.3586
 6564SOL    HW131328   4.711   2.186   1.580 -0.8032  0.3913 -0.1440
 6564SOL    HW231329   0.071   2.298   1.549 -0.4420  1.0791 -0.2776
 6565SOL     OW31330   2.841   4.688   4.701  0.2446 -0.6115  0.4007
 6565SOL    HW131331   2.890   0.023   4.659 -1.0400 -0.6178 -1.1199
 6565SOL    HW231332   2.754   4.724   4.686  0.0208 -0.7439  1.3394
 6566SOL     OW31333   4.146   2.197   4.821 -0.0588 -0.1949  0.0092
 6566SOL    HW131334   4.127   2.290   4.837 -0.2533 -0.9290  4.0987
 6566SOL    HW231335   4.119   2.178   4.732  1.6582  2.1656 -1.0247
 6567SOL     OW31336   1.017   3.506  13.292 -0.0620  0.1226  0.0105
 6567SOL    HW131337   1.080   3.468  13.232  1.2153  1.0447  0.7501
 6567SOL    HW231338   1.024   3.595  13.257  0.9901 -0.4043 -1.1087
 6568SOL     OW31339   1.592   3.523   9.342 -0.3466  0.4400 -0.5823
 6568SOL    HW131340   1.515   3.541   9.397 -0.2700 -0.9488 -0.0285
 6568SOL    HW231341   1.632   3.450   9.389 -1.2732  0.1668 -0.2071
 6569SOL     OW31342   4.097   0.109   6.199 -0.3903 -0.3599 -0.8099
 6569SOL    HW131343   4.009   0.140   6.175 -0.0174  0.4781 -1.1056
 6569SOL    HW231344   4.084   0.052   6.275 -0.7263  0.1201 -0.5064
 6570SOL     OW31345   4.317   4.028   1.692 -0.3511 -0.0117 -0.1620
 6570SOL    HW131346   4.408   4.026   1.664 -0.2009  2.8635  0.1631
 6570SOL    HW231347   4.297   4.119   1.671 -2.2306 -1.1112 -3.2015
 6571SOL     OW31348   3.527   4.478   8.585 -0.3096 -1.0667  0.0645
 6571SOL    HW131349   3.482   4.551   8.542  3.6022 -0.7986 -3.4998
 6571SOL    HW231350   3.540   4.416   8.513  1.4670 -0.8191  0.1820
 6572SOL     OW31351   1.761   1.505  10.158  0.1757  0.0219 -0.2572
 6572SOL    HW131352   1.700   1.565  10.115  1.9345  1.9438 -0.0998
 6572SOL    HW231353   1.717   1.485  10.241 -0.4051  1.3852 -0.2271
 6573SOL     OW31354   0.626   4.092   6.800  0.5546  0.1906  0.0221
 6573SOL    HW131355   0.647   4.118   6.711  0.8806  1.5958  0.5210
 6573SOL    HW231356   0.716   4.079   6.830  0.7986  1.1246 -0.3171
 6574SOL     OW31357   2.903   2.280   9.230  0.2939 -0.1173 -0.4571
 6574SOL    HW131358   2.882   2.202   9.178 -1.2360 -0.1341  0.1921
 6574SOL    HW231359   2.970   2.319   9.174  0.4329 -1.4995 -1.2519
 6575SOL     OW31360   2.927   0.760  10.037 -0.3609 -0.4921 -0.3717
 6575SOL    HW131361   2.864   0.749   9.966  0.4997  0.5446 -1.3046
 6575SOL    HW231362   2.905   0.851  10.058  0.7379 -0.7219  1.7602
 6576SOL     OW31363   3.596   1.084  16.917  0.4702  0.3800  0.5438
 6576SOL    HW131364   3.617   0.991  16.913 -1.1388  0.0772 -1.0538
 6576SOL    HW231365   3.523   1.080  16.978 -0.3153  0.4916 -0.3885
 6577SOL     OW31366   1.156   3.677   1.956  0.6241  0.6140  0.3232
 6577SOL    HW131367   1.109   3.713   1.881  0.6971 -0.4233 -0.2253
 6577SOL    HW231368   1.086   3.669   2.020  2.7686  1.2124  2.7371
 6578SOL     OW31369   1.834   2.283   7.863  0.4294 -0.6043 -0.1317
 6578SOL    HW131370   1.740   2.265   7.856  0.3059  0.5841 -1.4991
 6578SOL    HW231371   1.865   2.220   7.798 -1.2410 -0.2714 -1.2384
 6579SOL     OW31372   0.006   3.338   8.677  0.0047  0.6490 -0.1310
 6579SOL    HW131373   0.089   3.322   8.633 -0.7030  1.4306 -1.7253
 6579SOL    HW231374   4.685   3.373   8.608 -0.4323 -1.0784 -0.6753
 6580SOL     OW31375   4.034   0.275   3.984 -0.0842 -0.0247  0.3425
 6580SOL    HW131376   4.051   0.322   3.902 -0.4140 -1.0393 -0.3021
 6580SOL    HW231377   4.105   0.309   4.039  0.5416 -1.4966  0.4549
 6581SOL     OW31378   2.103   2.944   6.825 -0.0985  0.5222 -0.1808
 6581SOL    HW131379   2.104   2.905   6.913 -0.6341  1.3994  0.2099
 6581SOL    HW231380   2.044   3.018   6.839 -0.2475  0.3903 -0.1104
 6582SOL     OW31381   2.270   0.035   9.352 -0.6368  0.1083 -0.1066
 6582SOL    HW131382   2.350   0.024   9.405 -0.9844  0.9183  0.5778
 6582SOL    HW231383   2.205   0.044   9.421  0.4235  3.1623  0.5085
 6583SOL     OW31384   1.539   1.587   7.549  0.0675  0.6317 -0.4363
 6583SOL    HW131385   1.448   1.598   7.575  0.0882 -1.0839  0.3799
 6583SOL    HW231386   1.573   1.675   7.564 -0.5023  0.1866  3.5815
 6584SOL     OW31387   2.181   1.536   5.541 -0.3390 -0.1454 -0.5686
 6584SOL    HW131388   2.110   1.538   5.605 -0.6184  2.1041 -0.9242
 6584SOL    HW231389   2.227   1.617   5.565 -0.2397 -0.7807  1.3842
 6585SOL     OW31390   3.313   4.608   7.834  0.5420  0.7259  0.0213
 6585SOL    HW131391   3.350   4.613   7.922 -0.1672 -0.8099  0.4241
 6585SOL    HW231392   3.269   4.692   7.828 -3.6907 -1.4153  0.5824
 6586SOL     OW31393   2.297   3.535   4.193  0.1511 -0.6443  0.3286
 6586SOL    HW131394   2.260   3.490   4.116  2.3453 -1.0416 -0.4923
 6586SOL    HW231395   2.294   3.465   4.258 -4.1814  1.2902  2.2139
 6587SOL     OW31396   0.775   4.663   7.439 -0.8085  0.0439  0.1692
 6587SOL    HW131397   0.722   4.593   7.478 -0.1062 -1.6618 -1.9082
 6587SOL    HW231398   0.807   4.701   7.520  0.4385 -1.5295  0.4348
 6588SOL     OW31399   4.546   1.413   2.964  0.0150 -0.7236 -0.1962
 6588SOL    HW131400   4.454   1.436   2.977  0.1345  0.0601 -0.7156
 6588SOL    HW231401   4.541   1.363   2.882  1.1944  0.5394 -1.0516
 6589SOL     OW31402   3.201   1.621  10.764 -0.1127  0.6268 -0.0710
 6589SOL    HW131403   3.144   1.697  10.754  2.0278  2.5585  2.7146
 6589SOL    HW231404   3.286   1.658  10.787 -0.7331  0.5942  2.1993
 6590SOL     OW31405   2.918   3.760   5.084 -0.1646  0.1988  0.1569
 6590SOL    HW131406   2.902   3.679   5.037  1.1365 -0.5875  1.0606
 6590SOL    HW231407   2.976   3.802   5.020  1.1708  1.6578  2.3019
 6591SOL     OW31408   4.693   1.411   9.816 -0.4573  0.5021  0.8681
 6591SOL    HW131409   0.054   1.419   9.813 -0.6408  1.6931 -2.0787
 6591SOL    HW231410   4.670   1.479   9.879 -0.6593  0.6846  0.6003
 6592SOL     OW31411   3.979   1.580   2.751 -0.0008  0.0983 -0.6218
 6592SOL    HW131412   3.962   1.496   2.794 -2.4204  1.0771  0.3614
 6592SOL    HW231413   3.971   1.655   2.810 -1.9615  0.3540 -1.2071
 6593SOL     OW31414   0.743   3.013   3.031 -0.2364  0.2696  0.4117
 6593SOL    HW131415   0.694   2.931   3.035  1.4416 -0.6287  2.0843
 6593SOL    HW231416   0.833   2.980   3.036  0.2711  1.6012  0.1008
 6594SOL     OW31417   0.305   0.902   0.909  0.2407  0.5090 -0.3595
 6594SOL    HW131418   0.395   0.928   0.931  0.4613  0.0839 -0.7475
 6594SOL    HW231419   0.310   0.814   0.948 -0.3689  0.8954  0.5893
 6595SOL     OW31420   0.640   1.425   4.799  0.3869  0.1491 -0.3268
 6595SOL    HW131421   0.713   1.472   4.839  1.7225 -1.4612 -0.8646
 6595SOL    HW231422   0.680   1.405   4.714 -1.1118 -0.5132 -0.8738
 6596SOL     OW31423   4.007   1.086   2.592  0.5123 -1.0060  0.4371
 6596SOL    HW131424   4.096   1.084   2.556 -0.8522 -2.7126 -2.8062
 6596SOL    HW231425   4.019   1.152   2.660  0.6037  1.5681 -2.0850
 6597SOL     OW31426   0.586   0.643   9.630 -0.5057  0.2605 -0.1409
 6597SOL    HW131427   0.627   0.720   9.668 -1.9602 -0.5505  3.0958
 6597SOL    HW231428   0.601   0.572   9.694  0.1363  2.1898  1.8401
 6598SOL     OW31429   4.286   4.278   1.595  0.4230  0.0454 -0.6188
 6598SOL    HW131430   4.360   4.270   1.535 -0.8117 -2.7081 -1.7797
 6598SOL    HW231431   4.317   4.348   1.652 -1.7109  0.0915  0.4968
 6599SOL     OW31432   1.002   2.817   8.534  0.4778 -0.7174  0.3406
 6599SOL    HW131433   1.090   2.810   8.498  1.2011 -0.0882  1.9713
 6599SOL    HW231434   1.013   2.761   8.611 -2.8151 -1.1326  0.5105
 6600SOL     OW31435   3.971   2.558   0.262  0.1972 -0.2332 -0.5266
 6600SOL    HW131436   3.948   2.478   0.215  1.7092 -1.9606  1.6178
 6600SOL    HW231437   3.903   2.619   0.233 -0.3543 -1.2042 -1.2694
 6601SOL     OW31438   3.122   0.879   6.411 -0.3804  0.7186 -0.1795
 6601SOL    HW131439   3.038   0.905   6.374  0.1455  1.6956 -0.6768
 6601SOL    HW231440   3.126   0.943   6.482  0.2739 -0.4605  0.8412
 6602SOL     OW31441   1.944   1.518  10.484 -0.1855  0.1509 -0.2812
 6602SOL    HW131442   1.907   1.442  10.530  0.0514 -0.4196 -1.0264
 6602SOL    HW231443   2.038   1.503  10.496 -0.3302  0.1952  0.9125
 6603SOL     OW31444   1.466   2.320   4.425  0.2241  0.2714 -0.6338
 6603SOL    HW131445   1.385   2.337   4.376 -1.4577 -1.5292  1.5090
 6603SOL    HW231446   1.502   2.244   4.379  2.7339 -0.2871  2.2678
 6604SOL     OW31447   3.090   1.448   4.424 -0.0549 -0.0182  0.0254
 6604SOL    HW131448   3.083   1.428   4.518 -2.8692  0.6785 -0.0466
 6604SOL    HW231449   3.134   1.530   4.444  0.4846 -0.4396  0.5853
 6605SOL     OW31450   3.115   1.048  13.321  0.0467  0.1665 -0.1070
 6605SOL    HW131451   3.041   1.022  13.376  1.6386 -1.1062  1.4623
 6605SOL    HW231452   3.175   0.982  13.356  0.8285  0.0829 -1.6244
 6606SOL     OW31453   1.736   2.956   0.453 -0.1049  0.1603 -0.0417
 6606SOL    HW131454   1.757   2.866   0.479 -0.0486 -0.0062 -0.6696
 6606SOL    HW231455   1.678   2.959   0.377  0.4111 -1.8203 -0.5033
 6607SOL     OW31456   0.277   4.427   3.235 -0.4821 -0.3447  0.6141
 6607SOL    HW131457   0.182   4.424   3.220 -0.1808 -1.5610 -1.0068
 6607SOL    HW231458   0.276   4.435   3.330 -0.4753 -1.0564  0.6718
 6608SOL     OW31459   1.397   4.359  12.494 -0.8673  0.0173 -0.1646
 6608SOL    HW131460   1.483   4.333  12.460 -0.6698  0.6314 -0.1342
 6608SOL    HW231461   1.379   4.432  12.435  1.8151  0.9416  0.1472
 6609SOL     OW31462   1.246   0.932   3.412  0.2544  0.1393  0.0106
 6609SOL    HW131463   1.307   0.962   3.344  1.2060 -1.9989 -0.0741
 6609SOL    HW231464   1.293   0.862   3.457  0.0780 -0.8161 -1.2852
 6610SOL     OW31465   1.940   1.420   2.620 -0.6921  0.3554  0.6048
 6610SOL    HW131466   1.854   1.383   2.597 -0.3997 -0.3742  0.6807
 6610SOL    HW231467   1.997   1.396   2.547  1.4878  2.2907  1.6763
 6611SOL     OW31468   2.891   3.372  16.973 -0.0202  0.3834 -0.6303
 6611SOL    HW131469   2.841   3.374  17.054 -0.5617  0.8794 -0.9805
 6611SOL    HW231470   2.963   3.312  16.993  1.1415  1.6668 -0.9429
 6612SOL     OW31471   4.174   4.579   3.384  0.3631 -0.2685  0.0665
 6612SOL    HW131472   4.245   4.535   3.432 -0.3171 -0.9571  0.4508
 6612SOL    HW231473   4.208   4.595   3.296 -2.2783 -1.5546 -1.1933
 6613SOL     OW31474   1.310   2.768   7.274 -0.4575  0.3062 -1.0306
 6613SOL    HW131475   1.399   2.750   7.246 -0.1633 -1.5574  1.0653
 6613SOL    HW231476   1.325   2.769   7.369 -0.4266  0.6081 -1.0391
 6614SOL     OW31477   4.231   3.105  17.092 -0.4144 -0.0331  0.2360
 6614SOL    HW131478   4.146   3.071  17.065  1.0301  0.8879 -5.4167
 6614SOL    HW231479   4.296   3.071  17.031 -0.4882 -1.3083  0.8837
 6615SOL     OW31480   2.007   4.227  10.190  0.1366  0.0409 -0.0448
 6615SOL    HW131481   2.053   4.156  10.146  2.3066  1.0748  0.5518
 6615SOL    HW231482   1.926   4.229  10.138 -0.2756  1.0187  0.6373
 6616SOL     OW31483   2.444   0.398   5.479 -0.2128 -0.4175 -0.6580
 6616SOL    HW131484   2.445   0.378   5.572  2.5352  1.7007 -0.2325
 6616SOL    HW231485   2.472   0.489   5.477 -1.8947  0.0851 -1.4223
 6617SOL     OW31486   2.234   0.457   1.847 -0.3441 -0.3188  0.1918
 6617SOL    HW131487   2.277   0.417   1.772  0.7408 -0.0861  0.6852
 6617SOL    HW231488   2.308   0.468   1.907  1.0146 -0.2999 -1.4943
 6618SOL     OW31489   0.876   4.234   4.571 -0.4073  0.1360 -0.2728
 6618SOL    HW131490   0.845   4.205   4.656 -1.7156  0.8024 -0.5074
 6618SOL    HW231491   0.828   4.167   4.523  0.2242  0.1058 -0.8582
 6619SOL     OW31492   1.585   0.260   3.693 -0.1217 -0.5447  0.5966
 6619SOL    HW131493   1.518   0.245   3.626 -0.4394 -0.8149  0.9798
 6619SOL    HW231494   1.600   0.173   3.729 -0.3288  0.1342  2.3140
 6620SOL     OW31495   1.644   2.890   3.803  0.1192 -0.0827  0.7669
 6620SOL    HW131496   1.653   2.985   3.812  0.8371  0.1487 -2.4316
 6620SOL    HW231497   1.621   2.884   3.711  2.3060  0.6671  0.1793
 6621SOL     OW31498   0.607   2.496   3.189  0.1609 -0.2948 -0.6621
 6621SOL    HW131499   0.641   2.426   3.245 -0.5189  0.0133  0.1369
 6621SOL    HW231500   0.569   2.435   3.125 -0.3773 -0.1789 -0.4510
 6622SOL     OW31501   1.933   2.457   5.163 -0.3417 -0.2741 -0.2943
 6622SOL    HW131502   2.012   2.494   5.202  0.3828 -1.1185 -0.9679
 6622SOL    HW231503   1.875   2.530   5.188  2.0307  1.4964  0.0550
 6623SOL     OW31504   1.531   3.202  15.001 -0.0065 -0.1843  0.2564
 6623SOL    HW131505   1.469   3.146  14.954 -0.2258  0.2905 -0.0163
 6623SOL    HW231506   1.616   3.165  14.977  0.7477 -0.3263  3.1766
 6624SOL     OW31507   3.640   4.549   7.659 -0.1308 -0.3654  0.8742
 6624SOL    HW131508   3.631   4.587   7.746 -0.0683  0.9573  0.3127
 6624SOL    HW231509   3.613   4.618   7.598 -0.7955  0.5209  2.1785
 6625SOL     OW31510   0.108   2.298   4.301 -0.1870 -0.2601 -0.1678
 6625SOL    HW131511   0.026   2.268   4.340 -0.7177  1.8800  0.3769
 6625SOL    HW231512   0.070   2.381   4.274 -1.4462 -0.8625 -0.2536
 6626SOL     OW31513   3.636   2.621   4.199  0.2602 -0.5957  0.0569
 6626SOL    HW131514   3.606   2.558   4.265 -0.2532 -2.6030 -2.0889
 6626SOL    HW231515   3.666   2.567   4.127 -1.3533 -0.3659 -0.7785
 6627SOL     OW31516   3.728   3.370   5.253  0.3512 -0.2636 -0.0252
 6627SOL    HW131517   3.823   3.381   5.248  0.1361  1.6902  0.2131
 6627SOL    HW231518   3.711   3.463   5.236 -1.0578 -0.2285  1.5689
 6628SOL     OW31519   1.586   2.766   5.486 -0.0503 -1.1848  0.7817
 6628SOL    HW131520   1.586   2.752   5.392 -0.7872  1.1224  0.4639
 6628SOL    HW231521   1.646   2.695   5.513  0.6468 -1.2669 -0.9866
 6629SOL     OW31522   2.639   1.692  11.119  0.4365 -0.0070  0.6463
 6629SOL    HW131523   2.598   1.619  11.072 -0.5986  1.8111 -1.3110
 6629SOL    HW231524   2.712   1.659  11.171 -0.2415  0.5887  1.9560
 6630SOL     OW31525   0.291   1.030   2.200 -0.2320 -0.2747 -0.2691
 6630SOL    HW131526   0.212   0.977   2.190 -0.2635  0.1510 -2.3673
 6630SOL    HW231527   0.264   1.065   2.285  3.5449 -1.1100  1.2552
 6631SOL     OW31528   2.215   0.335   4.529  0.1334 -0.0556  0.1970
 6631SOL    HW131529   2.155   0.266   4.559  0.0996  0.6670  1.7967
 6631SOL    HW231530   2.160   0.409   4.557 -0.3603  0.2330 -1.5472
 6632SOL     OW31531   0.147   3.707  10.583 -0.4435 -0.4113 -0.0595
 6632SOL    HW131532   0.054   3.713  10.564 -0.0466 -0.2990 -1.9600
 6632SOL    HW231533   0.176   3.730  10.494 -3.6804  0.5153 -0.8763
 6633SOL     OW31534   1.419   1.171   3.800 -0.1541  0.6046  0.1065
 6633SOL    HW131535   1.449   1.087   3.835 -0.1373  0.7613  0.4729
 6633SOL    HW231536   1.336   1.141   3.763  0.0541 -2.4289  2.0775
 6634SOL     OW31537   3.545   2.339  16.284  0.1796  0.6318  0.0675
 6634SOL    HW131538   3.480   2.402  16.315 -1.4836  0.1910 -2.4394
 6634SOL    HW231539   3.522   2.333  16.191  0.7496  2.0896 -0.1744
 6635SOL     OW31540   1.419   0.048   2.188 -0.2324 -0.2541  0.2781
 6635SOL    HW131541   1.387   4.699   2.156 -0.4521 -0.6717  1.6074
 6635SOL    HW231542   1.349   0.102   2.150  3.1045  2.5956 -1.8268
 6636SOL     OW31543   2.635   1.586   6.427 -0.1994 -0.7963  0.2130
 6636SOL    HW131544   2.582   1.661   6.403  0.4054 -0.6574 -0.7152
 6636SOL    HW231545   2.640   1.534   6.347 -0.1063  0.2526 -0.4614
 6637SOL     OW31546   0.153   4.217   8.885  0.6766 -0.7273 -0.3357
 6637SOL    HW131547   0.089   4.161   8.841 -0.5406  1.1559 -0.9537
 6637SOL    HW231548   0.130   4.216   8.978 -0.0015  1.0389 -0.4831
 6638SOL     OW31549   1.852   0.851   7.457  0.4130  0.3346  0.5555
 6638SOL    HW131550   1.886   0.925   7.506 -1.4254  0.2291  2.0002
 6638SOL    HW231551   1.821   0.791   7.526  0.0603 -0.1116  0.0146
 6639SOL     OW31552   1.239   2.858   1.708 -0.0726 -0.2419  0.0425
 6639SOL    HW131553   1.244   2.762   1.705  0.7516 -0.1626 -0.9649
 6639SOL    HW231554   1.286   2.884   1.787  1.1712 -1.6533 -0.2289
 6640SOL     OW31555   0.681   0.471   1.049  0.0795 -0.5116 -0.4567
 6640SOL    HW131556   0.771   0.500   1.067  0.1321  0.0533 -1.5982
 6640SOL    HW231557   0.636   0.476   1.132  0.0917  3.7524 -0.7078
 6641SOL     OW31558   4.215   3.113  15.299 -0.8292  0.0438  0.7031
 6641SOL    HW131559   4.300   3.079  15.327  0.4032  3.0395  0.5785
 6641SOL    HW231560   4.219   3.107  15.204 -1.1151  3.0791  0.5191
 6642SOL     OW31561   4.309   0.276   1.225  0.4128  1.0594  0.1019
 6642SOL    HW131562   4.233   0.333   1.238  0.6134  1.6550 -1.4231
 6642SOL    HW231563   4.277   0.190   1.197 -0.2108  1.8388 -1.5434
 6643SOL     OW31564   0.335   3.029   9.011  0.1972 -0.4645  0.7484
 6643SOL    HW131565   0.308   3.072   8.930 -1.7961 -0.3747  1.4652
 6643SOL    HW231566   0.407   3.089   9.031  0.6541 -1.2066  1.3402
 6644SOL     OW31567   0.208   2.705   1.295  0.3571 -0.1036  0.1095
 6644SOL    HW131568   0.121   2.673   1.270  0.2991 -0.4308  0.7322
 6644SOL    HW231569   0.196   2.781   1.352 -2.0942  0.2857 -0.9296
 6645SOL     OW31570   3.758   2.333   9.528  0.0525 -0.0084  0.0304
 6645SOL    HW131571   3.800   2.253   9.497  0.4996 -0.4065  1.6343
 6645SOL    HW231572   3.691   2.296   9.586  2.3180 -0.8861  2.0824
 6646SOL     OW31573   4.560   1.445   7.729  0.2816 -0.3465  0.0183
 6646SOL    HW131574   4.548   1.421   7.821  1.8701  1.8102  0.7954
 6646SOL    HW231575   4.600   1.531   7.738 -1.6224  0.2886  2.4468
 6647SOL     OW31576   1.321   4.280  16.695  0.3327  0.5512  0.0712
 6647SOL    HW131577   1.246   4.332  16.667  1.7450  3.4446  1.6887
 6647SOL    HW231578   1.390   4.306  16.634  1.1242  3.6997  2.2974
 6648SOL     OW31579   2.622   0.750   2.518 -0.3402 -0.3961  0.2806
 6648SOL    HW131580   2.690   0.736   2.584  0.3672 -0.5910 -0.4899
 6648SOL    HW231581   2.647   0.699   2.441 -1.0147  0.5140 -0.5412
 6649SOL     OW31582   4.714   0.723  12.359 -0.3252 -0.1596 -0.1425
 6649SOL    HW131583   0.029   0.704  12.279 -0.1990  1.7226 -0.5172
 6649SOL    HW231584   0.041   0.777  12.408 -0.4835  1.3596 -1.5902
 6650SOL     OW31585   0.710   0.480  11.309 -0.3220  0.0827  0.1278
 6650SOL    HW131586   0.754   0.499  11.391 -2.6636 -0.4222  1.5213
 6650SOL    HW231587   0.773   0.429  11.258 -0.7402  1.4710 -1.7849
 6651SOL     OW31588   4.466   2.759   8.560  0.0039  0.0121  0.1776
 6651SOL    HW131589   4.408   2.718   8.496 -0.2138 -1.1718  1.1371
 6651SOL    HW231590   4.430   2.723   8.642  0.5749 -0.3158  0.2800
 6652SOL     OW31591   0.086   3.063   6.104  0.1025  0.0361  0.7187
 6652SOL    HW131592   0.153   3.119   6.144 -0.1973  1.9938 -1.4988
 6652SOL    HW231593   0.148   3.008   6.056 -1.3138 -0.7229 -0.2353
 6653SOL     OW31594   3.360   4.041  11.307  0.3494  0.0980 -0.2390
 6653SOL    HW131595   3.414   4.016  11.382 -1.4247 -0.2059  0.9389
 6653SOL    HW231596   3.381   4.134  11.294 -0.0214  0.2841  0.4430
 6654SOL     OW31597   4.434   2.936   4.013 -0.2982  0.2064 -0.2267
 6654SOL    HW131598   4.513   2.970   3.971 -1.9960  0.6706 -3.0798
 6654SOL    HW231599   4.370   2.980   3.957 -0.4065 -0.2676 -0.4728
 6655SOL     OW31600   3.346   2.851   6.239  0.1866  0.2641  0.2396
 6655SOL    HW131601   3.419   2.883   6.185  0.1241  1.1570  0.6924
 6655SOL    HW231602   3.391   2.786   6.291  0.4541  0.1214 -0.1677
 6656SOL     OW31603   2.457   4.285   5.666  0.0007 -0.0131 -0.3422
 6656SOL    HW131604   2.389   4.274   5.600  1.9904 -1.7012 -2.1039
 6656SOL    HW231605   2.483   4.196   5.687 -0.3051 -0.2430 -0.9444
 6657SOL     OW31606   2.957   0.447   2.953 -0.4215 -0.2546 -0.0661
 6657SOL    HW131607   3.004   0.522   2.915 -1.5671 -1.0558 -3.0311
 6657SOL    HW231608   3.025   0.391   2.991 -0.2272  0.4305  0.5901
 6658SOL     OW31609   3.482   2.856  11.079  0.2956 -0.2105  0.6530
 6658SOL    HW131610   3.538   2.906  11.019 -0.8796  2.8468  2.1092
 6658SOL    HW231611   3.530   2.868  11.161  2.2100 -0.1427 -0.4653
 6659SOL     OW31612   3.665   0.501   4.844  0.2536 -0.4012 -0.5510
 6659SOL    HW131613   3.744   0.522   4.894 -0.9375  0.5402  0.9467
 6659SOL    HW231614   3.663   0.568   4.776 -0.7671 -0.3848 -0.5002
 6660SOL     OW31615   0.699   0.737   0.144 -0.2451  0.3031 -0.3751
 6660SOL    HW131616   0.655   0.653   0.155 -0.3180  0.4160  0.1918
 6660SOL    HW231617   0.625   0.793   0.168 -0.9362 -0.7972  0.0505
 6661SOL     OW31618   1.625   2.384   7.288 -0.1170 -0.6290  0.0592
 6661SOL    HW131619   1.533   2.355   7.288 -0.5569  0.7957  2.8279
 6661SOL    HW231620   1.642   2.400   7.195  1.6254 -1.2986  0.2567
 6662SOL     OW31621   3.917   1.320   8.701  0.1770  0.4135 -0.3150
 6662SOL    HW131622   3.844   1.279   8.746  2.2901 -0.3604  2.3959
 6662SOL    HW231623   3.994   1.284   8.745 -0.3238  1.6897  1.5795
 6663SOL     OW31624   1.589   4.485   2.634  0.4237  0.0021 -0.0371
 6663SOL    HW131625   1.674   4.505   2.597  0.7843 -0.4437  0.5495
 6663SOL    HW231626   1.592   4.536   2.715 -2.9248 -1.0023  0.7437
 6664SOL     OW31627   1.213   2.504   3.262 -0.0169 -1.3152  0.1792
 6664SOL    HW131628   1.145   2.568   3.241  2.0070  0.8063  0.1205
 6664SOL    HW231629   1.272   2.509   3.187  1.3091 -2.1799  1.1727
 6665SOL     OW31630   2.812   3.561   3.717  0.1351  0.0182 -0.1189
 6665SOL    HW131631   2.816   3.541   3.623  1.4035 -0.4148  0.0287
 6665SOL    HW231632   2.774   3.649   3.719 -1.4305 -0.6594  0.2340
 6666SOL     OW31633   1.589   0.370   0.294  0.1396 -0.2337 -0.3473
 6666SOL    HW131634   1.614   0.349   0.204  0.2518 -3.3254  0.4048
 6666SOL    HW231635   1.606   0.465   0.292  1.1805 -0.3944  0.4871
 6667SOL     OW31636   1.879   2.332  16.923 -0.2864  0.3373  0.4628
 6667SOL    HW131637   1.791   2.317  16.960  0.5474  3.1148  3.5892
 6667SOL    HW231638   1.926   2.313  17.005 -1.2600 -2.7224  0.3195
 6668SOL     OW31639   3.299   1.285  16.883 -0.7510  0.8593 -0.0360
 6668SOL    HW131640   3.321   1.193  16.891 -0.9715  0.8788  0.7748
 6668SOL    HW231641   3.206   1.286  16.904 -1.4043  1.3291 -2.9417
 6669SOL     OW31642   4.295   1.919  16.010 -0.1514 -0.0808 -0.0775
 6669SOL    HW131643   4.376   1.921  15.959  1.7624  1.1249  3.0015
 6669SOL    HW231644   4.232   1.967  15.958 -0.6003 -0.2006  0.3551
 6670SOL     OW31645   0.266   0.345   4.692  0.4239 -0.2215 -0.6079
 6670SOL    HW131646   0.304   0.298   4.618  1.0034 -0.6526 -0.0441
 6670SOL    HW231647   0.305   0.312   4.773  1.4094  0.3216 -0.8670
 6671SOL     OW31648   0.777   2.434   5.412 -0.2101 -0.2568 -0.5323
 6671SOL    HW131649   0.711   2.486   5.458  0.8433  0.5796  0.0524
 6671SOL    HW231650   0.825   2.400   5.488 -1.3928 -1.2557 -0.2446
 6672SOL     OW31651   0.544   0.952   2.161 -0.2844  0.9789  0.3078
 6672SOL    HW131652   0.456   0.980   2.188 -0.7349 -0.7440  0.6215
 6672SOL    HW231653   0.554   0.872   2.213  1.7614  0.3424 -1.0963
 6673SOL     OW31654   0.744   0.140   2.099  0.0600  0.4289 -0.5071
 6673SOL    HW131655   0.824   0.169   2.054  0.7739 -0.3470  0.2469
 6673SOL    HW231656   0.705   0.222   2.127 -2.3696 -0.4188 -1.4310
 6674SOL     OW31657   1.309   0.269  17.521  0.9169  0.0406  0.6628
 6674SOL    HW131658   1.356   0.323  17.584 -3.0220  4.6776 -0.3409
 6674SOL    HW231659   1.219   0.303  17.525  0.9879  0.3132 -0.1174
 6675SOL     OW31660   4.099   2.350   1.633 -0.4355 -0.1685 -0.1844
 6675SOL    HW131661   4.050   2.277   1.673 -1.3493  0.5297 -0.0283
 6675SOL    HW231662   4.167   2.311   1.578  0.2590  0.2158  0.3995
 6676SOL     OW31663   3.526   0.166   2.121 -0.0909  0.7870  0.2947
 6676SOL    HW131664   3.564   0.234   2.177 -0.5712 -0.3513  2.0056
 6676SOL    HW231665   3.435   0.172   2.149 -0.5159 -0.6058 -0.7714
 6677SOL     OW31666   4.425   1.675   1.345 -0.6517  0.2398  0.0137
 6677SOL    HW131667   4.335   1.674   1.380 -0.8340  2.4290 -0.4272
 6677SOL    HW231668   4.420   1.688   1.251  1.3729 -1.2519 -0.2880
 6678SOL     OW31669   0.384   2.936   6.287 -0.5042  0.3075  0.6159
 6678SOL    HW131670   0.354   2.936   6.196  0.8096  0.9623  0.1752
 6678SOL    HW231671   0.459   2.877   6.280 -2.5717 -2.0526 -1.5082
 6679SOL     OW31672   3.633   3.428   8.518 -0.0604  0.0549  0.0930
 6679SOL    HW131673   3.666   3.372   8.448 -2.7444  0.2017 -1.2997
 6679SOL    HW231674   3.638   3.514   8.477  2.5413  0.2004  0.7181
 6680SOL     OW31675   3.320   0.782   3.318 -0.0042 -0.1168  0.0800
 6680SOL    HW131676   3.397   0.838   3.308 -1.4313  1.9460  0.5736
 6680SOL    HW231677   3.268   0.824   3.386 -0.2403  1.5950 -1.1381
 6681SOL     OW31678   3.473   3.048   4.181 -0.3740  0.9096 -1.3785
 6681SOL    HW131679   3.430   2.978   4.229  0.3198  0.6778 -1.0958
 6681SOL    HW231680   3.459   3.038   4.087  2.7118 -2.3643 -1.4707
 6682SOL     OW31681   1.784   2.979  16.046  0.4199  0.0185  0.3132
 6682SOL    HW131682   1.762   2.888  16.027  0.7496 -0.4245  2.0587
 6682SOL    HW231683   1.733   3.001  16.125  3.7407  2.4231  1.7655
 6683SOL     OW31684   1.338   1.382   2.035  0.3711  0.1410  0.5341
 6683SOL    HW131685   1.362   1.291   2.050  0.3473 -0.5084 -3.2720
 6683SOL    HW231686   1.353   1.416   2.123 -0.1157 -3.0506  1.8495
 6684SOL     OW31687   3.980   4.729   8.774  0.2230  0.4676  0.8372
 6684SOL    HW131688   3.923   0.006   8.698  0.1212  0.1104  0.8577
 6684SOL    HW231689   3.982   4.633   8.773 -0.7593  0.4815 -2.6372
 6685SOL     OW31690   3.293   3.282   3.564 -0.4560  0.3535  0.2301
 6685SOL    HW131691   3.307   3.297   3.658  1.6270 -1.9579  0.3015
 6685SOL    HW231692   3.357   3.348   3.538  1.6281 -2.4938 -1.8675
 6686SOL     OW31693   2.445   3.716   8.412  0.3580  0.0990 -0.5499
 6686SOL    HW131694   2.445   3.685   8.502  2.2596  1.2949 -0.1399
 6686SOL    HW231695   2.355   3.748   8.399 -0.1889 -0.8473  0.9632
 6687SOL     OW31696   3.791   3.380   1.529 -0.4401  0.3337  0.5337
 6687SOL    HW131697   3.740   3.323   1.586 -0.5631  0.2367  0.3279
 6687SOL    HW231698   3.882   3.355   1.547 -0.9731 -0.5840  1.9197
 6688SOL     OW31699   0.807   4.479   6.153  0.0184 -0.1180 -0.2618
 6688SOL    HW131700   0.813   4.384   6.160  0.7130 -0.0824 -0.4290
 6688SOL    HW231701   0.731   4.490   6.095 -0.4177 -1.5817  0.0280
 6689SOL     OW31702   0.232   2.203  16.763  0.0711 -0.0065  0.2401
 6689SOL    HW131703   0.188   2.168  16.686 -0.0678 -0.8016  0.6866
 6689SOL    HW231704   0.297   2.248  16.709  0.6905 -2.0252 -0.6974
 6690SOL     OW31705   3.030   4.575   5.061  0.3711  0.0058 -0.2713
 6690SOL    HW131706   3.018   4.662   5.022  1.5375 -0.3584 -1.4503
 6690SOL    HW231707   3.125   4.566   5.066  0.4053 -0.0722 -1.2183
 6691SOL     OW31708   0.425   0.092  11.217 -0.7231  0.0765 -0.1879
 6691SOL    HW131709   0.480   0.084  11.140 -1.1439  1.5568 -0.6402
 6691SOL    HW231710   0.355   0.031  11.195 -0.3685 -0.8868  1.3611
 6692SOL     OW31711   4.456   0.678   2.965 -0.2305 -0.3703  0.4557
 6692SOL    HW131712   4.453   0.584   2.981  2.0589 -0.6213 -0.5253
 6692SOL    HW231713   4.408   0.708   3.041  0.2930  0.4780  0.4480
 6693SOL     OW31714   1.523   4.086   6.049 -0.0292 -0.2172  0.5231
 6693SOL    HW131715   1.550   4.178   6.043  0.5353 -0.3858  0.4717
 6693SOL    HW231716   1.536   4.076   6.143 -2.0992  2.5414  1.1257
 6694SOL     OW31717   0.440   1.685   4.957  0.1686  0.3354  0.2896
 6694SOL    HW131718   0.473   1.597   4.972 -2.1809  0.0031  3.4274
 6694SOL    HW231719   0.380   1.688   5.031 -0.9489  1.1566 -0.6602
 6695SOL     OW31720   4.371   4.581   2.325 -0.1971 -0.0021  0.3509
 6695SOL    HW131721   4.281   4.553   2.309 -0.0210 -0.8361  0.8331
 6695SOL    HW231722   4.380   4.576   2.420  0.6583 -1.6783  0.1879
 6696SOL     OW31723   3.723   2.722  16.394 -0.5578 -0.3123  0.4157
 6696SOL    HW131724   3.794   2.689  16.340 -0.8368 -0.7281  0.2993
 6696SOL    HW231725   3.694   2.799  16.344 -0.3961 -1.1569 -0.9601
 6697SOL     OW31726   4.569   3.529  15.962 -0.6068  0.2036  0.4139
 6697SOL    HW131727   4.518   3.605  15.933 -0.0247 -0.2757 -1.8558
 6697SOL    HW231728   4.504   3.463  15.986  0.7925 -1.4217 -0.3000
 6698SOL     OW31729   2.296   2.989   2.286  0.0154 -0.8649 -0.0059
 6698SOL    HW131730   2.281   2.986   2.191 -0.4924  1.4415  0.0017
 6698SOL    HW231731   2.382   3.030   2.289 -0.3912  0.0134 -0.1797
 6699SOL     OW31732   2.112   4.502   4.231  0.6351  0.0263  0.0895
 6699SOL    HW131733   2.076   4.586   4.260 -1.9535 -0.7925 -0.6584
 6699SOL    HW231734   2.159   4.472   4.308  1.8329  0.5643 -0.4289
 6700SOL     OW31735   2.803   1.272   1.494 -0.1224  0.0503  0.1386
 6700SOL    HW131736   2.872   1.330   1.463  0.1348 -0.9753 -1.2073
 6700SOL    HW231737   2.824   1.259   1.587 -0.5385  2.3834  0.5690
 6701SOL     OW31738   1.467   1.455   7.962 -0.2575 -0.0228  0.0466
 6701SOL    HW131739   1.380   1.429   7.993 -0.2467  0.1221  0.1996
 6701SOL    HW231740   1.460   1.550   7.970  1.1958  0.2307 -1.6640
 6702SOL     OW31741   3.928   2.907   1.637 -0.3236 -0.5391  0.0353
 6702SOL    HW131742   4.008   2.943   1.675 -2.0412  1.6273  1.6114
 6702SOL    HW231743   3.934   2.813   1.654 -0.7960 -0.1926  2.1391
 6703SOL     OW31744   1.527   3.882  17.233 -1.0504  0.5336 -0.5650
 6703SOL    HW131745   1.529   3.970  17.195  0.4339  0.2725 -1.0897
 6703SOL    HW231746   1.492   3.885  17.322 -1.1837  5.1268 -0.7567
 6704SOL     OW31747   1.325   0.997   2.459 -0.0955 -0.3203 -0.3883
 6704SOL    HW131748   1.372   0.933   2.511 -0.1076  1.0460  1.2881
 6704SOL    HW231749   1.375   1.074   2.485 -0.2691 -0.4847  0.4351
 6705SOL     OW31750   1.451   3.494   6.483 -0.4322  0.1202 -0.4332
 6705SOL    HW131751   1.358   3.517   6.474 -0.1562  2.3135  2.4362
 6705SOL    HW231752   1.484   3.569   6.532  0.1854  0.1155 -0.8433
 6706SOL     OW31753   3.825   2.409   6.430  0.4400 -0.0818  0.2775
 6706SOL    HW131754   3.858   2.423   6.342 -2.9844 -1.5720 -1.2683
 6706SOL    HW231755   3.747   2.464   6.420  0.2374 -0.5407 -0.6909
 6707SOL     OW31756   3.417   3.958   8.035  0.2681 -0.0669 -0.3911
 6707SOL    HW131757   3.347   3.953   7.970  0.1418  2.6696 -0.4659
 6707SOL    HW231758   3.387   4.017   8.104  0.3788  0.4176 -0.7536
 6708SOL     OW31759   1.262   0.833   2.860  0.2228  0.5960 -0.1463
 6708SOL    HW131760   1.314   0.772   2.807 -1.1660 -1.7384  1.2044
 6708SOL    HW231761   1.200   0.871   2.798  0.6800 -1.0189 -1.6107
 6709SOL     OW31762   1.555   3.589   8.819 -0.5799  0.2485 -0.2107
 6709SOL    HW131763   1.608   3.514   8.845 -1.3637 -0.4354 -0.5653
 6709SOL    HW231764   1.470   3.552   8.844 -1.0989  1.5012 -0.1363
 6710SOL     OW31765   3.643   2.130   4.711  0.6197  0.1345  0.2730
 6710SOL    HW131766   3.571   2.149   4.771 -0.5096  1.5684 -1.5387
 6710SOL    HW231767   3.673   2.215   4.680 -0.2204  1.1127  2.1657
 6711SOL     OW31768   1.475   0.561   7.753  0.1330 -0.0626  0.3139
 6711SOL    HW131769   1.432   0.565   7.668  0.3254  0.2199  0.2333
 6711SOL    HW231770   1.548   0.503   7.737 -0.1033 -1.0033  2.6573
 6712SOL     OW31771   2.645   3.963  15.112 -0.1146 -0.3558  0.0287
 6712SOL    HW131772   2.614   3.918  15.190  0.2805  1.3386  1.1749
 6712SOL    HW231773   2.687   4.040  15.152 -0.8674 -0.0868  0.2975
 6713SOL     OW31774   3.016   0.213   2.218  0.0847 -0.2114 -0.4773
 6713SOL    HW131775   3.005   0.192   2.125 -1.0166 -0.5123 -0.2739
 6713SOL    HW231776   2.927   0.225   2.249  0.7261  1.6910  0.6032
 6714SOL     OW31777   3.131   4.161  14.497  0.2528  0.1804 -0.0710
 6714SOL    HW131778   3.038   4.163  14.474 -0.0319 -1.1532  0.9342
 6714SOL    HW231779   3.122   4.111  14.579  0.1472 -0.7024 -0.6267
 6715SOL     OW31780   0.362   1.972   0.476  0.0433  0.1147  0.0964
 6715SOL    HW131781   0.306   2.026   0.421  2.0779  1.6163 -0.5079
 6715SOL    HW231782   0.408   1.917   0.413  1.4166  0.4582  0.7945
 6716SOL     OW31783   2.238   3.626  17.062 -0.0302  0.1506 -0.1450
 6716SOL    HW131784   2.206   3.621  17.152  1.5192 -0.8376  0.3517
 6716SOL    HW231785   2.243   3.531  17.052 -0.0051  0.2561 -1.1445
 6717SOL     OW31786   0.718   4.436   4.099  0.0972  0.1204 -0.3893
 6717SOL    HW131787   0.758   4.452   4.184 -1.3574  1.7855 -0.0070
 6717SOL    HW231788   0.643   4.496   4.096 -0.5675 -0.6706  0.4997
 6718SOL     OW31789   0.381   3.043   5.815  0.6085 -0.3843 -0.0955
 6718SOL    HW131790   0.312   3.027   5.751  0.6900  0.6013 -0.4401
 6718SOL    HW231791   0.450   2.996   5.768 -0.0277  1.4229 -2.8088
 6719SOL     OW31792   1.205   3.797   9.335 -0.3932  0.1384 -0.0142
 6719SOL    HW131793   1.113   3.791   9.309 -0.2965 -1.8989  0.1329
 6719SOL    HW231794   1.221   3.892   9.338  1.0925 -0.1490  1.5460
 6720SOL     OW31795   1.171   3.634   8.390  0.1689  0.5000 -0.2160
 6720SOL    HW131796   1.196   3.710   8.336 -0.3610 -0.5708 -1.9733
 6720SOL    HW231797   1.140   3.666   8.474  1.5758 -0.7092  0.7672
 6721SOL     OW31798   4.515   0.810   7.521 -0.5678  0.1056  0.3771
 6721SOL    HW131799   4.495   0.807   7.428 -1.4918 -0.0202  0.5819
 6721SOL    HW231800   4.501   0.716   7.537 -1.1480 -0.0201 -0.9330
 6722SOL     OW31801   0.178   1.826   8.376  0.5743 -0.0306  0.0255
 6722SOL    HW131802   0.153   1.908   8.336  1.3591 -0.8955 -2.2341
 6722SOL    HW231803   0.252   1.803   8.319  0.4123 -1.6495  0.4523
 6723SOL     OW31804   2.015   0.436  16.822 -0.1088 -0.1899  0.4510
 6723SOL    HW131805   2.086   0.500  16.821 -0.8826  0.6703  0.7580
 6723SOL    HW231806   2.064   0.357  16.801  0.2858 -0.2674  1.6660
 6724SOL     OW31807   1.772   4.099  12.164  0.3259  0.6986 -0.3009
 6724SOL    HW131808   1.769   4.021  12.219 -2.2996 -0.4074 -2.0165
 6724SOL    HW231809   1.811   4.060  12.086  2.4418  0.7369  0.7315
 6725SOL     OW31810   1.864   4.611   4.684 -0.0396 -0.4758  0.5254
 6725SOL    HW131811   1.932   4.565   4.734  0.3043  0.8341  1.2676
 6725SOL    HW231812   1.785   4.596   4.736 -0.2947  1.8778  0.8343
 6726SOL     OW31813   0.110   0.370   4.356  0.1372 -0.1240  0.1240
 6726SOL    HW131814   0.096   0.396   4.447  3.6349  0.8033  0.4050
 6726SOL    HW231815   0.073   0.282   4.356 -5.3670  2.2279 -0.7539
 6727SOL     OW31816   4.174   0.963  11.087  0.4197  0.2070 -0.0658
 6727SOL    HW131817   4.130   0.899  11.031 -0.2923  1.4727 -0.9476
 6727SOL    HW231818   4.204   0.912  11.163  2.4265 -0.1577 -1.1049
 6728SOL     OW31819   1.471   2.351   2.471  0.6081 -0.2063 -0.3062
 6728SOL    HW131820   1.535   2.290   2.508  0.5098 -1.6583 -2.4813
 6728SOL    HW231821   1.390   2.316   2.509 -0.5072  2.2840 -0.4190
 6729SOL     OW31822   3.978   4.687   0.661 -0.3080  0.1079 -0.3775
 6729SOL    HW131823   3.944   0.035   0.694  1.2870  0.8371 -0.5751
 6729SOL    HW231824   4.072   4.708   0.656  0.0805 -1.9157 -1.4967
 6730SOL     OW31825   0.109   3.540   8.262  0.7662  0.5585 -0.3373
 6730SOL    HW131826   0.197   3.565   8.290  1.0740  0.8721 -1.5912
 6730SOL    HW231827   0.109   3.566   8.170 -2.5424  1.2178 -0.1662
 6731SOL     OW31828   4.026   4.586  17.551 -0.1159  0.6239 -0.1319
 6731SOL    HW131829   4.086   4.584  17.476  1.2415  2.6693  0.9283
 6731SOL    HW231830   3.949   4.560  17.500  0.6120  1.3120 -1.5932
 6732SOL     OW31831   2.754   2.065   6.812  0.4850 -0.2693 -0.2279
 6732SOL    HW131832   2.767   2.027   6.899  2.4496  1.5248  0.2583
 6732SOL    HW231833   2.839   2.035   6.781  0.7347  1.8328 -1.6127
 6733SOL     OW31834   0.110   0.630   2.339  0.0076  0.1909  0.2094
 6733SOL    HW131835   0.166   0.649   2.264  0.4233  0.6759  0.6393
 6733SOL    HW231836   0.136   0.540   2.359 -0.4711  0.3150  1.3980
 6734SOL     OW31837   4.375   4.276  12.350  0.1263  0.2710 -0.3648
 6734SOL    HW131838   4.454   4.315  12.311 -1.3656  2.0850 -1.5269
 6734SOL    HW231839   4.387   4.191  12.305 -0.5974 -0.9621  1.7832
 6735SOL     OW31840   0.170   0.356   2.387  0.2742  0.3293  0.1733
 6735SOL    HW131841   0.264   0.372   2.379  0.6320 -0.8214  2.0404
 6735SOL    HW231842   0.161   0.278   2.332 -1.3855  0.5747  0.1049
 6736SOL     OW31843   2.760   3.983  13.337  0.0040  0.4816  0.2608
 6736SOL    HW131844   2.713   3.914  13.289 -0.4656  0.1700  1.1681
 6736SOL    HW231845   2.720   3.993  13.424  1.1523  0.1125  0.8253
 6737SOL     OW31846   2.148   1.445   4.534  0.6273 -0.3903  0.3410
 6737SOL    HW131847   2.174   1.406   4.618 -0.9964 -2.5541 -0.2021
 6737SOL    HW231848   2.189   1.532   4.536  0.0792 -0.1280 -0.0257
 6738SOL     OW31849   0.805   0.985   4.856 -0.1857 -0.2786  0.2982
 6738SOL    HW131850   0.823   0.969   4.948  0.5518  0.2025  0.2439
 6738SOL    HW231851   0.714   1.012   4.861 -0.2912 -0.2351 -1.7503
 6739SOL     OW31852   0.617   1.752   1.788 -0.0355  0.6230  0.0982
 6739SOL    HW131853   0.582   1.748   1.698  1.7280 -0.9616 -0.5109
 6739SOL    HW231854   0.537   1.731   1.837 -0.3136 -1.2060 -1.0990
 6740SOL     OW31855   3.401   0.676   6.809  0.1112  0.1474  0.5307
 6740SOL    HW131856   3.360   0.646   6.728 -1.2007  1.0057  0.8623
 6740SOL    HW231857   3.494   0.658   6.801  0.2472  1.5038 -0.9846
 6741SOL     OW31858   4.098   3.580   7.309  0.3184  0.0810  0.1856
 6741SOL    HW131859   4.021   3.542   7.351  0.3730 -0.5025 -0.2487
 6741SOL    HW231860   4.064   3.657   7.262  0.3939  0.9975  1.6407
 6742SOL     OW31861   0.061   4.150  12.360  0.0679  0.0630 -0.3249
 6742SOL    HW131862   0.097   4.104  12.284  1.2943 -1.4029  1.1502
 6742SOL    HW231863   0.068   4.080  12.425 -0.0174 -1.0015 -1.4651
 6743SOL     OW31864   3.461   3.933   3.425 -0.9708 -0.0896  0.4009
 6743SOL    HW131865   3.482   3.996   3.495 -0.6426 -0.6672  0.8168
 6743SOL    HW231866   3.453   3.851   3.474 -3.0830 -0.7898 -1.1296
 6744SOL     OW31867   2.197   1.166   6.656 -0.4329  0.1042 -0.4200
 6744SOL    HW131868   2.207   1.197   6.746 -3.6309 -0.8066  0.2401
 6744SOL    HW231869   2.118   1.114   6.672 -0.5202  1.1474  2.6306
 6745SOL     OW31870   1.476   0.508   4.693 -0.1507  0.1436 -0.1402
 6745SOL    HW131871   1.488   0.601   4.713 -1.7781 -0.3864  3.2882
 6745SOL    HW231872   1.507   0.501   4.603 -0.9082  0.4453 -0.4241
 6746SOL     OW31873   3.085   3.327  10.561 -0.1996 -0.6312 -0.7800
 6746SOL    HW131874   3.117   3.332  10.471 -1.5640 -0.0585 -1.2297
 6746SOL    HW231875   3.005   3.276  10.548 -1.0069  0.6928 -0.9857
 6747SOL     OW31876   2.037   2.097   6.887  0.3246  0.1720  0.2176
 6747SOL    HW131877   2.076   2.036   6.949  0.9024 -1.2801 -1.5692
 6747SOL    HW231878   2.098   2.084   6.814  0.6855  0.7339  0.4222
 6748SOL     OW31879   3.159   3.199   6.142 -0.0510 -0.3500  0.4056
 6748SOL    HW131880   3.241   3.248   6.146 -0.4477  0.3251  0.2510
 6748SOL    HW231881   3.165   3.166   6.053 -1.7554 -3.0952  1.3311
 6749SOL     OW31882   4.716   2.860   2.046 -1.0587 -0.6044 -0.5120
 6749SOL    HW131883   4.621   2.857   2.052 -1.1473  4.0609  0.6625
 6749SOL    HW231884   4.726   2.826   1.957  0.5017  1.7430 -1.2316
 6750SOL     OW31885   1.887   2.372   3.650 -0.2224 -0.3957  0.7086
 6750SOL    HW131886   1.840   2.314   3.590  0.7093  1.5902 -1.9204
 6750SOL    HW231887   1.852   2.358   3.738 -1.5865 -1.8981 -0.0628
 6751SOL     OW31888   2.417   1.517  16.128  0.0052 -0.1864  0.4053
 6751SOL    HW131889   2.371   1.601  16.121 -0.6978 -0.5473  0.6415
 6751SOL    HW231890   2.354   1.448  16.106 -0.9286  1.3246 -1.5704
 6752SOL     OW31891   0.418   1.575   1.247 -0.5438  0.6313  0.0134
 6752SOL    HW131892   0.462   1.615   1.322 -0.4553  0.0386  0.2841
 6752SOL    HW231893   0.349   1.636   1.223 -0.7321  0.1324 -0.7110
 6753SOL     OW31894   3.557   1.651   9.733  0.1438  0.5833 -0.0364
 6753SOL    HW131895   3.648   1.662   9.761 -0.0832 -0.4037  1.0779
 6753SOL    HW231896   3.534   1.743   9.721 -1.5905  0.0796 -0.4840
 6754SOL     OW31897   3.788   3.745   1.295 -0.0929 -0.1094 -0.3655
 6754SOL    HW131898   3.773   3.815   1.232  1.8490  0.4568 -0.2024
 6754SOL    HW231899   3.756   3.779   1.378 -2.0231  1.0870 -1.6104
 6755SOL     OW31900   0.520   2.101   5.991  0.0162 -0.0172 -0.1532
 6755SOL    HW131901   0.537   2.007   5.996 -0.4632 -0.0063  1.8191
 6755SOL    HW231902   0.600   2.137   6.029  1.3523 -0.8114 -2.2202
 6756SOL     OW31903   2.134   4.227   7.883 -0.1188 -0.6608 -0.1626
 6756SOL    HW131904   2.133   4.322   7.871  0.1569 -0.6182  0.1686
 6756SOL    HW231905   2.041   4.207   7.895 -0.6802  2.1620  0.3748
 6757SOL     OW31906   1.082   2.411  12.766 -0.3461 -0.6107  0.1661
 6757SOL    HW131907   1.162   2.429  12.815 -0.0674  0.9119 -0.8500
 6757SOL    HW231908   1.092   2.470  12.691 -2.3236 -0.2886  0.1452
 6758SOL     OW31909   2.502   3.145   4.515  0.5560  0.1876 -0.0388
 6758SOL    HW131910   2.552   3.146   4.597  1.4676  0.8222 -0.6044
 6758SOL    HW231911   2.438   3.077   4.534 -0.1839  0.1713 -2.6040
 6759SOL     OW31912   0.832   0.558   1.588 -0.0516  1.0818 -0.3892
 6759SOL    HW131913   0.822   0.608   1.669 -0.6058 -0.8747  0.7696
 6759SOL    HW231914   0.792   0.473   1.607  2.1001  0.0150 -0.6110
 6760SOL     OW31915   1.123   3.053   5.121 -0.6555  0.1921 -0.2388
 6760SOL    HW131916   1.124   2.971   5.071  2.3215  0.7488 -1.1216
 6760SOL    HW231917   1.212   3.056   5.156 -0.1730 -2.0038 -1.2838
 6761SOL     OW31918   4.563   2.399   8.749 -0.5734 -0.2118 -0.1326
 6761SOL    HW131919   4.581   2.355   8.832  0.2747 -0.5768 -0.5118
 6761SOL    HW231920   4.468   2.415   8.748 -0.3830  0.9626  4.8107
 6762SOL     OW31921   4.080   0.333  11.964 -0.1857 -0.0316 -0.8544
 6762SOL    HW131922   4.087   0.337  11.869 -0.7575 -1.6427 -0.9794
 6762SOL    HW231923   3.985   0.341  11.968 -0.1241  0.0365  0.6653
 6763SOL     OW31924   2.664   1.078   4.871  0.4338 -0.0067  0.1266
 6763SOL    HW131925   2.675   1.165   4.832  0.7164  0.1646  0.6016
 6763SOL    HW231926   2.578   1.056   4.834  1.4702 -0.4413 -2.0291
 6764SOL     OW31927   3.516   2.624  15.272 -0.1833  0.2534  0.6998
 6764SOL    HW131928   3.562   2.550  15.234  0.9498  1.0771  0.4545
 6764SOL    HW231929   3.486   2.675  15.196 -1.9840  0.8253  1.7715
 6765SOL     OW31930   1.847   0.020   2.086 -0.2942  0.2084  0.2936
 6765SOL    HW131931   1.883   4.676   2.124  2.8544  1.0134 -1.0317
 6765SOL    HW231932   1.912   0.045   2.021  0.0238 -1.4663 -0.0186
 6766SOL     OW31933   0.487   0.811   1.920  0.1802  0.2634  0.3995
 6766SOL    HW131934   0.526   0.743   1.867 -0.3535 -0.6501  1.1827
 6766SOL    HW231935   0.555   0.845   1.979 -0.0503  0.3196  0.6335
 6767SOL     OW31936   3.528   4.080   7.342  0.3107  0.6819  0.2095
 6767SOL    HW131937   3.515   4.160   7.291 -2.0275  0.4896  0.5138
 6767SOL    HW231938   3.488   4.106   7.426  0.5738  1.8403 -0.0225
 6768SOL     OW31939   1.024   1.132   9.826  0.3120  0.1452 -0.1052
 6768SOL    HW131940   1.025   1.099   9.915  4.5121 -2.0407 -0.9409
 6768SOL    HW231941   1.058   1.220   9.844  3.4204 -1.1197  0.1519
 6769SOL     OW31942   3.024   0.735  17.701  0.8589 -0.0687 -0.7448
 6769SOL    HW131943   3.027   0.756  17.608 -2.0809  2.8394 -0.1673
 6769SOL    HW231944   2.952   0.792  17.727  0.3163 -1.0826 -0.0038
 6770SOL     OW31945   4.441   1.492  15.054  0.3911  0.8342  0.0438
 6770SOL    HW131946   4.533   1.466  15.046  0.1178 -0.2256  0.2738
 6770SOL    HW231947   4.432   1.586  15.041 -0.4716  0.6001 -1.0505
 6771SOL     OW31948   1.130   2.674   2.425 -0.0345  0.0289  0.1072
 6771SOL    HW131949   1.082   2.675   2.508 -1.4437  3.4111 -0.7549
 6771SOL    HW231950   1.223   2.665   2.448  0.0951 -0.6709 -0.7137
 6772SOL     OW31951   3.975   3.059   8.330 -1.1227  0.3908 -0.0829
 6772SOL    HW131952   4.016   3.122   8.389 -1.9667 -1.1070  2.0893
 6772SOL    HW231953   4.039   2.989   8.343  1.3611  2.1512 -2.8085
 6773SOL     OW31954   0.075   1.818  15.765 -0.2935  0.1019 -0.7734
 6773SOL    HW131955   0.132   1.836  15.840 -2.0985  3.2750 -0.1591
 6773SOL    HW231956   0.058   1.726  15.787  0.0834  0.9298  3.0210
 6774SOL     OW31957   0.516   4.338  16.228 -0.1204  0.4482 -0.5191
 6774SOL    HW131958   0.504   4.401  16.299 -0.9795  0.2213 -0.4613
 6774SOL    HW231959   0.474   4.386  16.156 -1.3750  1.0122  0.5877
 6775SOL     OW31960   3.135   4.697   0.817  0.0214  0.7655  0.2134
 6775SOL    HW131961   3.170   4.608   0.805 -3.1333 -0.6128  1.2756
 6775SOL    HW231962   3.043   4.685   0.837  0.1761 -3.9548 -1.6937
 6776SOL     OW31963   0.526   4.714   7.319 -0.1875  0.1227  0.2409
 6776SOL    HW131964   0.611   4.706   7.360 -0.9881  0.6901  2.0039
 6776SOL    HW231965   0.547   4.656   7.245 -0.1519 -1.8199  1.7864
 6777SOL     OW31966   1.984   1.066   2.167  0.1678  0.2455  0.4744
 6777SOL    HW131967   1.944   0.979   2.159 -1.2045  0.9637 -0.4775
 6777SOL    HW231968   2.047   1.055   2.097  1.0629 -0.4314  1.3915
 6778SOL     OW31969   1.213   0.896  10.411 -0.1636  0.1816  0.1467
 6778SOL    HW131970   1.206   0.854  10.325  0.2627 -1.1538  0.7686
 6778SOL    HW231971   1.132   0.948  10.411 -0.5994 -0.4940 -0.6353
 6779SOL     OW31972   0.732   1.611   3.720  0.5401  0.1173 -0.1458
 6779SOL    HW131973   0.694   1.607   3.808  0.2625 -1.3395 -0.3371
 6779SOL    HW231974   0.736   1.705   3.708 -0.0674  0.0392 -0.9201
 6780SOL     OW31975   2.450   3.218   2.087  0.2245  0.0208  0.6982
 6780SOL    HW131976   2.459   3.314   2.092  1.5946 -0.0818  0.3107
 6780SOL    HW231977   2.486   3.204   2.175 -1.4051 -1.0250  1.1859
 6781SOL     OW31978   3.290   3.676  13.175 -0.0934 -0.0038  0.0938
 6781SOL    HW131979   3.340   3.631  13.107  0.2361 -0.4198  0.6234
 6781SOL    HW231980   3.199   3.673  13.144 -0.4713 -4.4087  1.6849
 6782SOL     OW31981   3.605   3.343   7.045 -0.2010 -0.6404 -0.3743
 6782SOL    HW131982   3.635   3.253   7.049  0.0869 -0.4257  2.1965
 6782SOL    HW231983   3.639   3.365   6.958  1.7863 -0.0506  0.5540
 6783SOL     OW31984   4.681   4.617   6.049 -0.0800 -0.0934  0.1691
 6783SOL    HW131985   4.623   4.603   5.975 -0.5156 -1.8289  0.8348
 6783SOL    HW231986   4.616   4.635   6.116 -0.0575  1.2660 -0.1746
 6784SOL     OW31987   1.566   0.090  12.767  0.3400  0.9784 -0.2224
 6784SOL    HW131988   1.558   0.002  12.730  3.8165  0.8362 -0.6165
 6784SOL    HW231989   1.628   0.080  12.839  0.7738  2.1118 -0.4520
 6785SOL     OW31990   2.663   4.666   3.485  0.0617  0.4406  0.3810
 6785SOL    HW131991   2.726   4.701   3.422  0.1028  0.5261  0.4709
 6785SOL    HW231992   2.660   0.003   3.547  0.3018  1.4654 -0.8036
 6786SOL     OW31993   1.142   1.355   8.350 -0.1897  0.1477  0.2675
 6786SOL    HW131994   1.190   1.297   8.291 -2.1230 -1.2560  0.0747
 6786SOL    HW231995   1.187   1.436   8.329  0.1231 -0.2236 -0.4987
 6787SOL     OW31996   3.676   2.088   8.975 -0.3406 -0.4383 -0.1124
 6787SOL    HW131997   3.719   2.011   9.011 -0.5018  0.8248  2.7756
 6787SOL    HW231998   3.619   2.042   8.913  2.5813 -5.3243  0.8549
 6788SOL     OW31999   2.361   3.480  14.994 -0.1238  0.2444 -0.3900
 6788SOL    HW132000   2.312   3.398  14.991 -0.1312  0.2210  0.4618
 6788SOL    HW232001   2.424   3.455  15.062  0.3681 -0.2332 -1.0224
 6789SOL     OW32002   4.003   1.215   9.694  1.0140 -0.4372 -0.5044
 6789SOL    HW132003   4.088   1.258   9.690  0.5995  0.4183 -0.1548
 6789SOL    HW232004   4.030   1.133   9.735  1.1557  0.3551  0.9700
 6790SOL     OW32005   3.319   0.032  15.223 -0.0161 -0.2535  0.1563
 6790SOL    HW132006   3.259   0.104  15.238  0.9203  0.1350  2.1012
 6790SOL    HW232007   3.297   0.020  15.131  1.9559  2.0864 -0.6136
 6791SOL     OW32008   0.964   3.538   3.411 -0.2102 -0.1001  0.4064
 6791SOL    HW132009   1.011   3.621   3.407  0.8224 -0.7054  0.0256
 6791SOL    HW232010   1.026   3.467   3.396 -1.7818 -1.3191 -0.4087
 6792SOL     OW32011   4.265   3.419   1.854  0.3012 -0.0092 -0.1746
 6792SOL    HW132012   4.217   3.499   1.836  1.0415  0.4217 -0.2301
 6792SOL    HW232013   4.338   3.453   1.906  0.3418 -0.8741  0.3428
 6793SOL     OW32014   1.496   0.296  16.291 -0.6796 -0.1346 -0.5892
 6793SOL    HW132015   1.587   0.267  16.295 -0.8724 -0.8420 -1.3578
 6793SOL    HW232016   1.508   0.388  16.315  0.4612  0.8889 -4.9801
 6794SOL     OW32017   0.247   2.977   3.181 -0.2210 -0.1871  0.3953
 6794SOL    HW132018   0.186   3.040   3.143 -1.1325 -1.0190  0.5010
 6794SOL    HW232019   0.333   3.018   3.190 -0.1828 -0.0833 -0.4529
 6795SOL     OW32020   0.347   1.147   5.284 -0.3702 -0.0049 -0.1721
 6795SOL    HW132021   0.389   1.098   5.213 -0.8031  0.1324 -0.5176
 6795SOL    HW232022   0.263   1.102   5.289 -0.9830  1.1370 -0.2372
 6796SOL     OW32023   1.749   0.683   1.984  0.2685  0.1584 -0.8890
 6796SOL    HW132024   1.762   0.672   1.890 -0.8631  0.1019 -1.0447
 6796SOL    HW232025   1.654   0.675   1.993  0.5748 -1.3143  1.0126
 6797SOL     OW32026   3.791   0.673   2.653 -0.0684  0.1044 -0.2947
 6797SOL    HW132027   3.713   0.631   2.615  0.3932 -0.6039 -0.4556
 6797SOL    HW232028   3.781   0.758   2.609  0.0764  0.5754  0.5987
 6798SOL     OW32029   3.079   3.574   7.242  0.1065  0.1196  0.3262
 6798SOL    HW132030   3.038   3.586   7.327 -0.3055  1.4139 -0.0522
 6798SOL    HW232031   3.042   3.490   7.215 -0.3508  0.2388  0.5798
 6799SOL     OW32032   0.019   1.788  16.657 -0.0317  0.3379 -0.3003
 6799SOL    HW132033   4.711   1.716  16.609  0.6662  0.1795 -0.6903
 6799SOL    HW232034   4.683   1.848  16.679  0.0471  0.0441  0.7598
 6800SOL     OW32035   3.928   3.055   3.338  0.0020  0.4366 -1.2810
 6800SOL    HW132036   3.947   3.016   3.252 -1.5516 -2.3178 -0.3681
 6800SOL    HW232037   3.971   2.999   3.403  0.8984  1.3809 -1.0599
 6801SOL     OW32038   4.263   4.614   0.479 -0.2701  0.0959 -0.2222
 6801SOL    HW132039   4.204   4.561   0.427  0.6856  1.1405 -2.3681
 6801SOL    HW232040   4.235   4.702   0.453 -1.9863  0.1325  1.7664
 6802SOL     OW32041   3.322   1.760   2.378  0.0389 -0.0110 -0.6060
 6802SOL    HW132042   3.276   1.759   2.462 -0.4865  0.9045 -0.8879
 6802SOL    HW232043   3.412   1.790   2.391 -0.6876  2.2140 -0.6670
 6803SOL     OW32044   0.575   2.271   9.846  0.2823 -0.6477 -0.2638
 6803SOL    HW132045   0.500   2.325   9.874  0.4213 -0.0819 -0.9710
 6803SOL    HW232046   0.610   2.243   9.930  1.0959 -0.3074 -0.4918
 6804SOL     OW32047   0.187   1.641   3.532  0.1168 -0.6653 -0.1713
 6804SOL    HW132048   0.199   1.666   3.440  0.7888 -0.5581 -0.0536
 6804SOL    HW232049   0.251   1.572   3.545  0.1401 -0.8974 -1.5086
 6805SOL     OW32050   4.702   1.498   4.020 -0.1086  0.2236 -0.2807
 6805SOL    HW132051   0.004   1.551   4.091  1.6775  1.3383 -2.0167
 6805SOL    HW232052   0.035   1.514   3.955 -1.0953  1.0665 -1.0943
 6806SOL     OW32053   1.301   2.762   5.509 -0.1255  0.2492 -0.3659
 6806SOL    HW132054   1.385   2.795   5.542 -0.4676  0.4864  0.2700
 6806SOL    HW232055   1.337   2.737   5.424  1.9338 -0.2249  0.6456
 6807SOL     OW32056   0.584   0.658   5.144 -0.1622 -0.2222 -0.0969
 6807SOL    HW132057   0.667   0.629   5.180 -0.3345  1.1721  1.3870
 6807SOL    HW232058   0.581   0.748   5.177  0.0721  0.4200 -1.8190
 6808SOL     OW32059   3.003   1.125   6.950  0.4054  0.5529  0.0736
 6808SOL    HW132060   2.965   1.044   6.983  0.0346 -0.0438 -1.8113
 6808SOL    HW232061   2.932   1.164   6.899  0.5914 -1.1054 -1.4823
 6809SOL     OW32062   3.601   0.572   0.359  0.5946 -0.3273 -0.2316
 6809SOL    HW132063   3.509   0.573   0.384  0.5062 -1.7082 -0.5136
 6809SOL    HW232064   3.621   0.665   0.364 -2.2822  0.2355  0.7068
 6810SOL     OW32065   1.442   3.331  17.164 -0.7119 -0.4322  0.2534
 6810SOL    HW132066   1.498   3.335  17.241  1.6447 -0.4910 -1.4517
 6810SOL    HW232067   1.361   3.360  17.206  0.5523  0.2256  2.1793
 6811SOL     OW32068   3.792   1.155   4.994  0.2854  0.5678  0.0410
 6811SOL    HW132069   3.787   1.232   5.050 -0.8983  1.6171 -1.4900
 6811SOL    HW232070   3.788   1.080   5.052  1.9787  2.4577  2.5825
 6812SOL     OW32071   0.371   2.045   4.517 -0.0766  0.7072 -0.0376
 6812SOL    HW132072   0.436   2.026   4.585 -1.0097 -1.1419  0.3548
 6812SOL    HW232073   0.324   1.961   4.517  1.5309 -0.1905  0.4952
 6813SOL     OW32074   1.052   2.407  14.701 -0.0632  0.0648 -1.0353
 6813SOL    HW132075   1.053   2.503  14.697  0.7951  0.1871  1.9974
 6813SOL    HW232076   1.145   2.381  14.698 -0.0492  0.1099 -0.9910
 6814SOL     OW32077   0.698   4.187   5.037 -0.1027  0.3807  0.1177
 6814SOL    HW132078   0.733   4.099   5.043  0.1585  0.4959  0.2919
 6814SOL    HW232079   0.695   4.202   5.132  0.3248  2.1182 -0.1286
 6815SOL     OW32080   2.665   3.870   7.725 -0.0505  0.0893  0.2840
 6815SOL    HW132081   2.751   3.838   7.755  0.3242 -0.2913 -1.1959
 6815SOL    HW232082   2.674   3.965   7.729 -1.1661  0.2256 -0.5525
 6816SOL     OW32083   4.593   0.594  14.599  0.3090  0.2417 -0.7045
 6816SOL    HW132084   4.568   0.590  14.692 -3.7179  1.9357 -1.7400
 6816SOL    HW232085   4.669   0.535  14.596 -0.1597 -0.3405 -1.1751
 6817SOL     OW32086   4.668   3.828  14.229  0.4005 -0.6204 -0.3320
 6817SOL    HW132087   4.713   3.863  14.152  0.4586  2.0522  0.9188
 6817SOL    HW232088   4.592   3.887  14.229 -0.1780 -1.3982 -2.9095
 6818SOL     OW32089   0.835   0.324   7.687 -0.1769 -0.5310 -0.2016
 6818SOL    HW132090   0.924   0.349   7.714 -0.2829 -0.0243 -0.3285
 6818SOL    HW232091   0.818   0.403   7.636 -1.3458 -0.2550  0.6201
 6819SOL     OW32092   0.225   1.526  12.586 -0.5199 -0.5282 -0.3797
 6819SOL    HW132093   0.170   1.585  12.639 -1.1274  0.2866 -1.9104
 6819SOL    HW232094   0.193   1.540  12.497  0.0896 -0.8515 -0.6427
 6820SOL     OW32095   4.589   0.355   8.488  0.9762 -0.4729  0.2229
 6820SOL    HW132096   4.621   0.282   8.542  0.4070 -1.5176 -0.8528
 6820SOL    HW232097   4.520   0.312   8.437 -0.1650  0.5754  0.8591
 6821SOL     OW32098   2.378   1.887   3.426  0.2285 -0.2789  0.3593
 6821SOL    HW132099   2.400   1.801   3.390  0.3026  0.2939 -0.9484
 6821SOL    HW232100   2.465   1.922   3.447  0.1838  0.2840 -0.3842
 6822SOL     OW32101   0.870   2.753   1.601  0.3084 -0.5400  0.7407
 6822SOL    HW132102   0.925   2.827   1.627  0.4232 -0.0761 -0.7854
 6822SOL    HW232103   0.822   2.732   1.681 -0.2630 -0.9419  0.2984
 6823SOL     OW32104   3.450   2.342   9.241  0.4464  0.1150  0.3637
 6823SOL    HW132105   3.459   2.382   9.155  0.8714 -0.3496  0.1888
 6823SOL    HW232106   3.534   2.297   9.250 -1.7838 -3.9490  1.1989
 6824SOL     OW32107   4.667   4.512   5.602  0.2515 -0.3468  0.0332
 6824SOL    HW132108   4.703   4.555   5.525 -0.7165 -0.8776 -0.7259
 6824SOL    HW232109   4.637   4.591   5.647 -0.0097 -0.2633 -0.2847
 6825SOL     OW32110   2.612   1.653   5.365  0.1175 -0.4428  0.0296
 6825SOL    HW132111   2.564   1.662   5.282  2.8771 -0.9977 -1.6098
 6825SOL    HW232112   2.702   1.639   5.336  1.0943  1.0907  2.3492
 6826SOL     OW32113   3.535   4.647  15.051 -1.0222  0.3276 -0.0298
 6826SOL    HW132114   3.625   4.616  15.063 -1.6267 -2.2100 -1.8555
 6826SOL    HW232115   3.495   4.663  15.137  0.5573  0.0497  0.7565
 6827SOL     OW32116   3.963   3.359   4.747 -0.0322 -0.5816 -0.0078
 6827SOL    HW132117   3.913   3.332   4.825  0.7993  1.3881  1.2033
 6827SOL    HW232118   3.986   3.271   4.717  0.6104 -0.7093  0.8564
 6828SOL     OW32119   4.645   2.429  13.608 -0.0189 -0.5803  0.4553
 6828SOL    HW132120   4.681   2.518  13.610  0.3185 -0.7299  1.4177
 6828SOL    HW232121   4.585   2.445  13.682  1.0391 -3.8048  1.9922
 6829SOL     OW32122   3.093   3.998   3.630  0.6518  0.3884 -0.6625
 6829SOL    HW132123   3.020   3.971   3.575  1.4387  0.5295 -1.7807
 6829SOL    HW232124   3.111   4.086   3.598 -0.9666  1.1812  0.6399
 6830SOL     OW32125   1.873   2.319   7.537  0.2422  0.2200  0.4241
 6830SOL    HW132126   1.918   2.397   7.569 -0.8723  0.0267  2.5046
 6830SOL    HW232127   1.786   2.329   7.575  0.3825  0.2866  0.7288
 6831SOL     OW32128   4.199   2.796   6.279  0.0370  0.4299  0.1386
 6831SOL    HW132129   4.265   2.748   6.229  0.7545  1.3435  0.1817
 6831SOL    HW232130   4.247   2.781   6.361 -0.1747  1.6243  0.4934
 6832SOL     OW32131   3.512   2.245   9.670  0.0997  0.0687 -0.4364
 6832SOL    HW132132   3.437   2.262   9.726  2.0295  1.0283  1.8391
 6832SOL    HW232133   3.569   2.228   9.745  0.5046  1.6724 -0.3830
 6833SOL     OW32134   0.005   3.656  13.387  0.2161 -0.8653 -0.4460
 6833SOL    HW132135   4.715   3.658  13.294  2.7549 -1.5298 -1.1358
 6833SOL    HW232136   0.083   3.710  13.391  0.3100 -1.0913  0.8089
 6834SOL     OW32137   3.781   0.235   7.158 -0.1742  0.0781  0.1825
 6834SOL    HW132138   3.726   0.177   7.106  1.3401 -2.4526  1.4406
 6834SOL    HW232139   3.762   0.191   7.241  2.1955 -2.9548 -0.8760
 6835SOL     OW32140   2.235   1.668   9.805 -0.5455 -0.9801  0.8135
 6835SOL    HW132141   2.296   1.696   9.874 -1.8349  2.5591  0.5596
 6835SOL    HW232142   2.242   1.574   9.820 -0.3754 -1.3820 -1.8682
 6836SOL     OW32143   1.732   2.948  10.495 -0.2375 -0.0420  0.5216
 6836SOL    HW132144   1.825   2.933  10.514  0.1575  0.7646 -0.8023
 6836SOL    HW232145   1.702   2.944  10.586  0.2435 -0.2953  0.6749
 6837SOL     OW32146   1.029   0.795   8.848  0.1392  0.1050 -0.2869
 6837SOL    HW132147   0.973   0.719   8.862  1.4231 -0.7424  0.2384
 6837SOL    HW232148   1.075   0.801   8.932 -0.5773 -1.3301  0.2080
 6838SOL     OW32149   1.804   1.599  15.899 -0.3288  0.0084 -0.3865
 6838SOL    HW132150   1.859   1.526  15.870 -0.0886  0.4746 -1.1143
 6838SOL    HW232151   1.717   1.560  15.902  0.1268 -1.0563 -0.8874
 6839SOL     OW32152   2.650   0.966   7.520 -0.3732 -0.1849 -0.4424
 6839SOL    HW132153   2.563   1.007   7.528 -1.5739 -3.1206  1.3434
 6839SOL    HW232154   2.651   0.949   7.426 -0.1935 -0.2273 -0.4318
 6840SOL     OW32155   1.097   1.421  13.495  0.4248 -0.0578  0.2256
 6840SOL    HW132156   1.189   1.444  13.485  0.2711  0.3666 -0.2536
 6840SOL    HW232157   1.082   1.458  13.582 -2.3482 -0.2040 -0.1825
 6841SOL     OW32158   0.773   0.768   3.673  0.5431  0.0042  0.8763
 6841SOL    HW132159   0.683   0.790   3.697  1.0385  2.0096  0.8652
 6841SOL    HW232160   0.813   0.740   3.756  1.1638  3.1133  1.6219
 6842SOL     OW32161   0.479   3.673  11.511  0.8914  0.1644  0.2116
 6842SOL    HW132162   0.406   3.716  11.555 -0.3052 -0.8799 -0.7518
 6842SOL    HW232163   0.551   3.700  11.568  0.2799  1.2273  0.4893
 6843SOL     OW32164   0.220   1.747   7.482  0.3586  0.5945  0.6785
 6843SOL    HW132165   0.232   1.820   7.422  0.6887  0.0845  0.1278
 6843SOL    HW232166   0.267   1.775   7.560 -1.4928  0.4699  1.8465
 6844SOL     OW32167   3.595   3.345   8.015  0.3123  0.0914 -0.0969
 6844SOL    HW132168   3.611   3.342   8.109 -1.0721 -1.9688  0.0828
 6844SOL    HW232169   3.685   3.369   7.991 -0.2884  1.6546 -0.7089
 6845SOL     OW32170   3.950   3.697  16.656  0.3289  0.7042  0.4062
 6845SOL    HW132171   3.899   3.654  16.724 -0.9585  1.0528 -0.3451
 6845SOL    HW232172   4.015   3.749  16.704  2.5683 -3.3481  1.6974
 6846SOL     OW32173   3.270   3.893   0.909  0.0291  0.4162  0.6922
 6846SOL    HW132174   3.217   3.831   0.959  0.4640 -0.5763 -0.0821
 6846SOL    HW232175   3.357   3.889   0.947  0.2316  1.6523  0.3689
 6847SOL     OW32176   4.212   3.316   6.512 -0.1584 -0.5138 -0.4687
 6847SOL    HW132177   4.126   3.332   6.550  1.2372  3.3594  1.1079
 6847SOL    HW232178   4.228   3.223   6.523 -1.8392 -0.6168  1.0174
 6848SOL     OW32179   3.999   3.485   5.553 -0.6651 -0.0551 -0.3193
 6848SOL    HW132180   3.984   3.570   5.511  0.7171  0.2676 -0.1453
 6848SOL    HW232181   4.094   3.488   5.541 -0.7052  0.9025 -0.4290
 6849SOL     OW32182   2.298   1.310   7.184  0.1981 -0.6570 -0.2550
 6849SOL    HW132183   2.355   1.382   7.211  0.2556 -0.4494 -0.9118
 6849SOL    HW232184   2.224   1.363   7.152 -1.9872 -2.7004  1.4753
 6850SOL     OW32185   3.587   1.907   8.182 -0.1159  0.0423 -0.0507
 6850SOL    HW132186   3.526   1.961   8.232 -0.4791 -0.4461  0.0245
 6850SOL    HW232187   3.525   1.850   8.136 -0.2294 -0.3577  0.6099
 6851SOL     OW32188   2.210   3.227  15.779  0.5149  0.2728  0.0351
 6851SOL    HW132189   2.235   3.253  15.868 -0.6970  2.2351 -0.2154
 6851SOL    HW232190   2.115   3.219  15.779  0.6638 -1.4166 -0.4602
 6852SOL     OW32191   1.641   3.761   1.887 -0.1749  0.0105  0.5397
 6852SOL    HW132192   1.675   3.828   1.946  0.0163 -2.3254  3.0803
 6852SOL    HW232193   1.547   3.767   1.905  0.1540  1.3780  1.8182
 6853SOL     OW32194   3.331   0.546   0.373 -0.4878  0.8850  0.7300
 6853SOL    HW132195   3.288   0.599   0.307 -0.6400  3.2550  2.7200
 6853SOL    HW232196   3.299   0.457   0.358  1.0752  0.0219  2.5314
 6854SOL     OW32197   0.585   2.806  14.124  0.1510 -0.0155 -0.3484
 6854SOL    HW132198   0.619   2.766  14.203  2.9537  1.2556 -0.9180
 6854SOL    HW232199   0.605   2.896  14.149  0.0369 -0.8473  2.6676
 6855SOL     OW32200   3.888   1.593   5.014  0.6360 -0.5152 -0.5417
 6855SOL    HW132201   3.839   1.633   5.086  2.1178 -0.1447  0.2639
 6855SOL    HW232202   3.959   1.658   5.013 -0.0616  0.2457 -0.5607
 6856SOL     OW32203   0.912   3.084   6.608  0.2729  0.3062 -0.5234
 6856SOL    HW132204   0.918   2.990   6.589 -1.2614  0.5817 -2.3290
 6856SOL    HW232205   0.821   3.112   6.601 -0.1214 -1.0308 -0.8318
 6857SOL     OW32206   2.766   3.344   7.083 -0.3107 -0.5649 -0.4436
 6857SOL    HW132207   2.817   3.368   7.006 -0.9845 -1.4752 -1.1708
 6857SOL    HW232208   2.765   3.432   7.122 -0.3709 -1.1816  0.9490
 6858SOL     OW32209   2.817   4.100   8.672  0.1776 -0.2920 -0.1873
 6858SOL    HW132210   2.736   4.111   8.721  0.3789  3.1247 -0.6076
 6858SOL    HW232211   2.866   4.042   8.730  0.4128  1.1155  1.0238
 6859SOL     OW32212   2.982   2.793   8.017 -0.0633  0.3324 -0.2802
 6859SOL    HW132213   2.973   2.878   7.975  2.0012  0.6303 -0.1301
 6859SOL    HW232214   3.074   2.777   7.995  0.6389 -0.8518  3.4938
 6860SOL     OW32215   1.924   4.063  16.398 -0.0337  0.6796 -0.2304
 6860SOL    HW132216   1.945   4.077  16.490 -0.4321 -0.3508  0.0156
 6860SOL    HW232217   1.953   4.146  16.359  2.2667 -0.8909 -1.8628
 6861SOL     OW32218   2.093   4.691   2.473  0.0348  0.4738  0.4103
 6861SOL    HW132219   2.047   4.625   2.422  0.7724  1.0302 -0.9607
 6861SOL    HW232220   2.106   4.652   2.560 -1.2218 -0.3467  0.2404
 6862SOL     OW32221   4.272   0.992   8.665  0.3253 -0.0091  0.0443
 6862SOL    HW132222   4.295   0.975   8.573 -0.2004  3.3573 -0.6983
 6862SOL    HW232223   4.301   0.907   8.697  3.3505  0.4059 -1.6000
 6863SOL     OW32224   4.484   3.221   6.058 -0.3482 -0.3285  0.0771
 6863SOL    HW132225   4.423   3.260   6.121  0.2693  1.6504 -0.5651
 6863SOL    HW232226   4.435   3.141   6.038  0.6216 -0.6572 -0.9808
 6864SOL     OW32227   1.044   1.372   0.944 -0.0721  0.2759 -0.6288
 6864SOL    HW132228   0.982   1.323   0.891 -0.6772 -2.7291  2.8737
 6864SOL    HW232229   1.121   1.317   0.958 -2.3373 -2.2442  1.8079
 6865SOL     OW32230   0.623   1.295  10.029  0.1242  0.4818 -0.0165
 6865SOL    HW132231   0.655   1.385  10.038  1.5387  0.0238 -0.5793
 6865SOL    HW232232   0.586   1.277  10.115 -0.2073  1.6664  0.0969
 6866SOL     OW32233   4.185   0.126   3.474 -0.0934  0.4413 -0.2058
 6866SOL    HW132234   4.169   0.039   3.438 -1.8652  0.9774 -0.7301
 6866SOL    HW232235   4.262   0.150   3.424  1.9611 -0.1279  2.6745
 6867SOL     OW32236   3.018   1.687   4.681 -0.1632  0.2152  0.1464
 6867SOL    HW132237   3.109   1.688   4.710 -0.0899 -2.2775  0.0003
 6867SOL    HW232238   2.992   1.732   4.762 -0.9139  0.2254 -0.1018
 6868SOL     OW32239   2.261   1.272   4.054  0.0437 -0.9407  0.2351
 6868SOL    HW132240   2.206   1.344   4.023  1.0384 -1.1314 -1.9602
 6868SOL    HW232241   2.267   1.287   4.148  2.7551  0.5191 -0.1751
 6869SOL     OW32242   1.347   1.532  14.073  0.0032 -0.2010 -0.0440
 6869SOL    HW132243   1.358   1.511  14.166 -0.9073 -0.6069 -0.0278
 6869SOL    HW232244   1.330   1.450  14.027  1.2022  0.0065 -0.8757
 6870SOL     OW32245   0.942   1.292   6.353  0.2388  0.0217  0.3899
 6870SOL    HW132246   0.962   1.249   6.436 -0.8054  0.8935  1.0724
 6870SOL    HW232247   0.967   1.219   6.296 -0.6351  0.9281 -1.1695
 6871SOL     OW32248   0.093   3.261   5.084  0.0183  1.2368  0.2062
 6871SOL    HW132249   0.110   3.267   5.178  0.2628  1.0684  0.1727
 6871SOL    HW232250   0.076   3.350   5.055  2.9172  2.3711  1.9917
 6872SOL     OW32251   1.377   1.385   1.630  0.5189 -0.6114 -0.8953
 6872SOL    HW132252   1.302   1.444   1.637  0.6837 -0.4744 -0.2673
 6872SOL    HW232253   1.359   1.339   1.548  1.0566 -0.1303 -1.2826
 6873SOL     OW32254   1.269   1.901  16.629 -0.4786  0.2393 -0.0162
 6873SOL    HW132255   1.217   1.836  16.676  1.9499 -1.6803  0.0172
 6873SOL    HW232256   1.353   1.892  16.675 -0.3811  1.1987  0.0003
 6874SOL     OW32257   4.230   1.396   2.224  0.2794  0.2809  0.3227
 6874SOL    HW132258   4.181   1.400   2.307  0.5252  0.7677  0.4473
 6874SOL    HW232259   4.297   1.329   2.237  0.8185  0.5083 -1.3998
 6875SOL     OW32260   3.470   2.018   8.633 -0.2795  0.6593  0.1484
 6875SOL    HW132261   3.494   1.957   8.703  0.1029 -0.0774 -0.6268
 6875SOL    HW232262   3.544   2.078   8.637 -0.8065  1.2776  0.7877
 6876SOL     OW32263   1.969   4.488   5.096  1.2085 -0.2960 -0.0279
 6876SOL    HW132264   1.882   4.486   5.055  0.2217 -1.8493  2.1575
 6876SOL    HW232265   2.029   4.519   5.028  0.1213  1.5052 -0.1780
 6877SOL     OW32266   3.102   4.251  16.385  0.2959  0.2168  0.1367
 6877SOL    HW132267   3.084   4.198  16.308 -0.3784  1.4122 -0.5320
 6877SOL    HW232268   3.176   4.295  16.344  2.2313 -2.3060  0.9267
 6878SOL     OW32269   0.185   2.414   7.231 -0.1684  0.8634  0.1426
 6878SOL    HW132270   0.178   2.413   7.326 -2.4669  2.2938 -0.0185
 6878SOL    HW232271   0.274   2.378   7.221 -0.4870  0.1661 -0.2232
 6879SOL     OW32272   0.413   1.591   3.094 -0.7992 -0.1664 -0.1333
 6879SOL    HW132273   0.421   1.642   3.014 -2.2859  0.4790  0.1345
 6879SOL    HW232274   0.501   1.602   3.130 -0.6221 -1.9676  0.0252
 6880SOL     OW32275   0.784   3.994   1.656  0.6834 -0.9445 -0.2122
 6880SOL    HW132276   0.745   4.066   1.606 -1.4283 -2.0134 -0.1005
 6880SOL    HW232277   0.717   3.998   1.725  0.6429 -0.0946 -0.2987
 6881SOL     OW32278   3.268   4.196   8.143  0.4753 -0.0892 -0.5089
 6881SOL    HW132279   3.183   4.174   8.181  1.5876 -2.1927  0.7598
 6881SOL    HW232280   3.248   4.195   8.050 -0.6794 -0.1906 -0.2590
 6882SOL     OW32281   3.614   1.994   4.454  0.6459 -0.4043  0.3931
 6882SOL    HW132282   3.630   2.040   4.536 -1.8467 -3.2133  2.4620
 6882SOL    HW232283   3.645   1.910   4.488 -1.0358 -0.1827  2.4739
 6883SOL     OW32284   0.074   3.526   4.751  0.4761 -0.1468  0.6435
 6883SOL    HW132285   0.009   3.473   4.703 -0.5976  0.1735  1.7393
 6883SOL    HW232286   0.150   3.467   4.752  1.4241  1.0597 -0.3242
 6884SOL     OW32287   1.532   0.577   3.544 -0.2302  0.2932 -0.3084
 6884SOL    HW132288   1.462   0.642   3.537  1.0702  1.6628 -0.5903
 6884SOL    HW232289   1.612   0.610   3.504 -1.2178  0.3882 -2.1892
 6885SOL     OW32290   1.184   3.855   6.527 -0.3194  0.0780  0.2421
 6885SOL    HW132291   1.237   3.910   6.470  0.5243 -0.5564  0.4067
 6885SOL    HW232292   1.120   3.914   6.566 -0.2292  0.5518 -0.3248
 6886SOL     OW32293   2.264   0.586   2.214 -0.6675  0.4598  0.3206
 6886SOL    HW132294   2.234   0.619   2.299  0.7115 -2.0583  1.7933
 6886SOL    HW232295   2.177   0.591   2.174 -0.2558  1.0794 -0.4811
 6887SOL     OW32296   0.201   2.971   4.202 -0.1698  0.0206  0.8089
 6887SOL    HW132297   0.165   3.060   4.198  0.8053  0.5218  3.3913
 6887SOL    HW232298   0.290   3.007   4.207 -0.2489  0.2143  0.8566
 6888SOL     OW32299   0.535   1.333   2.850 -0.0586  0.0264 -0.4015
 6888SOL    HW132300   0.526   1.293   2.764  1.6159 -1.2848  0.0336
 6888SOL    HW232301   0.443   1.333   2.880  0.1960 -1.5905  0.3814
 6889SOL     OW32302   0.525   1.793   5.298  0.0920  0.0907  0.1858
 6889SOL    HW132303   0.570   1.861   5.247 -1.0615  0.2144 -0.6618
 6889SOL    HW232304   0.431   1.810   5.296 -0.0286 -0.4178  1.1780
 6890SOL     OW32305   3.936   3.109  14.677  0.1152  0.3097  0.1747
 6890SOL    HW132306   3.939   3.126  14.582 -0.6370 -2.1069 -0.2833
 6890SOL    HW232307   3.867   3.166  14.710 -0.8976  0.3989 -2.0595
 6891SOL     OW32308   4.495   0.908   6.813 -0.2986  0.1305  0.3752
 6891SOL    HW132309   4.522   0.999   6.824  2.1703 -0.3718 -1.4861
 6891SOL    HW232310   4.429   0.922   6.745  0.8424  0.1573 -0.7331
 6892SOL     OW32311   3.154   2.706   4.443 -0.1730  0.3408  0.2080
 6892SOL    HW132312   3.104   2.700   4.524  0.0707  0.4811  0.3694
 6892SOL    HW232313   3.162   2.801   4.438 -1.5450  0.3576 -1.4801
 6893SOL     OW32314   3.456   2.280  11.956  0.2172  0.0291 -0.4992
 6893SOL    HW132315   3.508   2.322  12.025  0.5487 -0.1884 -0.6148
 6893SOL    HW232316   3.498   2.336  11.891  2.3617 -0.1701  0.7118
 6894SOL     OW32317   4.073   3.080  10.334 -0.5288 -0.2951  0.4224
 6894SOL    HW132318   4.159   3.076  10.376 -0.3817  2.5010  0.4124
 6894SOL    HW232319   4.030   3.003  10.371 -0.1686 -1.3991 -1.4911
 6895SOL     OW32320   1.792   2.801   4.927  0.3301 -0.1596 -0.0217
 6895SOL    HW132321   1.860   2.735   4.926  1.1922  0.7182  0.7419
 6895SOL    HW232322   1.723   2.756   4.975 -1.9800  0.5088 -2.6585
 6896SOL     OW32323   0.420   0.885   8.033 -0.1524 -0.5774 -0.0773
 6896SOL    HW132324   0.459   0.967   8.064 -0.2156  0.0916 -1.7964
 6896SOL    HW232325   0.448   0.829   8.106 -1.1498 -1.1043 -0.1007
 6897SOL     OW32326   4.468   0.341   4.650  0.8316 -0.1493  0.0600
 6897SOL    HW132327   4.466   0.435   4.634  0.1866 -0.1631  0.0442
 6897SOL    HW232328   4.418   0.324   4.730 -1.9439  2.6818 -1.0803
 6898SOL     OW32329   3.841   2.598   9.510  0.3532 -0.1779 -0.0069
 6898SOL    HW132330   3.797   2.537   9.568 -0.4928  1.4898  1.1185
 6898SOL    HW232331   3.882   2.539   9.447  1.3956  1.8591 -1.2407
 6899SOL     OW32332   4.036   4.560   4.823 -0.5370  0.0530  0.4660
 6899SOL    HW132333   4.021   4.584   4.731 -2.1627  3.1357  1.5292
 6899SOL    HW232334   4.096   4.630   4.851  0.4031 -0.2649 -0.7152
 6900SOL     OW32335   4.392   4.733  10.422  0.5804  0.1707 -0.6893
 6900SOL    HW132336   4.471   0.051  10.432  0.6926 -0.2915  0.9284
 6900SOL    HW232337   4.325   0.066  10.414  0.0002 -0.1047  1.8699
 6901SOL     OW32338   0.077   2.200  13.462  0.3739  0.3431  0.0073
 6901SOL    HW132339   0.102   2.253  13.386 -0.2995 -0.4515 -0.7656
 6901SOL    HW232340   0.032   2.270  13.508  0.7410  0.7841 -0.3085
 6902SOL     OW32341   2.612   4.230   6.828 -0.5396  0.2832  0.2801
 6902SOL    HW132342   2.705   4.206   6.823 -0.9093 -1.0501 -0.2305
 6902SOL    HW232343   2.615   4.313   6.876  1.9827  0.0867  0.4689
 6903SOL     OW32344   2.494   4.572  15.219  0.1176 -0.0986  0.2405
 6903SOL    HW132345   2.405   4.598  15.193  0.4015 -0.4911 -1.1157
 6903SOL    HW232346   2.521   4.520  15.144 -0.2126  1.4476 -0.9579
 6904SOL     OW32347   3.731   1.390   8.411  0.5536 -0.0840 -0.4675
 6904SOL    HW132348   3.726   1.485   8.403 -0.3664 -0.0722  0.1839
 6904SOL    HW232349   3.653   1.375   8.465  0.5591 -2.6922 -1.1690
 6905SOL     OW32350   0.705   2.102   0.492 -0.2802 -0.5721  0.1566
 6905SOL    HW132351   0.721   2.057   0.575 -3.0183  0.4719  1.2726
 6905SOL    HW232352   0.764   2.050   0.439  0.2409  1.0964 -0.8985
 6906SOL     OW32353   0.528   0.574  11.129 -0.0096  0.4988  0.2929
 6906SOL    HW132354   0.457   0.529  11.085  0.6688 -1.4275  1.1518
 6906SOL    HW232355   0.585   0.509  11.170 -1.2901 -1.2356 -0.6877
 6907SOL     OW32356   3.675   2.874   3.045  0.6924 -0.2939  0.1255
 6907SOL    HW132357   3.720   2.836   2.969 -0.3248  1.1701 -1.2232
 6907SOL    HW232358   3.685   2.803   3.108 -1.2147 -0.4619  0.2532
 6908SOL     OW32359   1.793   3.437  10.843 -0.0776 -0.0821  0.0682
 6908SOL    HW132360   1.777   3.350  10.880 -0.4697 -0.3039 -0.6157
 6908SOL    HW232361   1.742   3.483  10.910  1.2184  0.1385  0.8969
 6909SOL     OW32362   2.423   4.555   8.487 -0.1802  0.0273 -0.0212
 6909SOL    HW132363   2.464   4.603   8.416 -0.1357 -0.7187 -0.5018
 6909SOL    HW232364   2.410   4.467   8.450  1.7582  0.5907 -1.9773
 6910SOL     OW32365   4.083   0.975   9.061  0.5093  0.4639 -0.2780
 6910SOL    HW132366   4.157   1.037   9.063  0.7599  0.1326  0.8898
 6910SOL    HW232367   4.017   1.031   9.103  0.2422  0.8602 -1.2215
 6911SOL     OW32368   3.967   1.495   7.827  0.3246 -0.3033  0.0298
 6911SOL    HW132369   3.973   1.402   7.850 -0.8696 -0.0082  1.5774
 6911SOL    HW232370   4.005   1.538   7.903 -2.1215  1.2254  0.3936
 6912SOL     OW32371   1.066   0.518  15.823 -0.3828 -0.2437 -0.1575
 6912SOL    HW132372   1.119   0.596  15.841 -0.3323 -0.1439 -0.7113
 6912SOL    HW232373   0.994   0.552  15.770  1.6196  1.0626 -2.0851
 6913SOL     OW32374   0.914   1.596   0.130  0.2949  0.0535  0.1983
 6913SOL    HW132375   0.895   1.690   0.122 -2.8579 -0.6378 -0.4231
 6913SOL    HW232376   0.996   1.590   0.177  1.0719 -0.4472 -1.2115
 6914SOL     OW32377   1.873   2.749  13.739  0.2871  0.1147  0.0256
 6914SOL    HW132378   1.859   2.843  13.730 -0.3442  0.1340  1.1931
 6914SOL    HW232379   1.899   2.727  13.649  3.1026  2.3382  0.2833
 6915SOL     OW32380   3.262   3.779  11.219  0.2060 -0.0591 -0.5822
 6915SOL    HW132381   3.338   3.723  11.205 -1.4632 -2.4203 -0.3972
 6915SOL    HW232382   3.303   3.860  11.246 -2.0707  0.9974 -0.3062
 6916SOL     OW32383   0.666   3.360   3.679  0.5905  0.4117  0.3033
 6916SOL    HW132384   0.671   3.266   3.661 -2.7211  0.4839 -0.9724
 6916SOL    HW232385   0.617   3.394   3.604  0.6243 -1.4706 -0.5752
 6917SOL     OW32386   2.373   3.491   7.221  0.2903  0.6558 -0.0639
 6917SOL    HW132387   2.462   3.455   7.226 -0.0945 -0.2542  0.1082
 6917SOL    HW232388   2.344   3.477   7.311 -0.8396  1.3426 -0.3233
 6918SOL     OW32389   4.496   0.717   6.213 -0.2824  0.3193  0.3584
 6918SOL    HW132390   4.525   0.752   6.298 -0.2295  0.8382  0.1250
 6918SOL    HW232391   4.520   0.791   6.157  0.9007 -1.6727 -1.7871
 6919SOL     OW32392   4.030   4.612   1.764 -0.8992  0.0087  0.2312
 6919SOL    HW132393   4.048   4.698   1.802 -0.0182  0.2886 -0.8250
 6919SOL    HW232394   3.979   4.632   1.686 -0.2032 -2.9446 -0.9835
 6920SOL     OW32395   1.224   0.280   6.008 -0.1327 -0.4691  0.3587
 6920SOL    HW132396   1.179   0.212   5.958  0.0998 -0.1411 -0.3012
 6920SOL    HW232397   1.186   0.284   6.096 -1.3390 -0.5175 -0.1602
 6921SOL     OW32398   3.676   0.822   6.167 -1.0774 -0.1993 -0.4112
 6921SOL    HW132399   3.596   0.874   6.173  0.9433  2.8166  0.4555
 6921SOL    HW232400   3.725   0.859   6.095 -2.3123  0.3014 -0.9863
 6922SOL     OW32401   0.560   2.612   2.526 -0.1979 -0.4117  0.3829
 6922SOL    HW132402   0.502   2.632   2.453 -2.5582 -0.4972  2.2507
 6922SOL    HW232403   0.622   2.685   2.537  0.1307 -0.7464  0.7528
 6923SOL     OW32404   3.059   0.069  12.169 -0.2490 -0.0726 -0.3382
 6923SOL    HW132405   3.145   0.108  12.182  0.2436 -0.8245 -1.4078
 6923SOL    HW232406   3.060   4.734  12.235  2.0156  0.5958  0.3228
 6924SOL     OW32407   1.190   2.615   0.751 -0.2882 -0.6242 -0.2742
 6924SOL    HW132408   1.241   2.587   0.675 -0.4708  0.5422 -0.8237
 6924SOL    HW232409   1.158   2.696   0.712 -2.1638 -1.8805 -1.3540
 6925SOL     OW32410   0.555   2.724   3.950 -0.4646 -0.3963  0.0032
 6925SOL    HW132411   0.567   2.629   3.949  0.3190 -0.3048  0.3196
 6925SOL    HW232412   0.531   2.740   4.042 -0.6752  1.2355 -0.3391
 6926SOL     OW32413   0.501   3.941   2.324  0.0139  0.0515 -0.0609
 6926SOL    HW132414   0.409   3.917   2.312 -0.3476  0.4961  1.8835
 6926SOL    HW232415   0.502   4.016   2.264  1.5459  1.2712  1.4992
 6927SOL     OW32416   2.035   2.592   7.355 -0.0771 -0.0318 -0.1051
 6927SOL    HW132417   2.117   2.561   7.316  0.4541  0.0695  0.9244
 6927SOL    HW232418   2.002   2.640   7.279 -0.2710  0.0044  0.0033
 6928SOL     OW32419   1.403   1.256   2.506  0.4374 -0.2411  0.3232
 6928SOL    HW132420   1.368   1.322   2.565 -0.0751  0.4813 -0.7908
 6928SOL    HW232421   1.338   1.243   2.437 -0.4839  0.5254  1.0550
 6929SOL     OW32422   4.223   3.677  11.611 -0.1121  0.0842  0.0063
 6929SOL    HW132423   4.319   3.684  11.616 -0.3182  3.2812 -0.1915
 6929SOL    HW232424   4.195   3.750  11.556  1.3425  0.6728  0.0229
 6930SOL     OW32425   4.416   2.250  11.213  0.3258  0.3883  0.4665
 6930SOL    HW132426   4.360   2.254  11.291 -0.5080  2.1382 -0.2225
 6930SOL    HW232427   4.465   2.331  11.221  1.2875 -0.0296 -1.2935
 6931SOL     OW32428   0.502   1.383  13.138  0.1815  0.1566  0.4070
 6931SOL    HW132429   0.414   1.367  13.172 -1.3347  4.0187 -1.7773
 6931SOL    HW232430   0.495   1.464  13.088 -0.1886 -0.2506 -0.2079
 6932SOL     OW32431   4.682   3.615   8.955 -0.0702 -0.2115  0.8899
 6932SOL    HW132432   4.633   3.696   8.971 -0.3595 -0.3290  0.5854
 6932SOL    HW232433   4.659   3.549   9.020 -1.0494 -1.1240 -0.4086
 6933SOL     OW32434   2.541   2.477  12.125  0.5667  0.1184  0.1178
 6933SOL    HW132435   2.557   2.386  12.104  3.5224  0.4677  0.9165
 6933SOL    HW232436   2.538   2.519  12.039 -0.9176 -0.0333  0.0826
 6934SOL     OW32437   3.531   4.579   4.481  0.2466  0.2029  0.0475
 6934SOL    HW132438   3.513   4.552   4.571 -0.3997  0.0375 -0.1302
 6934SOL    HW232439   3.465   4.529   4.433  2.4054 -0.9324 -1.7698
 6935SOL     OW32440   4.306   3.012   5.976 -0.7309  0.1855 -0.3613
 6935SOL    HW132441   4.323   2.926   6.013 -1.4507  0.7027  1.1469
 6935SOL    HW232442   4.228   3.043   6.022 -1.6787 -2.3571 -0.2960
 6936SOL     OW32443   2.215   1.970   7.475  0.1258 -0.2387 -0.4229
 6936SOL    HW132444   2.164   2.020   7.412  0.2990  1.3495  0.7224
 6936SOL    HW232445   2.199   2.005   7.562 -1.2841  0.7405 -1.0838
 6937SOL     OW32446   4.615   3.824   6.607  0.2536 -0.5361 -0.2488
 6937SOL    HW132447   4.593   3.907   6.650  2.1173 -0.1384 -0.0776
 6937SOL    HW232448   4.633   3.778   6.688 -1.4193  0.3102  0.6178
 6938SOL     OW32449   2.868   3.419   7.949  0.2768 -0.3994  0.0713
 6938SOL    HW132450   2.822   3.444   7.869  2.6038  2.7488 -0.2712
 6938SOL    HW232451   2.859   3.492   8.009  0.2942  1.1720 -1.8363
 6939SOL     OW32452   0.933   1.331   7.673  0.8673  0.4220  0.7774
 6939SOL    HW132453   0.838   1.334   7.676  0.8110 -1.1972  0.6932
 6939SOL    HW232454   0.950   1.420   7.704  1.1775  0.2484  1.1231
 6940SOL     OW32455   3.101   4.001   6.972 -0.5552 -0.0076 -0.7908
 6940SOL    HW132456   3.175   4.046   6.931 -0.5829  0.6819 -0.0968
 6940SOL    HW232457   3.147   3.917   6.979  2.5346  1.8374  1.2325
 6941SOL     OW32458   3.803   3.628  11.225 -0.2751  0.1274  0.1212
 6941SOL    HW132459   3.786   3.547  11.273  0.7586  1.2513  2.3984
 6941SOL    HW232460   3.820   3.590  11.139  0.3407  0.1751  0.2229
 6942SOL     OW32461   0.163   3.076  13.570  0.2738  0.3216 -0.0132
 6942SOL    HW132462   0.181   3.032  13.652 -1.6137  0.2620  0.3672
 6942SOL    HW232463   0.069   3.058  13.563  0.2130  0.8989 -0.7693
 6943SOL     OW32464   2.909   0.214   0.500  0.1344 -0.0014 -0.8065
 6943SOL    HW132465   2.927   0.120   0.493 -2.9488 -0.7381  1.3352
 6943SOL    HW232466   2.905   0.221   0.595  1.8573 -1.7081 -0.6056
 6944SOL     OW32467   4.649   3.580  15.138 -0.2157 -0.1677 -0.0480
 6944SOL    HW132468   4.726   3.580  15.194 -0.3037  1.0129  0.0794
 6944SOL    HW232469   4.640   3.492  15.101 -0.1244  0.5528 -1.7937
 6945SOL     OW32470   0.625   4.295   3.464 -0.3221 -0.0341 -0.1772
 6945SOL    HW132471   0.627   4.390   3.450  0.3405 -0.0633 -0.2720
 6945SOL    HW232472   0.707   4.274   3.509 -0.3313 -1.5666 -0.8741
 6946SOL     OW32473   1.193   0.737   3.092 -0.3324 -0.1826 -0.0473
 6946SOL    HW132474   1.100   0.757   3.083 -0.6440 -0.5517  2.3727
 6946SOL    HW232475   1.221   0.799   3.024  1.0211 -0.0925  0.6078
 6947SOL     OW32476   2.264   2.364   5.045  0.0790  0.2275  0.2290
 6947SOL    HW132477   2.258   2.436   5.107 -1.8695 -0.7615  1.2088
 6947SOL    HW232478   2.307   2.409   4.973 -2.6191  2.6182  0.1193
 6948SOL     OW32479   3.665   3.890   1.588 -0.1426  0.1836 -0.2797
 6948SOL    HW132480   3.672   3.795   1.597 -1.0443  0.0584 -0.9171
 6948SOL    HW232481   3.751   3.916   1.623 -0.1765  0.3617 -0.3286
 6949SOL     OW32482   2.230   0.661   5.886  0.1538  0.0785 -0.3432
 6949SOL    HW132483   2.319   0.655   5.922 -0.5694 -0.2145  1.4003
 6949SOL    HW232484   2.205   0.752   5.902 -0.9272 -0.4144  0.7818
 6950SOL     OW32485   2.052   3.478   6.193  0.1874  1.0981  0.7139
 6950SOL    HW132486   2.016   3.488   6.281 -0.2571 -0.7080  0.7403
 6950SOL    HW232487   2.121   3.544   6.191  1.3219 -0.1557 -2.0901
 6951SOL     OW32488   3.349   3.686  12.100 -0.4488  0.5264 -0.5917
 6951SOL    HW132489   3.328   3.768  12.145  1.2221 -0.4346  1.9033
 6951SOL    HW232490   3.284   3.689  12.030 -0.9494  1.3318 -0.0986
 6952SOL     OW32491   4.053   0.561   6.352  0.2178  0.0693 -0.0584
 6952SOL    HW132492   3.978   0.526   6.303 -0.0772  3.0380 -1.7165
 6952SOL    HW232493   4.048   0.651   6.321  0.1806 -0.0312 -0.3471
 6953SOL     OW32494   1.168   4.690   6.064 -0.1203  0.5197 -0.7327
 6953SOL    HW132495   1.253   4.661   6.030  0.9203  2.1622  0.4736
 6953SOL    HW232496   1.139   0.021   6.001 -0.2959 -0.8336 -2.0654
 6954SOL     OW32497   0.143   0.008  15.569 -0.0693  0.2017 -0.1307
 6954SOL    HW132498   0.229   0.001  15.613 -0.3838  1.7467  0.7267
 6954SOL    HW232499   0.159   0.091  15.524  2.4019 -0.1120  0.1369
 6955SOL     OW32500   0.943   1.036  12.793 -0.0375 -0.2332 -0.1620
 6955SOL    HW132501   0.964   0.957  12.843 -0.6277 -1.2592 -1.5500
 6955SOL    HW232502   0.959   1.018  12.700 -1.9568 -0.9537 -0.3630
 6956SOL     OW32503   0.478   2.304   2.773  0.3506  0.3074  0.4258
 6956SOL    HW132504   0.491   2.287   2.680  1.4275 -0.1003  0.6591
 6956SOL    HW232505   0.455   2.397   2.766 -0.6448  0.1307  1.4306
 6957SOL     OW32506   2.390   0.259   5.053  0.4105 -0.0032 -0.4099
 6957SOL    HW132507   2.425   0.333   5.102  0.1459 -0.8270  1.0137
 6957SOL    HW232508   2.360   0.291   4.968  1.4400 -3.2088 -2.0004
 6958SOL     OW32509   4.379   2.903   7.892  0.0123  0.2633 -0.4945
 6958SOL    HW132510   4.323   2.979   7.876  1.5200  1.7415  1.2735
 6958SOL    HW232511   4.330   2.849   7.830  1.9359 -0.7906 -1.0708
 6959SOL     OW32512   0.690   4.614   5.686 -0.1555 -0.4506 -0.0231
 6959SOL    HW132513   0.703   4.519   5.687  0.2455 -0.3832  2.9282
 6959SOL    HW232514   0.594   4.611   5.692 -0.2210 -0.5497 -1.1572
 6960SOL     OW32515   1.684   3.246   4.667 -0.0425  0.6495 -0.0745
 6960SOL    HW132516   1.747   3.239   4.739 -0.7819  3.9284  0.9042
 6960SOL    HW232517   1.714   3.177   4.608  0.6735  0.9818 -0.0909
 6961SOL     OW32518   0.640   1.822   4.784 -0.0657 -0.0931 -0.0752
 6961SOL    HW132519   0.553   1.781   4.780 -1.0385  2.3160 -4.1665
 6961SOL    HW232520   0.613   1.913   4.773  2.4523  0.8871  1.8982
 6962SOL     OW32521   4.467   0.432   2.463  0.2342 -0.1264 -0.1045
 6962SOL    HW132522   4.403   0.383   2.516  0.5603  1.0156  1.3511
 6962SOL    HW232523   4.549   0.393   2.494  1.0835  3.0902  1.6914
 6963SOL     OW32524   3.992   4.318   7.891  0.6913 -0.0412  0.6009
 6963SOL    HW132525   4.059   4.307   7.959  2.2337  4.1359 -0.1896
 6963SOL    HW232526   4.046   4.343   7.815  1.5860  0.1938  1.3098
 6964SOL     OW32527   2.349   4.347   1.510 -0.3458  0.0432 -0.0021
 6964SOL    HW132528   2.326   4.358   1.418 -0.2472 -3.5448 -0.4520
 6964SOL    HW232529   2.262   4.325   1.544 -0.1561  0.1015  0.5323
 6965SOL     OW32530   3.749   0.129   5.765 -0.0042 -0.2387 -0.2347
 6965SOL    HW132531   3.681   0.176   5.812 -1.9660 -0.6090 -2.6711
 6965SOL    HW232532   3.759   0.050   5.818  1.1561 -0.1890 -0.3651
 6966SOL     OW32533   3.674   0.519   3.953  0.2559  0.2469  0.3135
 6966SOL    HW132534   3.597   0.571   3.932 -0.9274 -1.6028  0.1006
 6966SOL    HW232535   3.747   0.558   3.907 -0.5187  1.2491 -0.0506
 6967SOL     OW32536   0.076   3.527  16.104 -0.3733 -0.4150 -0.0309
 6967SOL    HW132537   0.001   3.513  16.046 -1.8934 -1.0575  2.0797
 6967SOL    HW232538   0.084   3.622  16.098  1.0750 -0.7312 -2.8055
 6968SOL     OW32539   3.911   4.468   1.125  0.2121  0.1763  0.2698
 6968SOL    HW132540   3.929   4.560   1.142  0.2261  0.1638  0.3229
 6968SOL    HW232541   3.889   4.481   1.032 -1.1422 -0.1044  0.5533
 6969SOL     OW32542   0.979   3.432  16.490 -0.6729  0.0378  0.1802
 6969SOL    HW132543   1.027   3.413  16.409  3.3362  0.7320  2.3900
 6969SOL    HW232544   0.968   3.339  16.513 -0.5951 -0.5249 -2.0899
 6970SOL     OW32545   2.825   2.745   1.553  0.1117  0.0687 -0.1802
 6970SOL    HW132546   2.813   2.686   1.627  1.0852  1.9697  1.4991
 6970SOL    HW232547   2.768   2.816   1.584 -1.4996 -0.9262 -0.8880
 6971SOL     OW32548   4.278   2.791  17.035 -0.1785 -0.0392 -0.1753
 6971SOL    HW132549   4.343   2.853  17.001  0.9563 -1.0171  0.2302
 6971SOL    HW232550   4.221   2.808  16.959  1.2814  0.5157 -1.1350
 6972SOL     OW32551   0.896   3.581  15.860 -0.4156  0.5272  0.0637
 6972SOL    HW132552   0.805   3.555  15.841 -0.1628  0.0672 -0.5180
 6972SOL    HW232553   0.918   3.539  15.943 -0.1977  1.2245  0.3510
 6973SOL     OW32554   3.699   3.469   6.803 -0.2366  0.1405 -0.0805
 6973SOL    HW132555   3.710   3.394   6.746 -1.3223 -0.7254  0.8243
 6973SOL    HW232556   3.787   3.468   6.839  0.0587 -0.6734 -0.8298
 6974SOL     OW32557   4.095   2.908  17.346 -0.1619  0.5365 -0.0556
 6974SOL    HW132558   4.068   2.917  17.254  0.2246 -0.5943 -0.2732
 6974SOL    HW232559   4.189   2.912  17.328  0.2246  0.5282  1.9968
 6975SOL     OW32560   0.473   0.583   2.852  0.0067 -0.0249 -0.1023
 6975SOL    HW132561   0.561   0.572   2.888  0.4357  1.4386 -0.7314
 6975SOL    HW232562   0.444   0.662   2.897  0.8310 -0.0878  0.5428
 6976SOL     OW32563   3.862   0.342  14.060 -0.5704  0.0226  0.3341
 6976SOL    HW132564   3.930   0.287  14.021  0.2114 -0.4191  2.3146
 6976SOL    HW232565   3.897   0.335  14.148 -2.0417  0.6743  0.9786
 6977SOL     OW32566   2.032   1.043   2.778 -0.5570 -0.1843 -0.5143
 6977SOL    HW132567   2.030   1.002   2.692  2.3662 -0.1237 -0.6220
 6977SOL    HW232568   1.942   1.074   2.785 -0.6076 -0.1729 -1.2591
 6978SOL     OW32569   0.387   0.368  12.022  0.8211  0.4408  0.0571
 6978SOL    HW132570   0.376   0.364  11.927  3.7179 -3.0861 -0.1501
 6978SOL    HW232571   0.456   0.433  12.035  1.0776  0.6083 -2.1934
 6979SOL     OW32572   1.992   3.645   3.681  0.0027 -0.2031  0.6094
 6979SOL    HW132573   2.015   3.661   3.590 -0.8677 -3.0900 -0.1297
 6979SOL    HW232574   1.899   3.668   3.676 -0.6489 -2.3060  2.7802
 6980SOL     OW32575   1.528   1.471   8.324 -0.4162  0.5445  0.0238
 6980SOL    HW132576   1.596   1.479   8.390 -2.3606  0.6340  2.0358
 6980SOL    HW232577   1.550   1.391   8.275  1.3137  1.4994 -0.7499
 6981SOL     OW32578   1.747   0.217  16.289  0.1333  0.1107  0.3041
 6981SOL    HW132579   1.826   0.231  16.341  1.1473 -3.9768 -0.1310
 6981SOL    HW232580   1.758   0.127  16.258 -0.6503  0.4469 -0.9286
 6982SOL     OW32581   2.544   3.927  16.814 -0.4680  0.1872 -0.1711
 6982SOL    HW132582   2.608   3.856  16.821 -0.7075 -0.0836 -0.7656
 6982SOL    HW232583   2.465   3.878  16.792  0.1806  0.4432 -2.9705
 6983SOL     OW32584   4.132   3.154   8.777  0.0030 -0.0527 -0.0734
 6983SOL    HW132585   4.185   3.105   8.840  1.9300  1.1226 -0.7831
 6983SOL    HW232586   4.182   3.132   8.699 -0.6646 -1.0852 -0.2094
 6984SOL     OW32587   3.134   4.371   2.960  0.0308  0.1614  0.4966
 6984SOL    HW132588   3.098   4.298   3.010 -1.1824  0.0869 -0.4842
 6984SOL    HW232589   3.221   4.333   2.948 -1.4718 -3.4548  1.0849
 6985SOL     OW32590   0.128   1.565  11.691  0.6129 -0.5615  0.1500
 6985SOL    HW132591   0.094   1.655  11.686  0.6420 -0.4897  1.4264
 6985SOL    HW232592   0.145   1.558  11.785  1.4560  1.4987  0.1672
 6986SOL     OW32593   1.474   0.691   2.074 -0.2583  0.2111 -0.1114
 6986SOL    HW132594   1.456   0.765   2.017 -2.1701  0.3585  0.6954
 6986SOL    HW232595   1.511   0.739   2.148  1.7475 -0.7357 -0.4847
 6987SOL     OW32596   1.650   0.189   2.221  0.0473 -0.1844 -0.4734
 6987SOL    HW132597   1.706   0.120   2.187 -0.3875 -0.8159  0.1099
 6987SOL    HW232598   1.565   0.147   2.209 -0.3365  0.5814 -0.4922
 6988SOL     OW32599   3.469   1.053   9.964 -0.4227  0.1926 -0.4832
 6988SOL    HW132600   3.542   1.073   9.905  1.5389  0.8711  2.1634
 6988SOL    HW232601   3.431   0.979   9.917  0.6765 -1.0914  0.6737
 6989SOL     OW32602   1.208   1.994   4.239  0.5185  0.0372  0.4644
 6989SOL    HW132603   1.264   2.024   4.168  2.5577  0.2619  2.1833
 6989SOL    HW232604   1.147   2.066   4.256 -0.3912 -1.0962  1.9769
 6990SOL     OW32605   4.667   0.668   5.841  0.3303 -0.7318 -0.6071
 6990SOL    HW132606   4.618   0.744   5.809 -0.5182 -1.4931 -1.1058
 6990SOL    HW232607   4.596   0.603   5.845  0.4746 -0.8133  0.8299
 6991SOL     OW32608   3.148   3.270   8.547  0.1169 -0.4590 -0.1416
 6991SOL    HW132609   3.244   3.276   8.553 -0.2088  3.5550  0.7145
 6991SOL    HW232610   3.127   3.331   8.476  1.9171 -0.6064 -0.8132
 6992SOL     OW32611   4.346   4.028   4.545  0.5300 -0.1284  0.0001
 6992SOL    HW132612   4.305   4.058   4.464 -0.6848 -3.3005 -0.5571
 6992SOL    HW232613   4.435   4.061   4.535  0.7677 -0.2247  1.7554
 6993SOL     OW32614   4.099   4.359   3.666 -0.1383  0.1755 -0.3383
 6993SOL    HW132615   4.128   4.332   3.753 -0.2449 -0.1774 -0.4109
 6993SOL    HW232616   4.158   4.431   3.645 -1.0908  0.7024 -1.1960
 6994SOL     OW32617   2.525   3.651   4.198  0.3016 -0.5069  0.5273
 6994SOL    HW132618   2.584   3.578   4.183  1.9171  0.4541  2.2392
 6994SOL    HW232619   2.442   3.603   4.198 -0.4214  0.7435 -0.5418
 6995SOL     OW32620   2.140   0.169   2.269 -0.4661  0.5033  0.0017
 6995SOL    HW132621   2.104   0.208   2.348 -0.5714  0.1301  0.1360
 6995SOL    HW232622   2.194   0.102   2.311  1.7097  3.7538  2.4482
 6996SOL     OW32623   4.504   3.049   4.263 -0.2278  0.0628 -0.0504
 6996SOL    HW132624   4.455   3.028   4.184  2.0473 -1.0354 -1.1621
 6996SOL    HW232625   4.510   2.960   4.298  1.7289 -0.0714 -0.7685
 6997SOL     OW32626   2.139   4.648   4.971  0.1222  0.3473 -0.2421
 6997SOL    HW132627   2.166   4.674   5.059 -2.1932  0.6076  0.3820
 6997SOL    HW232628   2.205   4.698   4.922  0.0821  2.2746  1.6850
 6998SOL     OW32629   0.117   3.228   4.157  0.5308 -0.6349 -0.5801
 6998SOL    HW132630   0.193   3.264   4.111  0.4297  1.3382  0.7850
 6998SOL    HW232631   0.047   3.274   4.110 -0.2702  0.6822  1.8880
 6999SOL     OW32632   1.465   0.059   1.731 -0.0867 -0.1332  0.1790
 6999SOL    HW132633   1.454   0.138   1.784  0.3313  0.3187 -0.3998
 6999SOL    HW232634   1.448   4.729   1.798  2.0281  0.1372  0.9911
 7000SOL     OW32635   1.579   2.797   4.052  0.1666  0.1358 -0.1773
 7000SOL    HW132636   1.622   2.849   3.985  1.1639 -0.6859 -0.1823
 7000SOL    HW232637   1.490   2.787   4.020 -0.2763  0.7572  0.8719
 7001SOL     OW32638   2.201   0.016  14.872 -0.4143 -0.0789 -0.5508
 7001SOL    HW132639   2.186   4.675  14.816 -0.5623  2.3860 -3.9251
 7001SOL    HW232640   2.200   0.085  14.805  0.8044  0.6806  0.2099
 7002SOL     OW32641   3.387   3.055   4.673 -0.0329  0.1945 -0.3388
 7002SOL    HW132642   3.466   3.023   4.716 -0.8656 -1.2731  0.1134
 7002SOL    HW232643   3.409   3.119   4.605 -0.3250  1.2156  0.5227
 7003SOL     OW32644   4.161   2.408   6.172 -0.2051 -1.0285 -0.0229
 7003SOL    HW132645   4.120   2.325   6.146  1.4976 -2.1428  0.8058
 7003SOL    HW232646   4.193   2.385   6.260  0.4459  0.2223  0.0660
 7004SOL     OW32647   2.701   2.184   1.553 -1.0602 -0.3924 -0.3147
 7004SOL    HW132648   2.794   2.172   1.575 -0.7070  1.4146 -0.8003
 7004SOL    HW232649   2.670   2.181   1.643  2.5173  0.6274  0.9444
 7005SOL     OW32650   1.420   1.605   6.988 -0.4481 -0.0355  0.4834
 7005SOL    HW132651   1.336   1.563   6.966 -0.5610  0.5640 -0.2032
 7005SOL    HW232652   1.425   1.687   6.940  1.2829  0.1632  1.0352
 7006SOL     OW32653   3.867   2.396   6.147  0.2987 -0.0668  0.0344
 7006SOL    HW132654   3.856   2.376   6.054 -0.4275 -0.8389  0.2927
 7006SOL    HW232655   3.958   2.426   6.152  0.1424  0.2425  0.9530
 7007SOL     OW32656   0.258   3.746   2.788  0.1525  0.7751 -0.0336
 7007SOL    HW132657   0.318   3.684   2.746 -1.0670 -0.1943 -0.3374
 7007SOL    HW232658   0.288   3.835   2.768  0.6418  0.9740  1.6496
 7008SOL     OW32659   4.227   4.000   4.249  0.5328 -0.2480 -0.4036
 7008SOL    HW132660   4.234   4.049   4.167  1.0165 -2.6235 -1.7608
 7008SOL    HW232661   4.302   3.941   4.247  2.7220  2.5407 -1.1900
 7009SOL     OW32662   3.918   4.286   6.323 -0.3335  0.1488  0.2047
 7009SOL    HW132663   3.829   4.283   6.288  1.0237 -1.7833 -3.0489
 7009SOL    HW232664   3.970   4.317   6.249  1.3211  0.7100  1.5898
 7010SOL     OW32665   2.166   0.950   2.533 -0.5790 -0.1141  0.5081
 7010SOL    HW132666   2.222   1.017   2.494 -1.7634  1.3786  1.3908
 7010SOL    HW232667   2.229   0.883   2.559 -0.0801  0.4886  0.8459
 7011SOL     OW32668   2.481   3.612   3.767  0.1419  0.7149  0.2759
 7011SOL    HW132669   2.452   3.569   3.687  0.2289  1.8859 -0.3846
 7011SOL    HW232670   2.392   3.603   3.802  0.7565  1.5149  2.0453
 7012SOL     OW32671   2.820   1.372   5.531  0.0653  0.1809  0.2424
 7012SOL    HW132672   2.759   1.445   5.544  2.7032  2.2178  1.1875
 7012SOL    HW232673   2.786   1.316   5.600  1.2885 -0.6372  0.1700
 7013SOL     OW32674   4.541   4.381  13.102 -0.1719  0.1623 -0.0138
 7013SOL    HW132675   4.565   4.348  13.015  1.3021  0.9965  0.0893
 7013SOL    HW232676   4.608   4.337  13.153 -0.6624  0.7854  1.1558
 7014SOL     OW32677   0.479   2.026   2.874 -0.2879 -0.3554  0.4560
 7014SOL    HW132678   0.393   1.998   2.842 -0.3937 -0.1974  0.6047
 7014SOL    HW232679   0.470   2.117   2.845 -2.7377 -0.8286 -0.3522
 7015SOL     OW32680   3.237   2.270   3.634  0.2419 -0.2665  0.0717
 7015SOL    HW132681   3.250   2.348   3.688 -0.1118  0.0139 -0.2492
 7015SOL    HW232682   3.168   2.223   3.681 -1.0978  1.3491 -0.2565
 7016SOL     OW32683   3.972   2.009   1.797  0.5266  1.0126 -0.3826
 7016SOL    HW132684   3.917   1.966   1.863  0.6222  0.6403 -0.5483
 7016SOL    HW232685   3.915   2.081   1.770 -0.6833 -0.7510 -2.4882
 7017SOL     OW32686   0.404   3.251   6.763 -0.0631 -0.0547 -0.2248
 7017SOL    HW132687   0.403   3.347   6.764  0.5977 -0.0469  0.7384
 7017SOL    HW232688   0.323   3.225   6.720 -1.1272  3.9390 -0.6700
 7018SOL     OW32689   3.684   4.375   9.105  0.2482  0.1385 -0.3342
 7018SOL    HW132690   3.665   4.373   9.199  1.5257  1.2324 -0.0591
 7018SOL    HW232691   3.779   4.368   9.101  0.4537  1.9860  1.3586
 7019SOL     OW32692   4.391   2.153  12.945 -0.6400  0.2483 -0.2465
 7019SOL    HW132693   4.420   2.143  12.854  0.6061 -0.9169  0.2756
 7019SOL    HW232694   4.422   2.068  12.977 -3.2044 -1.1827 -1.6005
 7020SOL     OW32695   1.301   4.544  17.556  0.3131  0.9929 -0.2033
 7020SOL    HW132696   1.278   4.513  17.468  0.5163  0.5486 -0.1006
 7020SOL    HW232697   1.379   4.598  17.546  1.5623 -0.7082  0.4017
 7021SOL     OW32698   1.885   3.896   7.169 -0.0734 -0.7621 -0.1190
 7021SOL    HW132699   1.824   3.881   7.242  0.5018 -0.6858  0.3748
 7021SOL    HW232700   1.840   3.955   7.108 -1.9027 -0.7945  1.1724
 7022SOL     OW32701   0.892   2.530   3.060 -0.1694  0.2725 -0.8554
 7022SOL    HW132702   0.882   2.434   3.062  0.8646  0.2110  1.0843
 7022SOL    HW232703   0.809   2.549   3.104  0.8365 -0.7016  1.5268
 7023SOL     OW32704   2.985   0.976   2.550  0.8683  0.0169  0.6636
 7023SOL    HW132705   3.025   0.956   2.465 -1.9144  3.8105 -1.5756
 7023SOL    HW232706   2.892   0.984   2.527  0.9742  0.1122  0.2725
 7024SOL     OW32707   0.740   3.847   6.085 -0.4058  0.0982  0.3555
 7024SOL    HW132708   0.782   3.762   6.098 -0.2314  0.1519  0.1441
 7024SOL    HW232709   0.657   3.831   6.040 -0.7642  0.5613  0.8492
 7025SOL     OW32710   0.715   2.848   4.667  0.1173 -0.5319  0.2010
 7025SOL    HW132711   0.669   2.782   4.720  0.5517  0.4700  1.8232
 7025SOL    HW232712   0.767   2.885   4.738 -0.0276 -2.2114  1.1847
 7026SOL     OW32713   0.932   2.939  14.168 -0.2820 -0.2224 -0.1042
 7026SOL    HW132714   0.972   2.946  14.255  1.4813  0.1756 -0.9520
 7026SOL    HW232715   0.922   3.032  14.150 -1.4328  0.0056  1.7362
 7027SOL     OW32716   0.894   2.073   2.771 -0.1079  0.4706  0.2140
 7027SOL    HW132717   0.873   2.021   2.693  0.1560  0.5465  0.0950
 7027SOL    HW232718   0.830   2.043   2.836 -0.2300  0.7346  0.2157
 7028SOL     OW32719   4.576   3.793  15.435  0.6529  0.1318 -0.1690
 7028SOL    HW132720   4.514   3.819  15.503  3.5768  1.5433  1.9352
 7028SOL    HW232721   4.520   3.779  15.359 -1.1150 -0.2955  1.2179
 7029SOL     OW32722   3.128   3.104   5.875 -0.0021  0.3012  0.6517
 7029SOL    HW132723   3.162   3.033   5.821 -2.0960 -0.5571  0.4513
 7029SOL    HW232724   3.204   3.162   5.872  0.8264 -0.8428 -0.5169
 7030SOL     OW32725   0.527   3.778   6.859  0.1262  0.1065  1.0057
 7030SOL    HW132726   0.437   3.744   6.869  0.2357 -0.1497  1.1248
 7030SOL    HW232727   0.519   3.871   6.879 -1.6316  0.5293 -1.5614
 7031SOL     OW32728   1.742   4.426  10.286 -0.4115  0.6596 -0.1036
 7031SOL    HW132729   1.684   4.500  10.271  0.2830  1.6793  2.2655
 7031SOL    HW232730   1.770   4.406  10.197 -1.9719 -1.7312 -0.0954
 7032SOL     OW32731   0.282   4.168   7.951 -0.1106 -0.3434  0.2179
 7032SOL    HW132732   0.245   4.161   8.039 -1.5739  1.4138 -0.2557
 7032SOL    HW232733   0.237   4.103   7.897  0.8475 -0.6272 -0.2354
 7033SOL     OW32734   0.249   1.946   3.628 -0.2189 -0.3092 -0.8709
 7033SOL    HW132735   0.161   1.986   3.631 -0.7740 -1.5413 -0.9117
 7033SOL    HW232736   0.297   2.009   3.682 -2.1855 -1.4021  2.1926
 7034SOL     OW32737   0.126   2.223   5.041  0.5725  0.0758  1.0279
 7034SOL    HW132738   0.159   2.230   5.130 -1.3087 -2.3269  1.9044
 7034SOL    HW232739   0.087   2.136   5.040 -0.9920  0.7763 -0.2797
 7035SOL     OW32740   0.193   3.924   6.670 -0.2357 -0.2346 -0.5287
 7035SOL    HW132741   0.278   3.965   6.687 -0.1964 -0.7091  0.4494
 7035SOL    HW232742   0.239   3.850   6.628  0.0176 -1.1267  1.2919
 7036SOL     OW32743   2.629   4.226  16.032  0.4915  0.0969 -0.4274
 7036SOL    HW132744   2.543   4.186  16.042  1.0071 -0.8339  0.3169
 7036SOL    HW232745   2.626   4.297  16.097 -2.2185 -1.0822  0.7374
 7037SOL     OW32746   0.028   3.735   9.302 -0.0782 -0.6875 -0.4479
 7037SOL    HW132747   4.669   3.753   9.306 -0.2494 -1.1404 -2.2416
 7037SOL    HW232748   0.069   3.820   9.292 -1.7791  0.2166  0.2159
 7038SOL     OW32749   4.620   4.267   8.676  0.0379 -0.4615 -0.3485
 7038SOL    HW132750   4.562   4.280   8.751  0.5810 -0.2239  0.0280
 7038SOL    HW232751   4.617   4.172   8.664 -0.6197 -0.2831 -1.5439
 7039SOL     OW32752   3.460   4.553   5.160  0.1020  0.3328  0.7628
 7039SOL    HW132753   3.534   4.606   5.130  1.1604 -1.5644  0.0137
 7039SOL    HW232754   3.457   4.601   5.242 -1.9160  1.3494  0.0956
 7040SOL     OW32755   1.938   3.906  10.042  0.4704  0.6574 -0.0640
 7040SOL    HW132756   1.875   3.965  10.084  1.4218  1.6135  0.0357
 7040SOL    HW232757   1.986   3.880  10.120 -0.1695  1.3938  0.5902
 7041SOL     OW32758   4.075   4.518   9.600  0.0403  0.0770  0.1487
 7041SOL    HW132759   3.987   4.554   9.586  0.7620  1.5778 -0.6338
 7041SOL    HW232760   4.098   4.493   9.511 -0.0363  0.7948 -0.0747
 7042SOL     OW32761   1.750   0.333  16.916  0.1681 -0.5280 -0.2502
 7042SOL    HW132762   1.716   0.316  16.829  1.1076 -0.1716 -0.6838
 7042SOL    HW232763   1.827   0.389  16.908 -0.5709  0.6696  0.8914
 7043SOL     OW32764   0.827   4.004  14.173 -0.2747 -0.7412 -0.0434
 7043SOL    HW132765   0.856   4.070  14.237  0.1394 -0.9537 -0.0146
 7043SOL    HW232766   0.875   4.025  14.093 -1.1998 -0.1059 -0.4343
 7044SOL     OW32767   1.080   3.397   8.860  0.2061 -0.0842 -0.0420
 7044SOL    HW132768   1.083   3.355   8.774  0.7211  0.2111 -0.1656
 7044SOL    HW232769   1.028   3.329   8.903  1.0710 -0.9729 -0.4002
 7045SOL     OW32770   0.670   1.550   6.538  0.0334 -0.2035 -0.5381
 7045SOL    HW132771   0.740   1.612   6.558  0.0593 -0.5598  0.4684
 7045SOL    HW232772   0.595   1.565   6.595 -2.0004 -1.5678 -2.8669
 7046SOL     OW32773   1.501   2.874  10.272 -0.3722 -0.1456  0.4760
 7046SOL    HW132774   1.546   2.932  10.333 -0.4723 -0.0767  0.4833
 7046SOL    HW232775   1.424   2.916  10.236  1.1280  0.5190 -1.9889
 7047SOL     OW32776   2.046   1.098   3.870  0.0398 -0.1982  0.3506
 7047SOL    HW132777   2.040   1.050   3.787  1.0417  0.4804 -0.1105
 7047SOL    HW232778   2.019   1.184   3.840 -0.5605 -0.9879 -1.3943
 7048SOL     OW32779   4.457   3.013  15.289  0.2578  0.2710  0.0357
 7048SOL    HW132780   4.433   2.926  15.259 -1.5867  1.0326 -0.6487
 7048SOL    HW232781   4.465   3.064  15.208 -1.3184  0.0159 -0.2770
 7049SOL     OW32782   0.166   0.767   8.056  0.0583 -0.2306 -0.1113
 7049SOL    HW132783   0.081   0.809   8.038  0.8705  0.9745 -1.1145
 7049SOL    HW232784   0.223   0.840   8.035 -0.5808  0.1991 -0.3657
 7050SOL     OW32785   1.448   4.288   4.006 -0.2068  0.4431  0.1351
 7050SOL    HW132786   1.492   4.370   3.984 -0.2681  0.6853  0.9127
 7050SOL    HW232787   1.516   4.222   4.021 -1.8976 -1.0229  1.4451
 7051SOL     OW32788   1.045   4.528   9.843  0.1779 -0.2031  0.1789
 7051SOL    HW132789   1.049   4.441   9.804  0.4588 -1.3958  2.8748
 7051SOL    HW232790   0.980   4.512   9.912  0.3199  2.0397  0.8226
 7052SOL     OW32791   4.222   3.388  11.648 -0.8148 -0.5146  0.3604
 7052SOL    HW132792   4.222   3.484  11.648  2.2582 -0.5324  1.2793
 7052SOL    HW232793   4.169   3.367  11.725  0.9729  1.9355  2.2489
 7053SOL     OW32794   2.096   1.322   2.409 -0.6994 -0.2614 -0.1554
 7053SOL    HW132795   2.155   1.247   2.415 -0.6129 -0.1007  1.0123
 7053SOL    HW232796   2.033   1.300   2.341 -0.9080 -0.9803  0.2647
 7054SOL     OW32797   3.474   2.910  13.759 -0.4508  0.0695 -0.0338
 7054SOL    HW132798   3.440   2.824  13.735  0.1445  0.1643 -1.2276
 7054SOL    HW232799   3.523   2.927  13.678  1.8818  0.7781  1.5316
 7055SOL     OW32800   2.003   1.806   6.940  0.1530  0.3442 -0.0358
 7055SOL    HW132801   1.978   1.831   6.851  2.1718  1.8812 -0.1597
 7055SOL    HW232802   2.032   1.716   6.923  2.5728  0.8411  1.5804
 7056SOL     OW32803   0.679   4.179   3.138  0.3347 -0.0609  0.2350
 7056SOL    HW132804   0.711   4.113   3.200 -3.6091  0.0359  2.4527
 7056SOL    HW232805   0.756   4.188   3.083  1.3116  1.1234  1.8042
 7057SOL     OW32806   4.012   3.709   4.748 -0.5572 -0.7190  0.7750
 7057SOL    HW132807   4.026   3.640   4.813  2.2896  0.7079  1.6573
 7057SOL    HW232808   4.000   3.651   4.672 -0.0028  0.2228 -0.0290
 7058SOL     OW32809   2.011   4.664  15.244 -0.2984  0.3446  0.2346
 7058SOL    HW132810   1.968   0.002  15.201  0.5261  0.3117 -0.6286
 7058SOL    HW232811   1.931   4.651  15.295 -0.6500  1.0677 -0.1314
 7059SOL     OW32812   4.115   2.322   3.929  0.5133  0.0879  0.2197
 7059SOL    HW132813   4.188   2.260   3.929 -0.8930 -1.5746 -0.2807
 7059SOL    HW232814   4.087   2.318   4.021 -0.5058  2.3612 -0.0065
 7060SOL     OW32815   1.131   4.728   3.480  0.3761  0.0715 -0.2569
 7060SOL    HW132816   1.086   0.076   3.499  1.6150  0.5015  0.7931
 7060SOL    HW232817   1.184   4.735   3.559 -0.2746 -0.3635  0.2099
 7061SOL     OW32818   3.271   0.831  15.968 -0.3039  0.6206  0.1611
 7061SOL    HW132819   3.234   0.846  15.881  2.2386 -0.6164 -1.1555
 7061SOL    HW232820   3.211   0.894  16.008  1.5990  3.1469 -0.9628
 7062SOL     OW32821   2.035   3.925   6.541 -0.1301  0.3693 -0.3948
 7062SOL    HW132822   2.041   3.994   6.607  3.9490  0.2303 -0.5922
 7062SOL    HW232823   1.991   3.852   6.583  2.6294 -0.9245  0.2654
 7063SOL     OW32824   2.952   1.794  16.273 -0.2030  0.3916  0.0883
 7063SOL    HW132825   2.875   1.812  16.219 -0.2401 -0.8411 -0.2904
 7063SOL    HW232826   3.016   1.757  16.212  1.5315  1.6788  1.1354
 7064SOL     OW32827   0.989   2.975   9.674 -0.0228 -0.3965 -0.1356
 7064SOL    HW132828   1.011   2.908   9.609 -0.1174 -0.9765  0.4381
 7064SOL    HW232829   0.913   2.942   9.721  0.5836  0.7374  1.6478
 7065SOL     OW32830   3.827   1.464   6.679  0.3396  0.6761 -0.1226
 7065SOL    HW132831   3.753   1.438   6.624  0.5711  0.7707 -0.4791
 7065SOL    HW232832   3.791   1.522   6.747  1.1164  0.9388  0.0705
 7066SOL     OW32833   1.763   0.621   7.600 -0.7009 -0.5233 -0.8589
 7066SOL    HW132834   1.683   0.622   7.653 -0.2070 -1.3773 -0.0927
 7066SOL    HW232835   1.788   0.531   7.579 -1.6072 -0.3576 -2.6522
 7067SOL     OW32836   3.201   0.586   6.082  0.1246 -0.5148  0.5268
 7067SOL    HW132837   3.215   0.526   6.156  1.5248  0.5771  1.1529
 7067SOL    HW232838   3.289   0.621   6.067  0.2898 -1.6339 -1.1575
 7068SOL     OW32839   0.312   2.155  11.881 -0.9365 -0.3033  0.0089
 7068SOL    HW132840   0.236   2.138  11.825 -1.3781 -1.1097  0.8584
 7068SOL    HW232841   0.302   2.250  11.875  3.1839  0.2080  1.0968
 7069SOL     OW32842   2.281   1.671   4.518 -0.1531  0.2292 -0.5496
 7069SOL    HW132843   2.271   1.765   4.507 -0.9131  0.4950  2.7400
 7069SOL    HW232844   2.374   1.661   4.539  0.6055  3.5217 -2.4047
 7070SOL     OW32845   2.652   2.150   9.723 -0.0690 -0.1793  0.0991
 7070SOL    HW132846   2.650   2.056   9.743 -0.8133 -0.2172 -0.1710
 7070SOL    HW232847   2.732   2.154   9.670  0.7463 -2.6849  1.1489
 7071SOL     OW32848   0.290   0.976   9.570  0.1827  0.2281  0.0616
 7071SOL    HW132849   0.362   1.037   9.585  1.7703 -1.2842 -1.4751
 7071SOL    HW232850   0.228   1.008   9.635 -0.5182 -0.4276 -0.2797
 7072SOL     OW32851   2.796   2.958  16.530 -0.0313  0.1066  0.8086
 7072SOL    HW132852   2.787   2.973  16.435  0.1177  0.6636  0.8865
 7072SOL    HW232853   2.708   2.943  16.564 -0.8264  3.4173  0.1879
 7073SOL     OW32854   3.116   1.005   1.999 -0.1086  0.4842 -0.0569
 7073SOL    HW132855   3.101   1.009   1.904 -1.4206  1.8574  0.2118
 7073SOL    HW232856   3.175   1.079   2.008  0.0177  0.4554 -0.6421
 7074SOL     OW32857   2.197   3.700   8.885 -0.3402 -0.2401  0.4319
 7074SOL    HW132858   2.151   3.743   8.958 -1.8462 -1.6079  0.2945
 7074SOL    HW232859   2.287   3.724   8.907  0.2096 -1.4498 -0.4801
 7075SOL     OW32860   1.307   2.343  16.368 -0.6595 -0.4873  0.3312
 7075SOL    HW132861   1.336   2.285  16.439  2.0584  0.1820 -0.2344
 7075SOL    HW232862   1.328   2.292  16.289 -0.5509 -1.0143  0.6982
 7076SOL     OW32863   3.064   1.516   2.397  0.0641  0.1654  0.3121
 7076SOL    HW132864   3.040   1.435   2.353  0.3695  1.9752 -3.2383
 7076SOL    HW232865   3.150   1.535   2.358  0.1683  0.3844  0.6451
 7077SOL     OW32866   3.895   0.539  12.599  0.1176 -0.1728  0.2941
 7077SOL    HW132867   3.874   0.489  12.677  0.6599 -1.4436 -0.3745
 7077SOL    HW232868   3.875   0.486  12.521 -1.3111 -0.0189  0.5620
 7078SOL     OW32869   0.113   2.882   7.444  0.2672 -0.3097 -0.2016
 7078SOL    HW132870   0.204   2.905   7.464  0.0969 -0.8633  1.2306
 7078SOL    HW232871   0.090   2.934   7.368 -0.7028 -3.5395 -2.1361
 7079SOL     OW32872   1.029   2.076   2.172  0.3652 -0.1881 -0.3436
 7079SOL    HW132873   1.069   1.995   2.203  0.1969 -0.1607 -0.0534
 7079SOL    HW232874   0.963   2.035   2.116  0.3215 -0.6938  0.0821
 7080SOL     OW32875   1.017   2.425   0.884  0.2447 -0.6624  0.0100
 7080SOL    HW132876   1.085   2.474   0.838 -0.1084  0.8917  1.1703
 7080SOL    HW232877   0.985   2.495   0.941  3.6157  1.2524 -0.4408
 7081SOL     OW32878   0.105   1.348   4.921 -0.2759  0.0024  0.3977
 7081SOL    HW132879   0.129   1.258   4.944  1.1956  0.3025  0.0833
 7081SOL    HW232880   0.095   1.337   4.827  0.3497 -0.0173  0.3335
 7082SOL     OW32881   3.487   0.849  15.608  0.3071  0.0716  0.1083
 7082SOL    HW132882   3.455   0.803  15.530 -0.4502  0.0450  0.4346
 7082SOL    HW232883   3.407   0.835  15.657 -0.7346  0.8041 -1.3786
 7083SOL     OW32884   4.398   4.424   5.471  0.1108  0.0686 -0.5858
 7083SOL    HW132885   4.471   4.486   5.468  0.4363 -0.3823 -1.9993
 7083SOL    HW232886   4.324   4.476   5.500  0.7328  0.1081  0.9695
 7084SOL     OW32887   4.232   1.501   3.970 -0.0768  0.2159  0.2649
 7084SOL    HW132888   4.316   1.481   3.929 -0.2389  1.1043 -0.5100
 7084SOL    HW232889   4.198   1.570   3.912 -2.2533 -0.3053  0.9307
 7085SOL     OW32890   1.002   0.276   9.779 -0.6071  0.1130 -0.5345
 7085SOL    HW132891   1.030   0.354   9.828  0.4944 -1.5717  1.4861
 7085SOL    HW232892   1.058   0.207   9.814 -0.6979  0.0122 -0.5869
 7086SOL     OW32893   1.568   2.253   7.892  0.5805  0.6558 -0.3537
 7086SOL    HW132894   1.539   2.244   7.983 -0.3951  1.7286 -0.5630
 7086SOL    HW232895   1.488   2.275   7.843  1.0223 -1.8836 -2.2596
 7087SOL     OW32896   2.883   0.465  13.914 -0.7412  0.4112  0.6266
 7087SOL    HW132897   2.883   0.551  13.957 -2.3298  1.0988 -0.7231
 7087SOL    HW232898   2.913   0.502  13.831 -1.2488  1.6993  1.0039
 7088SOL     OW32899   4.068   3.489  12.658 -0.0449  0.1362 -0.6750
 7088SOL    HW132900   4.140   3.469  12.598  0.4002  1.4561 -0.5728
 7088SOL    HW232901   4.087   3.432  12.733 -0.5303  1.3242  0.3533
 7089SOL     OW32902   4.547   4.332  16.329  0.4082  0.1249  0.0243
 7089SOL    HW132903   4.553   4.304  16.420  2.2862 -1.8287 -0.7078
 7089SOL    HW232904   4.539   4.248  16.283 -0.1717 -0.0328  0.4215
 7090SOL     OW32905   1.371   2.208   3.202  0.0573  0.1372 -0.4060
 7090SOL    HW132906   1.367   2.284   3.143  1.5222 -0.7020 -1.5945
 7090SOL    HW232907   1.291   2.162   3.178 -0.3272  0.2558  0.6606
 7091SOL     OW32908   2.593   2.938   3.939  0.0162 -0.0687  0.0616
 7091SOL    HW132909   2.504   2.971   3.923  0.6207  2.4889  2.0186
 7091SOL    HW232910   2.647   2.993   3.882 -0.2213 -1.1288 -1.1911
 7092SOL     OW32911   2.108   3.972   0.781 -0.4234 -0.1144 -0.0010
 7092SOL    HW132912   2.124   4.024   0.702  0.9235 -0.0181  0.3215
 7092SOL    HW232913   2.180   3.909   0.772 -0.6534 -0.1247 -1.7360
 7093SOL     OW32914   0.384   0.086   1.916  0.2845 -0.3256  0.4452
 7093SOL    HW132915   0.289   0.087   1.927 -0.0630  1.6338 -2.6458
 7093SOL    HW232916   0.387   0.086   1.820  0.3368  0.3641  0.4466
 7094SOL     OW32917   0.963   1.231  13.311 -0.3220 -0.5125 -0.2758
 7094SOL    HW132918   1.008   1.311  13.338  1.4821 -0.2896 -3.9157
 7094SOL    HW232919   1.016   1.211  13.234 -0.3060  2.0309 -0.9233
 7095SOL     OW32920   1.035   1.242   4.970 -0.1210  0.3739 -0.2366
 7095SOL    HW132921   1.004   1.307   5.033 -0.1153 -0.0476  0.2013
 7095SOL    HW232922   0.988   1.160   4.983  3.2267 -1.5854 -0.2736
 7096SOL     OW32923   4.403   2.292   0.423 -0.4216 -0.2188  0.0920
 7096SOL    HW132924   4.485   2.244   0.409 -0.7674 -0.7041 -0.2674
 7096SOL    HW232925   4.345   2.216   0.421  0.8384 -1.2791  2.5872
 7097SOL     OW32926   4.575   2.381   2.721  0.2662  0.4343  0.4851
 7097SOL    HW132927   4.568   2.354   2.629 -0.0542  1.4379  0.2085
 7097SOL    HW232928   4.640   2.452   2.720  0.1830  0.5230  1.3877
 7098SOL     OW32929   1.233   2.761  17.234  0.0981  0.6561 -0.2960
 7098SOL    HW132930   1.264   2.852  17.227 -2.5426  1.6449  0.6981
 7098SOL    HW232931   1.149   2.769  17.188 -1.3649 -5.6708  1.3264
 7099SOL     OW32932   0.326   0.869   6.444  0.2659 -0.2893 -0.3691
 7099SOL    HW132933   0.300   0.779   6.424  0.9448 -0.7109  0.6870
 7099SOL    HW232934   0.237   0.904   6.449  0.1982 -0.7081  1.1393
 7100SOL     OW32935   2.980   2.742   5.178 -0.1683 -0.1030 -0.5394
 7100SOL    HW132936   2.941   2.676   5.237  0.1039  0.4249  0.2359
 7100SOL    HW232937   2.910   2.798   5.145 -2.1469 -2.0870  0.2523
 7101SOL     OW32938   0.858   0.464   9.351 -0.7827 -0.0470 -0.4621
 7101SOL    HW132939   0.927   0.411   9.390 -0.7501  0.8166  0.6685
 7101SOL    HW232940   0.894   0.550   9.371  0.3988 -0.5857 -0.2934
 7102SOL     OW32941   1.508   3.615   7.443 -0.1005 -0.3109  0.0038
 7102SOL    HW132942   1.455   3.597   7.520  0.5350 -1.1029  0.2619
 7102SOL    HW232943   1.495   3.538   7.388  0.5094 -0.1713 -0.3322
 7103SOL     OW32944   0.089   1.105  15.099 -0.2788 -0.2412 -0.3177
 7103SOL    HW132945   0.168   1.102  15.152 -0.9134  0.0659  0.6351
 7103SOL    HW232946   0.114   1.144  15.015 -2.0175 -1.1949 -1.2936
 7104SOL     OW32947   0.693   2.650  14.389 -0.3849 -0.2393 -0.1866
 7104SOL    HW132948   0.709   2.560  14.359  2.0582  0.0256  0.2844
 7104SOL    HW232949   0.782   2.681  14.407 -1.1369  1.4970  0.5209
 7105SOL     OW32950   3.281   1.422  10.442  0.3946 -0.5069 -0.5273
 7105SOL    HW132951   3.339   1.489  10.405 -0.5591  0.4383 -0.2901
 7105SOL    HW232952   3.315   1.431  10.531 -0.0961  2.6300 -0.6424
 7106SOL     OW32953   1.840   2.268   4.980 -0.2224 -0.1881 -0.4608
 7106SOL    HW132954   1.771   2.223   5.030 -0.5576 -0.9576 -1.6309
 7106SOL    HW232955   1.874   2.332   5.043 -0.3715  0.0420 -0.6160
 7107SOL     OW32956   2.959   1.669   5.729  0.2031 -0.0631 -0.5319
 7107SOL    HW132957   2.893   1.723   5.687  0.1533 -0.3891 -0.8686
 7107SOL    HW232958   2.913   1.586   5.734  0.4488 -0.2717 -1.7700
 7108SOL     OW32959   3.462   1.481   2.895 -0.1742  0.9353  0.2753
 7108SOL    HW132960   3.452   1.499   2.988  2.3075 -2.0730  1.1055
 7108SOL    HW232961   3.427   1.392   2.889 -1.5303  1.4661  0.3728
 7109SOL     OW32962   2.695   3.784  10.887  0.4212  0.5778  0.2881
 7109SOL    HW132963   2.742   3.702  10.905 -1.3226  0.4498  4.1613
 7109SOL    HW232964   2.683   3.814  10.977  3.1507 -0.1396  0.8878
 7110SOL     OW32965   3.326   3.085   2.544  0.0139 -1.0049 -0.1328
 7110SOL    HW132966   3.276   3.023   2.597  0.1566 -0.4510  0.6486
 7110SOL    HW232967   3.367   3.032   2.476  0.1985  0.1558 -0.9302
 7111SOL     OW32968   3.655   1.542   2.708 -0.4511  0.6355  0.2752
 7111SOL    HW132969   3.716   1.578   2.772  0.9496  1.1014 -1.3328
 7111SOL    HW232970   3.583   1.508   2.762 -1.8817  0.0359 -2.0241
 7112SOL     OW32971   0.160   0.047   6.132  0.6817 -0.0716  0.6550
 7112SOL    HW132972   0.138   0.095   6.212 -1.4654  0.3845 -0.2098
 7112SOL    HW232973   0.108   4.702   6.132 -2.1496  1.7637  1.8263
 7113SOL     OW32974   4.003   2.419   3.235 -0.3170  0.1776 -0.2495
 7113SOL    HW132975   3.994   2.514   3.246  2.1799  0.4210 -0.4840
 7113SOL    HW232976   3.921   2.379   3.264  0.7967 -1.9391 -0.0580
 7114SOL     OW32977   3.247   1.185  14.723  0.1778 -0.1692  0.2257
 7114SOL    HW132978   3.283   1.247  14.660 -0.1928  0.4222  0.5948
 7114SOL    HW232979   3.277   1.109  14.673  2.7367  0.4253  0.8922
 7115SOL     OW32980   2.555   4.532  17.100 -0.2790  0.2316 -0.8454
 7115SOL    HW132981   2.633   4.477  17.092 -0.6729 -0.3433 -0.7961
 7115SOL    HW232982   2.553   4.558  17.192  1.3029 -1.2544 -0.3917
 7116SOL     OW32983   3.608   3.605   4.549 -0.0370 -0.5880  0.1979
 7116SOL    HW132984   3.567   3.655   4.619  1.6193  0.0567  0.7321
 7116SOL    HW232985   3.621   3.526   4.601 -1.9806 -1.1331 -0.1752
 7117SOL     OW32986   2.386   3.670   8.041  0.2411 -0.2123  0.2068
 7117SOL    HW132987   2.348   3.587   8.067  1.0638 -0.0685  1.8997
 7117SOL    HW232988   2.312   3.730   8.047 -0.5836 -1.2291  0.0006
 7118SOL     OW32989   4.406   2.829   9.708 -0.0896  0.1131  0.1308
 7118SOL    HW132990   4.388   2.900   9.646  1.2718  1.5828  1.4513
 7118SOL    HW232991   4.345   2.773   9.660 -1.2788 -0.4560  2.3215
 7119SOL     OW32992   3.711   3.301   1.212 -0.1054 -0.1499  0.0740
 7119SOL    HW132993   3.705   3.312   1.307  0.7909  0.8754  0.0139
 7119SOL    HW232994   3.656   3.223   1.203  0.7986 -0.7909  0.1737
 7120SOL     OW32995   3.068   3.404   5.007 -0.0056 -0.1411  0.0620
 7120SOL    HW132996   2.995   3.448   4.964  0.8765  1.0991 -0.1635
 7120SOL    HW232997   3.144   3.451   4.974  0.3916 -0.2318  0.8493
 7121SOL     OW32998   2.419   0.630   1.159 -0.3196  0.2677 -0.9397
 7121SOL    HW132999   2.434   0.694   1.089  1.1341  0.9784  0.0205
 7121SOL    HW233000   2.393   0.559   1.100 -0.5047  0.2887 -0.8831
 7122SOL     OW33001   4.043   4.630  11.585  0.3245  0.2360  0.0139
 7122SOL    HW133002   4.046   4.535  11.573 -2.2584  0.1927 -0.3649
 7122SOL    HW233003   4.133   4.658  11.601 -0.0309  0.4676  1.5643
 7123SOL     OW33004   3.209   2.771  15.251 -0.6097  0.1726  0.1921
 7123SOL    HW133005   3.171   2.849  15.291  1.1726  0.5838  1.0786
 7123SOL    HW233006   3.159   2.754  15.171 -0.0580  0.4060 -0.1955
 7124SOL     OW33007   4.541   1.773  17.407 -0.8632 -0.0887  0.1508
 7124SOL    HW133008   4.453   1.748  17.379 -0.6863 -0.0824 -0.4111
 7124SOL    HW233009   4.535   1.862  17.443  4.9918  0.3255  0.1126
 7125SOL     OW33010   3.530   3.387  11.810 -0.4505  0.5342  0.8184
 7125SOL    HW133011   3.617   3.409  11.845  0.3485  0.5122 -1.1876
 7125SOL    HW233012   3.528   3.293  11.828  1.9035  0.0510 -1.4537
 7126SOL     OW33013   1.209   4.113  15.413 -0.2133  0.0444 -0.0766
 7126SOL    HW133014   1.288   4.065  15.387 -0.5063 -1.5896  2.0504
 7126SOL    HW233015   1.252   4.167  15.479  0.7726  0.7399 -1.3067
 7127SOL     OW33016   4.021   0.764   6.898 -0.0231 -0.0180 -0.2659
 7127SOL    HW133017   4.006   0.747   6.805 -0.4686  0.1006 -0.2147
 7127SOL    HW233018   3.963   0.840   6.906 -0.0512 -0.1070  0.3962
 7128SOL     OW33019   3.726   2.592   8.093 -0.1099  0.7210  0.4495
 7128SOL    HW133020   3.763   2.678   8.075 -0.3710  0.1707 -2.6111
 7128SOL    HW233021   3.793   2.556   8.151 -0.6228  0.0288  0.6211
 7129SOL     OW33022   2.563   0.785  14.821 -0.0756 -0.5507 -0.0501
 7129SOL    HW133023   2.489   0.818  14.771  0.5033 -0.8184 -1.0927
 7129SOL    HW233024   2.532   0.706  14.864  0.6985  1.0561  3.4587
 7130SOL     OW33025   4.110   3.356   2.764 -0.6220 -0.4321  0.1375
 7130SOL    HW133026   4.171   3.300   2.716 -0.3944  0.6107 -0.8068
 7130SOL    HW233027   4.047   3.376   2.694 -0.5077 -0.4802  0.0211
 7131SOL     OW33028   2.258   2.834  12.470  0.4046 -0.1341 -0.1562
 7131SOL    HW133029   2.279   2.844  12.377  0.9969 -0.0565 -0.0156
 7131SOL    HW233030   2.179   2.888  12.470 -0.5802 -1.5591 -0.0442
 7132SOL     OW33031   2.765   1.456   2.754 -0.0267 -0.2097 -0.3111
 7132SOL    HW133032   2.712   1.436   2.677 -1.1674 -1.4214  0.7762
 7132SOL    HW233033   2.762   1.551   2.753 -2.0043 -0.2881 -1.9518
 7133SOL     OW33034   0.214   1.271  14.910 -0.1277  0.2057 -0.5938
 7133SOL    HW133035   0.253   1.220  14.839 -0.0129 -1.5215  0.7136
 7133SOL    HW233036   0.290   1.256  14.967 -1.4078 -1.0329  0.7814
 7134SOL     OW33037   1.086   2.147   9.557  0.1350  0.2774  0.4615
 7134SOL    HW133038   1.164   2.093   9.570  0.9241  0.6977 -2.4519
 7134SOL    HW233039   1.117   2.196   9.481  1.0800 -1.2463 -0.1446
 7135SOL     OW33040   3.668   0.377   2.271 -0.1427 -0.0841  0.1150
 7135SOL    HW133041   3.727   0.342   2.338 -0.0717  1.2946  0.7501
 7135SOL    HW233042   3.717   0.441   2.219  2.4909 -2.7623 -0.7386
 7136SOL     OW33043   2.171   4.477   6.416 -0.2034  0.2265 -0.2906
 7136SOL    HW133044   2.196   4.385   6.406  1.3951  0.7893 -1.5200
 7136SOL    HW233045   2.239   4.516   6.471 -0.6607  1.8867 -0.8701
 7137SOL     OW33046   3.692   3.981   8.280 -0.0190  0.4518  0.0675
 7137SOL    HW133047   3.695   3.943   8.368 -1.3513  0.5706  0.1699
 7137SOL    HW233048   3.695   4.072   8.308 -1.2193  0.5206 -0.0269
 7138SOL     OW33049   0.825   0.192   1.360 -0.0266 -0.5138  0.2063
 7138SOL    HW133050   0.900   0.200   1.300  1.0122  4.1426  2.0874
 7138SOL    HW233051   0.769   0.148   1.296  1.9874  0.0485 -1.9535
 7139SOL     OW33052   0.456   1.465   6.832 -0.4577  0.2062  0.0927
 7139SOL    HW133053   0.410   1.418   6.901 -1.1296  2.2676  1.0451
 7139SOL    HW233054   0.399   1.447   6.757 -1.3621  2.1885  0.2996
 7140SOL     OW33055   2.335   3.583   4.477  0.5669 -0.4658  0.2686
 7140SOL    HW133056   2.336   3.499   4.432  2.2578 -0.5618  0.4651
 7140SOL    HW233057   2.324   3.551   4.567 -0.2287 -0.6498  0.1074
 7141SOL     OW33058   2.844   1.719   4.142  0.4298  0.8586 -0.5941
 7141SOL    HW133059   2.780   1.781   4.176  1.6811  2.5884 -1.3878
 7141SOL    HW233060   2.910   1.717   4.211  2.0925  3.4683 -2.1132
 7142SOL     OW33061   2.454   3.865   5.871  0.3529  0.6505 -0.3776
 7142SOL    HW133062   2.468   3.880   5.777  0.3217  1.7090 -0.2106
 7142SOL    HW233063   2.541   3.836   5.897 -0.1384 -1.5429 -1.1161
 7143SOL     OW33064   3.295   2.111   1.835  0.3515 -0.4719  0.2033
 7143SOL    HW133065   3.250   2.032   1.804  2.8860 -0.7357 -2.7735
 7143SOL    HW233066   3.244   2.129   1.914 -1.2097 -1.1257 -0.6329
 7144SOL     OW33067   3.925   0.944   8.256 -0.7772  0.2441  0.4698
 7144SOL    HW133068   3.931   0.857   8.294 -0.8770  0.8239  1.7851
 7144SOL    HW233069   3.917   1.001   8.333 -0.3524 -1.2822  1.6271
 7145SOL     OW33070   4.268   0.281   9.457  0.4067 -0.0271  0.0243
 7145SOL    HW133071   4.199   0.229   9.498  0.8692 -1.3259 -0.8530
 7145SOL    HW233072   4.229   0.294   9.371  1.9385 -0.9254 -0.7988
 7146SOL     OW33073   4.327   3.730   2.517  0.3079  0.3947 -0.3955
 7146SOL    HW133074   4.388   3.802   2.529  2.1629 -1.5032  1.6559
 7146SOL    HW233075   4.244   3.765   2.551 -0.5720 -0.4992 -1.5795
 7147SOL     OW33076   1.595   2.644   6.291 -0.2341 -0.4591 -0.1771
 7147SOL    HW133077   1.591   2.683   6.378  0.0330 -1.9517  0.4879
 7147SOL    HW233078   1.591   2.721   6.234 -2.2371 -0.1174  0.4202
 7148SOL     OW33079   3.965   0.680   8.316 -0.1189 -0.6178 -0.1255
 7148SOL    HW133080   4.049   0.635   8.328 -0.2986 -0.4401  1.7252
 7148SOL    HW233081   3.933   0.678   8.406 -1.7385 -1.2024 -0.7066
 7149SOL     OW33082   2.738   2.289  10.803 -0.6686 -0.1671  0.1623
 7149SOL    HW133083   2.688   2.354  10.853  0.6651 -1.7996  3.5841
 7149SOL    HW233084   2.828   2.312  10.827 -0.3794  0.3435 -1.3767
 7150SOL     OW33085   3.987   0.108   5.623 -0.0100  0.1468 -0.3825
 7150SOL    HW133086   4.069   0.103   5.672 -0.1274 -0.2319 -0.2272
 7150SOL    HW233087   3.927   0.115   5.697  1.4581  1.4022  0.6948
 7151SOL     OW33088   3.762   2.408   5.599  0.1601 -0.0474  0.0432
 7151SOL    HW133089   3.788   2.432   5.510  1.7148 -0.5600  0.3576
 7151SOL    HW233090   3.760   2.313   5.583 -2.4621 -0.0933  0.7033
 7152SOL     OW33091   0.812   1.668   2.649  0.1653  0.2335  0.5443
 7152SOL    HW133092   0.825   1.682   2.742  1.3043 -1.2009  0.6081
 7152SOL    HW233093   0.724   1.701   2.634 -0.0161  0.5237  2.2887
 7153SOL     OW33094   1.556   3.166   3.450 -0.1875  0.1805  0.0788
 7153SOL    HW133095   1.615   3.106   3.496  0.4706 -0.9797 -2.2465
 7153SOL    HW233096   1.486   3.169   3.516 -0.2556 -0.4577  0.0421
 7154SOL     OW33097   1.026   4.055  12.264  0.1720  0.2425 -0.1684
 7154SOL    HW133098   1.030   3.977  12.318 -1.3111 -0.1743 -0.6627
 7154SOL    HW233099   0.938   4.047  12.226  1.6316 -1.6555 -3.0899
 7155SOL     OW33100   0.280   2.559   4.984 -0.6051 -0.2489 -0.4402
 7155SOL    HW133101   0.364   2.588   5.018 -1.1405  0.7137  0.0630
 7155SOL    HW233102   0.247   2.640   4.946 -0.0303 -0.4719 -1.4280
 7156SOL     OW33103   1.363   2.692  13.430 -0.2023  0.2101 -0.9930
 7156SOL    HW133104   1.430   2.723  13.369 -0.8112  1.1219 -1.1931
 7156SOL    HW233105   1.403   2.606  13.444  0.5969  1.4980  4.4295
 7157SOL     OW33106   1.088   1.575   8.863 -0.0498 -0.2380 -0.0034
 7157SOL    HW133107   1.122   1.655   8.904  0.3252  0.2838 -1.3037
 7157SOL    HW233108   1.004   1.605   8.827  0.6353  0.7579 -0.7970
 7158SOL     OW33109   1.981   1.001   7.661 -0.2546  0.3213 -0.1824
 7158SOL    HW133110   2.049   1.048   7.613 -1.4250  1.6686 -0.5186
 7158SOL    HW233111   1.968   1.068   7.728  2.9003  1.5167 -0.7794
 7159SOL     OW33112   1.759   4.559   8.333  0.3312 -0.2791  0.4771
 7159SOL    HW133113   1.667   4.583   8.331  0.4427  0.0130 -1.1625
 7159SOL    HW233114   1.808   4.640   8.344  0.3416 -0.1734 -0.3456
 7160SOL     OW33115   3.791   1.702   7.806  0.4067  0.5874  0.3072
 7160SOL    HW133116   3.865   1.707   7.866 -0.3621  2.7926  1.0933
 7160SOL    HW233117   3.790   1.607   7.796  1.5931  0.5415  0.6455
 7161SOL     OW33118   2.223   1.439   5.905  0.6991 -0.2387 -0.4894
 7161SOL    HW133119   2.197   1.508   5.966  2.3042  0.2059 -0.3023
 7161SOL    HW233120   2.159   1.465   5.838  0.3662 -1.4731 -0.6532
 7162SOL     OW33121   4.404   0.245   7.616 -0.7137  0.2955 -0.1328
 7162SOL    HW133122   4.456   0.263   7.537  1.7192 -2.8547  0.7617
 7162SOL    HW233123   4.465   0.196   7.671 -1.3607  0.9975  1.2091
 7163SOL     OW33124   1.724   1.261   6.875 -0.1147  0.6552  0.2812
 7163SOL    HW133125   1.813   1.237   6.899 -0.1440 -1.0120 -1.3307
 7163SOL    HW233126   1.737   1.281   6.783 -1.5309 -1.7163 -0.4414
 7164SOL     OW33127   0.080   0.063   3.207  0.1757 -0.2769 -0.0548
 7164SOL    HW133128   4.727   0.030   3.193  0.0958 -0.6938  1.3619
 7164SOL    HW233129   0.074   0.157   3.193  0.5172 -0.1235  0.8061
 7165SOL     OW33130   1.431   4.286   2.937  0.1062 -0.0735  0.2459
 7165SOL    HW133131   1.404   4.307   2.848  0.6624  0.5195  0.2213
 7165SOL    HW233132   1.516   4.330   2.944  0.6654 -0.6029 -3.3064
 7166SOL     OW33133   3.123   3.103   0.195 -0.1967 -0.0994 -0.3296
 7166SOL    HW133134   3.168   3.039   0.249  2.4479  1.8544 -0.1825
 7166SOL    HW233135   3.034   3.072   0.208 -1.0043  2.4024  0.2415
 7167SOL     OW33136   2.805   3.071   5.473 -0.2661 -0.4811  0.4795
 7167SOL    HW133137   2.841   3.099   5.557 -1.3685 -0.5542  0.9747
 7167SOL    HW233138   2.890   3.051   5.434 -0.7034 -0.0036 -0.7303
 7168SOL     OW33139   1.947   1.823   2.071 -0.5082  0.5434 -0.1557
 7168SOL    HW133140   1.875   1.769   2.104 -1.7814  0.6348 -2.8682
 7168SOL    HW233141   1.890   1.888   2.032 -0.2413  1.2851  0.6967
 7169SOL     OW33142   3.743   4.454   7.073  0.1084 -0.1958 -0.3912
 7169SOL    HW133143   3.701   4.370   7.088 -0.0931 -0.2438 -1.2399
 7169SOL    HW233144   3.707   4.465   6.985  0.7105 -0.6606 -0.6993
 7170SOL     OW33145   1.623   1.486  16.823 -0.4002 -0.5982  0.3527
 7170SOL    HW133146   1.608   1.515  16.913  0.0033  2.2112 -0.4610
 7170SOL    HW233147   1.701   1.431  16.832  1.2788  1.5282 -0.8500
 7171SOL     OW33148   2.021   4.127  16.617  0.0924  0.0845  0.2431
 7171SOL    HW133149   2.089   4.095  16.676  1.2938  1.2183 -0.5230
 7171SOL    HW233150   2.058   4.209  16.585  0.5648 -0.0161  0.5243
 7172SOL     OW33151   0.934   1.006   2.200  0.1844 -0.1931  0.6441
 7172SOL    HW133152   0.850   0.993   2.245  0.2015 -1.7340  0.2368
 7172SOL    HW233153   0.942   1.099   2.181 -1.7543 -0.0882  0.3116
 7173SOL     OW33154   0.445   2.581   4.639 -0.0020  0.3077  0.2538
 7173SOL    HW133155   0.355   2.586   4.607 -0.3885 -0.1551  1.2416
 7173SOL    HW233156   0.453   2.661   4.690  0.4788  1.1605 -1.1716
 7174SOL     OW33157   0.626   0.426   5.430  0.0319  0.6934 -0.3794
 7174SOL    HW133158   0.652   0.362   5.496 -0.6316 -0.4125 -1.2008
 7174SOL    HW233159   0.629   0.511   5.474  1.9611 -1.5142  3.7036
 7175SOL     OW33160   1.668   1.437  15.161 -0.3953  0.0434  0.1583
 7175SOL    HW133161   1.681   1.529  15.137  1.7437 -0.2412  0.1663
 7175SOL    HW233162   1.577   1.432  15.189 -0.3060 -0.5126  0.3449
 7176SOL     OW33163   3.578   2.330   8.123 -0.4383 -0.3035 -0.1742
 7176SOL    HW133164   3.624   2.378   8.054 -0.9023  0.2086 -0.1317
 7176SOL    HW233165   3.647   2.316   8.188 -1.2209 -1.2930  0.4445
 7177SOL     OW33166   2.585   4.555  15.659  0.0520 -0.1281  0.1784
 7177SOL    HW133167   2.523   4.559  15.587  1.0282  1.4341 -0.5542
 7177SOL    HW233168   2.621   4.641  15.640 -0.3818 -0.5257 -2.3968
 7178SOL     OW33169   3.593   0.340   7.373  0.4021  0.0825  0.2851
 7178SOL    HW133170   3.666   0.328   7.312 -1.5187 -0.8317 -1.8382
 7178SOL    HW233171   3.630   0.390   7.446  2.0233 -0.0717 -0.4405
 7179SOL     OW33172   4.360   3.033  13.668  0.0223 -0.2757 -0.0561
 7179SOL    HW133173   4.380   3.053  13.577 -0.3932  1.5554  0.2486
 7179SOL    HW233174   4.275   3.078  13.670  0.4606  0.5039  1.5459
 7180SOL     OW33175   2.739   4.339   7.164  0.5736  0.2881  0.3818
 7180SOL    HW133176   2.810   4.280   7.187  1.3736  0.2485 -2.1483
 7180SOL    HW233177   2.660   4.293   7.192  0.5285 -0.4187 -0.9021
 7181SOL     OW33178   4.654   1.402  14.738 -0.6099  0.0467  0.3902
 7181SOL    HW133179   4.647   1.474  14.801 -0.4750  1.2155 -0.9166
 7181SOL    HW233180   4.652   1.448  14.654 -1.4909 -1.5161 -0.4574
 7182SOL     OW33181   4.407   1.699   3.732  0.6227  0.0877 -0.6227
 7182SOL    HW133182   4.322   1.724   3.770  0.7696  1.1371 -1.0103
 7182SOL    HW233183   4.405   1.734   3.643  1.1221 -1.6891 -1.3343
 7183SOL     OW33184   0.729   2.976   9.354 -0.1986  0.1574  0.2477
 7183SOL    HW133185   0.778   2.959   9.273  0.2827 -0.3793  0.6450
 7183SOL    HW233186   0.645   2.938   9.331  0.9200 -2.1230 -0.1599
 7184SOL     OW33187   0.465   2.736   1.951  0.6255 -0.7019  0.3047
 7184SOL    HW133188   0.379   2.752   1.988  0.2801  0.1416 -0.8512
 7184SOL    HW233189   0.505   2.823   1.944 -1.1771  0.0618 -0.4012
 7185SOL     OW33190   0.990   0.997  15.719 -1.0641  0.4441 -0.5572
 7185SOL    HW133191   0.920   0.992  15.653 -0.0896 -0.4877 -1.5228
 7185SOL    HW233192   1.057   1.037  15.665 -0.2992  0.4032  0.3692
 7186SOL     OW33193   0.717   4.718  12.175  0.2677  0.3100 -0.7131
 7186SOL    HW133194   0.809   0.010  12.179 -0.6222  3.0760  0.8314
 7186SOL    HW233195   0.686   4.735  12.264 -0.7875 -1.1824 -0.8087
 7187SOL     OW33196   3.440   1.651   8.260 -0.0272  0.4070 -0.0131
 7187SOL    HW133197   3.371   1.638   8.326 -0.7387 -2.6065 -1.3493
 7187SOL    HW233198   3.400   1.720   8.208 -0.3940 -1.2240 -1.9198
 7188SOL     OW33199   1.944   3.099  13.453  0.3175 -0.4948 -0.1450
 7188SOL    HW133200   2.038   3.099  13.433  0.4589  1.4124  0.5161
 7188SOL    HW233201   1.911   3.174  13.405  1.3284 -0.0153 -0.0950
 7189SOL     OW33202   3.509   3.280   2.253 -0.4311 -0.2984 -0.5828
 7189SOL    HW133203   3.576   3.296   2.186 -1.5042 -2.0581 -2.0850
 7189SOL    HW233204   3.517   3.187   2.275  0.9543 -0.2106 -0.6973
 7190SOL     OW33205   2.956   3.234   8.272  0.3215 -0.6484 -0.4692
 7190SOL    HW133206   2.984   3.292   8.202 -0.9653  1.1295  0.4847
 7190SOL    HW233207   2.895   3.286   8.325  1.7771 -0.5699  1.1152
 7191SOL     OW33208   4.018   2.930  10.055 -0.5841 -0.3732  0.3955
 7191SOL    HW133209   4.025   2.953  10.148  0.0139 -0.1589  0.3011
 7191SOL    HW233210   4.102   2.885  10.043 -0.4869  0.5407 -2.3573
 7192SOL     OW33211   0.608   2.407   9.343 -0.0231  0.3703 -0.9594
 7192SOL    HW133212   0.587   2.342   9.410 -1.4414  0.7478 -1.0323
 7192SOL    HW233213   0.610   2.343   9.272 -1.5052 -0.0028 -0.6531
 7193SOL     OW33214   2.937   4.375  10.001 -0.3919  0.0770 -0.9256
 7193SOL    HW133215   2.994   4.373   9.924 -0.4208 -1.3633 -0.9058
 7193SOL    HW233216   2.864   4.323   9.968 -0.2885 -1.0903  0.7068
 7194SOL     OW33217   1.647   2.203  17.006  0.0352  1.0775 -0.0867
 7194SOL    HW133218   1.628   2.206  17.100  2.3383  1.5316  0.3580
 7194SOL    HW233219   1.563   2.232  16.970  0.6877  1.2421 -1.4733
 7195SOL     OW33220   4.664   1.695   7.699 -0.8361 -0.1904  0.1232
 7195SOL    HW133221   4.621   1.712   7.615  0.6926 -0.4408 -0.7158
 7195SOL    HW233222   4.619   1.753   7.760  1.8727  1.6488  0.3953
 7196SOL     OW33223   2.349   0.461   0.958  0.7862 -0.1605 -0.4823
 7196SOL    HW133224   2.272   0.421   0.918 -1.5865  2.2062  1.7220
 7196SOL    HW233225   2.374   0.513   0.882  0.1860 -2.0900 -1.9921
 7197SOL     OW33226   3.991   3.713   5.417  0.6370  0.1225 -0.0550
 7197SOL    HW133227   4.007   3.680   5.329 -1.5509 -1.5869  0.2000
 7197SOL    HW233228   4.009   3.807   5.407 -0.8094  0.4179  0.0528
 7198SOL     OW33229   3.096   3.626  11.359 -0.5455 -0.1566  0.4950
 7198SOL    HW133230   3.151   3.682  11.305 -2.2311  1.1026  0.0808
 7198SOL    HW233231   3.156   3.640  11.433  0.2321 -0.3760 -0.0982
 7199SOL     OW33232   4.259   0.621   6.119  0.1944  0.3967 -0.1970
 7199SOL    HW133233   4.232   0.567   6.194  2.4588 -2.2655 -1.3133
 7199SOL    HW233234   4.337   0.669   6.147 -0.4465  0.9108  0.7075
 7200SOL     OW33235   1.838   1.692  12.613  0.2088  0.1716 -0.0111
 7200SOL    HW133236   1.840   1.605  12.653  1.0307  1.0030  1.7375
 7200SOL    HW233237   1.913   1.692  12.553 -2.2622  0.2774 -3.1354
 7201SOL     OW33238   0.901   1.897   4.403 -0.2861 -0.1993  0.3738
 7201SOL    HW133239   0.871   1.807   4.388  2.1045 -0.9150 -0.0685
 7201SOL    HW233240   0.966   1.906   4.334  2.4142  1.6924  3.2125
 7202SOL     OW33241   4.405   3.605   4.650  0.2294  0.1514 -0.2098
 7202SOL    HW133242   4.458   3.609   4.571  0.6466 -1.0430  0.0122
 7202SOL    HW233243   4.376   3.694   4.669 -0.1485  0.1344 -0.6989
 7203SOL     OW33244   1.395   0.351   2.591 -0.0951 -0.3618  0.1478
 7203SOL    HW133245   1.381   0.443   2.611 -1.1022 -0.3615 -0.5856
 7203SOL    HW233246   1.475   0.332   2.640  0.8154 -0.5978 -1.4319
 7204SOL     OW33247   1.225   2.507  15.452 -0.1213 -0.2354 -0.1661
 7204SOL    HW133248   1.205   2.598  15.434  1.3605  0.1164  0.0146
 7204SOL    HW233249   1.321   2.509  15.450 -0.1680  0.5361 -1.2759
 7205SOL     OW33250   3.966   1.381   6.445  0.5064  0.4337  0.8360
 7205SOL    HW133251   3.908   1.427   6.385  0.6450 -1.6495 -0.8631
 7205SOL    HW233252   3.939   1.415   6.531 -0.1232 -0.8719  1.1448
 7206SOL     OW33253   2.693   1.009  13.452 -0.1663 -0.6773  0.0035
 7206SOL    HW133254   2.717   1.018  13.360  0.0547 -1.4921 -0.0250
 7206SOL    HW233255   2.698   1.098  13.486 -0.1166 -0.6027 -0.2010
 7207SOL     OW33256   3.294   4.403  16.202  0.2105  0.0821  0.1128
 7207SOL    HW133257   3.276   4.492  16.233  0.1858 -0.0148  0.3710
 7207SOL    HW233258   3.212   4.388  16.154 -0.6404  1.5151  1.1048
 7208SOL     OW33259   0.371   3.277   4.076 -0.0287 -0.5667  0.0169
 7208SOL    HW133260   0.382   3.221   3.999  2.9254 -2.5169  1.8341
 7208SOL    HW233261   0.415   3.220   4.140 -0.4919 -4.8790 -3.4907
 7209SOL     OW33262   2.298   3.500  15.941 -0.1890  0.7549 -0.8288
 7209SOL    HW133263   2.210   3.516  15.976 -0.0674 -1.9613  0.7416
 7209SOL    HW233264   2.288   3.511  15.847 -0.6791  1.1389 -0.7370
 7210SOL     OW33265   2.176   1.265  12.229  0.2653 -0.0615 -0.3657
 7210SOL    HW133266   2.136   1.224  12.306 -1.2179  3.3241  0.6554
 7210SOL    HW233267   2.105   1.262  12.165 -0.0035 -1.7693  0.0051
 7211SOL     OW33268   2.632   4.223  17.014 -0.1220 -0.3822 -0.6444
 7211SOL    HW133269   2.694   4.278  17.063 -1.2688 -0.7280  1.1952
 7211SOL    HW233270   2.683   4.162  16.960  2.0807 -0.3182  1.3549
 7212SOL     OW33271   1.729   0.055   6.477  0.7482 -0.1160  0.0359
 7212SOL    HW133272   1.719   0.069   6.571 -1.8449 -0.8553 -0.1186
 7212SOL    HW233273   1.795   4.721   6.477 -2.2405 -3.0110 -1.6877
 7213SOL     OW33274   0.952   0.909   3.333  0.1605  0.1211  0.3890
 7213SOL    HW133275   1.041   0.918   3.297  0.1275  0.0880  0.2985
 7213SOL    HW233276   0.962   0.944   3.421 -0.3778  2.0350 -0.3127
 7214SOL     OW33277   2.534   1.116   4.309  0.1941 -0.3769  0.5842
 7214SOL    HW133278   2.586   1.118   4.229 -0.1563  1.4502  0.4209
 7214SOL    HW233279   2.529   1.210   4.328  0.7076 -0.3905  0.7921
 7215SOL     OW33280   1.853   0.936   7.081  0.5866 -0.0436 -0.3031
 7215SOL    HW133281   1.782   0.887   7.121 -0.5084  0.1588 -2.0014
 7215SOL    HW233282   1.815   1.010   7.033  0.5920  1.0607  1.3798
 7216SOL     OW33283   0.862   0.437   3.416  0.0544 -0.5181 -0.0470
 7216SOL    HW133284   0.789   0.499   3.418 -3.8032 -4.9780 -2.3955
 7216SOL    HW233285   0.905   0.468   3.336 -1.0465  0.1215 -0.3950
 7217SOL     OW33286   3.128   4.189   7.361  0.3352  0.1536 -0.4132
 7217SOL    HW133287   3.074   4.265   7.381  2.1487  1.6756 -1.2902
 7217SOL    HW233288   3.214   4.226   7.343  0.0372  0.8077 -0.4781
 7218SOL     OW33289   3.140   0.554   9.961  0.2480 -0.0633  0.2181
 7218SOL    HW133290   3.090   0.636   9.960 -1.1132 -0.8959  0.6863
 7218SOL    HW233291   3.068   0.496   9.935  0.6581 -0.0044 -1.0435
 7219SOL     OW33292   3.636   4.016   9.089  0.7040 -0.3401 -1.2671
 7219SOL    HW133293   3.718   4.042   9.131  0.2841 -1.5919  0.3312
 7219SOL    HW233294   3.644   3.921   9.081  3.8708 -0.0322 -1.9303
 7220SOL     OW33295   2.424   0.513   2.797  0.3459 -0.1512  0.5084
 7220SOL    HW133296   2.474   0.550   2.869  1.0826 -1.9435  0.9403
 7220SOL    HW233297   2.492   0.503   2.731  1.8718 -0.2012  2.0924
 7221SOL     OW33298   3.556   1.849   7.760  0.2485  0.0730  0.2681
 7221SOL    HW133299   3.634   1.798   7.783 -0.3070 -0.4843  0.9273
 7221SOL    HW233300   3.527   1.776   7.704  1.4324  0.7607 -1.2415
 7222SOL     OW33301   2.508   1.475   5.939 -0.6150  0.1330 -0.1418
 7222SOL    HW133302   2.442   1.428   5.888 -1.2850 -1.0889  1.8562
 7222SOL    HW233303   2.519   1.550   5.881 -0.3216  0.3426  0.1901
 7223SOL     OW33304   3.052   3.083   9.820  0.8069 -0.4171 -0.7795
 7223SOL    HW133305   3.070   2.991   9.840  0.0085 -0.0397  1.6225
 7223SOL    HW233306   3.077   3.089   9.728 -0.3058  0.5559 -1.0241
 7224SOL     OW33307   3.759   1.885   8.525  0.4452 -0.4088 -0.2374
 7224SOL    HW133308   3.775   1.850   8.438  2.1458  1.0799 -0.5395
 7224SOL    HW233309   3.682   1.836   8.552 -0.3843  0.6419 -0.7089
 7225SOL     OW33310   4.731   1.248   8.260  0.7178  0.1769  0.2620
 7225SOL    HW133311   0.039   1.311   8.319  1.0169  0.0564  0.1687
 7225SOL    HW233312   0.065   1.234   8.196 -0.2052  0.0184 -0.7066
 7226SOL     OW33313   2.642   1.435  14.568 -0.1331  0.0150  0.4279
 7226SOL    HW133314   2.698   1.492  14.516 -0.0310  0.8096  1.3990
 7226SOL    HW233315   2.700   1.360  14.582 -0.0614 -0.1896 -0.9990
 7227SOL     OW33316   1.790   3.793  11.399 -0.3544 -0.4338 -0.7189
 7227SOL    HW133317   1.880   3.763  11.414  0.8484  3.9185  0.9486
 7227SOL    HW233318   1.763   3.825  11.485 -1.6706 -0.6817 -1.0528
 7228SOL     OW33319   3.210   3.480   5.685 -0.2092  0.6325 -0.0411
 7228SOL    HW133320   3.244   3.439   5.764  3.2540  3.5072 -0.0582
 7228SOL    HW233321   3.227   3.416   5.616 -0.4069  0.9325 -0.3645
 7229SOL     OW33322   0.778   1.550   2.305  0.0725  0.1270 -0.1832
 7229SOL    HW133323   0.803   1.505   2.386 -0.7151  1.7595  0.9753
 7229SOL    HW233324   0.746   1.473   2.258  0.5511  1.0629 -2.0367
 7230SOL     OW33325   0.045   0.934   7.502  0.8836  0.2297 -0.4646
 7230SOL    HW133326   0.031   0.981   7.420 -0.1782 -1.1366 -1.0497
 7230SOL    HW233327   4.701   0.882   7.506  2.4325 -2.1826 -1.1361
 7231SOL     OW33328   4.475   1.767   8.121 -0.6822  0.2243 -0.4157
 7231SOL    HW133329   4.393   1.721   8.143 -0.7009  0.3375 -0.2418
 7231SOL    HW233330   4.487   1.811   8.205  0.1589 -0.0164 -0.4137
 7232SOL     OW33331   2.646   0.504   1.584 -0.0217 -0.0968  0.0209
 7232SOL    HW133332   2.562   0.494   1.539 -0.7719  0.7749  1.1899
 7232SOL    HW233333   2.707   0.538   1.518 -2.2891  2.5515 -0.7202
 7233SOL     OW33334   2.768   1.892  12.539  0.2703 -0.6532  0.9238
 7233SOL    HW133335   2.743   1.837  12.614  0.8269 -0.7558  1.0382
 7233SOL    HW233336   2.716   1.968  12.562 -0.4448 -0.0942 -2.6303
 7234SOL     OW33337   2.175   4.252  14.558  0.6308 -0.0699  0.0247
 7234SOL    HW133338   2.259   4.210  14.539  0.4384 -0.0432 -0.8877
 7234SOL    HW233339   2.108   4.185  14.547  1.9121 -1.3407 -0.0511
 7235SOL     OW33340   3.488   3.122   1.470  0.6778 -0.2298  0.1536
 7235SOL    HW133341   3.582   3.111   1.451  0.3381 -2.4157 -0.3408
 7235SOL    HW233342   3.450   3.071   1.398 -1.4262  0.7117  0.6172
 7236SOL     OW33343   2.041   4.192   8.265  0.2234 -0.2724  0.1785
 7236SOL    HW133344   2.030   4.146   8.349  0.5577 -0.8215 -0.0844
 7236SOL    HW233345   1.976   4.150   8.209  1.0481  0.7355 -1.5382
 7237SOL     OW33346   4.184   1.803  13.366  0.0136 -0.4702  0.0205
 7237SOL    HW133347   4.182   1.848  13.451  2.4757 -0.6379  0.1608
 7237SOL    HW233348   4.279   1.809  13.356 -0.0675  2.6145  1.0883
 7238SOL     OW33349   0.425   3.254   6.114 -0.2345  0.1426  0.6279
 7238SOL    HW133350   0.349   3.301   6.080 -0.3853 -0.8109 -0.3441
 7238SOL    HW233351   0.471   3.240   6.031 -0.9410  0.3728  0.1921
 7239SOL     OW33352   4.001   2.227  14.416  0.7667 -0.5936  0.1629
 7239SOL    HW133353   3.993   2.142  14.373  1.4182 -0.4133 -0.3167
 7239SOL    HW233354   4.096   2.228  14.429  0.6124 -0.3494  1.2763
 7240SOL     OW33355   2.202   0.664   5.475  0.2685  0.3513  0.2729
 7240SOL    HW133356   2.216   0.757   5.497  0.8932  0.4239 -0.4350
 7240SOL    HW233357   2.231   0.619   5.554  1.0662  0.2905 -0.0541
 7241SOL     OW33358   0.522   0.989   2.559 -0.0271 -0.0372  0.0096
 7241SOL    HW133359   0.585   0.938   2.609  0.3944  1.4196  0.9706
 7241SOL    HW233360   0.448   0.930   2.572 -0.0208  0.0959  0.6352
 7242SOL     OW33361   2.965   2.657   4.646  0.4286  0.0900  0.4846
 7242SOL    HW133362   2.879   2.694   4.625  0.8185 -0.0120 -1.3357
 7242SOL    HW233363   2.936   2.566   4.641 -1.4161  0.6971  0.2528
 7243SOL     OW33364   3.039   0.113  14.234  0.4058 -0.0204 -0.3961
 7243SOL    HW133365   3.050   0.034  14.181 -1.6072 -1.1856  0.8883
 7243SOL    HW233366   2.950   0.126  14.199  0.0398 -1.4350  0.0118
 7244SOL     OW33367   1.900   0.074   7.323  0.3621  0.2729  0.0010
 7244SOL    HW133368   1.902   0.040   7.412 -1.6946  0.7021  0.2067
 7244SOL    HW233369   1.818   0.044   7.284  0.6184 -1.4334  0.8000
 7245SOL     OW33370   3.277   4.388   5.095 -0.2472 -0.3640 -0.4821
 7245SOL    HW133371   3.257   4.378   5.188  1.6768 -0.3090 -0.0710
 7245SOL    HW233372   3.340   4.460   5.100 -0.2201 -0.5256  1.4834
 7246SOL     OW33373   3.217   1.146   8.217  0.2763  0.0779  0.2989
 7246SOL    HW133374   3.287   1.121   8.277  1.5904 -0.3258 -1.4097
 7246SOL    HW233375   3.155   1.076   8.239  1.0932 -0.9558 -0.7464
 7247SOL     OW33376   3.799   0.856  16.620  0.6706  0.1005  0.3428
 7247SOL    HW133377   3.769   0.938  16.579 -0.2800 -0.1551  0.5168
 7247SOL    HW233378   3.892   0.877  16.626  0.7049  0.2789 -0.7819
 7248SOL     OW33379   1.102   4.100  13.785  0.2861  0.8249 -0.6862
 7248SOL    HW133380   1.086   4.023  13.732 -1.8410 -0.7899  2.3007
 7248SOL    HW233381   1.152   4.053  13.852 -0.8611  0.0595 -0.3809
 7249SOL     OW33382   2.787   4.067  10.808 -0.0630  0.0278  0.0180
 7249SOL    HW133383   2.708   4.028  10.845  2.6330 -6.5316 -1.2244
 7249SOL    HW233384   2.743   4.140  10.764  1.7648  1.4231  0.4751
 7250SOL     OW33385   1.347   3.941   5.724 -0.3800  0.2658 -0.4695
 7250SOL    HW133386   1.320   3.865   5.672  0.6550  0.5268 -1.3902
 7250SOL    HW233387   1.441   3.946   5.705 -0.1275 -2.6150  0.0356
 7251SOL     OW33388   4.640   0.395  10.626  0.5177  0.1854  0.2611
 7251SOL    HW133389   4.676   0.363  10.544  1.1307 -2.0486  1.4006
 7251SOL    HW233390   4.694   0.346  10.687 -0.2928 -2.3208 -1.0383
 7252SOL     OW33391   1.604   2.258   1.145 -0.1690  0.4570 -0.0914
 7252SOL    HW133392   1.527   2.221   1.190 -1.6368  1.0494 -2.0882
 7252SOL    HW233393   1.617   2.344   1.185 -0.2818  0.0177  0.8925
 7253SOL     OW33394   4.508   1.738   1.046 -0.4367  0.3478  0.4930
 7253SOL    HW133395   4.588   1.791   1.049 -0.3429  0.3474 -2.4530
 7253SOL    HW233396   4.472   1.764   0.962  1.0568 -0.5288 -0.4201
 7254SOL     OW33397   0.077   1.064  17.036  0.3536 -0.4226 -0.1232
 7254SOL    HW133398   0.112   1.125  16.971 -0.4459  1.0044  0.7840
 7254SOL    HW233399   0.045   0.987  16.989  0.0993 -0.5402  0.2429
 7255SOL     OW33400   3.159   3.322  12.585  0.1260  0.4583  0.3498
 7255SOL    HW133401   3.239   3.343  12.537  2.8819 -2.9842  3.4052
 7255SOL    HW233402   3.122   3.410  12.584  2.0843  1.2496 -1.7041
 7256SOL     OW33403   3.657   2.338   2.140  0.2432 -0.4766  0.0046
 7256SOL    HW133404   3.735   2.284   2.130 -0.3802 -1.4995  0.6277
 7256SOL    HW233405   3.597   2.285   2.193 -0.0265 -0.0644  0.1046
 7257SOL     OW33406   2.988   4.168   8.252  0.2984  0.1305  0.3067
 7257SOL    HW133407   2.997   4.197   8.343 -0.9316  1.3189  0.0466
 7257SOL    HW233408   2.976   4.074   8.264  0.7081 -0.0804 -0.9346
 7258SOL     OW33409   0.801   2.992   4.886 -0.2220 -0.2234  0.1127
 7258SOL    HW133410   0.710   3.015   4.899 -0.0261  1.6169 -1.8695
 7258SOL    HW233411   0.823   2.977   4.978  0.5002 -1.5893 -0.2747
 7259SOL     OW33412   2.972   1.445   7.445  1.0119 -0.4240  0.8247
 7259SOL    HW133413   3.036   1.415   7.380  0.6785 -1.0544  0.7917
 7259SOL    HW233414   3.025   1.419   7.521 -0.2263  1.2006  2.2409
 7260SOL     OW33415   0.538   2.532  16.391 -0.0459 -0.4219  0.2448
 7260SOL    HW133416   0.563   2.488  16.472 -0.0653 -0.2013  0.3706
 7260SOL    HW233417   0.464   2.584  16.423 -1.3994 -0.6139 -2.5651
 7261SOL     OW33418   1.941   4.531  11.821  0.1758 -0.2489  0.2888
 7261SOL    HW133419   1.875   4.481  11.774  0.3615 -1.0219  0.8582
 7261SOL    HW233420   2.001   4.542  11.746 -0.9549  0.9197 -0.4487
 7262SOL     OW33421   4.731   1.016  10.234 -0.2959  0.5135  0.1868
 7262SOL    HW133422   0.032   1.082  10.175  0.4560  0.1539  0.2527
 7262SOL    HW233423   4.638   1.027  10.212 -0.7407  0.1784  1.9290
 7263SOL     OW33424   2.869   3.016   8.935 -0.4799  0.1486  0.4998
 7263SOL    HW133425   2.815   3.052   8.865 -1.7841 -0.5879  1.1100
 7263SOL    HW233426   2.956   3.055   8.928 -0.5108  0.1443  0.0929
 7264SOL     OW33427   0.877   0.766   4.611  0.2888 -0.3251  0.4040
 7264SOL    HW133428   0.839   0.686   4.575  0.1014 -0.2019  0.3266
 7264SOL    HW233429   0.969   0.743   4.620 -0.0468 -2.3469 -1.2732
 7265SOL     OW33430   3.856   2.541  14.397  0.5858  0.0928 -0.7560
 7265SOL    HW133431   3.900   2.509  14.476  0.3180 -0.7436 -0.9365
 7265SOL    HW233432   3.923   2.531  14.329  1.0358 -1.2443 -0.1225
 7266SOL     OW33433   2.845   1.312   8.874  0.2064 -0.0095 -0.1999
 7266SOL    HW133434   2.766   1.266   8.903 -1.1274  1.7689 -1.0413
 7266SOL    HW233435   2.821   1.396   8.913  2.4480 -0.2159  1.5617
 7267SOL     OW33436   1.237   0.519  15.594 -0.1707  0.2324  1.1623
 7267SOL    HW133437   1.198   0.605  15.610 -0.5788  0.1294  0.6998
 7267SOL    HW233438   1.202   0.472  15.669 -0.6593 -2.1448 -0.5616
 7268SOL     OW33439   1.322   1.524  15.252 -0.1585  0.3798 -0.9553
 7268SOL    HW133440   1.338   1.492  15.163 -3.0779 -1.5009 -0.7888
 7268SOL    HW233441   1.348   1.616  15.247 -2.7396  1.1214 -0.4507
 7269SOL     OW33442   1.162   2.381   5.045 -0.0846 -0.0551  0.2336
 7269SOL    HW133443   1.179   2.338   4.961 -2.2653  1.1691 -0.8343
 7269SOL    HW233444   1.101   2.315   5.078 -1.2239  0.7625 -0.2339
 7270SOL     OW33445   4.642   1.907   6.924  0.2000 -0.7103  0.0113
 7270SOL    HW133446   4.661   1.828   6.974  0.0543  0.5767  2.0812
 7270SOL    HW233447   4.583   1.943   6.990  1.0220 -1.7281  1.3029
 7271SOL     OW33448   4.667   0.576   1.743 -0.0479  0.9151 -0.4486
 7271SOL    HW133449   4.636   0.585   1.833  2.3913  2.2983  0.2677
 7271SOL    HW233450   0.027   0.576   1.753 -0.1438  3.7734  0.5805
 7272SOL     OW33451   0.269   2.426   8.905 -0.0924  0.3178 -0.2715
 7272SOL    HW133452   0.261   2.469   8.819 -0.2467 -2.0440 -1.4332
 7272SOL    HW233453   0.358   2.453   8.929  0.5853 -1.5550 -0.6792
 7273SOL     OW33454   3.108   3.867   4.745 -0.2535  0.1091  0.5016
 7273SOL    HW133455   3.180   3.884   4.684  0.8294  3.0061  2.6184
 7273SOL    HW233456   3.043   3.835   4.682 -0.7539  0.4763  0.8312
 7274SOL     OW33457   3.453   2.155  15.015 -0.3386 -0.4826  0.2191
 7274SOL    HW133458   3.379   2.210  15.041 -0.3622 -2.1497  3.6076
 7274SOL    HW233459   3.521   2.185  15.076  0.8763  1.5102 -2.0795
 7275SOL     OW33460   2.928   4.335  17.435 -0.5256 -0.6535  1.1155
 7275SOL    HW133461   2.857   4.281  17.399  0.4134 -0.7373 -0.6526
 7275SOL    HW233462   2.985   4.258  17.445 -1.3008 -1.1373  1.7723
 7276SOL     OW33463   3.539   0.094   3.349 -0.1001 -0.5017  0.1550
 7276SOL    HW133464   3.634   0.105   3.341 -0.1488  0.8710  1.6367
 7276SOL    HW233465   3.503   0.182   3.356  4.0971  1.2488 -0.5601
 7277SOL     OW33466   3.616   2.798   1.878 -0.0999  0.3201 -0.0811
 7277SOL    HW133467   3.636   2.704   1.880  2.6072  0.9002 -0.0266
 7277SOL    HW233468   3.630   2.815   1.785  2.4232  2.0664  0.6079
 7278SOL     OW33469   0.926   1.015   4.612 -0.1121  0.1237 -0.2024
 7278SOL    HW133470   0.895   0.924   4.605 -3.5334  1.3025 -0.3227
 7278SOL    HW233471   0.898   1.021   4.703  1.1474  2.3605  0.0231
 7279SOL     OW33472   0.961   2.792   9.452 -0.4210 -0.1952  0.5349
 7279SOL    HW133473   0.956   2.875   9.404 -0.6916 -0.4556  0.1169
 7279SOL    HW233474   0.870   2.763   9.452 -0.6068  0.4009  3.0813
 7280SOL     OW33475   1.014   2.977   1.684 -0.5431 -0.0057  0.4395
 7280SOL    HW133476   1.088   2.921   1.707 -1.6069 -2.0482 -1.0525
 7280SOL    HW233477   1.061   3.050   1.645  2.1828 -1.8772  0.2582
 7281SOL     OW33478   2.810   2.219  13.487  0.3403  0.0186  0.3896
 7281SOL    HW133479   2.785   2.148  13.546 -1.0806  0.5701  0.4494
 7281SOL    HW233480   2.769   2.185  13.408 -0.4700  1.5205  0.1762
 7282SOL     OW33481   0.747   3.450  14.906  0.0126 -0.3087  0.9044
 7282SOL    HW133482   0.690   3.392  14.854  2.4954 -0.7968 -1.2487
 7282SOL    HW233483   0.769   3.512  14.836  0.6038 -0.3389  1.0697
 7283SOL     OW33484   1.919   2.366  13.855  0.0713  0.0896 -0.2003
 7283SOL    HW133485   1.921   2.274  13.828  1.8750  0.0978 -0.0602
 7283SOL    HW233486   1.878   2.405  13.777  0.9770  0.0355 -0.6988
 7284SOL     OW33487   4.618   3.925  11.479  0.9918 -0.0921 -0.7670
 7284SOL    HW133488   4.648   4.013  11.460 -1.2002  1.1125  1.2850
 7284SOL    HW233489   4.554   3.922  11.408  1.4312  1.8813 -1.2503
 7285SOL     OW33490   3.128   0.637   5.742 -0.0604  0.3165 -0.0857
 7285SOL    HW133491   3.079   0.588   5.807  2.1214 -0.7263  0.7925
 7285SOL    HW233492   3.207   0.589   5.716 -0.4314  0.5468 -1.6547
 7286SOL     OW33493   4.491   0.657   0.578 -0.4467 -0.1947  0.5675
 7286SOL    HW133494   4.408   0.688   0.541 -0.5480  0.2291  1.1513
 7286SOL    HW233495   4.544   0.724   0.534  1.1479  0.2838  3.2001
 7287SOL     OW33496   2.857   2.955  11.549 -0.6418  0.6046  0.2801
 7287SOL    HW133497   2.872   3.044  11.518  2.1873 -0.1944 -0.6354
 7287SOL    HW233498   2.933   2.916  11.507 -2.0518 -0.5189 -1.2108
 7288SOL     OW33499   1.010   3.545   6.726  0.2454 -0.2108  0.8143
 7288SOL    HW133500   0.925   3.587   6.714  0.9951  1.2639  0.5364
 7288SOL    HW233501   0.997   3.498   6.808  2.7173  1.1553  2.0277
 7289SOL     OW33502   1.903   3.378   2.032  0.0382 -0.4924 -0.3462
 7289SOL    HW133503   1.992   3.357   2.061  0.2187 -1.4487 -1.5990
 7289SOL    HW233504   1.903   3.330   1.949 -0.7479 -0.2151 -0.5016
 7290SOL     OW33505   2.922   3.293   0.975 -0.3631  0.0397 -0.2997
 7290SOL    HW133506   2.839   3.246   0.976  0.2162 -0.9910 -0.0787
 7290SOL    HW233507   2.948   3.250   0.894  0.9917 -0.6242  0.4854
 7291SOL     OW33508   1.572   2.779   6.527  0.4965 -0.0947  0.6139
 7291SOL    HW133509   1.521   2.744   6.600  1.3742  1.9252  2.1697
 7291SOL    HW233510   1.527   2.861   6.510  3.1040  1.1758 -0.0771
 7292SOL     OW33511   3.112   0.052   6.634  0.3129  0.7301  0.4925
 7292SOL    HW133512   3.142   0.054   6.725 -1.4831 -0.9474  1.1144
 7292SOL    HW233513   3.107   4.693   6.622  0.7600  1.1397 -2.7905
 7293SOL     OW33514   3.712   1.865   3.690 -0.1814 -0.3199 -0.4265
 7293SOL    HW133515   3.689   1.873   3.783  1.6323 -0.1919  0.0097
 7293SOL    HW233516   3.786   1.926   3.691  1.4015 -2.2115 -0.6576
 7294SOL     OW33517   3.293   4.516   9.802 -0.0472 -0.2939  0.3290
 7294SOL    HW133518   3.379   4.475   9.799  0.3905  0.5498  1.1974
 7294SOL    HW233519   3.238   4.438   9.798  1.0600 -0.9893 -1.1660
 7295SOL     OW33520   1.779   0.628   3.446 -0.0109 -0.4305 -0.0797
 7295SOL    HW133521   1.765   0.722   3.431 -0.7858 -0.4826  0.3320
 7295SOL    HW233522   1.813   0.611   3.358 -1.0072 -2.3378 -0.0905
 7296SOL     OW33523   2.126   2.118   6.585  0.4717 -0.1242  0.0929
 7296SOL    HW133524   2.039   2.094   6.553  0.7709 -0.2095 -0.6565
 7296SOL    HW233525   2.135   2.196   6.531 -1.0156 -0.6515 -0.9248
 7297SOL     OW33526   2.505   1.909   1.567 -0.3674 -0.0635  0.6806
 7297SOL    HW133527   2.462   1.908   1.652  2.5625  0.3107  2.1688
 7297SOL    HW233528   2.511   2.000   1.536  1.4255 -1.0313 -1.8158
 7298SOL     OW33529   1.141   1.810   2.175 -0.2826  0.6881 -0.3917
 7298SOL    HW133530   1.186   1.781   2.095 -2.3393 -0.5220 -1.1144
 7298SOL    HW233531   1.066   1.751   2.179  0.4772 -0.3328 -1.3568
 7299SOL     OW33532   0.204   1.746   5.404 -0.1069 -0.9549  0.2484
 7299SOL    HW133533   0.198   1.691   5.326 -1.4889  2.6451 -2.1818
 7299SOL    HW233534   0.185   1.678   5.468  0.4269  0.7453  2.2095
 7300SOL     OW33535   2.211   3.012   3.655  0.2703 -0.6006 -0.0027
 7300SOL    HW133536   2.172   3.098   3.641 -0.4978 -0.8583  0.5771
 7300SOL    HW233537   2.201   2.967   3.570  1.3319 -0.4574 -0.1947
 7301SOL     OW33538   0.951   0.819  15.933 -0.9119  0.1977 -0.6537
 7301SOL    HW133539   0.955   0.881  15.860 -0.2381 -0.2258 -0.9709
 7301SOL    HW233540   0.857   0.804  15.946 -0.6635 -0.0760  0.9083
 7302SOL     OW33541   4.148   2.475   9.640 -0.3753 -0.4576  0.3821
 7302SOL    HW133542   4.084   2.437   9.580 -0.3006  0.3092 -0.1823
 7302SOL    HW233543   4.135   2.566   9.615 -0.3626 -0.8990 -1.2400
 7303SOL     OW33544   3.256   2.244   4.077  0.0083  0.1077 -0.3227
 7303SOL    HW133545   3.325   2.271   4.017  0.1228  1.5480  0.4847
 7303SOL    HW233546   3.309   2.233   4.156 -3.5865 -0.6652  1.9995
 7304SOL     OW33547   0.163   3.203   9.275  0.4667  0.8358  0.6429
 7304SOL    HW133548   0.258   3.210   9.283  0.3625  1.8228  1.0522
 7304SOL    HW233549   0.153   3.116   9.235  2.6308  0.6017  0.6086
 7305SOL     OW33550   4.328   1.671  17.232 -0.4892 -0.0035 -0.2828
 7305SOL    HW133551   4.341   1.738  17.165 -1.6661  1.6321  1.1210
 7305SOL    HW233552   4.281   1.604  17.181 -1.1030  0.4822 -0.3474
 7306SOL     OW33553   2.803   0.322   5.614  0.0196 -0.0813  0.4477
 7306SOL    HW133554   2.814   0.409   5.577 -0.4564  0.2262  1.0223
 7306SOL    HW233555   2.726   0.341   5.668  0.6948 -0.9656  1.7361
 7307SOL     OW33556   3.675   3.858   2.257 -0.7059  0.0779 -0.5111
 7307SOL    HW133557   3.631   3.934   2.293  1.3794  0.7760  0.5318
 7307SOL    HW233558   3.601   3.802   2.232 -2.5651  2.4272 -0.2561
 7308SOL     OW33559   1.513   3.610   2.213 -0.5068  0.2871  0.1741
 7308SOL    HW133560   1.443   3.584   2.154 -1.4635  1.7360  0.6575
 7308SOL    HW233561   1.503   3.704   2.232  3.2572  0.5416  0.8679
 7309SOL     OW33562   2.474   4.133   4.539 -0.0101 -0.1259 -0.4521
 7309SOL    HW133563   2.551   4.080   4.523 -0.2169  0.3386 -2.9980
 7309SOL    HW233564   2.489   4.176   4.623  1.5739 -0.5396 -0.5234
 7310SOL     OW33565   1.619   2.151   2.533 -0.1246  0.5850 -0.2268
 7310SOL    HW133566   1.632   2.186   2.621 -3.0228  0.9381  0.0700
 7310SOL    HW233567   1.698   2.097   2.537 -1.4451 -1.1871  1.6357
 7311SOL     OW33568   0.960   3.783   7.327 -0.3860 -0.1494 -0.2997
 7311SOL    HW133569   0.975   3.754   7.237  1.0947 -0.7763  0.1600
 7311SOL    HW233570   0.911   3.708   7.361 -2.5954  1.4322  0.0383
 7312SOL     OW33571   2.618   3.761   2.828 -0.2692 -0.3319 -0.0474
 7312SOL    HW133572   2.560   3.837   2.835  1.1373  0.7662 -0.4676
 7312SOL    HW233573   2.700   3.803   2.853  0.0961  0.6179 -2.8405
 7313SOL     OW33574   2.619   2.436   8.549  0.1266 -0.1004 -0.3567
 7313SOL    HW133575   2.606   2.452   8.455 -1.5797  1.2066  0.0933
 7313SOL    HW233576   2.668   2.516   8.564 -0.7484 -0.1360  2.6713
 7314SOL     OW33577   0.020   2.195   8.087 -0.1608 -0.5817  0.2979
 7314SOL    HW133578   0.110   2.166   8.074 -0.3844 -1.4755  0.7818
 7314SOL    HW233579   4.714   2.175   8.003 -0.0273  1.2058 -0.1899
 7315SOL     OW33580   0.469   0.271  13.226 -0.3665  0.4004 -0.2067
 7315SOL    HW133581   0.485   0.344  13.166  2.0573  0.9913  1.1611
 7315SOL    HW233582   0.551   0.289  13.271  0.3920 -0.6424 -1.1575
 7316SOL     OW33583   0.591   0.885  12.206 -0.3017 -0.4840  0.2128
 7316SOL    HW133584   0.539   0.894  12.286  0.1920  1.0498  0.3586
 7316SOL    HW233585   0.652   0.952  12.235  0.1362 -1.0886  0.6939
 7317SOL     OW33586   0.116   0.891   1.566  0.3242  0.3835  0.1792
 7317SOL    HW133587   0.204   0.915   1.593 -0.3435  1.7833  1.1633
 7317SOL    HW233588   0.079   0.976   1.541  0.1086 -0.0813 -1.0742
 7318SOL     OW33589   3.643   1.488   5.452  0.1151  0.4562 -0.2576
 7318SOL    HW133590   3.649   1.459   5.543 -1.3877 -0.8326 -0.5579
 7318SOL    HW233591   3.578   1.426   5.420  0.0697  0.0680  0.5949
 7319SOL     OW33592   1.929   2.736   2.992  0.4449 -0.2619 -0.4117
 7319SOL    HW133593   1.929   2.643   2.971 -1.8632 -0.4094  0.2472
 7319SOL    HW233594   1.861   2.732   3.060 -0.5874 -0.2994 -1.4413
 7320SOL     OW33595   0.153   1.922   3.912  0.3886 -0.0962 -0.2076
 7320SOL    HW133596   0.134   1.950   4.001 -0.1883  1.7646 -0.9108
 7320SOL    HW233597   0.138   2.003   3.862 -0.4372  0.2427  0.5937
 7321SOL     OW33598   0.669   0.278   2.874  0.1565  0.0308 -1.0286
 7321SOL    HW133599   0.575   0.269   2.860  0.1456 -1.0448 -0.3107
 7321SOL    HW233600   0.686   0.184   2.873 -0.7609 -0.1225 -1.4860
 7322SOL     OW33601   3.728   1.137  17.213 -0.6472 -0.1180 -0.4799
 7322SOL    HW133602   3.652   1.180  17.174  0.1912  0.0152 -1.9613
 7322SOL    HW233603   3.795   1.190  17.169 -0.3887  1.2803  1.5738
 7323SOL     OW33604   2.552   1.739   7.199 -0.1200  0.3044  0.7017
 7323SOL    HW133605   2.640   1.729   7.163 -0.3913 -1.0869  0.4114
 7323SOL    HW233606   2.559   1.666   7.261 -0.2591 -0.5312 -0.2587
 7324SOL     OW33607   4.309   4.068  15.911  0.1723 -0.2610  0.0265
 7324SOL    HW133608   4.256   4.064  15.990  1.0809 -1.7363  0.5575
 7324SOL    HW233609   4.360   4.148  15.923  0.8410 -0.2864 -2.5376
 7325SOL     OW33610   4.473   3.310  16.085 -0.0424 -0.3414 -0.5012
 7325SOL    HW133611   4.527   3.260  16.023  1.5112  0.5351  0.1197
 7325SOL    HW233612   4.385   3.282  16.061  0.7941 -3.2565 -0.2032
 7326SOL     OW33613   3.981   0.808  15.082  0.1767  0.6430 -1.1418
 7326SOL    HW133614   4.043   0.879  15.096 -2.9444  3.0608  0.5151
 7326SOL    HW233615   3.994   0.769  15.168 -0.2796  2.4225 -0.2744
 7327SOL     OW33616   0.464   1.132   9.015  0.0362 -0.3163  0.0469
 7327SOL    HW133617   0.544   1.096   9.053 -1.3961 -3.0167  0.5262
 7327SOL    HW233618   0.400   1.097   9.077  2.0091 -0.8001  1.7868
 7328SOL     OW33619   3.739   2.674   7.250 -0.3652  0.0125  0.2262
 7328SOL    HW133620   3.750   2.579   7.245  0.3428  0.1289 -0.5154
 7328SOL    HW233621   3.653   2.683   7.209 -1.1156 -1.5441  1.4533
 7329SOL     OW33622   3.860   0.687   4.320  0.1193  0.0760  0.2569
 7329SOL    HW133623   3.770   0.657   4.305  0.8114 -2.6259  1.5130
 7329SOL    HW233624   3.909   0.610   4.291  2.3847  1.5636  0.1901
 7330SOL     OW33625   2.102   3.831  10.910 -0.1202 -0.2572 -0.0654
 7330SOL    HW133626   2.104   3.815  10.816 -1.9804  0.6730 -0.2596
 7330SOL    HW233627   2.010   3.836  10.937 -0.1880  1.7621 -0.6251
 7331SOL     OW33628   1.279   0.563  10.427  0.4762 -0.8363  0.0231
 7331SOL    HW133629   1.343   0.627  10.461 -0.8810  1.0259 -0.9346
 7331SOL    HW233630   1.234   0.538  10.508 -2.8749 -0.2474 -1.6812
 7332SOL     OW33631   3.047   1.457   7.734  0.3511 -0.5138  0.5622
 7332SOL    HW133632   2.974   1.405   7.767 -1.3200  2.0368  0.9728
 7332SOL    HW233633   3.003   1.541   7.717  0.6609 -0.2605  1.0223
 7333SOL     OW33634   1.809   4.698  14.833  0.5892  0.2778  0.2810
 7333SOL    HW133635   1.820   4.635  14.905 -0.9882  0.3272  0.5681
 7333SOL    HW233636   1.807   4.640  14.757 -0.1184  0.5443  0.0904
 7334SOL     OW33637   2.018   1.097   3.245  0.0317 -0.1497  0.3809
 7334SOL    HW133638   1.941   1.126   3.198 -0.1208 -0.1781  0.6134
 7334SOL    HW233639   2.044   1.037   3.175 -0.8091 -3.3674  2.7976
 7335SOL     OW33640   2.299   2.388   1.059 -0.0652 -0.4942  0.1006
 7335SOL    HW133641   2.370   2.332   1.091  1.5555  0.8730 -1.0785
 7335SOL    HW233642   2.305   2.443   1.137  1.1696 -0.0172 -0.3244
 7336SOL     OW33643   1.957   2.086   4.360 -0.7101 -0.3286  0.0299
 7336SOL    HW133644   1.929   2.112   4.272  1.9797 -1.8778 -1.2945
 7336SOL    HW233645   1.994   2.171   4.382  0.6572 -1.4860  2.1276
 7337SOL     OW33646   4.597   3.677   0.947 -0.0740  0.2161 -0.4168
 7337SOL    HW133647   4.544   3.598   0.956 -1.1057  0.5807 -3.2475
 7337SOL    HW233648   4.675   3.655   0.896  0.7979  1.5844  0.3221
 7338SOL     OW33649   4.603   3.079   9.162  0.7136 -0.2240 -0.2614
 7338SOL    HW133650   4.632   2.998   9.203  2.2579 -0.3881 -1.6701
 7338SOL    HW233651   4.647   3.062   9.079  0.1116  2.0187 -1.0389
 7339SOL     OW33652   0.975   2.284  14.455  0.2436 -0.3706 -0.3490
 7339SOL    HW133653   0.951   2.194  14.477  0.9431 -0.6746 -0.8469
 7339SOL    HW233654   1.008   2.314  14.539 -2.9539  2.0872  0.0512
 7340SOL     OW33655   2.008   0.377   8.392 -0.3881 -0.9360  0.2281
 7340SOL    HW133656   1.945   0.339   8.330  0.4805  1.6716 -2.2414
 7340SOL    HW233657   1.973   0.352   8.477  1.5690 -0.3651  1.1815
 7341SOL     OW33658   1.938   2.916   1.717 -0.2835 -0.4980 -0.3168
 7341SOL    HW133659   1.947   2.994   1.663 -0.6570 -0.2581 -0.0246
 7341SOL    HW233660   2.020   2.867   1.709 -0.0029 -0.3804  1.6438
 7342SOL     OW33661   2.852   1.750  10.916 -0.2627  0.4809 -0.7519
 7342SOL    HW133662   2.934   1.799  10.919 -1.1679  1.9589 -0.2096
 7342SOL    HW233663   2.876   1.688  10.985 -1.5651 -0.9539 -1.5702
 7343SOL     OW33664   0.316   2.260   9.168 -0.0720  0.0762 -0.2353
 7343SOL    HW133665   0.329   2.353   9.183  1.3616 -0.3449  1.1662
 7343SOL    HW233666   0.391   2.242   9.112 -0.7120  0.4106 -1.1914
 7344SOL     OW33667   0.665   2.042   4.441 -0.1374  0.3458  0.2235
 7344SOL    HW133668   0.607   2.029   4.366  1.2594 -0.1273 -0.7632
 7344SOL    HW233669   0.736   1.982   4.421  1.1246  1.3845  1.6050
 7345SOL     OW33670   3.731   1.274  16.818 -0.4520  0.3038  0.2199
 7345SOL    HW133671   3.692   1.201  16.866 -0.3645  0.2187  0.1614
 7345SOL    HW233672   3.657   1.334  16.820 -2.1801 -1.7768 -1.5355
 7346SOL     OW33673   2.038   4.189  12.000 -0.2330 -0.5937 -0.0909
 7346SOL    HW133674   1.980   4.115  11.979 -0.4101 -0.8039  1.1540
 7346SOL    HW233675   2.058   4.160  12.089 -0.4300  1.5785  0.6746
 7347SOL     OW33676   3.112   3.306  14.582  0.4062 -0.1922  0.0874
 7347SOL    HW133677   3.142   3.309  14.491 -1.8402  0.5973 -0.6153
 7347SOL    HW233678   3.144   3.217  14.601 -0.2503 -0.1703  1.3071
 7348SOL     OW33679   0.860   0.014   5.812  0.0578  0.1841 -0.2127
 7348SOL    HW133680   0.803   4.693   5.760 -0.2825 -0.4454  0.8299
 7348SOL    HW233681   0.805   0.027   5.890  1.7789  0.0420  1.0208
 7349SOL     OW33682   3.070   3.189   4.671  0.0771  0.0921 -0.2556
 7349SOL    HW133683   3.103   3.177   4.760 -0.0855  3.3790  0.2481
 7349SOL    HW233684   2.986   3.231   4.685  0.7826  2.0796 -1.9329
 7350SOL     OW33685   1.729   1.690   6.025  0.0544  0.4805 -0.3514
 7350SOL    HW133686   1.742   1.678   5.931 -1.3050  0.3361 -0.5165
 7350SOL    HW233687   1.740   1.599   6.052 -1.0231  0.6776  0.7409
 7351SOL     OW33688   3.131   1.562   3.614 -0.0897 -0.2717 -0.0711
 7351SOL    HW133689   3.086   1.620   3.554 -3.1585  0.0052  2.5379
 7351SOL    HW233690   3.114   1.599   3.700  1.0320  1.1886 -0.4773
 7352SOL     OW33691   0.477   2.624   6.579 -0.9125  0.3347  0.0970
 7352SOL    HW133692   0.556   2.608   6.529  0.5426  1.0462  2.1560
 7352SOL    HW233693   0.430   2.541   6.571  0.6675 -0.3444 -2.1802
 7353SOL     OW33694   3.746   0.135   4.394  0.0998  0.1779  0.1458
 7353SOL    HW133695   3.812   0.184   4.344  2.0576 -1.2939  1.2911
 7353SOL    HW233696   3.725   0.064   4.334 -0.5478 -0.9589  1.7287
 7354SOL     OW33697   0.248   2.597   4.105  0.3079  0.2012  0.0805
 7354SOL    HW133698   0.316   2.650   4.145 -0.4939  1.1061  0.2359
 7354SOL    HW233699   0.296   2.516   4.087  2.0262  0.9787  1.2358
 7355SOL     OW33700   2.169   2.564   5.250 -0.3673 -0.4328  0.1448
 7355SOL    HW133701   2.260   2.554   5.280  0.2035  0.1304 -1.4029
 7355SOL    HW233702   2.171   2.659   5.239 -1.5474 -0.6950 -2.2997
 7356SOL     OW33703   1.813   4.423  14.939  0.4440  0.2711  0.0227
 7356SOL    HW133704   1.793   4.426  14.846 -1.3937  2.0406  0.4870
 7356SOL    HW233705   1.753   4.351  14.959 -0.2390 -0.0069 -2.9941
 7357SOL     OW33706   4.077   0.737  15.325 -0.3679  0.4590  0.1304
 7357SOL    HW133707   4.105   0.665  15.381 -1.2499 -0.0326 -0.0748
 7357SOL    HW233708   4.116   0.805  15.380 -0.6405 -0.2143  1.1560
 7358SOL     OW33709   2.081   1.360  12.525 -0.5608 -0.0557  0.5397
 7358SOL    HW133710   2.176   1.350  12.525 -0.3575  1.7560 -1.6799
 7358SOL    HW233711   2.070   1.448  12.488  0.2880 -1.1315 -2.2872
 7359SOL     OW33712   2.632   0.476   3.129 -0.1929 -0.3416  0.0588
 7359SOL    HW133713   2.711   0.518   3.164  0.8921 -2.1037 -0.2444
 7359SOL    HW233714   2.576   0.548   3.101  1.7211  1.7379  1.5877
 7360SOL     OW33715   2.188   0.621  13.951 -0.4380 -0.3095  0.0543
 7360SOL    HW133716   2.114   0.619  13.891 -0.1774 -0.5107 -0.2568
 7360SOL    HW233717   2.233   0.537  13.941  0.3318  0.0988  0.0773
 7361SOL     OW33718   1.889   4.279   6.565  0.5406  0.1861 -0.2043
 7361SOL    HW133719   1.894   4.334   6.642  2.9996  0.0476 -0.2594
 7361SOL    HW233720   1.944   4.212   6.605 -0.2471 -1.4126 -1.7810
 7362SOL     OW33721   1.260   4.117   5.977  0.6605 -0.4142 -0.2684
 7362SOL    HW133722   1.232   4.208   5.986 -5.0380 -2.1700  0.2349
 7362SOL    HW233723   1.353   4.111   5.994  0.4118  0.1661  1.2501
 7363SOL     OW33724   0.553   1.468  17.734  0.2047  0.0966  0.3666
 7363SOL    HW133725   0.544   1.562   0.011  0.9940 -0.1923  2.4835
 7363SOL    HW233726   0.470   1.455  17.688  0.1637  1.0027  0.2023
 7364SOL     OW33727   3.875   3.650   4.171 -0.3887  0.5240 -0.1908
 7364SOL    HW133728   3.853   3.696   4.252 -3.6305 -3.3819  1.1533
 7364SOL    HW233729   3.823   3.572   4.192  1.0472 -0.2070  0.6282
 7365SOL     OW33730   0.844   3.424   2.806  0.6328 -0.0775 -0.0383
 7365SOL    HW133731   0.820   3.516   2.813 -2.8798 -1.0370  0.8665
 7365SOL    HW233732   0.786   3.383   2.871 -0.6773 -0.6542 -1.5666
 7366SOL     OW33733   4.257   0.700   9.033  0.1721  0.3253 -0.7677
 7366SOL    HW133734   4.265   0.605   9.026 -0.5438  0.3384 -1.8715
 7366SOL    HW233735   4.178   0.723   9.083  1.9912 -2.2297  3.3050
 7367SOL     OW33736   0.458   1.383   8.161 -0.0580  0.0718 -0.2378
 7367SOL    HW133737   0.395   1.448   8.132 -0.7236 -0.6892 -0.4991
 7367SOL    HW233738   0.478   1.408   8.251  0.5962  1.1008 -0.6707
 7368SOL     OW33739   1.037   4.705   0.903  0.0325 -0.8595 -0.1388
 7368SOL    HW133740   1.015   0.063   0.901  1.0168 -0.6200  0.1773
 7368SOL    HW233741   1.023   4.673   0.814  2.4413 -0.0305 -0.7962
 7369SOL     OW33742   1.407   2.972  15.553 -0.3557 -0.1031 -0.5357
 7369SOL    HW133743   1.484   2.967  15.609 -1.2722 -1.5928  0.5917
 7369SOL    HW233744   1.413   3.058  15.511 -1.3333 -0.1365 -0.7403
 7370SOL     OW33745   0.848   1.911   2.022  0.6485  0.3428  0.0639
 7370SOL    HW133746   0.883   1.961   1.948 -1.7283  0.6564 -0.8428
 7370SOL    HW233747   0.896   1.829   2.007  0.6102  0.2654  0.3716
 7371SOL     OW33748   0.272   0.049   5.486  0.7946 -0.1589  0.2528
 7371SOL    HW133749   0.268   0.136   5.526 -0.1670 -0.2894  0.4437
 7371SOL    HW233750   0.183   0.026   5.458  1.0873 -0.3347 -0.5184
 7372SOL     OW33751   4.066   3.325   1.508 -0.0912 -0.1836 -0.2428
 7372SOL    HW133752   4.122   3.271   1.453 -3.4746 -3.1109 -0.8291
 7372SOL    HW233753   4.065   3.393   1.441 -0.0001 -1.0527 -1.1348
 7373SOL     OW33754   2.409   0.632  16.545 -0.1894 -0.6935 -0.0804
 7373SOL    HW133755   2.453   0.675  16.472 -1.9650  1.6291  0.2345
 7373SOL    HW233756   2.371   0.557  16.499 -0.5536 -0.0090 -0.8796
 7374SOL     OW33757   4.412   2.644   4.577  0.3440 -0.2399 -0.3250
 7374SOL    HW133758   4.362   2.564   4.560  1.5879 -0.7707 -1.5138
 7374SOL    HW233759   4.376   2.666   4.663  1.3142  1.9111 -0.4670
 7375SOL     OW33760   2.733   3.903   5.482 -0.8441  0.6066 -0.5164
 7375SOL    HW133761   2.755   3.825   5.532 -0.6662  0.4705 -0.8037
 7375SOL    HW233762   2.692   3.856   5.409 -2.0355 -1.5261  1.5268
 7376SOL     OW33763   3.538   3.146   5.219  0.4064 -0.3283 -0.2259
 7376SOL    HW133764   3.505   3.147   5.129 -1.0814  0.1849  0.3345
 7376SOL    HW233765   3.578   3.233   5.225 -0.6960  0.3520 -2.6925
 7377SOL     OW33766   0.109   2.222   8.407 -0.0731  0.1100 -0.1969
 7377SOL    HW133767   0.121   2.317   8.415  1.2090 -0.0298 -0.5231
 7377SOL    HW233768   0.022   2.211   8.446 -0.3159  1.0927 -0.4488
 7378SOL     OW33769   3.953   3.909   3.258  0.0452  0.3837  0.1572
 7378SOL    HW133770   3.993   3.994   3.278 -1.8898  1.5247 -0.8094
 7378SOL    HW233771   3.994   3.892   3.173 -1.9064  2.6115 -1.2208
 7379SOL     OW33772   3.393   1.013   8.799  0.0846 -0.5518 -0.3356
 7379SOL    HW133773   3.346   0.940   8.758  1.1813 -1.2845 -0.2733
 7379SOL    HW233774   3.449   1.045   8.728 -0.2306 -1.9259 -1.1866
 7380SOL     OW33775   4.209   4.332   8.078 -0.4443 -0.8198 -0.4594
 7380SOL    HW133776   4.224   4.376   8.161 -1.2556 -2.6660  0.6487
 7380SOL    HW233777   4.239   4.399   8.016 -0.7969 -0.0108  0.2560
 7381SOL     OW33778   1.545   1.857   4.405 -0.0591  0.0060 -0.2310
 7381SOL    HW133779   1.461   1.880   4.445  0.6371  0.6834  0.8377
 7381SOL    HW233780   1.518   1.788   4.345 -0.1235 -0.5284  0.4187
 7382SOL     OW33781   1.397   3.385   3.626  0.4140  0.2211  0.6040
 7382SOL    HW133782   1.411   3.304   3.675 -1.0171 -1.2538 -1.4335
 7382SOL    HW233783   1.312   3.368   3.586 -0.4987 -0.2328  2.7647
 7383SOL     OW33784   4.570   2.841   9.285  0.4285  0.0964  0.7754
 7383SOL    HW133785   4.502   2.805   9.341  0.1520 -0.9122 -0.2180
 7383SOL    HW233786   4.584   2.780   9.213 -3.3688  1.2539 -0.9079
 7384SOL     OW33787   0.023   0.509   7.547 -0.5240  0.4493 -0.8462
 7384SOL    HW133788   4.665   0.501   7.526 -0.9521 -0.4177  1.2832
 7384SOL    HW233789   0.019   0.496   7.642 -0.4760  2.1084 -0.6247
 7385SOL     OW33790   3.021   2.496   8.257 -0.1720  0.5118 -0.1090
 7385SOL    HW133791   3.099   2.490   8.202 -0.1417 -5.1076  0.5419
 7385SOL    HW233792   3.073   2.503   8.336 -1.1054  0.1235  0.5417
 7386SOL     OW33793   1.201   2.273   6.468  0.0478  0.4147 -0.3318
 7386SOL    HW133794   1.220   2.254   6.560  1.1566  3.1350 -0.0029
 7386SOL    HW233795   1.238   2.360   6.459 -0.0343  0.4687 -0.1448
 7387SOL     OW33796   2.099   1.498   7.128  0.1037 -0.4015  0.3119
 7387SOL    HW133797   2.157   1.573   7.136  1.1589 -1.0325 -1.4653
 7387SOL    HW233798   2.019   1.530   7.086 -0.6746 -1.7571  0.7251
 7388SOL     OW33799   3.616   1.493   0.424  0.2562  0.2656  0.1001
 7388SOL    HW133800   3.665   1.416   0.453  0.0060 -0.1397 -0.5499
 7388SOL    HW233801   3.664   1.524   0.347  1.4598 -0.3404  0.6094
 7389SOL     OW33802   1.744   0.820  13.479  0.0051  0.3764 -0.6333
 7389SOL    HW133803   1.799   0.769  13.539 -0.0054  0.0598 -0.8965
 7389SOL    HW233804   1.801   0.831  13.404  1.8188 -0.9092  0.5484
 7390SOL     OW33805   4.382   1.857  16.583  0.1098  0.4606  0.0140
 7390SOL    HW133806   4.429   1.887  16.661  3.5091 -0.2757 -1.7578
 7390SOL    HW233807   4.291   1.867  16.610 -0.5402 -1.0592 -1.6510
 7391SOL     OW33808   2.449   1.926   3.065  0.2345 -0.0349  0.2691
 7391SOL    HW133809   2.383   1.862   3.093 -1.6515  1.4650 -0.6852
 7391SOL    HW233810   2.525   1.874   3.087 -0.9556 -0.7405  2.6923
 7392SOL     OW33811   4.024   0.969   2.915 -0.3443  0.4723  0.4860
 7392SOL    HW133812   4.051   0.879   2.934 -3.2461 -0.3057  0.8039
 7392SOL    HW233813   4.081   1.005   2.847 -1.9493 -0.4054 -1.3182
 7393SOL     OW33814   0.667   4.091   2.741 -0.1861 -0.0122  0.7605
 7393SOL    HW133815   0.605   4.039   2.793 -0.6567  1.6603  1.8840
 7393SOL    HW233816   0.640   4.068   2.652 -0.2503 -0.4359  0.8883
 7394SOL     OW33817   0.341   0.915   5.909  0.0351  0.6631 -0.2534
 7394SOL    HW133818   0.274   0.915   5.977 -0.0481 -2.9310 -0.3583
 7394SOL    HW233819   0.405   0.859   5.952  0.2133  0.0172 -1.3649
 7395SOL     OW33820   3.985   1.881  11.514 -0.5460  0.4968 -0.2919
 7395SOL    HW133821   4.051   1.812  11.508 -1.2171  0.0624 -2.7254
 7395SOL    HW233822   4.009   1.938  11.587 -2.4291  0.7603  0.1455
 7396SOL     OW33823   0.628   4.660   8.229 -0.4143 -0.1802 -0.4026
 7396SOL    HW133824   0.559   4.691   8.170  1.9961  0.8266 -2.6388
 7396SOL    HW233825   0.688   4.628   8.162 -0.3501 -1.3165  0.1935
 7397SOL     OW33826   3.720   3.505   3.776 -0.0743 -0.2120 -0.2793
 7397SOL    HW133827   3.743   3.579   3.832 -0.2921  0.3719 -0.9658
 7397SOL    HW233828   3.782   3.516   3.704 -1.0183 -1.1276 -1.2439
 7398SOL     OW33829   2.768   2.696   8.568 -0.1025 -0.1262 -0.2474
 7398SOL    HW133830   2.693   2.752   8.591  0.9362  1.5736 -1.0253
 7398SOL    HW233831   2.781   2.705   8.474  1.6508  0.6898  0.0753
 7399SOL     OW33832   0.546   4.609   2.299 -0.1634 -0.0368  0.0124
 7399SOL    HW133833   0.562   4.619   2.206 -0.6724  0.0447 -0.0658
 7399SOL    HW233834   0.550   4.514   2.297 -0.2722 -0.0081 -1.4572
 7400SOL     OW33835   2.177   0.417   6.442 -0.9049 -0.3552  0.3183
 7400SOL    HW133836   2.270   0.396   6.450 -1.0226 -0.6716  0.8619
 7400SOL    HW233837   2.136   0.340   6.481  1.0823 -0.0315  3.0430
 7401SOL     OW33838   3.898   0.173   7.741 -0.0012 -0.5591  0.3224
 7401SOL    HW133839   3.945   0.095   7.710  1.4203  1.1293 -1.7548
 7401SOL    HW233840   3.946   0.206   7.817  1.2382 -1.3496 -0.1042
 7402SOL     OW33841   2.299   0.509   7.744  0.2292  0.1905  0.1075
 7402SOL    HW133842   2.217   0.501   7.695  1.8795 -2.9991 -2.2155
 7402SOL    HW233843   2.332   0.574   7.682 -0.1708 -1.9613 -2.3927
 7403SOL     OW33844   3.524   0.903   5.167 -0.6594 -0.8439  0.1047
 7403SOL    HW133845   3.519   0.826   5.223 -1.0668  0.3939  1.7885
 7403SOL    HW233846   3.544   0.863   5.083 -1.2015 -2.3073  0.6846
 7404SOL     OW33847   3.187   2.067   3.088 -0.7153  0.3145  0.4837
 7404SOL    HW133848   3.193   2.032   2.999  0.3611 -0.3959  0.8275
 7404SOL    HW233849   3.161   2.156   3.065  0.9736  1.1549  1.8977
 7405SOL     OW33850   0.974   1.322   2.673 -0.3278 -0.0095 -0.0668
 7405SOL    HW133851   0.913   1.340   2.601 -1.3921 -1.6500  0.4152
 7405SOL    HW233852   0.935   1.375   2.743 -1.4602 -1.0912  0.1303
 7406SOL     OW33853   3.181   0.411   3.543  0.0531  0.1514  0.0968
 7406SOL    HW133854   3.209   0.440   3.631  1.8047 -0.0577 -0.3890
 7406SOL    HW233855   3.118   0.480   3.523  0.1334  0.0106 -0.6238
 7407SOL     OW33856   4.403   3.986  16.577 -0.3153  0.2018  0.1731
 7407SOL    HW133857   4.441   3.930  16.644 -1.6046 -1.3178 -0.3759
 7407SOL    HW233858   4.478   4.045  16.566 -1.0447  1.1229  0.1130
 7408SOL     OW33859   1.481   1.423   4.078 -0.4418  0.4721 -0.0803
 7408SOL    HW133860   1.556   1.380   4.118 -2.4407 -2.0546  0.9422
 7408SOL    HW233861   1.409   1.389   4.132 -0.7643  2.1933  0.5826
 7409SOL     OW33862   3.884   2.848   8.744  0.2319  0.3097 -0.4364
 7409SOL    HW133863   3.909   2.938   8.727 -1.9055  1.1085  0.6875
 7409SOL    HW233864   3.870   2.815   8.655 -1.9589  0.3705 -0.1044
 7410SOL     OW33865   1.542   1.746   2.997  0.4807 -0.0129  0.3493
 7410SOL    HW133866   1.610   1.759   3.063  0.4516 -0.5458  0.4855
 7410SOL    HW233867   1.567   1.813   2.933 -1.2616 -0.1155 -0.4412
 7411SOL     OW33868   0.526   4.224  12.986 -0.2622  0.3016  0.1496
 7411SOL    HW133869   0.477   4.210  13.067 -2.3755 -2.0282 -1.5297
 7411SOL    HW233870   0.538   4.319  12.984  4.4662 -0.2601  1.8726
 7412SOL     OW33871   2.815   0.484  15.015  0.3201  0.0924 -0.0503
 7412SOL    HW133872   2.888   0.484  15.078 -0.4608  2.6634  0.8678
 7412SOL    HW233873   2.774   0.404  15.047  1.7899 -0.9014 -0.7027
 7413SOL     OW33874   3.937   0.657   7.355 -0.3925  0.5817  0.1672
 7413SOL    HW133875   3.932   0.580   7.412 -0.6742 -0.2494 -0.9900
 7413SOL    HW233876   4.002   0.642   7.287  1.4640  0.1852  2.0443
 7414SOL     OW33877   0.972   2.201   6.354 -0.0158  0.0039 -0.0592
 7414SOL    HW133878   0.928   2.284   6.372  0.1664  0.2207 -0.5946
 7414SOL    HW233879   1.059   2.221   6.387 -0.6469 -0.3759  1.8202
 7415SOL     OW33880   0.523   1.718   6.920  0.1812 -0.3318 -0.6074
 7415SOL    HW133881   0.501   1.638   6.873 -4.2610  1.0170 -0.8273
 7415SOL    HW233882   0.516   1.787   6.853 -1.1837 -1.0176 -1.1550
 7416SOL     OW33883   2.103   2.901   9.532 -0.5225  0.1674 -0.6818
 7416SOL    HW133884   2.159   2.832   9.567 -0.2400  1.1590  0.7865
 7416SOL    HW233885   2.066   2.926   9.616  2.3827  0.9606  0.3475
 7417SOL     OW33886   1.735   3.997   7.385  0.3567  0.9832  0.7811
 7417SOL    HW133887   1.699   3.937   7.451  0.7053  0.8694  0.8717
 7417SOL    HW233888   1.650   4.015   7.345  1.6331 -0.6867 -2.7407
 7418SOL     OW33889   1.876   3.559  13.523  0.4583 -0.0915  0.5007
 7418SOL    HW133890   1.848   3.646  13.551  2.1171  1.1608 -1.6963
 7418SOL    HW233891   1.928   3.582  13.446 -0.2962  0.5912  0.1954
 7419SOL     OW33892   0.499   3.737   5.972  0.0809 -0.6007 -0.9726
 7419SOL    HW133893   0.419   3.760   5.925  0.2271 -3.2298 -2.5184
 7419SOL    HW233894   0.538   3.673   5.911  2.3791  0.1178 -0.2851
 7420SOL     OW33895   2.340   3.026   0.759  0.1416  0.3158  0.2748
 7420SOL    HW133896   2.418   3.081   0.763  1.1192 -0.9930 -0.8511
 7420SOL    HW233897   2.366   2.963   0.827 -0.1011  0.3424  0.3914
 7421SOL     OW33898   4.306   0.445  11.329  0.1017  0.5098  0.4119
 7421SOL    HW133899   4.214   0.446  11.303  0.8346 -1.4113 -2.2583
 7421SOL    HW233900   4.296   0.497  11.409 -0.1506  1.5049 -0.2654
 7422SOL     OW33901   2.873   1.336   1.772 -0.4734  0.1294 -0.1970
 7422SOL    HW133902   2.854   1.306   1.861  0.7506  0.0912  0.0449
 7422SOL    HW233903   2.864   1.431   1.783  0.4898  0.2636 -0.6208
 7423SOL     OW33904   4.642   0.916   2.320 -0.3086 -0.4421 -0.1637
 7423SOL    HW133905   4.709   0.898   2.255 -0.8602  1.0468 -1.1488
 7423SOL    HW233906   4.668   0.850   2.384 -0.8557 -1.2328 -0.7534
 7424SOL     OW33907   1.911   3.829   4.433  0.1378  0.2708 -0.0488
 7424SOL    HW133908   1.879   3.801   4.347  0.1568  1.4437 -0.4423
 7424SOL    HW233909   2.001   3.808   4.411  0.0060  0.1419 -0.4576
 7425SOL     OW33910   2.012   4.704  14.418  0.1515  0.3543 -0.4277
 7425SOL    HW133911   2.003   0.045  14.360  2.4114  1.5095  0.7141
 7425SOL    HW233912   1.973   4.637  14.362  0.4490 -0.7601  0.6908
 7426SOL     OW33913   2.913   4.304   8.031  0.7340 -0.6540 -0.3514
 7426SOL    HW133914   2.920   4.290   8.125  0.9824  0.1153 -0.2589
 7426SOL    HW233915   2.958   4.227   7.996  1.4172 -0.1204 -0.6329
 7427SOL     OW33916   2.883   3.573   8.559  0.3303 -0.3255  0.1136
 7427SOL    HW133917   2.878   3.522   8.478 -1.0634 -0.0308  0.0020
 7427SOL    HW233918   2.899   3.501   8.620  0.3803 -0.4821 -0.0855
 7428SOL     OW33919   3.553   0.122   5.040  0.2902  0.4176 -0.4695
 7428SOL    HW133920   3.584   0.154   4.955  0.8637 -0.9566 -0.7836
 7428SOL    HW233921   3.614   0.048   5.044  0.9929  0.9359 -1.5802
 7429SOL     OW33922   3.339   0.918   8.044  0.3830  0.3000  0.6261
 7429SOL    HW133923   3.368   1.004   8.016  2.1539  0.0262  1.6447
 7429SOL    HW233924   3.390   0.907   8.124  1.8932  1.6458 -0.1486
 7430SOL     OW33925   1.703   3.430   6.908 -0.1002  0.2753 -0.5134
 7430SOL    HW133926   1.719   3.480   6.987 -0.9545 -1.3635  0.6878
 7430SOL    HW233927   1.651   3.357   6.942 -0.5966  0.9400  0.1489
 7431SOL     OW33928   3.828   3.265  15.659 -0.0445 -0.4227 -0.2621
 7431SOL    HW133929   3.902   3.228  15.610 -0.0521 -2.8042  1.5255
 7431SOL    HW233930   3.788   3.325  15.597  0.7663  1.3673  0.9462
 7432SOL     OW33931   1.018   0.278  17.552 -0.3971  0.6515  0.3236
 7432SOL    HW133932   0.940   0.264  17.498 -1.2154 -0.2850  1.7403
 7432SOL    HW233933   0.994   0.222  17.626  0.9214 -0.3440 -0.0118
 7433SOL     OW33934   2.589   0.857   5.820 -0.4124 -0.3302 -0.1389
 7433SOL    HW133935   2.629   0.880   5.736  0.8486  1.1212  0.8677
 7433SOL    HW233936   2.637   0.893   5.895 -0.4519 -0.5767  0.0051
 7434SOL     OW33937   1.077   4.412   7.693  0.4349 -0.2866  0.1056
 7434SOL    HW133938   1.151   4.430   7.752 -0.1186 -0.8402  0.9693
 7434SOL    HW233939   1.129   4.359   7.633  1.2035  0.4126  0.1375
 7435SOL     OW33940   2.753   1.930   9.257  0.6646 -0.4321  0.8499
 7435SOL    HW133941   2.813   1.936   9.332  2.2680  1.5719 -0.5971
 7435SOL    HW233942   2.669   1.966   9.287  2.0110  2.0972  1.5604
 7436SOL     OW33943   4.083   4.191   5.070 -0.6694  0.3472  0.1627
 7436SOL    HW133944   4.028   4.234   5.004  2.0605  1.7853 -1.1609
 7436SOL    HW233945   4.141   4.146   5.008 -3.0843 -1.0468 -1.1375
 7437SOL     OW33946   0.203   0.023   2.968 -0.0721  0.0026 -0.3777
 7437SOL    HW133947   0.175   0.042   3.058  0.1693 -0.7129 -0.1469
 7437SOL    HW233948   0.247   4.673   2.980  1.2332  0.4958 -1.6533
 7438SOL     OW33949   2.241   2.653   5.746 -0.1321  0.1500  0.0498
 7438SOL    HW133950   2.191   2.614   5.674  0.6232  2.0546 -1.5155
 7438SOL    HW233951   2.304   2.582   5.750  0.1252  0.3671 -0.1577
 7439SOL     OW33952   1.762   3.116   5.959 -0.0511  0.1726  0.3243
 7439SOL    HW133953   1.801   3.176   6.023  0.3754 -0.5245  0.7064
 7439SOL    HW233954   1.808   3.034   5.978  1.3832  0.8835 -0.0502
 7440SOL     OW33955   0.159   3.278   5.367  0.2467  0.1168  0.3531
 7440SOL    HW133956   0.157   3.218   5.441 -0.3293 -1.2467 -0.7617
 7440SOL    HW233957   0.152   3.360   5.415  0.7707 -0.3605  1.2394
 7441SOL     OW33958   4.243   4.275   9.154  1.0644  0.0464  0.0317
 7441SOL    HW133959   4.317   4.223   9.187  0.9926 -1.3617 -1.9681
 7441SOL    HW233960   4.266   4.279   9.061 -1.2328 -0.5719 -0.5656
 7442SOL     OW33961   0.031   3.340   7.129 -0.0248 -0.0469  0.5144
 7442SOL    HW133962   0.022   3.288   7.050 -1.3291 -0.0469  0.6508
 7442SOL    HW233963   4.676   3.333   7.160 -0.5238  0.6575 -0.7483
 7443SOL     OW33964   2.444   1.980   7.272  0.0656 -0.3368  0.0982
 7443SOL    HW133965   2.474   1.903   7.225  0.4544 -0.0138 -0.1877
 7443SOL    HW233966   2.361   1.991   7.225 -0.6934 -1.8370  1.0933
 7444SOL     OW33967   1.136   3.121  14.995 -0.4584  0.3003  0.2878
 7444SOL    HW133968   1.210   3.092  14.941 -0.7956 -0.4067  0.2004
 7444SOL    HW233969   1.187   3.187  15.042 -0.2024  0.4683 -0.2249
 7445SOL     OW33970   4.475   2.760   5.568  0.3233  0.6645 -0.8224
 7445SOL    HW133971   4.555   2.707   5.568 -0.4740 -0.5484 -0.3561
 7445SOL    HW233972   4.471   2.758   5.664 -0.1830 -2.0066 -0.8912
 7446SOL     OW33973   3.604   1.001   0.048 -0.3311  0.1863  0.2736
 7446SOL    HW133974   3.565   0.963  17.709 -1.4558 -1.3627  1.5928
 7446SOL    HW233975   3.647   1.074   0.002  2.2314 -1.2547  0.3726
 7447SOL     OW33976   2.971   3.142  16.658 -0.3619  0.2759  0.2651
 7447SOL    HW133977   2.908   3.090  16.607  0.5674 -0.0016 -0.5943
 7447SOL    HW233978   3.018   3.078  16.711 -0.8073 -1.7303 -1.7877
 7448SOL     OW33979   4.591   4.718   3.861 -0.1109  0.0791 -0.3066
 7448SOL    HW133980   4.574   4.626   3.883 -0.1424  0.9210  3.1378
 7448SOL    HW233981   4.519   0.027   3.905  0.1580  0.3946 -0.1875
 7449SOL     OW33982   0.723   1.031   8.015 -0.5707 -0.1920  0.0135
 7449SOL    HW133983   0.647   1.086   8.036 -0.5078 -0.6493  1.4680
 7449SOL    HW233984   0.681   0.966   7.959 -0.0282  0.5332 -1.2254
 7450SOL     OW33985   4.136   0.855   3.806  0.3696  0.2688 -0.0279
 7450SOL    HW133986   4.193   0.794   3.853 -2.2088 -0.8347  1.6788
 7450SOL    HW233987   4.177   0.848   3.720  0.3048 -0.1981 -0.0200
 7451SOL     OW33988   1.939   2.603  13.984 -0.1960 -0.1251  0.0051
 7451SOL    HW133989   1.915   2.657  13.908 -2.4214  0.9062  1.4196
 7451SOL    HW233990   1.953   2.516  13.945 -1.5768 -0.1288 -0.5109
 7452SOL     OW33991   3.602   0.913   0.928  0.2081 -0.1172  0.0513
 7452SOL    HW133992   3.507   0.916   0.917  0.0021 -0.1941  1.7982
 7452SOL    HW233993   3.612   0.824   0.893 -0.0468 -0.2441  0.3023
 7453SOL     OW33994   3.874   3.117   8.930 -1.2117  0.6226 -0.5655
 7453SOL    HW133995   3.969   3.127   8.940 -1.2802  1.2326 -0.5222
 7453SOL    HW233996   3.857   3.034   8.974 -0.0818  0.6828 -0.0090
 7454SOL     OW33997   4.246   2.612   7.598  0.4945 -0.2042 -0.6105
 7454SOL    HW133998   4.265   2.519   7.608 -2.5324 -0.7510  0.1299
 7454SOL    HW233999   4.327   2.649   7.563  0.6388 -0.2619 -0.3373
 7455SOL     OW34000   0.405   1.726   3.750  0.0780  0.2078 -0.0731
 7455SOL    HW134001   0.481   1.785   3.758 -0.0067  0.1966  0.9101
 7455SOL    HW234002   0.433   1.670   3.678 -0.2212 -0.5198  0.3768
 7456SOL     OW34003   1.948   4.473   5.600  0.0646  0.0557 -0.0437
 7456SOL    HW134004   1.984   4.558   5.574  1.0591 -0.1949  0.4985
 7456SOL    HW234005   1.977   4.420   5.525  1.1581  1.0333 -0.3185
 7457SOL     OW34006   0.547   3.833   8.422  0.1198 -0.0863  0.0417
 7457SOL    HW134007   0.611   3.803   8.357  1.8140  0.2352  1.5500
 7457SOL    HW234008   0.566   3.925   8.440  0.5320 -0.4775  1.5478
 7458SOL     OW34009   2.621   0.791   6.991 -0.0818 -0.4112 -0.4410
 7458SOL    HW134010   2.568   0.724   7.034 -0.2641 -1.0866 -1.7193
 7458SOL    HW234011   2.579   0.797   6.905 -0.9653  0.6593  0.0752
 7459SOL     OW34012   3.128   3.844  17.267  0.0548  0.3043 -0.0464
 7459SOL    HW134013   3.183   3.846  17.189 -1.4570 -0.1479 -1.1127
 7459SOL    HW234014   3.055   3.788  17.241  1.5286 -1.7661  0.2638
 7460SOL     OW34015   3.664   4.667   1.696  0.0642  0.1188 -0.2117
 7460SOL    HW134016   3.683   0.015   1.652  1.7308 -0.7289 -1.0914
 7460SOL    HW234017   3.689   4.699   1.783 -1.2647  2.7005 -0.7593
 7461SOL     OW34018   1.587   3.187  10.383 -0.7438  0.2273  0.0206
 7461SOL    HW134019   1.645   3.124  10.426  0.4641  2.2193  1.3050
 7461SOL    HW234020   1.639   3.216  10.308  0.7228 -2.3882  0.0241
 7462SOL     OW34021   2.718   3.491   2.770 -0.3368 -0.4285 -0.2476
 7462SOL    HW134022   2.746   3.477   2.860  1.2487  2.6378 -0.2983
 7462SOL    HW234023   2.706   3.585   2.782 -0.1804 -0.5161  0.5633
 7463SOL     OW34024   2.212   2.398  16.613  0.0101  1.0698 -0.4353
 7463SOL    HW134025   2.140   2.359  16.662 -0.3737  0.9003 -1.1285
 7463SOL    HW234026   2.184   2.367  16.527  0.4042  2.8952 -1.2210
 7464SOL     OW34027   0.050   3.382   6.757  0.6359 -0.2794  0.5575
 7464SOL    HW134028   0.094   3.355   6.677  0.1193 -0.3024  0.2778
 7464SOL    HW234029   4.717   3.318   6.775 -1.4581  2.3591  2.0354
 7465SOL     OW34030   0.143   2.042  16.523 -0.7772 -0.2579  0.2902
 7465SOL    HW134031   0.106   2.025  16.437  1.9139 -0.7094 -0.7868
 7465SOL    HW234032   0.159   1.956  16.563 -0.9077 -0.3349  0.1769
 7466SOL     OW34033   2.786   1.561   4.561  0.3133  0.3942 -0.1999
 7466SOL    HW134034   2.862   1.595   4.607  0.9920 -1.1954 -0.1353
 7466SOL    HW234035   2.790   1.480   4.613 -0.0028 -0.1647 -1.0510
 7467SOL     OW34036   1.621   4.634  16.491  0.3958  0.1220  0.1908
 7467SOL    HW134037   1.607   4.728  16.508 -0.5709 -0.2517  1.5191
 7467SOL    HW234038   1.630   4.604  16.582  0.9801 -0.2020  0.0226
 7468SOL     OW34039   2.591   1.289   9.958  0.0385 -0.2403 -0.3385
 7468SOL    HW134040   2.624   1.365   9.910 -2.1674  0.3699 -0.8576
 7468SOL    HW234041   2.541   1.323  10.032  0.0478 -2.3735  0.6502
 7469SOL     OW34042   4.633   2.360   2.248 -0.2550 -1.0212  0.1540
 7469SOL    HW134043   4.568   2.425   2.222  0.4299 -1.0281 -1.5812
 7469SOL    HW234044   4.643   2.328   2.158  0.1952  1.0211 -0.5337
 7470SOL     OW34045   4.250   1.400   8.513 -0.0662  0.2199 -0.2427
 7470SOL    HW134046   4.305   1.476   8.531 -1.9448  0.9219  2.6597
 7470SOL    HW234047   4.318   1.335   8.498  0.4557  0.6538  0.2683
 7471SOL     OW34048   1.887   3.942  11.983 -0.2210  0.0516  0.3825
 7471SOL    HW134049   1.943   3.876  12.022  1.5944  0.6823 -1.1841
 7471SOL    HW234050   1.863   3.905  11.898  1.3135 -0.7807  0.3283
 7472SOL     OW34051   1.450   3.708   0.257  0.7269 -0.0453  0.2853
 7472SOL    HW134052   1.438   3.624   0.301 -0.1050 -1.3282 -2.3464
 7472SOL    HW234053   1.415   3.764   0.326  1.6366  0.4115  0.3764
 7473SOL     OW34054   3.870   2.657  14.907  0.1274 -0.4025  0.0365
 7473SOL    HW134055   3.859   2.702  14.990 -3.6708  3.8113 -2.7335
 7473SOL    HW234056   3.845   2.731  14.851  0.7005 -1.1592 -1.2275
 7474SOL     OW34057   2.127   3.998   4.829 -0.3236  0.0679  0.2982
 7474SOL    HW134058   2.221   3.985   4.823 -0.4129  0.6354 -2.0790
 7474SOL    HW234059   2.094   3.911   4.805 -0.0312 -0.1874  0.8135
 7475SOL     OW34060   1.136   1.950   6.797 -0.9155 -0.8304 -0.0346
 7475SOL    HW134061   1.140   1.912   6.709 -2.3682 -0.7946 -0.1050
 7475SOL    HW234062   1.059   1.904   6.829 -0.1961 -1.6274  0.5420
 7476SOL     OW34063   2.008   3.535   2.998 -0.2397 -0.4546  0.0702
 7476SOL    HW134064   1.991   3.441   2.997  0.3645 -0.5672  0.2167
 7476SOL    HW234065   1.948   3.570   3.064  0.8239  0.6135  0.4903
 7477SOL     OW34066   2.253   4.177   2.072  0.1879 -0.2118 -0.3086
 7477SOL    HW134067   2.320   4.210   2.012  0.0897 -0.2365 -0.4321
 7477SOL    HW234068   2.192   4.141   2.007 -1.8702  0.5263  1.2028
 7478SOL     OW34069   4.618   4.716  16.791  0.5054 -0.1582 -0.1793
 7478SOL    HW134070   4.587   4.626  16.791 -0.4115  0.1446  1.3932
 7478SOL    HW234071   4.553   0.024  16.846  0.3498 -0.1410 -0.3749
 7479SOL     OW34072   0.149   4.453   9.998  0.0541  0.2046  0.7398
 7479SOL    HW134073   0.127   4.463  10.090 -2.7069  1.4718 -0.0406
 7479SOL    HW234074   0.139   4.360   9.976  0.4464 -0.0460  1.6182
 7480SOL     OW34075   1.050   0.571  11.024 -0.7736  0.1577 -0.0162
 7480SOL    HW134076   1.110   0.576  11.099 -1.5418  1.5932  0.5074
 7480SOL    HW234077   1.094   0.630  10.963  1.9815 -2.1942 -0.2961
 7481SOL     OW34078   0.921   1.018   4.225  0.4218 -0.3327  0.2350
 7481SOL    HW134079   0.954   1.096   4.269 -0.1556 -0.2218  0.4574
 7481SOL    HW234080   0.979   0.943   4.244  2.3418  0.7341 -1.3850
 7482SOL     OW34081   3.824   3.263   5.481  0.7085  0.2554 -0.3228
 7482SOL    HW134082   3.779   3.314   5.413  2.1208  0.5318 -1.0479
 7482SOL    HW234083   3.903   3.313   5.500  0.1425  0.6847  0.8599
 7483SOL     OW34084   0.158   0.702   5.375 -0.8128  0.6004  0.0325
 7483SOL    HW134085   0.124   0.660   5.453  1.5081 -1.6919 -0.2026
 7483SOL    HW234086   0.250   0.707   5.399 -0.5917 -1.8596 -0.3799
 7484SOL     OW34087   1.279   1.289   4.521 -0.4556  0.0876  0.1370
 7484SOL    HW134088   1.325   1.372   4.510  0.9082 -0.6066  0.6487
 7484SOL    HW234089   1.215   1.316   4.586  2.4785  2.5122  2.0168
 7485SOL     OW34090   3.746   0.651   7.184  0.1752  0.7155 -0.5653
 7485SOL    HW134091   3.804   0.661   7.259  0.7375  1.0774 -1.0536
 7485SOL    HW234092   3.806   0.608   7.123 -1.0840 -0.0415 -1.2805
 7486SOL     OW34093   4.514   0.234   7.373  0.5541  0.5428  0.4259
 7486SOL    HW134094   4.480   0.177   7.304  0.0614  0.8656  0.4003
 7486SOL    HW234095   4.604   0.202   7.378 -0.4205 -1.8421  3.1926
 7487SOL     OW34096   3.016   4.328   1.751 -0.4635  0.0857  0.0676
 7487SOL    HW134097   3.021   4.423   1.746  0.5088  0.0723  0.7461
 7487SOL    HW234098   3.020   4.307   1.845  1.5604  1.9151  0.3975
 7488SOL     OW34099   2.427   4.407   7.598 -0.4912 -0.3424 -0.2778
 7488SOL    HW134100   2.427   4.325   7.647 -3.1654  0.9799  1.9142
 7488SOL    HW234101   2.515   4.405   7.562 -0.0437 -1.0407  0.8609
 7489SOL     OW34102   2.696   3.287   6.570 -0.2266 -0.0666  0.1011
 7489SOL    HW134103   2.727   3.255   6.486 -0.0058  1.3748 -0.3567
 7489SOL    HW234104   2.602   3.270   6.556 -0.0920 -0.0052 -0.8487
 7490SOL     OW34105   1.262   0.221  16.158  0.3606 -0.3048  0.1297
 7490SOL    HW134106   1.349   0.240  16.194 -0.1095  1.6479  0.2237
 7490SOL    HW234107   1.210   0.214  16.238  1.3495  0.3323  0.8304
 7491SOL     OW34108   0.599   2.769   3.015 -0.0212 -0.1883  0.5148
 7491SOL    HW134109   0.564   2.681   3.030 -0.0845  0.0756  1.9665
 7491SOL    HW234110   0.531   2.804   2.958 -0.2619  3.2074  2.8669
 7492SOL     OW34111   3.051   3.105   2.369  0.2735 -0.0359 -0.3022
 7492SOL    HW134112   3.108   3.119   2.293  0.3776 -2.2520 -0.6409
 7492SOL    HW234113   2.970   3.088   2.321  0.0074 -1.5437  0.6846
 7493SOL     OW34114   0.481   0.042   2.479 -0.0864 -0.3479 -0.3226
 7493SOL    HW134115   0.498   4.709   2.414  0.0687 -0.3865 -0.2435
 7493SOL    HW234116   0.543   0.111   2.456 -1.1643  0.5620 -0.4790
 7494SOL     OW34117   1.728   2.142   3.548  0.3633  0.2153 -0.5778
 7494SOL    HW134118   1.742   2.069   3.488 -1.8968 -0.9082  0.2814
 7494SOL    HW234119   1.681   2.207   3.495 -1.0756 -0.6999 -0.4273
 7495SOL     OW34120   4.529   2.050   3.013  0.1948 -0.3436 -0.1935
 7495SOL    HW134121   4.477   2.083   2.940 -1.6183  1.3557  1.8382
 7495SOL    HW234122   4.613   2.033   2.972 -0.3741  0.8235 -1.8405
 7496SOL     OW34123   0.625   3.683  15.495 -0.3077 -0.0233 -0.0040
 7496SOL    HW134124   0.667   3.628  15.561 -0.1839 -0.2329 -0.2567
 7496SOL    HW234125   0.706   3.723  15.463  0.0137 -0.0668  0.7536
 7497SOL     OW34126   4.347   3.030   9.553  0.4618  0.1303  0.3202
 7497SOL    HW134127   4.278   3.090   9.579 -0.6219  1.0976 -4.6823
 7497SOL    HW234128   4.352   3.047   9.459  0.1792 -2.1214 -0.1148
 7498SOL     OW34129   0.667   1.993   8.038 -0.0117 -0.3375 -0.2899
 7498SOL    HW134130   0.685   1.923   8.102  2.4829  1.4252  0.9205
 7498SOL    HW234131   0.745   2.046   8.049  0.6182 -1.1929 -0.6554
 7499SOL     OW34132   0.472   3.808   1.473 -0.2974 -0.2296  0.1731
 7499SOL    HW134133   0.441   3.718   1.481  2.4797 -1.3457 -1.6782
 7499SOL    HW234134   0.508   3.810   1.384 -2.3325 -0.0531 -0.6443
 7500SOL     OW34135   3.406   0.816   5.639  0.3616 -0.2001 -0.0920
 7500SOL    HW134136   3.444   0.794   5.553 -2.0233  1.1340 -1.4941
 7500SOL    HW234137   3.377   0.906   5.628 -0.5803 -0.5781 -0.7234
 7501SOL     OW34138   0.463   1.764   9.166  0.0899 -0.2094 -0.6602
 7501SOL    HW134139   0.507   1.793   9.086 -0.6070 -0.2782 -1.0701
 7501SOL    HW234140   0.522   1.797   9.233 -1.4716  0.7251  0.2499
 7502SOL     OW34141   0.217   0.077   2.585 -0.4465 -0.5247 -0.7022
 7502SOL    HW134142   0.301   0.061   2.544 -0.3531 -0.0894 -0.6897
 7502SOL    HW234143   0.232   0.139   2.657  1.7024 -0.6058 -1.0892
 7503SOL     OW34144   3.830   3.818   8.792  0.1626 -0.2591 -1.0568
 7503SOL    HW134145   3.787   3.854   8.714  2.8849  1.1604 -1.9186
 7503SOL    HW234146   3.768   3.752   8.823 -0.3620  0.1009 -1.3405
 7504SOL     OW34147   2.143   3.179   5.780  0.0299 -0.2188 -0.1821
 7504SOL    HW134148   2.127   3.224   5.863  2.5976 -0.1513  0.2537
 7504SOL    HW234149   2.101   3.236   5.715  0.9991  0.7175  0.0187
 7505SOL     OW34150   0.861   4.045   9.068 -0.1844  0.4398  0.1494
 7505SOL    HW134151   0.816   4.024   8.986 -1.2456 -1.9616  1.3547
 7505SOL    HW234152   0.905   3.961   9.084 -1.3666 -0.6109 -2.1352
 7506SOL     OW34153   1.611   4.494   7.214  0.0439  0.6145 -0.0830
 7506SOL    HW134154   1.540   4.496   7.279 -0.8711 -1.2477 -1.0513
 7506SOL    HW234155   1.688   4.452   7.252 -0.5887 -0.5614 -0.1082
 7507SOL     OW34156   0.747   1.596  13.178 -0.6409 -0.9337  0.3212
 7507SOL    HW134157   0.669   1.600  13.232  0.4307 -0.3121  1.8168
 7507SOL    HW234158   0.812   1.603  13.248  1.1458 -1.1013 -1.3114
 7508SOL     OW34159   3.110   4.515   6.550 -0.5381 -0.2277 -0.2507
 7508SOL    HW134160   3.063   4.466   6.617 -0.0144 -0.0510  0.2464
 7508SOL    HW234161   3.075   4.469   6.473  0.1127 -0.7155 -0.2614
 7509SOL     OW34162   0.659   1.214  13.302  0.2857 -0.3625  0.3254
 7509SOL    HW134163   0.635   1.290  13.250 -0.4812  0.3966  1.8090
 7509SOL    HW234164   0.749   1.239  13.322  0.3938 -0.7881  0.3901
 7510SOL     OW34165   0.775   1.307  13.667 -0.5764 -0.8693 -0.0628
 7510SOL    HW134166   0.707   1.256  13.624 -0.7148 -0.7744  0.0412
 7510SOL    HW234167   0.848   1.246  13.655  0.5360  0.7365 -1.4314
 7511SOL     OW34168   0.644   3.348  13.499  0.6669 -0.1051  0.3298
 7511SOL    HW134169   0.717   3.333  13.440  0.6420  1.2146 -0.0335
 7511SOL    HW234170   0.558   3.355  13.457 -0.7286 -0.2296  3.1382
 7512SOL     OW34171   3.224   1.218   5.255 -0.1323 -1.2456  0.1158
 7512SOL    HW134172   3.138   1.214   5.298  0.9931  1.6892  2.6920
 7512SOL    HW234173   3.214   1.162   5.178  1.6808 -1.5306  0.0998
 7513SOL     OW34174   2.072   3.921  11.275 -0.0929  0.1239  0.2272
 7513SOL    HW134175   2.159   3.902  11.240 -0.9711 -2.5280 -0.4890
 7513SOL    HW234176   2.108   3.960  11.355  0.1895 -0.8130  0.5564
 7514SOL     OW34177   2.699   4.256   5.550 -0.0430  0.1973 -0.3495
 7514SOL    HW134178   2.613   4.298   5.557 -0.8001 -1.0307 -2.1550
 7514SOL    HW234179   2.691   4.217   5.463 -1.4060 -0.4101  0.0359
 7515SOL     OW34180   3.469   3.273   9.115  0.7423 -0.4101  0.0339
 7515SOL    HW134181   3.510   3.281   9.201  1.6916  1.1915 -0.5660
 7515SOL    HW234182   3.463   3.367   9.102  0.4818 -0.6748 -1.8208
 7516SOL     OW34183   3.859   4.030  10.499  0.2581 -0.1749  0.1004
 7516SOL    HW134184   3.948   4.056  10.473  0.4935 -0.3621  0.7039
 7516SOL    HW234185   3.824   4.019  10.411  1.5170 -0.0595 -0.4183
 7517SOL     OW34186   0.237   1.195   6.460  0.0898  0.5628  0.0032
 7517SOL    HW134187   0.187   1.276   6.467  0.6581  0.8697  0.4571
 7517SOL    HW234188   0.319   1.211   6.506  0.5770  3.2677 -1.7650
 7518SOL     OW34189   4.581   1.757   6.677 -0.1882  0.3584  0.0327
 7518SOL    HW134190   4.529   1.809   6.616 -0.5038  0.4548  0.3806
 7518SOL    HW234191   4.616   1.814   6.746 -0.1638 -2.8079  2.6502
 7519SOL     OW34192   0.270   3.694  12.435 -0.8533  0.1706 -0.7358
 7519SOL    HW134193   0.230   3.626  12.489  0.3429  0.0131 -0.0426
 7519SOL    HW234194   0.234   3.769  12.482 -0.8930  0.4136 -1.1583
 7520SOL     OW34195   4.191   2.971   1.803 -0.3315 -0.4231 -0.0578
 7520SOL    HW134196   4.248   2.948   1.730  1.9703  1.2287  1.2429
 7520SOL    HW234197   4.163   3.060   1.783 -0.8503 -0.7641 -0.8790
 7521SOL     OW34198   1.603   3.574   6.713  0.4496  0.2728 -0.3955
 7521SOL    HW134199   1.539   3.638   6.744  0.9997  1.5524 -1.8747
 7521SOL    HW234200   1.636   3.530   6.791  1.0989 -0.1866 -0.9333
 7522SOL     OW34201   0.312   2.161   4.055  0.1533  0.2717  0.5694
 7522SOL    HW134202   0.337   2.175   4.147 -1.4568 -0.5112  1.1263
 7522SOL    HW234203   0.231   2.115   4.075  0.1708 -0.4635 -1.0271
 7523SOL     OW34204   0.118   4.630   6.737  0.0243  0.0280 -0.0258
 7523SOL    HW134205   0.078   4.658   6.654  0.3411  0.2950 -0.0879
 7523SOL    HW234206   0.199   4.679   6.743  0.1188 -0.4306  2.2556
 7524SOL     OW34207   3.688   3.460  12.969 -0.2872 -0.4864 -0.6755
 7524SOL    HW134208   3.762   3.401  12.955  1.1962  1.6096 -1.5602
 7524SOL    HW234209   3.728   3.547  12.960  1.8320 -1.6100 -2.0552
 7525SOL     OW34210   0.896   2.138   8.107 -0.2502  0.1176  0.3309
 7525SOL    HW134211   0.982   2.120   8.070 -0.9599 -2.1290 -0.2172
 7525SOL    HW234212   0.900   2.130   8.202 -1.8713 -1.3334  0.2809
 7526SOL     OW34213   4.654   4.511  16.155 -0.0333  0.6406  0.2597
 7526SOL    HW134214   4.674   4.583  16.214  0.9504 -1.4420  2.4918
 7526SOL    HW234215   4.610   4.449  16.213  2.3308 -2.1044 -0.8723
 7527SOL     OW34216   4.096   3.172  13.634 -0.3704 -0.5119 -0.1894
 7527SOL    HW134217   4.026   3.155  13.698  1.5225 -1.1648  1.7198
 7527SOL    HW234218   4.108   3.267  13.640 -3.4148 -0.0959 -0.6196
 7528SOL     OW34219   4.615   4.627   1.117 -0.2470  0.3814 -0.0903
 7528SOL    HW134220   4.671   4.570   1.065 -0.2881  0.5936 -0.3666
 7528SOL    HW234221   4.603   4.687   1.044 -0.1649  0.1562 -0.2895
 7529SOL     OW34222   4.284   1.785   7.728  0.0957  0.2091  0.3536
 7529SOL    HW134223   4.261   1.829   7.646  2.0952  2.0359  0.7746
 7529SOL    HW234224   4.269   1.693   7.706 -0.5667 -0.4174  3.4186
 7530SOL     OW34225   0.229   2.727   2.100  0.1704 -0.1091 -0.4874
 7530SOL    HW134226   0.194   2.642   2.129 -0.2773  0.2398  0.0148
 7530SOL    HW234227   0.151   2.781   2.110 -0.7126 -1.5066  0.3106
 7531SOL     OW34228   4.068   4.381   2.865 -0.1066  0.3854 -0.5939
 7531SOL    HW134229   4.003   4.437   2.823  2.2242  2.4701 -1.4135
 7531SOL    HW234230   4.009   4.305   2.860 -1.8869  1.7274 -0.1278
 7532SOL     OW34231   1.657   3.474   1.881 -0.3359 -0.2004  0.1414
 7532SOL    HW134232   1.633   3.566   1.895  0.6547 -0.0479  0.8013
 7532SOL    HW234233   1.745   3.488   1.847 -0.3768  1.6861  0.7651
 7533SOL     OW34234   1.342   2.554   6.726  0.4013  0.3948  0.3914
 7533SOL    HW134235   1.256   2.517   6.746 -0.2354  1.8192  0.2881
 7533SOL    HW234236   1.369   2.590   6.811  2.7524 -0.5812  0.0548
 7534SOL     OW34237   0.055   1.006   6.537 -0.0757  0.4157 -0.5472
 7534SOL    HW134238   0.111   1.077   6.506  0.1806  0.3927 -0.1228
 7534SOL    HW234239   4.708   1.048   6.564 -0.1590  0.9915 -1.6909
 7535SOL     OW34240   2.702   4.259  15.268 -0.3568 -0.0779 -0.5993
 7535SOL    HW134241   2.704   4.248  15.173 -0.7929  0.8167 -0.7135
 7535SOL    HW234242   2.675   4.350  15.277  0.4836 -0.1239  2.3352
 7536SOL     OW34243   4.564   1.117   5.442 -0.0816 -0.2080 -0.1324
 7536SOL    HW134244   4.603   1.150   5.361 -1.6383  0.7100 -0.5075
 7536SOL    HW234245   4.630   1.056   5.473  1.6934  0.5963 -2.2510
 7537SOL     OW34246   3.973   4.193   3.312  0.1431 -0.5409 -0.2087
 7537SOL    HW134247   4.029   4.242   3.252  0.4236  0.1404  0.6096
 7537SOL    HW234248   3.960   4.260   3.379  0.6419 -0.4609 -0.1859
 7538SOL     OW34249   1.477   4.110   7.869  0.2895 -0.7472 -0.0612
 7538SOL    HW134250   1.481   4.150   7.782  0.1786 -1.1194 -0.2360
 7538SOL    HW234251   1.536   4.035   7.863 -0.9559 -1.6502 -0.9837
 7539SOL     OW34252   2.875   3.488   4.454 -0.0905  0.1370 -0.0261
 7539SOL    HW134253   2.859   3.426   4.525 -0.4517 -0.7933 -0.9137
 7539SOL    HW234254   2.803   3.471   4.393 -0.9262  1.0166  0.7258
 7540SOL     OW34255   3.697   1.995   9.335  0.2457  0.1255 -0.4725
 7540SOL    HW134256   3.745   1.960   9.260  2.1296  0.8273  0.4006
 7540SOL    HW234257   3.685   2.083   9.301 -2.3949 -0.2802 -0.5394
 7541SOL     OW34258   0.023   4.384   0.969  0.2502  0.0258 -0.3003
 7541SOL    HW134259   4.725   4.318   0.908  0.3292  1.0191 -1.4114
 7541SOL    HW234260   4.703   4.448   0.923 -2.5833 -0.1153  2.8517
 7542SOL     OW34261   0.023   3.043   4.654 -0.7343 -0.2531 -0.0983
 7542SOL    HW134262   4.699   2.988   4.706 -0.9899 -0.3203 -0.4583
 7542SOL    HW234263   0.088   2.976   4.633 -0.9907 -1.6748  3.6578
 7543SOL     OW34264   3.882   0.303  11.743 -0.4884  0.8443 -0.3358
 7543SOL    HW134265   3.811   0.350  11.699 -0.6724 -0.8329 -1.8190
 7543SOL    HW234266   3.878   0.215  11.707 -1.0310  0.2874  1.0981
 7544SOL     OW34267   2.780   0.230  13.199 -0.3033 -0.0503 -0.1423
 7544SOL    HW134268   2.868   0.258  13.225  0.2114  0.0277 -2.0044
 7544SOL    HW234269   2.723   0.259  13.271  0.4977  2.1595 -0.3812
 7545SOL     OW34270   1.548   3.383   6.093  0.5449  0.0159  0.0314
 7545SOL    HW134271   1.609   3.424   6.032  1.4333 -0.3690  0.6716
 7545SOL    HW234272   1.581   3.414   6.177 -1.9969 -0.3370  1.1654
 7546SOL     OW34273   0.516   1.723  15.638  0.4896  0.3093 -0.4240
 7546SOL    HW134274   0.519   1.768  15.553  1.4840  0.6317 -0.2247
 7546SOL    HW234275   0.448   1.659  15.618  0.3725  0.4349 -0.4265
 7547SOL     OW34276   3.344   3.667  17.132  0.4929  0.2396  0.0479
 7547SOL    HW134277   3.399   3.698  17.061  2.0999 -1.5252  0.5294
 7547SOL    HW234278   3.259   3.707  17.111  1.3940  1.5544 -1.0627
 7548SOL     OW34279   0.177   4.182   6.499  0.6054 -0.1558  0.3110
 7548SOL    HW134280   0.123   4.103   6.497  0.8075 -0.3317  2.4940
 7548SOL    HW234281   0.248   4.152   6.556  0.9968  0.2462  0.0424
 7549SOL     OW34282   1.097   1.581  12.057  0.2149  0.1910  0.2211
 7549SOL    HW134283   1.177   1.552  12.101  0.0849  0.3379  0.5511
 7549SOL    HW234284   1.032   1.562  12.125  1.7888 -2.7400  0.9315
 7550SOL     OW34285   4.511   4.190   6.962  0.5728  0.1922  0.1272
 7550SOL    HW134286   4.464   4.189   7.045 -1.2835  0.5664 -0.9078
 7550SOL    HW234287   4.605   4.181   6.972  0.1536 -0.9411  2.9336
 7551SOL     OW34288   1.954   4.098   6.312  0.6289  0.1102 -0.2269
 7551SOL    HW134289   1.965   4.042   6.389  2.7446  0.9416  0.0828
 7551SOL    HW234290   1.865   4.132   6.318  0.1141 -1.6232  2.0457
 7552SOL     OW34291   1.190   1.435   7.973  0.0579  0.2451  0.4368
 7552SOL    HW134292   1.216   1.348   7.942 -0.5389  0.2680 -0.1376
 7552SOL    HW234293   1.114   1.412   8.025  0.0095 -1.7860 -0.5416
 7553SOL     OW34294   1.234   4.062   2.008 -0.2775  0.5773 -0.2075
 7553SOL    HW134295   1.210   3.995   2.072  1.0831  0.3508  0.0509
 7553SOL    HW234296   1.285   4.121   2.064 -0.4806  0.9915 -0.4565
 7554SOL     OW34297   1.663   2.462   1.310 -0.0156  0.0245  0.7627
 7554SOL    HW134298   1.605   2.535   1.288  2.3328  2.0922  1.4946
 7554SOL    HW234299   1.744   2.502   1.343  0.2682 -0.1519  0.2726
 7555SOL     OW34300   0.598   1.672  10.567 -0.3705  0.4428  0.3594
 7555SOL    HW134301   0.523   1.729  10.552 -1.8823 -1.6288  0.1710
 7555SOL    HW234302   0.622   1.650  10.477 -2.4430  0.4687 -0.2021
 7556SOL     OW34303   2.201   3.475  16.247  0.0904 -0.0199 -0.2454
 7556SOL    HW134304   2.267   3.413  16.278  0.3817  0.4392  0.0365
 7556SOL    HW234305   2.160   3.418  16.182 -1.6654  3.2345 -1.9723
 7557SOL     OW34306   2.620   2.933   8.286 -0.1436 -0.1502 -0.1133
 7557SOL    HW134307   2.628   2.944   8.191  2.4565 -1.6965 -0.0681
 7557SOL    HW234308   2.628   2.838   8.284  0.5149 -0.0481 -2.2006
 7558SOL     OW34309   3.922   2.356  14.624 -0.3907 -0.3696  0.0326
 7558SOL    HW134310   3.943   2.306  14.546  2.0471 -0.0419  0.4932
 7558SOL    HW234311   3.953   2.296  14.692  1.3431  0.5341  0.0333
 7559SOL     OW34312   1.517   3.823   2.798  0.5708  0.1441  0.4027
 7559SOL    HW134313   1.586   3.771   2.758 -0.4692 -1.2366  0.4090
 7559SOL    HW234314   1.550   3.906   2.762 -0.5417  0.3103 -0.2529
 7560SOL     OW34315   4.402   3.668   9.424 -0.6668  0.2936 -0.3561
 7560SOL    HW134316   4.450   3.590   9.447 -1.2248 -0.2117 -0.8925
 7560SOL    HW234317   4.346   3.679   9.501 -1.5075 -1.9017 -0.6571
 7561SOL     OW34318   3.446   0.046  13.355 -0.3061  0.1914 -0.0646
 7561SOL    HW134319   3.454   0.070  13.263  2.1795  2.0415  0.6214
 7561SOL    HW234320   3.369   0.099  13.375 -1.1773  0.0526 -3.1656
 7562SOL     OW34321   4.543   1.386  10.325  0.3285 -0.4091  0.0105
 7562SOL    HW134322   4.517   1.337  10.247 -2.4804 -1.0524  1.3462
 7562SOL    HW234323   4.549   1.320  10.395  0.2099  0.2485  0.6400
 7563SOL     OW34324   1.224   3.360   2.262  0.2895 -0.4646  0.1422
 7563SOL    HW134325   1.236   3.398   2.175  1.9663 -1.2937  0.0150
 7563SOL    HW234326   1.200   3.437   2.314 -1.3696 -0.6684 -0.3366
 7564SOL     OW34327   1.758   0.948   4.491  0.0703 -0.3848  0.0866
 7564SOL    HW134328   1.779   0.855   4.505 -2.1693 -0.8526  0.3360
 7564SOL    HW234329   1.796   0.986   4.570 -1.6840 -2.2651  1.8274
 7565SOL     OW34330   1.859   2.442   2.045  0.2415  0.1311 -0.0976
 7565SOL    HW134331   1.878   2.496   1.968 -0.6465 -0.7298 -0.9117
 7565SOL    HW234332   1.916   2.480   2.112  0.1036 -0.2601  0.2463
 7566SOL     OW34333   0.909   1.433   7.018  0.1881  0.1270  0.1172
 7566SOL    HW134334   0.998   1.440   6.984  0.1533 -1.7751 -0.3419
 7566SOL    HW234335   0.858   1.409   6.941 -1.2913  0.5005  0.9812
 7567SOL     OW34336   0.926   4.330   3.651  0.3383  0.4999 -0.7310
 7567SOL    HW134337   0.860   4.392   3.682 -0.4115 -0.9196  0.5153
 7567SOL    HW234338   0.950   4.295   3.737  0.6666  0.6747 -0.7503
 7568SOL     OW34339   0.958   0.470   7.235 -0.2912 -0.2312 -0.0386
 7568SOL    HW134340   0.935   0.379   7.254 -1.5609  0.4917  1.7782
 7568SOL    HW234341   0.895   0.514   7.292 -0.8817 -1.7167  0.4661
 7569SOL     OW34342   0.386   1.418   5.797  0.0257 -0.4195 -0.1245
 7569SOL    HW134343   0.338   1.420   5.879 -2.2007 -2.0195 -1.3966
 7569SOL    HW234344   0.420   1.328   5.795  0.9269 -0.1281  2.3382
 7570SOL     OW34345   4.007   3.067  16.115  0.0003 -0.4764 -0.2988
 7570SOL    HW134346   3.985   3.001  16.180  0.7213 -0.1683  0.2553
 7570SOL    HW234347   3.924   3.091  16.074  0.3221  2.9612  1.0739
 7571SOL     OW34348   1.121   3.728   0.334 -1.0716 -0.1007  0.2761
 7571SOL    HW134349   1.183   3.655   0.335 -0.5790  0.3237  0.6903
 7571SOL    HW234350   1.145   3.762   0.420  1.3099 -1.9531  0.3583
 7572SOL     OW34351   1.902   1.646   4.561  0.1169  0.0031 -0.4736
 7572SOL    HW134352   1.957   1.592   4.619  1.4520  1.3924 -0.4526
 7572SOL    HW234353   1.894   1.587   4.486 -0.8199 -0.0726 -0.3188
 7573SOL     OW34354   0.368   3.191  12.259  0.0958 -0.2648 -0.0035
 7573SOL    HW134355   0.451   3.191  12.211  0.3717  2.7277  0.4660
 7573SOL    HW234356   0.342   3.280  12.237 -0.9131  0.2693  3.3329
 7574SOL     OW34357   0.894   0.632   2.394  0.0779 -0.2823  0.0872
 7574SOL    HW134358   0.986   0.651   2.416  0.6017 -1.9842 -0.5835
 7574SOL    HW234359   0.893   0.556   2.335  0.2709  0.2506 -0.5977
 7575SOL     OW34360   1.955   1.242   7.200 -0.3116 -0.7543 -0.0851
 7575SOL    HW134361   2.008   1.321   7.192  0.5022 -1.4419 -1.5446
 7575SOL    HW234362   2.003   1.191   7.267  1.8634  1.0427 -0.2810
 7576SOL     OW34363   3.265   3.122   6.434 -0.2734  0.0271 -0.2290
 7576SOL    HW134364   3.316   3.055   6.389 -2.4130 -1.5489 -0.2855
 7576SOL    HW234365   3.321   3.200   6.442 -2.5194  1.6314  0.0634
 7577SOL     OW34366   3.082   4.237  13.509 -0.4051  0.2931 -0.2346
 7577SOL    HW134367   3.145   4.309  13.517  2.1755 -2.1859  1.9857
 7577SOL    HW234368   3.009   4.267  13.564 -0.5779  1.0728 -0.8964
 7578SOL     OW34369   0.057   3.050  11.259  0.6540 -0.2260 -0.0615
 7578SOL    HW134370   0.028   3.107  11.187  0.5487  0.2088  0.3223
 7578SOL    HW234371   4.715   3.055  11.315  2.9014 -1.3983  3.0992
 7579SOL     OW34372   3.551   3.564   9.941  0.9054 -0.0647 -0.0173
 7579SOL    HW134373   3.581   3.655   9.941 -2.5431  1.0803 -1.7917
 7579SOL    HW234374   3.608   3.526  10.008 -3.0163 -0.0453  3.3281
 7580SOL     OW34375   4.574   3.117  12.226  0.5269 -0.6404 -0.2860
 7580SOL    HW134376   4.643   3.176  12.257 -0.9691  0.5865  0.7287
 7580SOL    HW234377   4.547   3.070  12.304 -0.4683  0.9963  0.3460
 7581SOL     OW34378   3.534   3.532   0.202  0.0950  0.1699 -0.5028
 7581SOL    HW134379   3.619   3.566   0.230 -0.5756  0.4808  1.1184
 7581SOL    HW234380   3.490   3.512   0.284  1.5480 -1.4153 -0.1244
 7582SOL     OW34381   1.950   2.617   3.565  0.0358 -0.3591  0.1578
 7582SOL    HW134382   2.022   2.644   3.621  0.6994  0.7786 -1.2443
 7582SOL    HW234383   1.919   2.541   3.615 -1.6770 -1.3429 -2.3763
 7583SOL     OW34384   3.500   0.895   2.972  0.0017 -0.5588  0.5545
 7583SOL    HW134385   3.576   0.946   2.943 -0.5366 -0.4285 -0.6334
 7583SOL    HW234386   3.539   0.854   3.049  1.1314 -1.3701 -0.4407
 7584SOL     OW34387   3.137   4.418  11.700 -0.1838  0.2439 -0.5081
 7584SOL    HW134388   3.103   4.507  11.695 -0.4475  0.0806 -1.5231
 7584SOL    HW234389   3.143   4.391  11.609  1.2213 -0.3195 -0.2545
 7585SOL     OW34390   0.900   1.022  14.874 -0.1851 -0.4318  0.7511
 7585SOL    HW134391   0.943   0.957  14.930 -0.7600 -1.8440 -0.4578
 7585SOL    HW234392   0.932   0.993  14.789 -0.8262  0.7574  0.1077
 7586SOL     OW34393   3.399   2.407   2.489 -0.2239 -0.1210 -0.0470
 7586SOL    HW134394   3.336   2.445   2.549  1.2719  1.1391  0.7168
 7586SOL    HW234395   3.377   2.445   2.404 -2.1043  0.4393  0.6964
 7587SOL     OW34396   3.183   0.734   5.010 -0.4395  0.1804  0.1389
 7587SOL    HW134397   3.181   0.674   5.085 -0.2763  0.1138  0.0909
 7587SOL    HW234398   3.230   0.681   4.946 -2.0233 -0.0929 -0.7768
 7588SOL     OW34399   4.681   1.074  13.211  0.0259  0.2188 -0.0669
 7588SOL    HW134400   4.705   0.995  13.163 -0.0260  2.1930 -3.3437
 7588SOL    HW234401   0.001   1.059  13.288 -0.8878  2.5611  1.0521
 7589SOL     OW34402   3.843   3.637   6.464 -0.4317  0.5110  0.5398
 7589SOL    HW134403   3.790   3.709   6.499 -3.1316 -0.8664 -0.6460
 7589SOL    HW234404   3.766   3.589   6.433 -1.8180  3.0459  0.0546
 7590SOL     OW34405   4.046   2.414   3.685 -0.3438  0.0606 -0.0245
 7590SOL    HW134406   4.062   2.369   3.768  0.7829  1.8802  0.7488
 7590SOL    HW234407   4.080   2.350   3.622  1.2782  0.3041  0.6027
 7591SOL     OW34408   3.306   3.084  16.458  0.0010 -0.1693  0.5726
 7591SOL    HW134409   3.326   3.000  16.499  0.2488  0.2566  1.3313
 7591SOL    HW234410   3.303   3.131  16.542  3.1542  1.8258 -0.4281
 7592SOL     OW34411   2.704   3.880  15.930  0.4129 -0.1606  0.2145
 7592SOL    HW134412   2.694   3.785  15.930 -1.1248  0.0052 -0.6455
 7592SOL    HW234413   2.612   3.904  15.942  0.0247 -1.4298 -0.2372
 7593SOL     OW34414   0.458   3.849   5.246  0.6517 -0.1300  0.1592
 7593SOL    HW134415   0.472   3.763   5.285 -0.3548 -0.1184  0.5474
 7593SOL    HW234416   0.526   3.842   5.180  1.4099  1.9176  0.7308
 7594SOL     OW34417   3.725   1.560   2.436 -0.3823  0.0501  0.0018
 7594SOL    HW134418   3.684   1.581   2.520  0.7274 -2.4113  1.1418
 7594SOL    HW234419   3.782   1.489   2.463 -0.7838 -0.1207  0.4006
 7595SOL     OW34420   1.565   1.055   7.567  0.1745 -0.1488 -0.1876
 7595SOL    HW134421   1.587   1.148   7.567  0.0714 -0.1285 -1.6868
 7595SOL    HW234422   1.627   1.028   7.635  1.4037  0.5883 -1.0130
 7596SOL     OW34423   2.137   3.881  17.100  0.2098 -0.2828 -0.4375
 7596SOL    HW134424   2.163   3.848  17.186 -2.2890 -1.5518 -0.1774
 7596SOL    HW234425   2.174   3.804  17.056 -2.5201 -3.0684  2.1465
 7597SOL     OW34426   4.377   3.781   3.030  0.3564  0.3744  0.3217
 7597SOL    HW134427   4.343   3.708   2.978  2.7082 -0.8084  0.4723
 7597SOL    HW234428   4.388   3.733   3.113  1.3607  2.7545  1.5559
 7598SOL     OW34429   3.875   4.087   5.748 -0.0261  0.3792 -0.8155
 7598SOL    HW134430   3.917   4.016   5.796 -1.9622 -0.9409 -1.1013
 7598SOL    HW234431   3.793   4.047   5.720 -1.8601  2.9073  0.9864
 7599SOL     OW34432   3.689   1.917   9.711 -0.5212  0.0093  0.0300
 7599SOL    HW134433   3.658   1.925   9.620 -0.4505  0.1521  0.0183
 7599SOL    HW234434   3.615   1.934   9.769 -0.2198  0.6280  0.2235
 7600SOL     OW34435   4.015   3.867   5.888 -0.0558  0.3942  0.0329
 7600SOL    HW134436   4.069   3.805   5.839 -0.0956 -0.7002  1.3940
 7600SOL    HW234437   4.087   3.927   5.903 -1.2517  0.8580  3.8527
 7601SOL     OW34438   3.675   4.201   4.896 -0.0149  0.2799 -0.1161
 7601SOL    HW134439   3.652   4.242   4.979 -1.1511  0.9190 -0.7453
 7601SOL    HW234440   3.770   4.210   4.892 -0.0914  1.0174 -0.2426
 7602SOL     OW34441   4.508   1.187   1.706 -0.0406  0.4182  0.2213
 7602SOL    HW134442   4.585   1.163   1.654 -0.8301  1.7232 -1.5610
 7602SOL    HW234443   4.503   1.279   1.678  3.1514  0.5878  0.1131
 7603SOL     OW34444   0.859   2.797   4.179  0.4015 -0.3034 -0.1720
 7603SOL    HW134445   0.848   2.788   4.274 -1.7238  0.0429 -0.3912
 7603SOL    HW234446   0.859   2.703   4.161 -0.3599 -0.5742  1.1762
 7604SOL     OW34447   0.470   0.214   8.456  0.0910 -0.3592 -0.5472
 7604SOL    HW134448   0.423   0.289   8.491  0.3695  0.9883 -3.1187
 7604SOL    HW234449   0.457   0.223   8.362 -0.8530 -1.0217 -0.4769
 7605SOL     OW34450   2.411   4.105  11.288  0.1905  0.2507 -0.6627
 7605SOL    HW134451   2.388   4.016  11.315  1.0895 -0.0428 -0.8652
 7605SOL    HW234452   2.505   4.118  11.275  0.1739  1.3265  0.3594
 7606SOL     OW34453   3.221   1.288   1.795  0.4610  0.4086  0.3760
 7606SOL    HW134454   3.186   1.372   1.766  1.0438  0.4960 -0.0664
 7606SOL    HW234455   3.143   1.236   1.775  0.1400  1.8238 -2.0446
 7607SOL     OW34456   4.637   0.421   7.081 -0.2950 -0.1396  0.2445
 7607SOL    HW134457   4.558   0.456   7.122 -1.8112 -0.2423 -2.5482
 7607SOL    HW234458   4.703   0.479   7.118  0.6499 -0.6331 -0.6700
 7608SOL     OW34459   1.110   3.246   5.722  0.2615 -0.0924  0.4133
 7608SOL    HW134460   1.186   3.303   5.740  0.7823  0.3246 -3.0844
 7608SOL    HW234461   1.096   3.222   5.814 -0.3958  3.6043  1.2996
 7609SOL     OW34462   1.189   2.566   8.506 -0.1746 -0.1072 -0.0345
 7609SOL    HW134463   1.138   2.487   8.485  1.1973 -0.1427 -3.2187
 7609SOL    HW234464   1.160   2.585   8.595  0.6094  2.5512 -0.3427
 7610SOL     OW34465   0.314   1.535   9.117 -0.4967  0.0350  0.2367
 7610SOL    HW134466   0.304   1.587   9.037  1.9996  1.3236  0.7400
 7610SOL    HW234467   0.354   1.603   9.172 -0.1929 -0.4698  0.6361
 7611SOL     OW34468   3.544   2.592   6.734  0.0011  0.3891  0.2227
 7611SOL    HW134469   3.485   2.609   6.661 -1.5658 -0.7938  1.2066
 7611SOL    HW234470   3.556   2.679   6.771 -1.3196  1.1466 -1.1772
 7612SOL     OW34471   2.719   3.195   3.785 -0.3148 -0.0434  0.3734
 7612SOL    HW134472   2.790   3.148   3.742  0.5460 -0.5515  2.3346
 7612SOL    HW234473   2.766   3.272   3.817  0.2978 -0.2879  0.0460
 7613SOL     OW34474   3.212   3.681   0.658  0.4060 -0.1516 -0.3145
 7613SOL    HW134475   3.266   3.695   0.735 -1.4921 -0.5402  1.0927
 7613SOL    HW234476   3.241   3.751   0.600  1.5241 -0.1927  0.2001
 7614SOL     OW34477   4.052   0.845   6.310  0.2016  0.4629  0.9537
 7614SOL    HW134478   4.065   0.850   6.216  1.7726  0.0678  1.1325
 7614SOL    HW234479   3.959   0.833   6.327  0.6301 -1.3152  2.0875
 7615SOL     OW34480   3.489   0.174   5.816 -0.0408  0.4347  0.0989
 7615SOL    HW134481   3.422   0.153   5.752 -0.5163  0.8138  0.4663
 7615SOL    HW234482   3.496   0.084   5.849  0.8640  0.4760  0.0279
 7616SOL     OW34483   3.259   3.179  10.703 -0.2171 -0.3244  0.4428
 7616SOL    HW134484   3.204   3.118  10.653 -0.0596  0.7656 -1.0875
 7616SOL    HW234485   3.242   3.258  10.651  2.2330 -2.3127 -3.4246
 7617SOL     OW34486   4.032   4.062  16.721  0.6753  0.0620  0.3965
 7617SOL    HW134487   3.953   4.008  16.714  0.2657  0.7717 -0.4956
 7617SOL    HW234488   4.002   4.127  16.785 -2.4025 -1.4567  0.4588
 7618SOL     OW34489   0.974   2.365   8.724 -0.1028 -0.0981 -0.0496
 7618SOL    HW134490   0.899   2.420   8.744  1.4049  0.4761  4.0657
 7618SOL    HW234491   0.953   2.290   8.780  0.0054  0.8548  1.2654
 7619SOL     OW34492   0.344   2.789  14.677 -0.0901  0.5939  0.1500
 7619SOL    HW134493   0.384   2.807  14.592 -1.3585  0.2525 -0.5083
 7619SOL    HW234494   0.300   2.873  14.674 -1.3316 -0.0274  1.1015
 7620SOL     OW34495   0.617   0.298  10.280  0.2538  0.2456 -0.2355
 7620SOL    HW134496   0.529   0.269  10.259  0.6418 -0.3529 -1.0277
 7620SOL    HW234497   0.635   0.245  10.358  0.3519  1.0983  0.3254
 7621SOL     OW34498   0.205   4.461   9.707 -0.3270 -0.0867  0.1473
 7621SOL    HW134499   0.133   4.415   9.751 -0.5289  0.3779  0.2957
 7621SOL    HW234500   0.168   4.548   9.714  0.4141 -0.0015  2.9414
 7622SOL     OW34501   2.249   0.813   4.071 -0.2949 -0.4915 -0.5607
 7622SOL    HW134502   2.250   0.905   4.043 -0.5811  0.2228  1.7861
 7622SOL    HW234503   2.339   0.792   4.047  0.3463 -0.2992  1.7189
 7623SOL     OW34504   1.459   3.043  11.738  0.1282 -0.5008  0.3402
 7623SOL    HW134505   1.455   3.110  11.807  1.1140 -1.2115  1.0805
 7623SOL    HW234506   1.553   3.050  11.726  0.2509 -1.5486  0.7212
 7624SOL     OW34507   2.851   0.976  17.626  0.2568  0.3236  0.6140
 7624SOL    HW134508   2.837   0.973  17.532 -0.6205 -1.0920  0.7833
 7624SOL    HW234509   2.789   0.910  17.658  0.9567 -0.4198  0.4295
 7625SOL     OW34510   2.469   4.474   1.712 -0.1844  0.4990  0.0396
 7625SOL    HW134511   2.433   4.439   1.631 -0.3377  0.5583  0.0817
 7625SOL    HW234512   2.550   4.519   1.688 -0.8087  0.4871 -2.0850
 7626SOL     OW34513   4.081   2.046  11.700  0.0746 -0.1806 -0.1566
 7626SOL    HW134514   4.117   2.087  11.779 -2.2310  0.3616  0.6259
 7626SOL    HW234515   4.076   2.120  11.640  0.6063 -0.6872 -0.8259
 7627SOL     OW34516   4.049   1.671   6.767 -1.0010 -0.7885  0.3852
 7627SOL    HW134517   3.959   1.639   6.755 -1.9697  2.9622 -2.0339
 7627SOL    HW234518   4.042   1.696   6.859  1.1128 -0.5212  0.4590
 7628SOL     OW34519   2.705   2.937   1.681 -0.1950 -0.5342  0.0706
 7628SOL    HW134520   2.771   3.003   1.704 -0.7897  0.2666 -0.4964
 7628SOL    HW234521   2.649   2.927   1.758 -1.2437 -0.7126 -0.7272
 7629SOL     OW34522   2.921   4.372   7.417 -0.4650  0.6381 -0.4323
 7629SOL    HW134523   2.829   4.386   7.442 -0.5734 -1.6010  0.3917
 7629SOL    HW234524   2.958   4.363   7.505  0.1706  0.8795 -0.6715
 7630SOL     OW34525   2.631   0.621   7.316 -0.0737 -0.3190 -0.0331
 7630SOL    HW134526   2.647   0.629   7.410  0.9391  1.0836 -0.3344
 7630SOL    HW234527   2.619   0.714   7.301  2.3633 -0.1039 -0.5115
 7631SOL     OW34528   1.677   4.045  10.002  0.3387  0.4199  0.4640
 7631SOL    HW134529   1.657   3.960   9.961  0.2045  0.0944  1.2082
 7631SOL    HW234530   1.612   4.037  10.072 -0.8915  0.8618 -0.6243
 7632SOL     OW34531   4.321   1.322   6.662 -0.7958  0.6599 -0.3697
 7632SOL    HW134532   4.265   1.278   6.598  1.2565 -0.0123 -1.7080
 7632SOL    HW234533   4.255   1.339   6.730  0.8057  2.1600  0.8234
 7633SOL     OW34534   4.419   1.599   8.571 -0.0334  0.2040 -0.0244
 7633SOL    HW134535   4.475   1.532   8.609 -0.3958 -0.2033 -0.2146
 7633SOL    HW234536   4.474   1.649   8.511  2.9351 -1.7623  1.0860
 7634SOL     OW34537   2.821   0.498   8.392 -0.2080 -0.1889  0.0281
 7634SOL    HW134538   2.817   0.581   8.345  1.5864  0.0881  0.3803
 7634SOL    HW234539   2.739   0.516   8.439 -0.8865 -0.9180 -0.8694
 7635SOL     OW34540   0.704   0.688  16.018 -0.1522 -0.3165  0.3151
 7635SOL    HW134541   0.778   0.648  16.063  2.6726  4.0539 -0.4803
 7635SOL    HW234542   0.643   0.614  16.020 -1.1969  0.5478  0.6236
 7636SOL     OW34543   4.265   1.488   7.592  0.2657  0.4519 -1.0675
 7636SOL    HW134544   4.282   1.484   7.498  2.3916 -1.8443 -0.5860
 7636SOL    HW234545   4.337   1.440   7.631 -1.2020 -1.3877 -0.6286
 7637SOL     OW34546   2.704   1.657  15.953  0.0841 -0.3388  0.4155
 7637SOL    HW134547   2.657   1.728  15.996 -0.8779  0.0781 -1.3472
 7637SOL    HW234548   2.773   1.705  15.907 -0.3901 -1.2316 -1.2368
 7638SOL     OW34549   1.069   4.674   8.803 -0.3975  0.5067 -0.1469
 7638SOL    HW134550   1.008   0.012   8.802 -1.3561 -0.3020 -1.3295
 7638SOL    HW234551   1.018   4.595   8.784  2.4019 -0.7915 -2.3218
 7639SOL     OW34552   0.594   2.169  14.338  0.6912  0.3970 -0.2576
 7639SOL    HW134553   0.620   2.105  14.404 -0.0084  1.5563  1.1385
 7639SOL    HW234554   0.678   2.184  14.294  0.2643 -2.0529 -1.9105
 7640SOL     OW34555   1.263   1.204   0.972 -0.0973  0.3492 -0.6769
 7640SOL    HW134556   1.307   1.130   0.929 -0.8393 -0.9320  0.7804
 7640SOL    HW234557   1.316   1.228   1.048 -1.4568 -1.5219  0.8786
 7641SOL     OW34558   3.495   0.845   8.273  0.0498  0.1720  0.1203
 7641SOL    HW134559   3.511   0.934   8.305  1.3532  0.0984 -0.3298
 7641SOL    HW234560   3.570   0.843   8.214 -0.2207 -1.7860 -0.1509
 7642SOL     OW34561   0.450   2.941   3.531 -0.2915  0.3117 -0.1457
 7642SOL    HW134562   0.428   2.852   3.506  2.5200 -0.1217 -1.0944
 7642SOL    HW234563   0.398   2.956   3.610  1.6748  3.6538  0.5127
 7643SOL     OW34564   2.057   2.933   4.030  0.1942  0.0655 -0.4274
 7643SOL    HW134565   2.027   3.010   3.982  0.3634 -1.1268 -2.4568
 7643SOL    HW234566   1.999   2.863   3.998 -1.7393  0.9879  1.0618
 7644SOL     OW34567   3.136   3.643   9.810  0.1792  0.8188  0.6817
 7644SOL    HW134568   3.209   3.583   9.817 -0.6021 -0.1018  0.9231
 7644SOL    HW234569   3.092   3.625   9.893  0.7680  1.0282  1.0334
 7645SOL     OW34570   4.174   1.243   4.602  0.0162 -0.2131  0.6826
 7645SOL    HW134571   4.122   1.188   4.543 -0.5577  0.2210  0.7906
 7645SOL    HW234572   4.259   1.216   4.568  0.4139  0.5501  1.0798
 7646SOL     OW34573   0.445   2.676   7.571  0.2402 -0.3407  0.0493
 7646SOL    HW134574   0.411   2.762   7.593 -0.4443 -0.1153 -1.9487
 7646SOL    HW234575   0.518   2.705   7.516 -0.6895  0.5665 -0.6902
 7647SOL     OW34576   0.528   1.499  15.781  0.2761  0.0661 -0.4560
 7647SOL    HW134577   0.527   1.426  15.719  1.2256  0.5326 -1.0112
 7647SOL    HW234578   0.527   1.578  15.728 -1.9323 -0.0902 -0.6555
 7648SOL     OW34579   1.973   3.246   3.105 -0.3448 -0.6057 -0.2334
 7648SOL    HW134580   2.012   3.160   3.122  1.5672  0.0788 -1.1622
 7648SOL    HW234581   1.890   3.245   3.153 -1.5108 -2.3656 -2.2610
 7649SOL     OW34582   1.726   0.261   1.802  0.2142  0.3710  0.3531
 7649SOL    HW134583   1.767   0.283   1.886 -0.2075  1.2198  0.3449
 7649SOL    HW234584   1.758   0.172   1.790  0.3492  0.5767 -0.8426
 7650SOL     OW34585   1.021   3.550  11.037 -0.0282 -0.4634 -0.6824
 7650SOL    HW134586   1.084   3.598  11.092 -1.7989 -0.0475  0.9969
 7650SOL    HW234587   1.079   3.526  10.965  0.8277 -1.1995  0.2312
 7651SOL     OW34588   2.809   2.321   7.064 -0.0460  0.1719  0.0441
 7651SOL    HW134589   2.842   2.361   7.144  1.0069 -0.1554 -0.2240
 7651SOL    HW234590   2.821   2.228   7.084  0.7914  0.4286  0.6906
 7652SOL     OW34591   2.570   3.095   2.889  0.7458 -0.1168  0.9885
 7652SOL    HW134592   2.488   3.058   2.922  2.2380 -2.5708  1.9467
 7652SOL    HW234593   2.533   3.177   2.856  0.3469 -0.6735  0.0405
 7653SOL     OW34594   3.300   0.900   7.777  0.7395  0.1191 -0.5248
 7653SOL    HW134595   3.302   0.894   7.873  0.1946 -0.8345 -0.5720
 7653SOL    HW234596   3.395   0.900   7.761  1.2701 -1.0956  2.4434
 7654SOL     OW34597   0.094   2.599  17.139  0.0328 -0.0041  0.0524
 7654SOL    HW134598   0.166   2.551  17.097 -2.1506 -1.4361 -2.0473
 7654SOL    HW234599   0.091   2.553  17.223  1.0991  1.1220  0.7024
 7655SOL     OW34600   3.963   1.754   2.551 -0.6494 -0.1081  0.1412
 7655SOL    HW134601   3.996   1.693   2.617  0.6957  2.0680  1.4711
 7655SOL    HW234602   4.028   1.822   2.566 -0.1047 -0.6687  0.3396
 7656SOL     OW34603   0.479   4.523   9.775 -0.0645 -0.5075  0.0608
 7656SOL    HW134604   0.404   4.480   9.735  0.6479 -1.7800  0.0939
 7656SOL    HW234605   0.430   4.579   9.835  1.5976 -0.1761  1.1320
 7657SOL     OW34606   4.018   4.424  17.268 -0.1723 -0.4593 -0.0182
 7657SOL    HW134607   3.995   4.381  17.350 -0.2547 -0.8277 -0.2343
 7657SOL    HW234608   3.930   4.460  17.257 -0.5048 -1.4190 -0.5483
 7658SOL     OW34609   3.387   0.867   4.700  0.5932 -0.3165 -0.5932
 7658SOL    HW134610   3.408   0.954   4.668 -2.2527 -0.0480 -1.7353
 7658SOL    HW234611   3.295   0.863   4.728  1.0695  0.8935  1.1215
 7659SOL     OW34612   2.788   4.713   6.353 -0.3174 -0.2645  0.0835
 7659SOL    HW134613   2.798   4.617   6.351  0.3674 -0.1642 -1.5079
 7659SOL    HW234614   2.780   4.720   6.448 -1.2076 -2.3228  0.1718
 7660SOL     OW34615   1.366   2.131   1.204  0.2945 -0.0156  0.0197
 7660SOL    HW134616   1.294   2.129   1.267 -0.7387  0.7251 -1.1419
 7660SOL    HW234617   1.378   2.036   1.204 -0.5943 -0.1211 -0.7890
 7661SOL     OW34618   0.314   2.709   5.752 -0.1423  0.3237  0.3684
 7661SOL    HW134619   0.312   2.749   5.665  2.2196 -0.4680 -0.0471
 7661SOL    HW234620   0.250   2.639   5.739  0.2517  0.0422 -0.0703
 7662SOL     OW34621   0.502   2.430  17.616  0.4253  0.0233  0.1399
 7662SOL    HW134622   0.432   2.491  17.591 -0.7566 -2.0804 -1.6467
 7662SOL    HW234623   0.579   2.486  17.624 -0.7952  1.5927  0.9162
 7663SOL     OW34624   2.783   0.911  17.381 -0.0220 -0.2302 -0.1653
 7663SOL    HW134625   2.688   0.895  17.380 -0.0456 -0.1065 -0.0046
 7663SOL    HW234626   2.796   0.938  17.291 -2.4198  1.9861  0.1405
 7664SOL     OW34627   1.771   2.110   6.831 -0.2553  0.0531  0.2435
 7664SOL    HW134628   1.749   2.025   6.792  3.0407 -0.3429 -0.7698
 7664SOL    HW234629   1.866   2.104   6.840 -0.2154 -0.5841 -0.5602
 7665SOL     OW34630   2.996   3.576   3.233  0.1422  0.3496 -0.4751
 7665SOL    HW134631   3.044   3.618   3.305 -0.9070  1.5833 -0.4927
 7665SOL    HW234632   3.052   3.501   3.217  0.3770  0.4697 -0.2236
 7666SOL     OW34633   0.042   1.952  15.532 -0.1069  0.2544 -0.5263
 7666SOL    HW134634   0.047   1.884  15.466 -0.2951 -2.3699  2.1598
 7666SOL    HW234635   0.052   1.902  15.613 -1.0500  4.1936  2.0281
 7667SOL     OW34636   1.638   1.152   0.969 -0.3393 -0.3635  0.2431
 7667SOL    HW134637   1.622   1.177   0.878  0.8160  0.5595  0.2974
 7667SOL    HW234638   1.604   1.234   1.004  2.3229 -0.0435  2.0453
 7668SOL     OW34639   0.627   3.739   5.062  0.1569  0.2552  0.1140
 7668SOL    HW134640   0.614   3.646   5.043  1.4911  0.1969 -0.5299
 7668SOL    HW234641   0.657   3.765   4.975  0.6151 -0.6416 -0.0031
 7669SOL     OW34642   2.638   3.420  16.222  0.3072  0.4067  0.3392
 7669SOL    HW134643   2.702   3.358  16.257 -2.0680  0.0554  4.0235
 7669SOL    HW234644   2.558   3.371  16.238  0.3910  1.4182  3.8395
 7670SOL     OW34645   1.399   1.173   3.239  0.1537  0.3165  0.5251
 7670SOL    HW134646   1.460   1.105   3.269  0.7036  1.0619  1.0938
 7670SOL    HW234647   1.449   1.232   3.183 -1.4581 -0.9114 -2.2235
 7671SOL     OW34648   4.442   2.202   4.624  0.1948  0.1193 -0.1126
 7671SOL    HW134649   4.533   2.190   4.595  0.0367 -2.0685  0.2971
 7671SOL    HW234650   4.403   2.133   4.570 -1.0707  1.7221 -1.2432
 7672SOL     OW34651   0.152   2.754   6.261 -0.3959  0.2208  0.0991
 7672SOL    HW134652   0.228   2.811   6.275  0.0747 -0.4549  0.2748
 7672SOL    HW234653   0.194   2.676   6.225  0.8346  0.5221  0.8842
 7673SOL     OW34654   4.091   1.297   5.615 -0.7562  0.2068  0.2398
 7673SOL    HW134655   4.172   1.299   5.564 -1.9463 -0.5503 -1.6795
 7673SOL    HW234656   4.086   1.385   5.652 -1.6126  0.8840 -1.4807
 7674SOL     OW34657   4.042   3.527   8.257 -0.4778  0.3196 -0.0689
 7674SOL    HW134658   4.105   3.499   8.324  3.1757 -0.1172 -3.6752
 7674SOL    HW234659   4.081   3.483   8.181  2.4732 -1.4907  2.4832
 7675SOL     OW34660   2.870   3.656   1.620 -0.0137  0.9191  0.0855
 7675SOL    HW134661   2.837   3.741   1.650  0.7499  0.7230  1.4956
 7675SOL    HW234662   2.783   3.619   1.631  0.4831 -0.6387 -1.2299
 7676SOL     OW34663   4.141   0.287   8.654 -0.2748 -0.1936 -0.3277
 7676SOL    HW134664   4.105   0.198   8.653 -0.5764 -0.0589 -1.3597
 7676SOL    HW234665   4.235   0.271   8.643 -0.8256 -1.2319 -3.7043
 7677SOL     OW34666   2.748   1.499   6.646 -0.1922  0.2692 -0.0087
 7677SOL    HW134667   2.707   1.526   6.564 -2.7337 -1.1222  0.8391
 7677SOL    HW234668   2.815   1.441   6.609 -2.5135  0.0188 -3.7298
 7678SOL     OW34669   4.602   2.950  13.737  0.2497 -0.5252  0.0719
 7678SOL    HW134670   4.518   2.988  13.709  0.5660  0.6143  0.6801
 7678SOL    HW234671   4.655   3.025  13.764 -0.1533 -0.1077 -0.2720
 7679SOL     OW34672   2.880   2.550   7.952  0.5207  0.1029 -0.1326
 7679SOL    HW134673   2.962   2.499   7.947  0.1727 -0.5959  1.2453
 7679SOL    HW234674   2.918   2.632   7.983 -1.7212  0.4688  1.6412
 7680SOL     OW34675   0.245   1.608  10.240 -0.0594  0.4402  0.1894
 7680SOL    HW134676   0.150   1.600  10.229  0.2989 -0.6295 -2.0937
 7680SOL    HW234677   0.236   1.620  10.335  0.1270 -1.4696  0.4510
 7681SOL     OW34678   4.407   1.713   9.347 -0.0406 -0.8565  0.2352
 7681SOL    HW134679   4.473   1.705   9.277 -1.3059 -0.5026 -1.0026
 7681SOL    HW234680   4.455   1.723   9.429  1.9914  0.3363 -1.0877
 7682SOL     OW34681   2.519   0.871  17.342  0.0158 -0.1217 -0.3140
 7682SOL    HW134682   2.486   0.860  17.252  2.6726 -0.6693 -1.2340
 7682SOL    HW234683   2.493   0.798  17.398 -2.5228 -0.2114 -1.6282
 7683SOL     OW34684   4.556   3.903  14.981  0.0121  0.4614 -0.3571
 7683SOL    HW134685   4.637   3.929  14.936  1.2673 -0.6086  1.2698
 7683SOL    HW234686   4.569   3.968  15.050 -0.9086 -0.7629  0.9747
 7684SOL     OW34687   2.876   0.725   3.637  0.1863  0.1775 -0.6899
 7684SOL    HW134688   2.782   0.742   3.628 -0.0848  0.1764  2.0416
 7684SOL    HW234689   2.869   0.633   3.665 -1.1477  0.0775 -1.3231
 7685SOL     OW34690   2.686   2.480   7.378 -0.8157  0.0416 -0.0672
 7685SOL    HW134691   2.746   2.503   7.450 -0.1200 -0.7198 -0.4035
 7685SOL    HW234692   2.602   2.461   7.419 -0.0693 -0.8220  1.0481
 7686SOL     OW34693   0.594   0.350   2.198 -0.3194  0.5336 -0.4624
 7686SOL    HW134694   0.534   0.390   2.261  0.5940  1.4859 -0.1998
 7686SOL    HW234695   0.675   0.377   2.242  0.4819 -0.8437 -1.0783
 7687SOL     OW34696   1.890   3.489   6.685  0.0565 -0.2304  0.1882
 7687SOL    HW134697   1.876   3.411   6.632 -1.2476 -0.2065  0.4979
 7687SOL    HW234698   1.806   3.495   6.730 -0.5188 -1.0506 -0.7674
 7688SOL     OW34699   0.134   2.838   3.973  0.1816 -0.2375  0.2352
 7688SOL    HW134700   0.145   2.746   3.995 -2.4150 -0.2316  1.4882
 7688SOL    HW234701   0.161   2.881   4.054 -0.3005 -0.9862  0.7957
 7689SOL     OW34702   2.625   4.169   2.809  1.3012  0.2194  0.4310
 7689SOL    HW134703   2.568   4.143   2.736 -1.8853  0.6026  2.8078
 7689SOL    HW234704   2.692   4.102   2.796  1.9982  0.9813  0.1166
 7690SOL     OW34705   3.226   2.258   5.855  0.2656 -0.2310  0.6200
 7690SOL    HW134706   3.148   2.215   5.821 -0.1225  0.9202  0.0479
 7690SOL    HW234707   3.201   2.350   5.845  0.0423 -0.4367 -0.6958
 7691SOL     OW34708   4.197   2.736   9.965  0.2819 -0.5039 -1.3581
 7691SOL    HW134709   4.123   2.683   9.936  0.1247  0.2974 -2.4181
 7691SOL    HW234710   4.251   2.679  10.020  1.7693  3.3078  1.1550
 7692SOL     OW34711   3.499   2.748   7.656 -0.4486  0.3103 -0.0410
 7692SOL    HW134712   3.532   2.734   7.745 -0.4721 -0.5118 -0.1629
 7692SOL    HW234713   3.518   2.666   7.611 -1.1163 -0.7538  1.6472
 7693SOL     OW34714   3.511   4.469   2.207 -0.3703  0.1911  0.3990
 7693SOL    HW134715   3.463   4.387   2.207 -0.6395  0.3313  2.3621
 7693SOL    HW234716   3.433   4.525   2.206 -0.6432 -0.2461 -2.4939
 7694SOL     OW34717   0.553   3.213  13.175  0.3078 -0.0939  0.2534
 7694SOL    HW134718   0.628   3.216  13.115 -0.2395 -0.5049 -0.4490
 7694SOL    HW234719   0.568   3.284  13.238 -0.2264 -0.2527  0.5524
 7695SOL     OW34720   0.447   0.199   4.253 -0.0078  0.6007  0.1902
 7695SOL    HW134721   0.369   0.190   4.198  0.9277  0.3532 -1.0953
 7695SOL    HW234722   0.508   0.226   4.184  1.5550  0.3922  1.4821
 7696SOL     OW34723   1.915   3.440   4.995  0.5653 -0.1106 -0.3053
 7696SOL    HW134724   1.913   3.451   4.900  0.3350  2.4822 -0.0015
 7696SOL    HW234725   2.004   3.475   5.000  0.6571 -0.0785 -2.3217
 7697SOL     OW34726   2.887   2.396   3.403 -0.1670  0.1174  0.5207
 7697SOL    HW134727   2.947   2.326   3.379 -0.5558 -0.2969  0.7463
 7697SOL    HW234728   2.849   2.360   3.483  2.2310 -0.5491  1.3636
 7698SOL     OW34729   0.558   4.022   0.628 -0.2259  0.1188  1.0204
 7698SOL    HW134730   0.572   4.027   0.533 -2.0758  2.4403  0.8768
 7698SOL    HW234731   0.587   3.931   0.633  4.1821  1.3829 -0.7591
 7699SOL     OW34732   2.248   1.301   2.698  0.5141 -0.0303  0.7684
 7699SOL    HW134733   2.189   1.230   2.724 -1.1444  1.8028  2.0344
 7699SOL    HW234734   2.280   1.280   2.610 -1.6601 -1.7374  0.3739
 7700SOL     OW34735   1.394   3.355   5.197 -0.3310  0.5878  0.2691
 7700SOL    HW134736   1.458   3.413   5.237  0.8550 -0.3546 -0.2764
 7700SOL    HW234737   1.425   3.274   5.238  0.8711  0.7672 -0.2945
 7701SOL     OW34738   1.873   0.902   9.423 -0.9982 -0.0448  0.0630
 7701SOL    HW134739   1.794   0.955   9.426 -1.4429 -0.8625  2.2082
 7701SOL    HW234740   1.868   0.857   9.507 -0.3764 -3.0125 -1.4724
 7702SOL     OW34741   1.569   0.448   6.533  0.3170 -0.3025 -0.1047
 7702SOL    HW134742   1.483   0.480   6.562  0.8485 -0.1549  1.2907
 7702SOL    HW234743   1.551   0.424   6.442 -2.0793 -1.9773  0.7957
 7703SOL     OW34744   4.545   0.733  16.100  0.4083 -0.0755  0.5101
 7703SOL    HW134745   4.603   0.789  16.152  1.6272 -0.0793 -0.8475
 7703SOL    HW234746   4.461   0.757  16.141  0.7917 -0.8249  1.7462
 7704SOL     OW34747   3.767   2.130   5.543  0.0958 -0.8709 -0.2806
 7704SOL    HW134748   3.825   2.114   5.468  0.7371 -0.2336  0.0795
 7704SOL    HW234749   3.685   2.085   5.524  0.1892 -1.6413  1.1651
 7705SOL     OW34750   0.539   2.937   6.542  0.5474 -0.3338  0.0056
 7705SOL    HW134751   0.501   2.915   6.457  3.0096  1.4822 -1.5606
 7705SOL    HW234752   0.505   2.863   6.593  1.0509  1.1117  2.4440
 7706SOL     OW34753   1.793   2.795  15.593 -0.2812 -0.0162  0.1316
 7706SOL    HW134754   1.739   2.738  15.647  0.5970  1.4317  2.5094
 7706SOL    HW234755   1.755   2.882  15.608  2.4600  1.1293  0.3707
 7707SOL     OW34756   1.106   3.542   5.075 -0.0164 -0.0584 -0.2124
 7707SOL    HW134757   1.068   3.539   4.987  0.3897  0.4042 -0.4003
 7707SOL    HW234758   1.033   3.500   5.122 -0.7458  0.1187 -1.1949
 7708SOL     OW34759   1.932   2.895  10.989  0.3057  0.7074  0.5876
 7708SOL    HW134760   1.984   2.937  11.058  2.4463 -0.6418 -0.2009
 7708SOL    HW234761   1.848   2.885  11.033 -0.3272  0.7383 -0.6123
 7709SOL     OW34762   4.684   3.280   2.449 -0.5898  0.4442  0.1961
 7709SOL    HW134763   4.640   3.196   2.442 -1.7806  1.0667  0.2523
 7709SOL    HW234764   0.039   3.268   2.417  0.2426  3.0518  1.6108
 7710SOL     OW34765   4.538   3.915   8.236 -0.0887 -0.4607 -0.2868
 7710SOL    HW134766   4.492   3.968   8.301 -1.3338 -1.5196 -0.2952
 7710SOL    HW234767   4.489   3.834   8.250  0.9975 -0.7881  1.5299
 7711SOL     OW34768   0.269   2.524   3.424  0.4921  0.5009  0.4089
 7711SOL    HW134769   0.293   2.615   3.409  0.0824  0.6643  0.7275
 7711SOL    HW234770   0.175   2.526   3.447  0.5436  2.7759  0.3914
 7712SOL     OW34771   0.610   0.276   9.037  0.2622  0.2554  0.0784
 7712SOL    HW134772   0.692   0.324   9.046  0.7229 -0.0301 -2.6732
 7712SOL    HW234773   0.605   0.220   9.115 -0.6580  0.9537  0.5183
 7713SOL     OW34774   2.113   4.232  11.739  0.1502 -0.9808  0.4120
 7713SOL    HW134775   2.069   4.211  11.821  1.0922 -0.2020  1.1217
 7713SOL    HW234776   2.075   4.313  11.705  1.6963 -0.8385 -0.9756
 7714SOL     OW34777   2.057   0.629   1.920  0.5477  0.3398 -0.2057
 7714SOL    HW134778   2.111   0.707   1.907  0.0944  0.6794 -0.0943
 7714SOL    HW234779   2.117   0.567   1.879  1.4019  1.1888 -0.2553
 7715SOL     OW34780   0.193   2.851   5.058  0.1122 -0.1380  0.9119
 7715SOL    HW134781   0.241   2.928   5.089 -0.2584  1.0990 -1.5645
 7715SOL    HW234782   0.108   2.889   5.034  0.7576  1.1013  0.5852
 7716SOL     OW34783   0.513   2.942   5.255 -0.1035  0.0031 -0.6606
 7716SOL    HW134784   0.583   2.910   5.197 -0.2352 -0.7424 -0.4129
 7716SOL    HW234785   0.439   2.935   5.194 -2.3348  0.5779  1.9945
 7717SOL     OW34786   2.081   0.853   5.210  0.2936  0.3613 -0.3316
 7717SOL    HW134787   2.176   0.844   5.200  0.4937  1.2791  0.7517
 7717SOL    HW234788   2.044   0.829   5.125 -0.8056 -0.4793  0.3763
 7718SOL     OW34789   3.917   3.951   4.825 -0.0031  0.0626 -0.2074
 7718SOL    HW134790   3.953   3.863   4.839  0.5949  0.7019  2.2698
 7718SOL    HW234791   3.870   3.969   4.907  2.5297  2.2847  0.7773
 7719SOL     OW34792   2.500   2.338   7.040  0.2168  0.0399 -0.3406
 7719SOL    HW134793   2.504   2.432   7.059 -0.7582 -0.6848  3.5143
 7719SOL    HW234794   2.592   2.315   7.048  0.5378  0.7821 -1.9561
 7720SOL     OW34795   4.057   3.482   9.483  0.3373 -0.4511  0.0859
 7720SOL    HW134796   3.996   3.447   9.548 -0.5095 -0.2318 -0.5890
 7720SOL    HW234797   4.111   3.405   9.462 -0.7494 -1.0678 -0.4685
 7721SOL     OW34798   1.716   3.654   4.559 -0.4314 -0.2088 -0.1262
 7721SOL    HW134799   1.792   3.712   4.549  0.7600 -1.4776  1.5030
 7721SOL    HW234800   1.691   3.608   4.479  0.9395  0.6867 -1.0726
 7722SOL     OW34801   2.545   3.606   7.832  0.0272  0.2157  0.2119
 7722SOL    HW134802   2.514   3.614   7.922 -0.0601  0.7393  0.1331
 7722SOL    HW234803   2.556   3.700   7.819  1.1492 -0.0935 -1.1322
 7723SOL     OW34804   0.603   1.789  15.906  0.3490 -0.6473 -0.2904
 7723SOL    HW134805   0.546   1.771  15.831  2.3737  2.0867 -2.4837
 7723SOL    HW234806   0.614   1.883  15.894 -1.8417 -0.3267  0.1563
 7724SOL     OW34807   1.055   1.164  11.627 -0.0033  0.5380 -0.1590
 7724SOL    HW134808   1.031   1.185  11.718 -0.7367  1.0252 -0.4677
 7724SOL    HW234809   1.041   1.251  11.589 -0.6332  0.0242 -1.1066
 7725SOL     OW34810   3.913   1.313   7.026 -0.4431  0.0800 -0.6538
 7725SOL    HW134811   3.828   1.280   6.995 -0.9330  2.2819 -1.6340
 7725SOL    HW234812   3.874   1.385   7.076  0.0462 -0.0575 -0.0758
 7726SOL     OW34813   2.675   2.602   9.045 -1.2407 -0.0202  0.1842
 7726SOL    HW134814   2.642   2.535   8.985 -0.1924  0.2519 -0.7026
 7726SOL    HW234815   2.735   2.645   8.984 -1.3775  1.3991  1.0458
 7727SOL     OW34816   2.734   1.658  14.440 -0.2851  0.0928  0.5065
 7727SOL    HW134817   2.712   1.653  14.347  0.0267  0.8263  0.3892
 7727SOL    HW234818   2.826   1.685  14.444  0.1909 -1.2900 -1.5396
 7728SOL     OW34819   2.445   0.261   8.040  0.5977 -0.2713 -0.2221
 7728SOL    HW134820   2.413   0.335   8.093 -1.7237 -0.5658 -1.2048
 7728SOL    HW234821   2.525   0.238   8.087  0.9868  2.3797  0.4117
 7729SOL     OW34822   1.509   4.279   6.751  0.3041 -0.0350 -0.6804
 7729SOL    HW134823   1.571   4.288   6.823 -1.0305 -0.3701  0.5296
 7729SOL    HW234824   1.514   4.364   6.707 -0.0156  0.9552  1.2142
 7730SOL     OW34825   1.318   3.100   7.361 -0.3372 -0.0994 -0.5973
 7730SOL    HW134826   1.289   3.058   7.442  0.0871 -1.9993 -1.4319
 7730SOL    HW234827   1.396   3.150   7.386  1.0708 -2.4406 -0.3428
 7731SOL     OW34828   2.531   4.606   4.987 -0.2370 -0.2483  0.2603
 7731SOL    HW134829   2.560   4.515   4.993  0.7938  0.2179  2.3984
 7731SOL    HW234830   2.524   4.632   5.079  1.5494 -0.2665  0.4141
 7732SOL     OW34831   0.620   1.620   3.965 -0.1198  0.6972  0.1718
 7732SOL    HW134832   0.665   1.593   4.045 -0.3493  0.9421  0.3838
 7732SOL    HW234833   0.571   1.695   3.998  0.0336  0.4880  0.8761
 7733SOL     OW34834   0.736   3.646   6.657  0.2726 -0.0622 -0.1958
 7733SOL    HW134835   0.673   3.703   6.701 -1.6151 -0.0277 -2.8881
 7733SOL    HW234836   0.698   3.648   6.569  0.4954 -2.5522 -0.3617
 7734SOL     OW34837   1.538   1.295   6.556 -0.0073 -0.7397  0.1042
 7734SOL    HW134838   1.630   1.279   6.578  0.0766  1.0187  1.0112
 7734SOL    HW234839   1.539   1.260   6.467 -1.1637 -0.4489 -0.0202
 7735SOL     OW34840   0.642   0.116   4.623  0.0269  0.5721  0.2266
 7735SOL    HW134841   0.720   0.088   4.671 -0.5530 -2.6610 -0.7130
 7735SOL    HW234842   0.682   0.200   4.603  0.6944  0.1074 -0.3677
 7736SOL     OW34843   0.580   2.213   5.158  0.0747  0.1927 -0.3398
 7736SOL    HW134844   0.547   2.230   5.247 -0.8956  3.3428 -1.3119
 7736SOL    HW234845   0.619   2.126   5.170  1.2987  1.1466  2.5893
 7737SOL     OW34846   0.514   1.384   3.819 -0.2077  0.4235 -0.0867
 7737SOL    HW134847   0.533   1.327   3.894  1.0731 -1.0899 -1.5764
 7737SOL    HW234848   0.578   1.449   3.849 -1.7212  0.4059  3.2449
 7738SOL     OW34849   4.700   2.355   5.436 -0.3578  0.0102 -0.2171
 7738SOL    HW134850   0.022   2.297   5.384 -1.8531 -2.1437  0.5358
 7738SOL    HW234851   4.642   2.284   5.462 -0.7097  0.8538  1.2550
 7739SOL     OW34852   1.259   1.989   3.668  0.0955  0.6133  0.2253
 7739SOL    HW134853   1.354   1.992   3.672  0.2054 -1.5185 -1.4409
 7739SOL    HW234854   1.237   1.930   3.597  3.7035 -2.1231  1.4164
 7740SOL     OW34855   0.059   4.315   2.859  0.4986 -0.2283 -0.6335
 7740SOL    HW134856   0.093   4.239   2.906 -0.1305  0.1569  0.4453
 7740SOL    HW234857   0.014   4.259   2.796 -0.8138  1.3083 -1.0631
 7741SOL     OW34858   1.420   1.847   1.316 -0.2368 -0.2914 -0.0123
 7741SOL    HW134859   1.331   1.837   1.282 -0.7605 -0.6734  1.4697
 7741SOL    HW234860   1.434   1.778   1.382 -1.5655 -0.3064  0.2580
 7742SOL     OW34861   1.911   1.199   5.530  0.0770 -0.2310  0.0806
 7742SOL    HW134862   1.930   1.105   5.524  2.6831  0.1565  2.2735
 7742SOL    HW234863   1.954   1.222   5.613 -0.4303  0.1695  0.2328
 7743SOL     OW34864   3.891   0.481   1.662  0.2604 -0.7619  0.3064
 7743SOL    HW134865   3.875   0.424   1.738 -0.7359 -0.0664  0.6214
 7743SOL    HW234866   3.830   0.552   1.683  1.8223  0.4632  0.6667
 7744SOL     OW34867   1.699   1.880   2.806 -0.2000  0.2354 -0.1644
 7744SOL    HW134868   1.763   1.811   2.821 -0.8730 -0.4520 -0.4455
 7744SOL    HW234869   1.748   1.925   2.737 -0.0770 -1.4526 -1.1904
 7745SOL     OW34870   2.325   4.501   5.294 -0.2402  0.3826  0.6930
 7745SOL    HW134871   2.336   4.593   5.268  0.2130 -0.1855 -1.1740
 7745SOL    HW234872   2.405   4.495   5.346  0.5112 -1.4467 -0.7041
 7746SOL     OW34873   3.521   1.528  13.067 -0.8085 -0.0218  0.1344
 7746SOL    HW134874   3.559   1.616  13.058  4.1607 -2.2315 -0.8327
 7746SOL    HW234875   3.480   1.542  13.152 -1.8562 -0.8094 -0.2425
 7747SOL     OW34876   3.850   2.279   7.956 -0.3895 -0.6895 -0.5043
 7747SOL    HW134877   3.871   2.243   7.870  1.5094 -0.9643  0.0903
 7747SOL    HW234878   3.890   2.364   7.941  0.4179 -0.5757  2.2953
 7748SOL     OW34879   0.852   3.061   7.877 -0.4176 -0.1999  0.0015
 7748SOL    HW134880   0.785   3.128   7.891  0.4728  0.7349 -0.1939
 7748SOL    HW234881   0.936   3.103   7.893 -0.1685  0.4092 -2.8918
 7749SOL     OW34882   3.694   2.901   8.464  0.2355 -0.1469 -0.4572
 7749SOL    HW134883   3.640   2.923   8.388  1.1677 -0.6792 -1.2754
 7749SOL    HW234884   3.776   2.872   8.424  0.4817  0.9445 -0.7444
 7750SOL     OW34885   2.568   0.202   3.513  0.4122  0.3813  0.0247
 7750SOL    HW134886   2.603   0.185   3.426  0.5460 -2.1017  0.5615
 7750SOL    HW234887   2.480   0.219   3.480  1.4701  1.3209 -2.2773
 7751SOL     OW34888   3.764   4.567  17.434  0.0131  0.0069  0.6903
 7751SOL    HW134889   3.755   4.584  17.340 -1.0909  0.9728  0.9826
 7751SOL    HW234890   3.696   4.500  17.445 -0.1758  0.2952  1.2580
 7752SOL     OW34891   3.090   0.206   5.151  0.8286 -0.7657 -0.3114
 7752SOL    HW134892   3.050   0.156   5.080 -2.7402  3.4962 -1.3699
 7752SOL    HW234893   3.185   0.202   5.140  0.9568  2.5852 -0.4394
 7753SOL     OW34894   2.554   3.046  15.090 -0.8380  0.1989  0.3849
 7753SOL    HW134895   2.509   3.088  15.164 -1.6319 -1.5161  0.8585
 7753SOL    HW234896   2.484   2.991  15.055  0.6500 -1.1765 -0.4028
 7754SOL     OW34897   2.519   3.027   1.476  0.2338  0.1399 -0.4851
 7754SOL    HW134898   2.522   2.940   1.435 -1.1881 -0.8534  1.5608
 7754SOL    HW234899   2.591   3.020   1.539 -1.2294 -4.3143  0.6941
 7755SOL     OW34900   2.434   3.391   7.684 -0.1189  0.2422  0.1140
 7755SOL    HW134901   2.461   3.469   7.732  0.5665  0.3757 -0.4923
 7755SOL    HW234902   2.465   3.324   7.745  0.3141 -0.7839 -1.2282
 7756SOL     OW34903   0.857   2.846   6.166 -0.3863  0.3147  0.1092
 7756SOL    HW134904   0.911   2.891   6.232 -0.4273  0.3004  0.1524
 7756SOL    HW234905   0.878   2.885   6.081 -0.3899  1.3543  0.5933
 7757SOL     OW34906   0.234   2.878  11.155 -0.3136  0.0226  0.7638
 7757SOL    HW134907   0.262   2.947  11.094 -0.3846 -1.8948 -1.4173
 7757SOL    HW234908   0.165   2.923  11.205 -0.1575  0.6701  0.3954
 7758SOL     OW34909   0.742   1.574   9.052 -0.1825  0.2896 -0.1241
 7758SOL    HW134910   0.812   1.609   9.108  0.2210  1.2710 -1.2651
 7758SOL    HW234911   0.695   1.514   9.111  1.3933  0.5120  1.3854
 7759SOL     OW34912   3.124   0.412   4.205  0.2500  0.3929 -0.0716
 7759SOL    HW134913   3.214   0.380   4.203  0.1956  0.2172  0.4526
 7759SOL    HW234914   3.139   0.500   4.240 -3.0236  0.9500 -0.0142
 7760SOL     OW34915   0.875   2.785  13.560 -0.3894  0.4230 -0.0787
 7760SOL    HW134916   0.955   2.770  13.510  0.6801  0.0367  1.7356
 7760SOL    HW234917   0.882   2.711  13.621  1.0266  1.1958  0.7124
 7761SOL     OW34918   1.371   0.216   4.871 -0.3886  0.4322  0.5020
 7761SOL    HW134919   1.354   0.125   4.896  0.8269 -0.3287 -1.4403
 7761SOL    HW234920   1.394   0.255   4.955 -2.5899  2.0756  0.3321
 7762SOL     OW34921   0.794   3.759  13.863  0.2482 -0.4524  0.0383
 7762SOL    HW134922   0.735   3.714  13.803 -2.1760  1.2613  1.1298
 7762SOL    HW234923   0.844   3.681  13.888 -0.7718 -1.3187 -0.6388
 7763SOL     OW34924   2.153   4.695   3.365  0.0226  0.0462  0.0565
 7763SOL    HW134925   2.245   4.667   3.358 -0.1420 -0.3976 -0.3496
 7763SOL    HW234926   2.128   4.620   3.312  0.7960 -1.0988  1.3106
 7764SOL     OW34927   0.930   1.386   4.384 -0.0218  0.0329 -0.5307
 7764SOL    HW134928   0.988   1.310   4.390 -1.1973 -0.6653  2.3399
 7764SOL    HW234929   0.973   1.425   4.308  0.1071 -0.2580 -0.6092
 7765SOL     OW34930   3.667   4.658   4.107  0.1217  0.5904 -0.3168
 7765SOL    HW134931   3.584   4.690   4.141 -0.4103 -1.5977  0.4125
 7765SOL    HW234932   3.643   4.638   4.017 -1.0756 -0.6265  0.2856
 7766SOL     OW34933   1.672   0.199   9.622  0.3551  0.3605  0.0497
 7766SOL    HW134934   1.589   0.151   9.620 -0.4029  1.6604 -0.4170
 7766SOL    HW234935   1.674   0.227   9.713 -0.2517 -3.3103  1.1624
 7767SOL     OW34936   3.998   1.625   6.127 -0.1679  0.1085 -0.2525
 7767SOL    HW134937   3.972   1.559   6.062  1.4891 -0.9453  0.1584
 7767SOL    HW234938   3.991   1.701   6.069 -1.3173  0.2790  0.1117
 7768SOL     OW34939   1.179   0.752  10.890 -0.3807 -0.5064 -0.6107
 7768SOL    HW134940   1.234   0.772  10.814 -0.1392 -1.5524 -0.7155
 7768SOL    HW234941   1.211   0.807  10.962  0.4185  2.0549 -2.9506
 7769SOL     OW34942   2.614   0.523   8.961 -0.2451  0.4005 -0.1103
 7769SOL    HW134943   2.631   0.456   8.895 -1.6189 -1.2462  1.2214
 7769SOL    HW234944   2.618   0.469   9.040  0.5773 -1.8386 -1.7031
 7770SOL     OW34945   1.068   2.213  16.034 -0.0437 -0.3037  0.1289
 7770SOL    HW134946   1.047   2.120  16.029 -1.2026 -0.1266  1.8161
 7770SOL    HW234947   1.164   2.210  16.029 -0.0011  0.7530  0.2108
 7771SOL     OW34948   4.707   2.685  15.045  0.5486  0.1072 -0.0733
 7771SOL    HW134949   4.661   2.765  15.021 -2.1049 -1.3914  0.1018
 7771SOL    HW234950   4.652   2.617  15.007 -0.8939  0.9006  0.5897
 7772SOL     OW34951   3.152   4.049   7.902  0.2958  0.1984  0.5513
 7772SOL    HW134952   3.141   4.051   7.807 -1.2870 -0.0682  0.7277
 7772SOL    HW234953   3.069   4.016   7.936  0.8051  0.1127  1.7315
 7773SOL     OW34954   3.052   2.026   6.446  0.1144 -0.0289  0.8131
 7773SOL    HW134955   3.080   2.106   6.401 -0.0393  0.7255  2.0485
 7773SOL    HW234956   3.084   1.960   6.384 -1.9137 -0.4423  0.2132
 7774SOL     OW34957   3.865   3.815   2.455 -0.3399 -0.3165  0.2809
 7774SOL    HW134958   3.810   3.861   2.392 -1.7145 -3.9743 -1.1704
 7774SOL    HW234959   3.817   3.733   2.444  0.4940 -1.1146  2.4615
 7775SOL     OW34960   2.471   3.537   0.538 -0.6481  0.0988 -0.0909
 7775SOL    HW134961   2.403   3.583   0.489 -0.3322 -1.9613 -2.4121
 7775SOL    HW234962   2.554   3.558   0.495 -0.3379 -0.2048  0.3612
 7776SOL     OW34963   2.100   3.414   6.934  0.4354 -1.4779 -0.2124
 7776SOL    HW134964   2.053   3.374   6.861 -1.5610 -0.0589  0.3102
 7776SOL    HW234965   2.185   3.369   6.925  1.3062  0.2873 -0.8694
 7777SOL     OW34966   3.443   3.378   2.667  0.3896  0.3880 -0.1150
 7777SOL    HW134967   3.477   3.312   2.607 -1.3394  0.3016 -1.0329
 7777SOL    HW234968   3.522   3.416   2.705  0.4567  0.6466 -0.5021
 7778SOL     OW34969   0.001   3.290   5.870 -0.3243 -0.0533  0.1545
 7778SOL    HW134970   4.709   3.255   5.954  0.3177 -1.8782 -0.3899
 7778SOL    HW234971   4.666   3.350   5.846  1.6706  1.3237 -2.3169
 7779SOL     OW34972   2.766   3.526   3.447 -0.3829  0.9407 -0.0997
 7779SOL    HW134973   2.700   3.582   3.406 -0.4202 -0.7519 -2.2862
 7779SOL    HW234974   2.836   3.539   3.384 -0.8766 -0.4690 -0.9259
 7780SOL     OW34975   4.104   2.712   8.913 -0.7902 -0.4530  0.0928
 7780SOL    HW134976   4.043   2.764   8.861  0.4841  1.2267  0.2663
 7780SOL    HW234977   4.050   2.708   8.992 -1.3005 -0.7572 -0.2734
 7781SOL     OW34978   3.544   1.859   5.168  0.1076  0.3085  0.1856
 7781SOL    HW134979   3.527   1.949   5.198  0.6217 -0.1366  1.8441
 7781SOL    HW234980   3.467   1.808   5.190  0.7534 -1.5858 -2.0017
 7782SOL     OW34981   3.061   4.481   4.622 -0.3060 -0.2221 -0.4404
 7782SOL    HW134982   2.998   4.536   4.668  1.0046 -0.1628  1.3182
 7782SOL    HW234983   3.141   4.519   4.660  0.1421  0.7496 -2.3783
 7783SOL     OW34984   1.836   3.875   3.374 -0.3008  0.5213 -0.1438
 7783SOL    HW134985   1.870   3.958   3.409  0.0286 -0.3852  1.6999
 7783SOL    HW234986   1.752   3.902   3.336 -1.6720 -0.5131  2.1346
 7784SOL     OW34987   2.898   1.470  16.366 -0.1164  0.4160 -0.2884
 7784SOL    HW134988   2.848   1.500  16.291  0.9081  0.1050 -1.0902
 7784SOL    HW234989   2.968   1.419  16.326 -2.4104 -0.3370 -3.3763
 7785SOL     OW34990   2.579   2.174   2.206 -0.1208  0.0058 -0.2670
 7785SOL    HW134991   2.581   2.131   2.120 -4.1965  0.3116 -0.5110
 7785SOL    HW234992   2.632   2.111   2.254  0.1080  0.0600 -0.4472
 7786SOL     OW34993   4.280   1.455  16.215 -0.3124 -0.2107  0.5510
 7786SOL    HW134994   4.260   1.517  16.146 -1.9049  1.8775  2.8910
 7786SOL    HW234995   4.279   1.508  16.295  3.0245 -2.3681  2.0501
 7787SOL     OW34996   2.415   4.199  12.144  0.1261 -0.4774 -0.6592
 7787SOL    HW134997   2.397   4.113  12.182  0.0003  0.0936  0.5735
 7787SOL    HW234998   2.379   4.189  12.056  0.7559  0.6407 -1.0455
 7788SOL     OW34999   2.558   4.652   7.974 -0.4139 -0.6221 -0.7088
 7788SOL    HW135000   2.463   4.663   7.985 -0.4072  0.8178 -2.2443
 7788SOL    HW235001   2.564   4.558   7.994 -0.3472 -0.9630 -2.2972
 7789SOL     OW35002   0.901   2.750   4.458  0.3635 -0.2123 -0.6247
 7789SOL    HW135003   0.911   2.655   4.453  1.4291 -0.1514  0.3749
 7789SOL    HW235004   0.827   2.759   4.519  0.9357 -1.4840  0.2769
 7790SOL     OW35005   4.448   2.188   6.244  0.0671  0.7472 -0.0955
 7790SOL    HW135006   4.377   2.194   6.307  0.0762 -1.3435  0.1193
 7790SOL    HW235007   4.404   2.137   6.176  2.4096 -0.1124 -0.9596
 7791SOL     OW35008   0.426   0.594  12.585  0.2213  0.0771  0.1376
 7791SOL    HW135009   0.490   0.664  12.594 -0.6228  0.9487 -0.7490
 7791SOL    HW235010   0.444   0.545  12.665  0.4273  0.0817  0.0921
 7792SOL     OW35011   3.733   0.269   9.009  0.0912 -0.7035  0.1997
 7792SOL    HW135012   3.803   0.205   9.022 -0.1081 -0.4321  2.4642
 7792SOL    HW235013   3.790   0.344   8.994 -0.7410 -0.2859 -0.9583
 7793SOL     OW35014   3.231   0.489  15.122 -0.0676  0.4853  0.1958
 7793SOL    HW135015   3.305   0.466  15.179 -0.7634  1.2232  1.4026
 7793SOL    HW235016   3.256   0.445  15.041 -0.9803  0.5755 -0.1263
 7794SOL     OW35017   1.037   3.190   7.085  0.2942  0.2945  0.1267
 7794SOL    HW135018   1.100   3.258   7.109 -0.4089  1.3887 -1.1540
 7794SOL    HW235019   1.004   3.209   6.997  2.4261 -2.8176 -1.3756
 7795SOL     OW35020   2.370   0.147   9.104 -0.0364  0.7310  0.2183
 7795SOL    HW135021   2.296   0.139   9.164  0.9419 -1.3659  1.1419
 7795SOL    HW235022   2.377   0.242   9.098  0.1633  0.7126  0.1805
 7796SOL     OW35023   2.778   4.422   5.768  0.2980 -0.0048  0.3498
 7796SOL    HW135024   2.765   4.342   5.717 -1.7781 -0.2543  1.2497
 7796SOL    HW235025   2.718   4.398   5.839 -0.2495 -2.2629 -0.8737
 7797SOL     OW35026   1.834   3.659  17.736  0.0816 -0.0213  0.8377
 7797SOL    HW135027   1.809   3.731  17.678 -0.4460 -2.5814 -2.1448
 7797SOL    HW235028   1.789   3.697   0.071  0.5344 -0.5800  1.4028
 7798SOL     OW35029   0.454   0.484   0.566 -0.5996  0.5110  0.4847
 7798SOL    HW135030   0.520   0.547   0.537  0.0866 -0.2145  0.4709
 7798SOL    HW235031   0.439   0.497   0.659 -2.0381 -0.5698  0.4143
 7799SOL     OW35032   3.082   3.987  16.805  0.3052  0.2783  0.4892
 7799SOL    HW135033   2.998   4.013  16.842  0.5196  1.8007 -0.1041
 7799SOL    HW235034   3.110   4.058  16.747  0.4414 -1.8631 -2.0621
 7800SOL     OW35035   0.258   2.742   3.034  0.2167 -0.2637 -0.0004
 7800SOL    HW135036   0.275   2.801   3.107  0.1456  0.1024 -0.2833
 7800SOL    HW235037   0.241   2.656   3.073 -0.3873 -0.6288 -1.0932
 7801SOL     OW35038   1.654   2.101   4.094 -0.0647  0.2213 -0.2715
 7801SOL    HW135039   1.649   2.164   4.166 -1.7753  1.7222 -1.6984
 7801SOL    HW235040   1.742   2.120   4.063  0.0663  2.7115  1.6318
 7802SOL     OW35041   1.639   4.693   9.910  0.1179 -0.0286  0.1090
 7802SOL    HW135042   1.577   0.027   9.885 -1.3307 -0.4460  2.5333
 7802SOL    HW235043   1.671   4.725   9.995 -2.6356 -0.6148  1.3570
 7803SOL     OW35044   2.620   2.993   2.611 -0.8080  0.1651 -0.8949
 7803SOL    HW135045   2.715   3.004   2.615 -1.1136  1.7817  1.4217
 7803SOL    HW235046   2.589   3.024   2.696 -1.7609 -2.2278 -0.3597
 7804SOL     OW35047   0.940   4.706   6.228 -0.0141  0.2916  0.1741
 7804SOL    HW135048   0.909   4.616   6.233  3.1011 -0.6984  2.2326
 7804SOL    HW235049   1.013   4.702   6.166  0.8467 -0.2680  1.2081
 7805SOL     OW35050   3.149   4.306   3.963  0.4860  0.1698  0.2862
 7805SOL    HW135051   3.079   4.277   3.905  0.4170  1.8106 -0.4779
 7805SOL    HW235052   3.219   4.287   3.900 -0.1495 -1.7368  0.1785
 7806SOL     OW35053   1.138   4.094   4.640  0.2966  0.2653 -0.0466
 7806SOL    HW135054   1.212   4.095   4.579  0.1450 -1.8174 -0.2428
 7806SOL    HW235055   1.084   4.160   4.597  0.5008  0.3293 -0.2032
 7807SOL     OW35056   3.400   0.310   4.090  0.2730  0.0394  0.1432
 7807SOL    HW135057   3.484   0.342   4.055  1.1330 -1.5852  0.7060
 7807SOL    HW235058   3.339   0.329   4.019 -0.2844 -0.0591  0.5990
 7808SOL     OW35059   1.751   2.906   4.223 -0.3166 -0.2207 -0.8659
 7808SOL    HW135060   1.670   2.925   4.271  0.1442  1.5546 -0.7853
 7808SOL    HW235061   1.715   2.853   4.152  0.9957 -0.1071 -1.6078
 7809SOL     OW35062   0.728   2.534   4.694  0.4193 -0.1989  0.1829
 7809SOL    HW135063   0.655   2.478   4.719 -0.9766  1.5145 -0.0517
 7809SOL    HW235064   0.781   2.482   4.633  1.1326  1.1133 -0.3304
 7810SOL     OW35065   2.384   3.914   2.414 -0.5842  0.0551 -0.0868
 7810SOL    HW135066   2.420   3.933   2.327  1.1237  1.2853  0.8666
 7810SOL    HW235067   2.346   3.826   2.411  1.5620 -0.9147  0.7115
 7811SOL     OW35068   1.652   1.052   9.338  0.3925  0.3123 -0.3022
 7811SOL    HW135069   1.607   0.975   9.303  1.3434 -0.1659 -0.4765
 7811SOL    HW235070   1.670   1.089   9.251 -0.6637  0.0367 -0.6362
 7812SOL     OW35071   2.572   1.724   5.776 -0.0878  0.3178 -1.0277
 7812SOL    HW135072   2.507   1.770   5.829 -0.4536 -0.9795 -0.3277
 7812SOL    HW235073   2.635   1.793   5.759 -0.1408  0.6515  0.1659
 7813SOL     OW35074   1.846   4.026   0.309  0.7785 -0.2902 -0.2209
 7813SOL    HW135075   1.877   4.090   0.245 -0.6742  0.4491 -0.1853
 7813SOL    HW235076   1.903   4.027   0.386  0.2920 -1.6501  0.1538
 7814SOL     OW35077   3.167   3.914   3.080  0.3691  0.4677  0.1154
 7814SOL    HW135078   3.100   3.854   3.049 -0.0306 -0.2238  2.3774
 7814SOL    HW235079   3.241   3.861   3.110 -1.7221 -1.4369  1.8659
 7815SOL     OW35080   1.744   1.642  10.855 -0.4486 -0.1566  0.0424
 7815SOL    HW135081   1.809   1.577  10.881 -0.3117  0.8640  2.2528
 7815SOL    HW235082   1.666   1.622  10.907 -0.8664 -0.9320 -0.8757
 7816SOL     OW35083   2.314   1.439   2.260  0.4822 -0.1621 -0.2024
 7816SOL    HW135084   2.246   1.420   2.325 -0.1796  0.7412 -0.6306
 7816SOL    HW235085   2.260   1.444   2.182 -0.5621  0.1662  0.5381
 7817SOL     OW35086   1.910   3.366   4.139 -0.6080  0.6590 -0.0625
 7817SOL    HW135087   1.901   3.289   4.195 -0.5745  0.3814 -0.4468
 7817SOL    HW235088   1.995   3.347   4.099 -0.2583 -0.3336  1.1453
 7818SOL     OW35089   3.876   1.117  13.004 -0.0398 -0.0938  0.0801
 7818SOL    HW135090   3.818   1.193  13.011 -1.2071 -1.1029  1.2800
 7818SOL    HW235091   3.943   1.152  13.063  0.6846  0.7254 -1.2197
 7819SOL     OW35092   2.399   3.169   8.689  0.2130  0.1520  0.3685
 7819SOL    HW135093   2.353   3.103   8.741  2.7584 -0.3505  1.9473
 7819SOL    HW235094   2.373   3.137   8.603 -0.2335 -0.9470  0.9103
 7820SOL     OW35095   1.096   2.967  11.794 -0.5841  0.2930 -0.3366
 7820SOL    HW135096   1.124   2.876  11.803  2.2430  1.5529  3.6699
 7820SOL    HW235097   1.018   2.956  11.739  0.1846  0.6547 -1.4973
 7821SOL     OW35098   2.789   4.216  14.994 -0.0039  0.3979 -0.2867
 7821SOL    HW135099   2.883   4.198  14.996  0.2819  2.1119  1.3265
 7821SOL    HW235100   2.757   4.184  14.910  0.0576 -3.6200  1.2238
 7822SOL     OW35101   0.782   1.034   6.518  0.0719  0.1095 -0.2258
 7822SOL    HW135102   0.725   1.083   6.460 -1.8587 -0.0730  1.5036
 7822SOL    HW235103   0.835   1.101   6.561 -0.4045 -0.0913  0.6817
 7823SOL     OW35104   1.049   0.567   3.692 -0.0494  0.0368  0.1211
 7823SOL    HW135105   0.991   0.506   3.738 -0.5437 -0.1373 -0.7326
 7823SOL    HW235106   1.117   0.505   3.666 -0.5779 -1.0247  1.2701
 7824SOL     OW35107   4.241   1.115   9.406 -0.4492  0.0547 -0.3041
 7824SOL    HW135108   4.307   1.048   9.391 -0.3478  0.1285 -0.1906
 7824SOL    HW235109   4.215   1.139   9.317 -1.6778  0.6616  0.2077
 7825SOL     OW35110   2.949   2.053   4.819  0.0059 -0.1219  0.2392
 7825SOL    HW135111   2.932   2.078   4.910  3.3224  0.0706  0.7955
 7825SOL    HW235112   2.979   1.963   4.832 -0.6882 -0.1008  2.0586
 7826SOL     OW35113   4.145   4.059   2.725  0.0519 -0.2187 -0.5642
 7826SOL    HW135114   4.126   4.092   2.637 -1.7925 -1.4384 -0.6156
 7826SOL    HW235115   4.154   3.966   2.705 -0.2637 -0.1879 -0.8334
 7827SOL     OW35116   4.695   0.673  17.371 -0.0915  0.1462 -0.3938
 7827SOL    HW135117   0.051   0.681  17.341  0.2022  1.1565  0.7894
 7827SOL    HW235118   4.691   0.723  17.452 -0.2983  0.4094 -0.5660
 7828SOL     OW35119   1.211   3.887   2.509 -0.7222 -0.2935 -0.2349
 7828SOL    HW135120   1.148   3.889   2.581  1.0928  0.4092  1.3633
 7828SOL    HW235121   1.284   3.913   2.566 -0.1741  1.8733 -1.9176
 7829SOL     OW35122   4.712   2.064   9.410 -0.2948 -0.3693  0.0265
 7829SOL    HW135123   4.682   2.043   9.498 -1.1049  0.2192 -0.1089
 7829SOL    HW235124   0.061   2.108   9.423 -0.8825  0.4700  1.0539
 7830SOL     OW35125   2.614   2.963   6.267 -0.5280 -0.1304 -0.1830
 7830SOL    HW135126   2.692   2.916   6.295  0.0649  0.8318 -0.2319
 7830SOL    HW235127   2.545   2.898   6.282 -1.0893  0.0923 -1.8035
 7831SOL     OW35128   1.757   3.544   3.263  0.1532 -0.0274  1.0529
 7831SOL    HW135129   1.663   3.532   3.273 -0.0824 -0.3158 -1.5964
 7831SOL    HW235130   1.765   3.614   3.199 -1.3705 -0.2749  0.5974
 7832SOL     OW35131   4.580   1.040   1.036 -0.5059 -0.2716 -0.1975
 7832SOL    HW135132   4.486   1.030   1.019 -0.9138  2.0486  0.6295
 7832SOL    HW235133   4.619   0.966   0.990  1.3886  0.8522 -0.3840
 7833SOL     OW35134   4.272   1.450   3.576  0.1258 -0.1990  0.4708
 7833SOL    HW135135   4.299   1.358   3.576 -0.0677 -0.2501 -1.5779
 7833SOL    HW235136   4.196   1.445   3.633 -0.7508 -0.1056 -0.6895
 7834SOL     OW35137   3.542   3.693   4.832  0.0702 -0.0366  0.2974
 7834SOL    HW135138   3.588   3.621   4.875  2.4364  0.6724 -1.0695
 7834SOL    HW235139   3.578   3.771   4.873  2.7755 -0.9907 -0.2557
 7835SOL     OW35140   2.120   2.966  16.118  0.2679 -0.4840  0.7012
 7835SOL    HW135141   2.027   2.945  16.106  0.4223  0.1881 -1.5880
 7835SOL    HW235142   2.157   2.904  16.180  0.2774 -0.0984  1.0825
 7836SOL     OW35143   0.988   2.768  17.139 -0.2731 -0.4350  0.5065
 7836SOL    HW135144   0.922   2.833  17.116 -0.7296 -0.6800  1.1257
 7836SOL    HW235145   0.939   2.705  17.191  0.2179 -0.1597  1.3189
 7837SOL     OW35146   1.603   0.769   6.617  0.1626  0.0961 -0.3085
 7837SOL    HW135147   1.661   0.693   6.624  1.7032  1.1894 -1.2358
 7837SOL    HW235148   1.520   0.728   6.644 -0.6581  3.2072  1.8337
 7838SOL     OW35149   2.559   2.468   4.810  0.7515  0.2202 -0.1470
 7838SOL    HW135150   2.552   2.377   4.838  2.3751  0.2397  0.3485
 7838SOL    HW235151   2.469   2.492   4.787  0.7331  1.3869  1.1169
 7839SOL     OW35152   1.850   1.321  10.709 -0.1546  0.6167  0.4869
 7839SOL    HW135153   1.878   1.369  10.787 -0.9393 -0.2809  1.3112
 7839SOL    HW235154   1.886   1.236  10.734  0.1607  1.0108  1.3714
 7840SOL     OW35155   4.715   1.968   6.204 -0.3709  0.1024  0.1139
 7840SOL    HW135156   0.040   1.899   6.175  0.8647  0.5859  1.5320
 7840SOL    HW235157   0.024   2.029   6.262 -1.0986 -0.1972  0.9933
 7841SOL     OW35158   1.763   2.346   3.211  0.1302 -0.6659 -0.2558
 7841SOL    HW135159   1.849   2.325   3.249 -0.4368  1.5443  2.3041
 7841SOL    HW235160   1.743   2.262   3.170  0.5665 -0.2113 -1.3827
 7842SOL     OW35161   0.675   1.396  12.173  0.2674  0.0872  0.5641
 7842SOL    HW135162   0.729   1.374  12.249 -0.7291 -0.8257  0.9974
 7842SOL    HW235163   0.618   1.461  12.213  1.3421  1.2132  0.2837
 7843SOL     OW35164   1.718   3.580  15.251 -0.3783  0.2664  0.3316
 7843SOL    HW135165   1.712   3.566  15.346 -2.7920 -2.8750 -0.2734
 7843SOL    HW235166   1.677   3.498  15.225 -1.3160  1.3999 -1.7567
 7844SOL     OW35167   3.748   0.773   8.967 -0.3674 -0.8682 -0.1975
 7844SOL    HW135168   3.836   0.748   8.995 -1.0156 -1.5900  1.2029
 7844SOL    HW235169   3.750   0.864   8.997  1.0351 -0.7087 -0.8102
 7845SOL     OW35170   2.361   4.181   6.805 -0.0203  0.1910  0.2344
 7845SOL    HW135171   2.338   4.127   6.881  0.3823  0.3845  0.4893
 7845SOL    HW235172   2.454   4.193   6.821  0.0018 -2.2229  1.9214
 7846SOL     OW35173   0.885   2.140   8.411 -0.7116 -0.0249 -0.2252
 7846SOL    HW135174   0.830   2.064   8.425 -2.1975  0.6944 -2.1869
 7846SOL    HW235175   0.827   2.211   8.438  2.1517  1.7331  1.3624
 7847SOL     OW35176   2.551   1.063   2.704  0.2856 -0.2631 -0.1847
 7847SOL    HW135177   2.629   1.087   2.755  1.5128 -0.0785 -2.1227
 7847SOL    HW235178   2.549   1.151   2.666  0.9398  0.3643  1.2480
 7848SOL     OW35179   3.024   0.489   2.495 -0.0974 -0.5972  0.0749
 7848SOL    HW135180   3.090   0.419   2.491  1.8367  1.3975 -2.3690
 7848SOL    HW235181   3.014   0.517   2.404  1.8744 -2.1137 -0.6236
 7849SOL     OW35182   0.914   1.251   6.624 -0.2201 -0.6547 -0.0698
 7849SOL    HW135183   0.972   1.226   6.696  1.1426 -1.6640 -1.5312
 7849SOL    HW235184   0.860   1.321   6.661  1.8792  1.1366 -0.3689
 7850SOL     OW35185   0.363   2.625  16.589 -0.2611 -0.2190  0.0133
 7850SOL    HW135186   0.429   2.686  16.622 -1.7994  1.9116 -0.8911
 7850SOL    HW235187   0.279   2.671  16.589 -0.9250 -1.4465  1.6850
 7851SOL     OW35188   2.829   3.336  11.901  0.3321  0.0540 -0.0249
 7851SOL    HW135189   2.763   3.405  11.910 -1.1879 -1.2821 -0.6999
 7851SOL    HW235190   2.885   3.362  11.974  0.2934  0.5090 -0.1592
 7852SOL     OW35191   3.568   3.402   9.619 -0.2967  0.0185 -0.1508
 7852SOL    HW135192   3.492   3.438   9.664  1.1564  0.8336  1.6577
 7852SOL    HW235193   3.639   3.411   9.683  0.8440  0.6253 -1.4954
 7853SOL     OW35194   4.379   2.089   4.874 -0.6358  0.6495 -0.1342
 7853SOL    HW135195   4.287   2.114   4.887 -1.0123 -0.7431 -0.1634
 7853SOL    HW235196   4.397   2.130   4.789  0.5120 -0.9071 -0.6383
 7854SOL     OW35197   4.322   3.256   7.692 -0.3287 -0.0464 -0.1625
 7854SOL    HW135198   4.351   3.192   7.627 -1.1082 -0.4897 -0.0647
 7854SOL    HW235199   4.337   3.220   7.779  0.2867  2.3624  0.7366
 7855SOL     OW35200   2.910   2.671   2.447 -0.2461 -0.1435  0.0837
 7855SOL    HW135201   2.957   2.588   2.436  1.0971  0.7521 -0.9121
 7855SOL    HW235202   2.966   2.698   2.520  0.6477  0.3041 -0.7700
 7856SOL     OW35203   4.629   2.526   5.940  0.3834  0.4178 -0.0062
 7856SOL    HW135204   4.550   2.477   5.917  0.0710  0.5851  0.7343
 7856SOL    HW235205   4.674   2.478   6.009  0.5780 -0.2050 -0.5591
 7857SOL     OW35206   3.469   1.892  13.553  0.1768  0.3238 -0.3979
 7857SOL    HW135207   3.403   1.823  13.553 -1.6535  2.1333 -4.1280
 7857SOL    HW235208   3.475   1.911  13.460  0.4740  1.5424 -0.1339
 7858SOL     OW35209   3.166   2.682  12.953 -0.0062  0.1768  0.6538
 7858SOL    HW135210   3.228   2.641  13.013  0.5811 -1.3664 -1.0191
 7858SOL    HW235211   3.222   2.745  12.909 -0.5929  0.5651  0.4579
 7859SOL     OW35212   4.267   0.099   4.341  0.3639 -0.2544  0.0633
 7859SOL    HW135213   4.270   0.011   4.379  1.4591 -1.0632 -1.9351
 7859SOL    HW235214   4.215   0.141   4.410  1.0895  0.1279  0.3770
 7860SOL     OW35215   1.936   3.254  15.029  0.4377  0.0608 -0.6781
 7860SOL    HW135216   1.880   3.176  15.036 -0.5849  0.6978 -1.7577
 7860SOL    HW235217   1.865   3.315  15.009  1.0653 -0.3227 -4.0785
 7861SOL     OW35218   0.532   4.299  15.778  0.4564 -0.1541  0.2247
 7861SOL    HW135219   0.551   4.214  15.737 -0.2106 -0.2850  0.1718
 7861SOL    HW235220   0.468   4.327  15.713 -0.2905 -1.0005  0.5806
 7862SOL     OW35221   3.400   0.983   4.323 -0.5605  0.0190 -0.3481
 7862SOL    HW135222   3.416   1.074   4.346  2.3710 -0.7350  0.6341
 7862SOL    HW235223   3.312   0.993   4.286 -0.8629  0.5169  0.5150
 7863SOL     OW35224   2.954   4.370   5.417  0.1496  0.3937  0.2031
 7863SOL    HW135225   2.925   4.423   5.491  0.1893 -0.6811  0.9865
 7863SOL    HW235226   2.918   4.286   5.444 -0.4508  0.5368 -0.1557
 7864SOL     OW35227   4.495   2.345  17.294  0.2900  0.1644 -0.2855
 7864SOL    HW135228   4.576   2.332  17.246 -0.4249 -0.7732 -1.2460
 7864SOL    HW235229   4.459   2.414  17.238 -2.9645 -2.2196 -1.1720
 7865SOL     OW35230   0.504   2.065  12.205  0.5127  0.8053  0.2438
 7865SOL    HW135231   0.542   2.073  12.118  0.8743  0.2436  0.3462
 7865SOL    HW235232   0.572   2.120  12.245  1.4722 -0.4572  0.3806
 7866SOL     OW35233   4.107   0.966   7.635 -0.0085 -0.2670 -0.1818
 7866SOL    HW135234   4.158   0.982   7.714  2.0623  1.2524 -1.8007
 7866SOL    HW235235   4.120   1.055   7.601 -2.0117  0.5095  1.1463
 7867SOL     OW35236   3.412   0.100  14.791 -0.1392 -0.4212 -0.4475
 7867SOL    HW135237   3.411   0.027  14.729 -1.2309 -0.5852 -0.2377
 7867SOL    HW235238   3.506   0.107  14.807 -0.7173  2.5936  1.5900
 7868SOL     OW35239   2.131   3.202   7.973 -0.0725  0.2004  0.0227
 7868SOL    HW135240   2.064   3.211   8.041  0.0117 -0.3261  0.1697
 7868SOL    HW235241   2.187   3.144   8.024  1.1252  0.9419 -0.4601
 7869SOL     OW35242   2.421   1.982   5.306  0.3426 -0.4906 -0.1878
 7869SOL    HW135243   2.349   1.934   5.346 -1.2675  0.3899 -2.0300
 7869SOL    HW235244   2.367   2.041   5.253  0.5357  0.9837  1.2508
 7870SOL     OW35245   1.774   1.744  16.786 -0.2357  0.1516  0.1914
 7870SOL    HW135246   1.753   1.803  16.858 -0.4293  0.0136  0.2488
 7870SOL    HW235247   1.700   1.684  16.796 -0.2823 -0.0069 -1.0575
 7871SOL     OW35248   2.503   4.704   7.725 -0.5315  0.2774 -0.1805
 7871SOL    HW135249   2.590   4.725   7.690  0.4627  0.5746  2.4325
 7871SOL    HW235250   2.526   4.664   7.809 -0.6795  2.4807  0.9018
 7872SOL     OW35251   2.808   2.024   7.108 -0.1877  0.4470 -0.1403
 7872SOL    HW135252   2.757   2.063   7.180 -0.3501  1.9401 -1.0631
 7872SOL    HW235253   2.803   1.933   7.137 -0.8906  0.5467  0.0624
 7873SOL     OW35254   1.042   0.409  17.306  0.5889  0.2848  0.0368
 7873SOL    HW135255   0.947   0.401  17.308  0.5586  0.2264 -1.7507
 7873SOL    HW235256   1.048   0.377  17.396 -0.3618  2.1956  0.7987
 7874SOL     OW35257   0.620   3.019  14.300 -0.3831  0.2196 -0.3235
 7874SOL    HW135258   0.585   2.996  14.387 -2.0986 -0.9786 -1.3236
 7874SOL    HW235259   0.569   3.097  14.280 -0.4394  0.2234 -0.1694
 7875SOL     OW35260   3.942   0.036   1.134 -0.2878  0.5060  0.1216
 7875SOL    HW135261   3.901   0.072   1.212  0.2426 -0.8826  1.0489
 7875SOL    HW235262   3.893   0.080   1.064 -1.0926 -0.1014  0.3016
 7876SOL     OW35263   1.033   0.895   2.493  0.4304 -0.1506  0.0653
 7876SOL    HW135264   1.109   0.918   2.439  0.6244 -1.2813 -0.1375
 7876SOL    HW235265   0.963   0.915   2.431  1.2934 -0.3820 -0.9903
 7877SOL     OW35266   1.476   0.576   5.435 -0.1962  0.4296  0.3380
 7877SOL    HW135267   1.434   0.490   5.439 -1.8379  1.2177  0.3764
 7877SOL    HW235268   1.403   0.637   5.422 -0.2758  0.1222 -0.6314
 7878SOL     OW35269   2.164   0.268  14.725 -0.7159 -1.0452 -0.3227
 7878SOL    HW135270   2.196   0.347  14.770  0.4320 -0.2550 -2.4790
 7878SOL    HW235271   2.211   0.278  14.642  0.4491  0.9701  0.5769
 7879SOL     OW35272   2.701   4.387   4.385 -0.1060  0.1048 -0.6699
 7879SOL    HW135273   2.710   4.306   4.436 -1.8058 -0.5557 -1.4550
 7879SOL    HW235274   2.740   4.358   4.303 -0.3837  0.8751 -1.0650
 7880SOL     OW35275   0.744   2.614  16.831 -0.1492 -0.3648 -0.0603
 7880SOL    HW135276   0.687   2.664  16.774 -0.8230 -1.2606 -0.1713
 7880SOL    HW235277   0.683   2.598  16.903  1.5838  0.6581  1.6457
 7881SOL     OW35278   0.011   4.587   2.898  0.0324  0.3984 -0.1178
 7881SOL    HW135279   0.087   4.642   2.913 -1.4799  1.9068  2.0799
 7881SOL    HW235280   0.043   4.497   2.895 -0.2599  0.2275  1.6080
 7882SOL     OW35281   4.579   0.777   1.576 -0.6023 -0.0142 -0.5842
 7882SOL    HW135282   4.667   0.815   1.576 -0.0213 -1.3444  0.8660
 7882SOL    HW235283   4.598   0.688   1.607  1.2141  1.6733  3.1487
 7883SOL     OW35284   3.322   3.283   5.872  0.5218 -0.0467 -0.5244
 7883SOL    HW135285   3.407   3.281   5.827  0.8242  1.8456 -0.0253
 7883SOL    HW235286   3.350   3.322   5.955  0.7496  1.4405 -1.3155
 7884SOL     OW35287   1.376   4.676   1.124 -0.1614  0.0934  0.1359
 7884SOL    HW135288   1.336   4.592   1.103 -0.7511  0.1235  1.1009
 7884SOL    HW235289   1.299   4.733   1.128 -2.1278 -2.5253 -0.5187
 7885SOL     OW35290   3.138   0.235  15.242 -0.0671 -0.5494 -0.0833
 7885SOL    HW135291   3.120   0.271  15.329  0.7494 -1.9110  0.6430
 7885SOL    HW235292   3.051   0.238  15.202  0.4132 -0.6657 -1.1504
 7886SOL     OW35293   0.867   3.955   2.512  0.3748  0.4145  0.0514
 7886SOL    HW135294   0.904   3.957   2.600 -1.9832  0.9916  1.0464
 7886SOL    HW235295   0.848   4.048   2.501  2.8532  0.8078 -0.8286
 7887SOL     OW35296   4.287   1.596   3.208 -0.1069  0.0172  0.0273
 7887SOL    HW135297   4.380   1.614   3.213 -0.3420  0.7489  2.0294
 7887SOL    HW235298   4.270   1.619   3.299 -0.0528  0.9551 -0.2029
 7888SOL     OW35299   3.753   0.277  17.533  0.0650 -0.5923  0.5022
 7888SOL    HW135300   3.687   0.238  17.475 -1.0105  1.9354  0.0588
 7888SOL    HW235301   3.704   0.348  17.573 -0.2658  0.0999 -1.1245
 7889SOL     OW35302   3.491   2.742   7.132 -0.0206 -0.7457  0.4003
 7889SOL    HW135303   3.442   2.755   7.213 -2.0792  3.8466 -1.5509
 7889SOL    HW235304   3.415   2.729   7.074 -0.7625  1.5028  0.8522
 7890SOL     OW35305   0.957   2.007   1.809 -0.3651 -0.0501 -0.6715
 7890SOL    HW135306   1.000   1.951   1.744  0.1798 -0.3554 -0.0516
 7890SOL    HW235307   1.025   2.066   1.841 -2.4822  1.4176  1.0720
 7891SOL     OW35308   0.942   1.646   9.244  0.4621  0.4172 -0.6658
 7891SOL    HW135309   1.004   1.577   9.266 -0.5229 -0.6668 -1.2189
 7891SOL    HW235310   0.875   1.626   9.310 -0.8417 -0.1108 -2.1358
 7892SOL     OW35311   2.504   4.200  17.480  0.1938  0.0933 -0.3124
 7892SOL    HW135312   2.436   4.263  17.455  0.8685  0.7052 -0.6047
 7892SOL    HW235313   2.451   4.122  17.497  0.6157 -0.2773 -0.7073
 7893SOL     OW35314   4.046   3.225   9.746  0.0243 -1.1707 -0.8080
 7893SOL    HW135315   4.123   3.169   9.755  0.1759 -1.1241 -1.8091
 7893SOL    HW235316   4.056   3.276   9.827  1.2774 -1.7557 -0.5970
 7894SOL     OW35317   2.637   2.969   9.181  0.3338  0.1841 -0.7439
 7894SOL    HW135318   2.663   2.877   9.182 -0.2274  0.0053 -1.7305
 7894SOL    HW235319   2.634   2.982   9.086 -2.9800 -0.0109 -0.6764
 7895SOL     OW35320   0.906   1.859   5.957 -0.1943  0.1197 -0.8412
 7895SOL    HW135321   0.944   1.942   5.986 -1.4644 -0.0990  1.4740
 7895SOL    HW235322   0.911   1.816   6.043 -0.3908 -0.5417 -1.1627
 7896SOL     OW35323   2.219   4.610  12.265  0.8936 -0.3952 -0.3836
 7896SOL    HW135324   2.202   4.703  12.252 -0.2076 -0.4773  0.4081
 7896SOL    HW235325   2.158   4.578  12.198 -0.7937 -2.5909  2.1554
 7897SOL     OW35326   3.662   1.953  10.491 -0.8085 -0.1933  0.4239
 7897SOL    HW135327   3.570   1.953  10.466 -0.3747  1.6854 -1.2497
 7897SOL    HW235328   3.669   1.871  10.540 -0.8231 -0.2792  0.2848
 7898SOL     OW35329   2.070   2.384   0.161  0.0980  0.6657 -0.0164
 7898SOL    HW135330   2.153   2.412   0.198  0.3778  0.6858 -0.6487
 7898SOL    HW235331   2.083   2.389   0.066 -1.4019 -0.7783 -0.3099
 7899SOL     OW35332   3.560   3.898  13.344  0.0010  0.4048 -0.0583
 7899SOL    HW135333   3.470   3.880  13.369 -0.2100  1.1759 -0.2782
 7899SOL    HW235334   3.552   3.906  13.249  0.2177 -1.0272 -0.1955
 7900SOL     OW35335   2.976   0.311   6.619  0.1702 -0.3060 -0.2260
 7900SOL    HW135336   3.021   0.231   6.645 -2.2035 -0.9943  1.7697
 7900SOL    HW235337   2.934   0.281   6.538  2.1785  0.0266 -1.3870
 7901SOL     OW35338   2.126   1.748   2.665  0.3738 -0.0608 -0.6713
 7901SOL    HW135339   2.082   1.697   2.733 -2.1154  0.8798 -1.5880
 7901SOL    HW235340   2.218   1.722   2.659  0.5111  0.9673 -2.9069
 7902SOL     OW35341   0.659   2.195  11.654 -0.1926  0.0095  0.7372
 7902SOL    HW135342   0.661   2.124  11.718 -0.4631 -1.0426 -0.4107
 7902SOL    HW235343   0.625   2.270  11.703 -0.4543  0.1468  0.3489
 7903SOL     OW35344   3.593   3.539   3.014  0.2483  0.1055  0.4926
 7903SOL    HW135345   3.613   3.620   3.061 -1.2951  1.2096 -0.7081
 7903SOL    HW235346   3.585   3.488   3.095 -2.2910  0.0865  0.2481
 7904SOL     OW35347   1.379   4.622   3.115  0.3082  0.2167 -0.1431
 7904SOL    HW135348   1.459   4.664   3.148 -0.2871  0.5741  0.8612
 7904SOL    HW235349   1.351   4.561   3.183 -0.9834  0.4651 -0.4457
 7905SOL     OW35350   0.305   3.015  12.455 -0.3591 -0.4434  0.0150
 7905SOL    HW135351   0.254   3.088  12.490 -0.0544 -0.9440  1.5316
 7905SOL    HW235352   0.322   3.055  12.370  0.1673  0.0053  0.3336
 7906SOL     OW35353   0.620   3.597   5.746  0.5406 -0.1133  0.0432
 7906SOL    HW135354   0.606   3.686   5.713  0.1988 -0.5053 -0.8759
 7906SOL    HW235355   0.611   3.544   5.667 -0.1422 -0.1497  0.1487
 7907SOL     OW35356   3.695   1.527   6.361  0.0724  0.1500  0.3945
 7907SOL    HW135357   3.615   1.486   6.393 -0.3195  1.6732  1.3478
 7907SOL    HW235358   3.692   1.495   6.270 -0.8136 -1.3399  0.9497
 7908SOL     OW35359   0.852   0.267   3.789 -0.0909  0.2723  0.3974
 7908SOL    HW135360   0.909   0.229   3.722  0.7529 -1.3310  2.0155
 7908SOL    HW235361   0.833   0.187   3.839  2.4992  0.5741  1.8896
 7909SOL     OW35362   4.213   3.086  11.461 -0.0640 -0.2516  0.0982
 7909SOL    HW135363   4.259   3.039  11.391  2.2688  2.6543 -0.3266
 7909SOL    HW235364   4.130   3.038  11.459 -0.4761  0.3949  1.7596
 7910SOL     OW35365   3.401   0.455   2.237 -0.2090  0.5623 -0.3853
 7910SOL    HW135366   3.397   0.544   2.202 -1.4364 -0.0363 -1.7516
 7910SOL    HW235367   3.493   0.431   2.248 -0.2228  0.7681  0.1774
 7911SOL     OW35368   2.631   2.160  13.273  0.2680 -0.2058 -0.6724
 7911SOL    HW135369   2.547   2.185  13.235 -1.3557 -1.3848  2.1226
 7911SOL    HW235370   2.619   2.065  13.277  1.6572 -0.3597 -0.4118
 7912SOL     OW35371   4.522   0.588   4.101  0.1132 -0.3708 -0.6425
 7912SOL    HW135372   4.483   0.536   4.172 -0.1255 -1.4637 -1.5765
 7912SOL    HW235373   4.600   0.621   4.146  0.3638 -0.4900 -0.9841
 7913SOL     OW35374   1.434   4.562   6.998  0.1626  1.0296 -0.9283
 7913SOL    HW135375   1.494   4.558   7.073  0.7830  2.5466 -1.3457
 7913SOL    HW235376   1.451   4.649   6.963  0.3649  0.6720 -1.7344
 7914SOL     OW35377   1.153   2.771  10.256 -0.5898 -0.1910 -0.1427
 7914SOL    HW135378   1.226   2.833  10.261 -1.0651  0.3146  0.4090
 7914SOL    HW235379   1.123   2.779  10.346 -0.2539  2.7992 -0.3020
 7915SOL     OW35380   2.230   2.139   5.179 -0.5224  0.3367 -0.0947
 7915SOL    HW135381   2.244   2.223   5.136  1.0643 -0.1087 -0.4267
 7915SOL    HW235382   2.159   2.154   5.242 -0.4129  1.7373 -0.3120
 7916SOL     OW35383   3.712   4.245  10.629  0.2544  0.0509  0.4640
 7916SOL    HW135384   3.636   4.188  10.634 -0.1295  0.5547  0.3008
 7916SOL    HW235385   3.768   4.191  10.573  0.4854 -0.5602  1.2836
 7917SOL     OW35386   1.757   0.886   3.340  0.5543 -0.2875 -0.1694
 7917SOL    HW135387   1.827   0.887   3.274 -0.2345  0.4480 -0.9768
 7917SOL    HW235388   1.786   0.964   3.387 -1.7382  0.2626  0.3306
 7918SOL     OW35389   1.266   4.621   2.667 -0.2460 -0.4966 -0.7342
 7918SOL    HW135390   1.215   4.693   2.630 -0.4044  0.2780  1.0260
 7918SOL    HW235391   1.349   4.654   2.632 -0.4417  2.2714  1.3857
 7919SOL     OW35392   1.587   0.033   3.190 -0.4139 -0.0752 -0.4234
 7919SOL    HW135393   1.660   0.023   3.129  0.1175 -0.2341  0.2388
 7919SOL    HW235394   1.632   0.068   3.268 -0.5495 -3.4873  1.1813
 7920SOL     OW35395   3.107   4.187  12.974 -0.2085 -0.2638 -0.2045
 7920SOL    HW135396   3.101   4.185  13.070 -2.7040 -0.1762 -0.3453
 7920SOL    HW235397   3.123   4.096  12.947  2.0426  1.0283 -3.1700
 7921SOL     OW35398   3.932   1.045   4.696  0.1666 -0.3533  0.1282
 7921SOL    HW135399   3.945   1.089   4.612 -1.0906  1.3467  0.8067
 7921SOL    HW235400   3.924   0.953   4.674  0.3783 -0.1102 -0.9503
 7922SOL     OW35401   0.999   4.512   1.561 -0.6967  0.1656 -0.8361
 7922SOL    HW135402   1.023   4.422   1.543  0.3727  0.1003  0.9441
 7922SOL    HW235403   1.031   4.560   1.485 -0.1092 -0.2146 -0.8204
 7923SOL     OW35404   1.757   1.413   5.997  0.7396  0.0469 -0.6843
 7923SOL    HW135405   1.806   1.375   5.924  2.3674 -0.1005  0.5004
 7923SOL    HW235406   1.754   1.331   6.046  0.0647 -0.3693 -1.4182
 7924SOL     OW35407   4.136   4.574   3.993 -0.2201  0.4316  0.3571
 7924SOL    HW135408   4.057   4.621   3.967 -0.3189 -0.1112 -0.3159
 7924SOL    HW235409   4.132   4.579   4.089 -0.7577 -2.0511  0.4644
 7925SOL     OW35410   2.199   3.504   8.156 -0.0665  0.5113 -0.3736
 7925SOL    HW135411   2.105   3.520   8.142 -0.3572  0.4140  1.4285
 7925SOL    HW235412   2.200   3.472   8.246  1.7637 -0.7116 -0.8351
 7926SOL     OW35413   0.030   4.162  14.484 -0.1003 -0.2940 -0.4713
 7926SOL    HW135414   0.051   4.135  14.574 -0.4942  1.3664  0.1098
 7926SOL    HW235415   0.014   4.256  14.494 -0.4029 -0.3580 -0.3656
 7927SOL     OW35416   0.878   1.073   7.514  0.1854  0.1158 -0.2668
 7927SOL    HW135417   0.887   1.145   7.451 -1.5374 -0.0074 -0.6609
 7927SOL    HW235418   0.896   1.124   7.593  1.4046  3.5931 -2.7572
 7928SOL     OW35419   1.210   3.504  10.831 -0.4091 -0.4169  0.5383
 7928SOL    HW135420   1.247   3.531  10.915 -0.3396  1.8603 -0.2238
 7928SOL    HW235421   1.289   3.461  10.799 -0.4260 -2.1194  2.7501
 7929SOL     OW35422   3.993   0.908  13.286  0.1955  0.2361  0.0711
 7929SOL    HW135423   4.050   0.973  13.244  0.3015 -0.5519 -1.0080
 7929SOL    HW235424   3.954   0.965  13.352 -0.1631 -1.6721  1.5084
 7930SOL     OW35425   0.310   2.515   9.283 -0.5957  0.1845  0.4161
 7930SOL    HW135426   0.312   2.602   9.243  1.3692  0.6807  1.6035
 7930SOL    HW235427   0.373   2.530   9.354 -2.2144  0.8744  1.6973
 7931SOL     OW35428   2.120   3.041  17.112 -0.1598 -0.3377 -0.1532
 7931SOL    HW135429   2.042   3.083  17.075  0.0155 -0.1165 -0.2723
 7931SOL    HW235430   2.080   3.021  17.197  1.2600  0.9509  0.8314
 7932SOL     OW35431   4.103   2.789   2.586  0.7618  0.1223 -0.3425
 7932SOL    HW135432   4.185   2.838   2.592  0.6782  0.0803  1.1031
 7932SOL    HW235433   4.069   2.809   2.498 -0.0943 -1.3840 -0.3553
 7933SOL     OW35434   2.352   1.997   2.775 -0.0521 -0.2075  0.0458
 7933SOL    HW135435   2.402   1.971   2.853  1.2274  0.0112 -0.7048
 7933SOL    HW235436   2.267   2.004   2.818  0.3909  1.4725  0.6369
 7934SOL     OW35437   2.916   3.083  10.495 -0.5152 -0.3090 -0.0887
 7934SOL    HW135438   2.985   3.020  10.517  1.0950  1.2806 -0.6215
 7934SOL    HW235439   2.843   3.022  10.499  1.2812 -2.1287  4.8534
 7935SOL     OW35440   0.346   0.714   9.730 -0.5474 -0.5902  0.1002
 7935SOL    HW135441   0.340   0.791   9.672 -0.2208 -0.0949  0.7215
 7935SOL    HW235442   0.436   0.687   9.713 -0.2913  0.2815  0.0762
 7936SOL     OW35443   3.986   3.562   9.891  0.0418 -0.5727  0.0038
 7936SOL    HW135444   4.036   3.622   9.946  1.3503 -0.2670 -1.5378
 7936SOL    HW235445   4.048   3.489   9.901 -0.5625 -0.8701  1.6431
 7937SOL     OW35446   4.715   3.221   1.852  0.4495  0.4356 -0.2914
 7937SOL    HW135447   4.695   3.267   1.933  2.0447 -1.1046  0.9922
 7937SOL    HW235448   4.628   3.224   1.814  0.7275 -0.8984 -1.0304
 7938SOL     OW35449   0.873   1.694   1.743 -0.2016 -0.0747 -0.3574
 7938SOL    HW135450   0.790   1.725   1.780  0.4571  0.1655  0.9406
 7938SOL    HW235451   0.909   1.661   1.826 -0.6542 -1.2786 -0.6481
 7939SOL     OW35452   2.575   4.515   5.426 -0.2064 -0.7272 -0.1399
 7939SOL    HW135453   2.610   4.576   5.361  0.5215 -1.5477 -0.5152
 7939SOL    HW235454   2.647   4.512   5.489  0.1389  1.7953 -0.3958
 7940SOL     OW35455   0.818   1.324  12.395  0.4509 -0.1645 -0.5149
 7940SOL    HW135456   0.817   1.312  12.490 -0.6698 -0.7321 -0.5925
 7940SOL    HW235457   0.872   1.402  12.380  2.2503 -1.1937  0.6660
 7941SOL     OW35458   4.274   0.830  14.606  0.0205  0.7985 -0.6064
 7941SOL    HW135459   4.237   0.750  14.570  0.6944  0.3182 -0.2282
 7941SOL    HW235460   4.219   0.894  14.562  0.5996  1.2773 -0.6385
 7942SOL     OW35461   3.124   3.385   1.428 -0.3226  0.1018 -0.6891
 7942SOL    HW135462   3.079   3.454   1.379  0.3401  1.3660  0.4796
 7942SOL    HW235463   3.073   3.377   1.509  1.6173  1.8329  0.6920
 7943SOL     OW35464   1.222   0.124   6.927 -0.4274  0.3338 -0.1134
 7943SOL    HW135465   1.317   0.124   6.932 -0.5594  1.8632  2.5287
 7943SOL    HW235466   1.204   0.072   7.006  0.7027  0.2003  0.0553
 7944SOL     OW35467   3.324   4.419  14.276 -0.5223 -0.2699 -0.0702
 7944SOL    HW135468   3.385   4.431  14.203 -1.4848  2.0796 -0.4836
 7944SOL    HW235469   3.258   4.485  14.252  0.9636  1.0199 -0.6585
 7945SOL     OW35470   4.715   2.639   5.481  0.4232  0.2035  0.0261
 7945SOL    HW135471   0.037   2.657   5.406  0.7793  1.0945  0.5189
 7945SOL    HW235472   4.694   2.547   5.464  4.1637 -0.2824 -2.0994
 7946SOL     OW35473   4.261   2.743   3.775  0.3693  0.2235  0.0976
 7946SOL    HW135474   4.250   2.699   3.691  0.7215 -0.9310  0.6564
 7946SOL    HW235475   4.175   2.786   3.783  0.2062 -0.3149  1.2340
 7947SOL     OW35476   2.849   3.345  14.537  0.2099 -1.0081  0.4050
 7947SOL    HW135477   2.943   3.343  14.554  0.6285 -2.3546 -1.9677
 7947SOL    HW235478   2.799   3.333  14.617 -1.3514  3.1708  0.0583
 7948SOL     OW35479   2.333   2.650   2.064 -0.3132 -0.0180  0.4721
 7948SOL    HW135480   2.267   2.686   2.123 -0.0579  2.1869 -0.5956
 7948SOL    HW235481   2.414   2.699   2.082  0.0985 -0.9774  1.2475
 7949SOL     OW35482   1.161   2.692   9.562 -0.9685  0.5524  0.7859
 7949SOL    HW135483   1.101   2.724   9.494  0.7334 -0.1558 -1.0681
 7949SOL    HW235484   1.113   2.625   9.610  1.2262 -1.5804  0.0405
 7950SOL     OW35485   4.299   1.560   2.878 -0.1060 -0.0396 -0.3551
 7950SOL    HW135486   4.342   1.584   2.797 -0.4347 -1.8015 -1.0644
 7950SOL    HW235487   4.249   1.637   2.903 -0.2094 -0.4992  0.8512
 7951SOL     OW35488   1.882   1.244   5.216  0.4853  0.5351 -0.2068
 7951SOL    HW135489   1.844   1.332   5.212 -1.5863 -0.4323 -1.5789
 7951SOL    HW235490   1.933   1.231   5.296 -1.6499  0.7994  1.2151
 7952SOL     OW35491   3.357   3.844   5.175  0.3417 -0.2038  1.3818
 7952SOL    HW135492   3.349   3.832   5.081  3.4228 -0.5490  1.1530
 7952SOL    HW235493   3.294   3.915   5.184  0.0499 -0.0404 -1.9787
 7953SOL     OW35494   1.684   0.634  10.588  0.0561  0.2848 -0.0557
 7953SOL    HW135495   1.619   0.680  10.535 -2.3104 -1.5406  1.2068
 7953SOL    HW235496   1.647   0.594  10.668 -0.1018 -0.1121 -0.3246
 7954SOL     OW35497   1.014   2.126   5.703  0.6612  0.8736  0.0968
 7954SOL    HW135498   0.970   2.086   5.628  0.0160  0.8738  0.4691
 7954SOL    HW235499   1.089   2.069   5.720 -1.9473 -2.7853 -0.6251
 7955SOL     OW35500   3.578   2.293   2.990  0.3226  0.3573 -0.2672
 7955SOL    HW135501   3.644   2.351   2.952 -2.8889  0.5626 -5.6708
 7955SOL    HW235502   3.520   2.354   3.034 -0.0087  0.0556 -0.2851
 7956SOL     OW35503   1.459   3.112  12.101 -0.0828  0.2690  0.7935
 7956SOL    HW135504   1.498   3.114  12.013  2.4539 -2.5868  1.9010
 7956SOL    HW235505   1.367   3.121  12.075 -0.1175 -0.1058  0.7903
 7957SOL     OW35506   2.438   2.135   7.588  0.1257  0.1748 -0.0288
 7957SOL    HW135507   2.413   2.098   7.503 -0.6225  1.5847 -0.4399
 7957SOL    HW235508   2.485   2.061   7.624  0.2733 -0.0005 -0.5846
 7958SOL     OW35509   4.704   1.793  11.637  0.2700  0.2207 -0.3020
 7958SOL    HW135510   4.660   1.878  11.646 -1.4594 -0.4025 -2.8384
 7958SOL    HW235511   4.689   1.771  11.545 -0.7932 -0.4198  0.0239
 7959SOL     OW35512   3.135   3.153   9.566 -0.3402  0.2522 -0.4337
 7959SOL    HW135513   3.183   3.081   9.526 -0.3884 -0.5415  0.9165
 7959SOL    HW235514   3.146   3.221   9.500 -0.0213  0.7870  0.1670
 7960SOL     OW35515   3.329   3.144   1.908 -0.1812  0.1300  0.1485
 7960SOL    HW135516   3.258   3.094   1.868 -1.4712  1.5423  0.6601
 7960SOL    HW235517   3.301   3.233   1.886 -1.4995 -0.7888 -1.8883
 7961SOL     OW35518   1.988   3.347  10.635  0.1640  0.1056 -0.3995
 7961SOL    HW135519   1.920   3.385  10.690 -0.0872 -0.4891 -0.3069
 7961SOL    HW235520   2.007   3.266  10.683  1.2123  0.4380 -0.2521
 7962SOL     OW35521   1.387   0.179   9.261 -0.3098  0.0933  0.0507
 7962SOL    HW135522   1.468   0.152   9.218 -0.3377  1.2371 -0.7391
 7962SOL    HW235523   1.320   0.144   9.202  0.0805  1.7054 -1.3611
 7963SOL     OW35524   1.635   0.051   3.876 -0.1039 -0.3258  0.4597
 7963SOL    HW135525   1.620   0.123   3.938  0.4564 -0.0022  0.2235
 7963SOL    HW235526   1.726   0.026   3.891 -0.6781 -1.0722  2.7862
 7964SOL     OW35527   3.200   0.091   3.910 -0.4059 -1.1143 -0.1495
 7964SOL    HW135528   3.250   0.081   3.829  2.6149  1.8072  1.3303
 7964SOL    HW235529   3.221   0.005   3.948 -0.1178 -1.4852 -1.1346
 7965SOL     OW35530   4.192   4.189   6.490 -0.1940  0.4067 -0.1785
 7965SOL    HW135531   4.150   4.274   6.502  0.4571  0.8821 -1.2741
 7965SOL    HW235532   4.213   4.159   6.579  1.8007 -2.4984 -1.6198
 7966SOL     OW35533   0.910   2.413   4.536  0.3327 -0.0638  0.1762
 7966SOL    HW135534   0.953   2.332   4.564 -0.2097  0.1455  1.6305
 7966SOL    HW235535   0.885   2.394   4.446 -1.3552  0.7696  0.4787
 7967SOL     OW35536   4.142   1.463   2.504  0.1049  0.4486 -0.2532
 7967SOL    HW135537   4.127   1.397   2.572 -0.4923  0.1975 -0.6313
 7967SOL    HW235538   4.053   1.477   2.472  0.4093 -0.5732 -1.5402
 7968SOL     OW35539   4.628   0.188   2.887 -0.2025  0.5028 -0.6899
 7968SOL    HW135540   4.643   0.111   2.941 -2.3470  1.8081  1.7618
 7968SOL    HW235541   4.712   0.232   2.897  0.4233 -1.0508  0.8556
 7969SOL     OW35542   4.286   1.408   6.013  0.8495 -0.0169 -0.1048
 7969SOL    HW135543   4.295   1.445   5.925 -2.5235  0.9085 -0.0444
 7969SOL    HW235544   4.286   1.478   6.078  1.0497  0.8258 -1.0060
 7970SOL     OW35545   1.475   2.956   8.445  0.0495  0.1245  0.2740
 7970SOL    HW135546   1.480   2.860   8.450 -0.8497  0.0471 -0.1711
 7970SOL    HW235547   1.479   2.969   8.350  1.8025  2.7336  0.6988
 7971SOL     OW35548   3.436   4.282   6.796  0.0211  0.3911  0.0743
 7971SOL    HW135549   3.439   4.359   6.852  0.5247  0.2487  0.2454
 7971SOL    HW235550   3.493   4.312   6.725 -0.0520  0.6927  0.1440
 7972SOL     OW35551   4.190   2.076   2.106 -0.1341 -0.1939  0.6463
 7972SOL    HW135552   4.152   1.990   2.092 -1.4863  0.3030  1.2478
 7972SOL    HW235553   4.226   2.059   2.193  0.9992  1.2177  0.4626
 7973SOL     OW35554   1.355   0.108   3.951 -0.1205 -0.3349 -0.7224
 7973SOL    HW135555   1.444   0.077   3.938 -0.3135 -0.6623 -1.2686
 7973SOL    HW235556   1.336   0.060   4.031  1.9523  4.2310  2.5130
 7974SOL     OW35557   1.949   4.380   2.681 -0.3206 -0.2541  0.2145
 7974SOL    HW135558   1.899   4.431   2.618  2.3547  0.8406 -1.0197
 7974SOL    HW235559   2.026   4.436   2.686  0.4810 -1.4633  1.5012
 7975SOL     OW35560   2.698   1.917   4.254  0.0023  0.7201  0.0600
 7975SOL    HW135561   2.613   1.940   4.217  0.3287  0.4105 -0.8830
 7975SOL    HW235562   2.755   1.986   4.219  0.6715  0.5084  0.7309
 7976SOL     OW35563   2.110   3.310   8.685  0.0950 -0.1249 -0.5274
 7976SOL    HW135564   2.058   3.317   8.765  0.0145  0.4388 -0.6268
 7976SOL    HW235565   2.199   3.327   8.715 -0.8011  1.0201  1.4434
 7977SOL     OW35566   0.780   2.880   5.132 -0.3007  0.2231 -0.1751
 7977SOL    HW135567   0.814   2.791   5.121  1.7327  0.8616  0.9436
 7977SOL    HW235568   0.827   2.908   5.211 -1.3062  0.3442  0.3846
 7978SOL     OW35569   4.621   2.401   8.207  0.5725 -0.4250 -0.0217
 7978SOL    HW135570   4.664   2.480   8.173  1.5444 -1.4692 -1.2100
 7978SOL    HW235571   4.666   2.332   8.160 -0.9664 -2.3640  1.3480
 7979SOL     OW35572   0.872   2.364   5.673  0.2897  0.1366  0.5036
 7979SOL    HW135573   0.930   2.291   5.695  1.0327 -0.2828 -2.8207
 7979SOL    HW235574   0.794   2.362   5.728 -0.9080  2.5017 -1.0953
 7980SOL     OW35575   4.706   1.621  10.260 -0.1477 -0.2140 -0.0837
 7980SOL    HW135576   4.643   1.549  10.264 -0.8207  0.3915  0.2308
 7980SOL    HW235577   4.681   1.672  10.337  1.5314  0.1331  0.2285
 7981SOL     OW35578   0.348   1.902  16.981 -0.2384  0.0725 -0.1249
 7981SOL    HW135579   0.261   1.941  16.993 -0.3032 -0.6486  1.8204
 7981SOL    HW235580   0.326   1.841  16.910 -0.2506 -0.5700  0.4318
 7982SOL     OW35581   0.786   2.743   3.250 -0.1542  0.3152 -0.0427
 7982SOL    HW135582   0.713   2.738   3.188 -1.0954 -4.1024  1.4840
 7982SOL    HW235583   0.797   2.836   3.270  1.0861  0.0367  0.5546
 7983SOL     OW35584   4.220   3.045   2.756 -0.4659  0.0308 -0.1856
 7983SOL    HW135585   4.253   3.093   2.680  1.1539 -2.1250 -0.8452
 7983SOL    HW235586   4.126   3.040   2.739 -0.2216 -0.9208 -1.2295
 7984SOL     OW35587   0.685   3.513   3.960  0.4347  0.0046  0.2481
 7984SOL    HW135588   0.677   3.470   3.875  0.9343 -2.9986  1.7081
 7984SOL    HW235589   0.722   3.449   4.020 -1.1780 -1.1152  0.0358
 7985SOL     OW35590   2.351   1.719   7.530 -0.8182 -0.5684  0.4980
 7985SOL    HW135591   2.317   1.709   7.619 -0.6878  0.6995  0.6959
 7985SOL    HW235592   2.308   1.797   7.494 -0.7883 -0.3137  1.0144
 7986SOL     OW35593   4.207   0.014  16.795  0.1596 -0.6491 -0.1897
 7986SOL    HW135594   4.253   0.083  16.746  0.6840 -0.8787 -0.0107
 7986SOL    HW235595   4.264   4.735  16.870 -0.0735  0.8123  0.2640
 7987SOL     OW35596   0.315   3.357   4.776 -0.0643  0.5597 -0.2074
 7987SOL    HW135597   0.313   3.269   4.737 -1.9133  0.2413  0.6105
 7987SOL    HW235598   0.407   3.370   4.797 -0.2748  0.1225  0.9585
 7988SOL     OW35599   1.668   2.316   0.858 -0.2778 -0.4758  0.8506
 7988SOL    HW135600   1.685   2.396   0.907  0.3702 -0.1591  0.1146
 7988SOL    HW235601   1.622   2.266   0.925 -0.7844 -1.8098 -0.4977
 7989SOL     OW35602   4.156   0.859  10.243 -0.3920 -0.1269 -0.4921
 7989SOL    HW135603   4.109   0.904  10.173  1.4224  1.1460 -0.8773
 7989SOL    HW235604   4.186   0.778  10.201 -0.4694 -0.5586  0.2635
 7990SOL     OW35605   0.620   2.923  16.873  0.5561 -0.4145 -0.0555
 7990SOL    HW135606   0.586   3.005  16.836  1.2882 -0.6283 -1.1980
 7990SOL    HW235607   0.599   2.863  16.802  1.1924  0.3091 -0.8470
 7991SOL     OW35608   1.497   3.853   3.981 -0.1380 -0.3532  0.5683
 7991SOL    HW135609   1.544   3.936   3.981  0.4951 -0.7056 -0.9833
 7991SOL    HW235610   1.410   3.890   3.971  1.6452  3.8646  0.8324
 7992SOL     OW35611   3.819   2.256  16.961 -0.6830  0.3362 -0.4821
 7992SOL    HW135612   3.900   2.266  17.013 -1.0947  0.8285  0.0648
 7992SOL    HW235613   3.751   2.288  17.020 -0.4128 -0.5078  0.2865
 7993SOL     OW35614   0.025   0.711   3.006  0.2188 -0.2118  0.3394
 7993SOL    HW135615   0.007   0.672   2.920 -1.8306 -0.2643  0.7894
 7993SOL    HW235616   4.670   0.729   3.031  0.3886 -0.6737  1.2793
 7994SOL     OW35617   1.532   3.136  13.440 -0.3017 -0.1692  0.6405
 7994SOL    HW135618   1.596   3.207  13.443 -1.6573  1.1363 -1.1862
 7994SOL    HW235619   1.592   3.062  13.435  1.1571  1.1052 -0.5566
 7995SOL     OW35620   3.799   3.986   7.404  0.2669  0.0702  0.2628
 7995SOL    HW135621   3.707   4.013   7.412 -0.7486 -2.5167 -2.8262
 7995SOL    HW235622   3.808   3.976   7.499  3.4030 -0.1473 -0.0721
 7996SOL     OW35623   0.692   0.267   8.644 -0.2483 -0.0246 -0.8411
 7996SOL    HW135624   0.727   0.353   8.618 -4.5756  1.6944 -1.0874
 7996SOL    HW235625   0.629   0.255   8.573 -1.9116  1.4719  0.3500
 7997SOL     OW35626   1.815   2.702   9.619  0.1259 -0.2362 -0.4044
 7997SOL    HW135627   1.830   2.731   9.529  2.0827  1.0758  0.3317
 7997SOL    HW235628   1.832   2.780   9.672 -1.0641 -0.4564  0.2911
 7998SOL     OW35629   3.754   2.377   4.083  0.3405  0.3209 -0.2230
 7998SOL    HW135630   3.725   2.334   4.163  0.5254 -0.9100 -0.8069
 7998SOL    HW235631   3.832   2.326   4.062  0.9438  1.4652 -0.7723
 7999SOL     OW35632   0.933   1.706  12.947 -0.5335 -0.7039  0.6942
 7999SOL    HW135633   0.987   1.691  13.024  1.9785  2.3101 -0.4804
 7999SOL    HW235634   0.856   1.722  13.001 -1.3382 -0.4967 -0.5019
 8000SOL     OW35635   0.081   1.086   6.064 -0.0645 -0.3216  0.0014
 8000SOL    HW135636   0.092   1.011   6.122 -0.8843  1.3139  2.2756
 8000SOL    HW235637   0.140   1.148   6.108  1.5025 -0.2108 -2.2318
 8001SOL     OW35638   2.633   3.095   7.040  0.9383  0.0506  0.3937
 8001SOL    HW135639   2.671   3.183   7.051  0.3076  0.4780 -0.8857
 8001SOL    HW235640   2.705   3.037   7.014  0.1718 -1.2631  1.2412
 8002SOL     OW35641   1.541   1.752   4.881 -0.2783  0.2067 -0.2228
 8002SOL    HW135642   1.500   1.835   4.858  1.0894  1.5348  2.0987
 8002SOL    HW235643   1.583   1.726   4.799 -0.5018 -1.5481  0.2094
 8003SOL     OW35644   1.888   3.535   0.254  0.7087 -0.2223  0.2345
 8003SOL    HW135645   1.917   3.625   0.263 -1.4138  0.5471 -0.7058
 8003SOL    HW235646   1.921   3.520   0.165  0.0203 -0.6606  0.0529
 8004SOL     OW35647   2.058   1.624   4.803 -0.7384 -0.1238  0.3731
 8004SOL    HW135648   2.047   1.547   4.859 -1.5346 -0.3471 -0.0985
 8004SOL    HW235649   1.988   1.682   4.833 -0.1135  1.1595 -0.6677
 8005SOL     OW35650   3.670   3.353   2.478 -0.0247 -0.5350  0.3197
 8005SOL    HW135651   3.737   3.292   2.447  2.3244  2.2844 -0.2246
 8005SOL    HW235652   3.618   3.357   2.398  1.3949  1.1009 -0.5296
 8006SOL     OW35653   0.442   2.661   0.717 -0.7257 -0.6950 -0.0263
 8006SOL    HW135654   0.378   2.717   0.675  1.6636  1.3890 -0.8751
 8006SOL    HW235655   0.485   2.614   0.645  2.4837 -0.8755  1.9501
 8007SOL     OW35656   4.573   1.783   4.998  0.7245  0.4004 -0.0122
 8007SOL    HW135657   4.497   1.742   4.957  0.4062 -0.6119  1.6345
 8007SOL    HW235658   4.644   1.732   4.959  0.1967  1.2948 -2.1511
 8008SOL     OW35659   3.209   1.919   9.338 -0.1975 -0.6394  0.5322
 8008SOL    HW135660   3.282   1.945   9.394  0.1665 -1.2677  0.3420
 8008SOL    HW235661   3.134   1.929   9.397 -0.7218 -1.8257  0.0538
 8009SOL     OW35662   1.438   3.863   0.468 -0.0974  0.4172  0.6091
 8009SOL    HW135663   1.522   3.892   0.503  0.6370  0.9465 -1.6272
 8009SOL    HW235664   1.394   3.821   0.542  0.6985 -0.1490  0.7620
 8010SOL     OW35665   3.505   2.164   4.957 -0.6729 -0.6079 -0.6184
 8010SOL    HW135666   3.480   2.242   5.006 -0.2891 -1.8806  1.6343
 8010SOL    HW235667   3.576   2.127   5.010 -0.2901 -1.6667 -1.8642
 8011SOL     OW35668   2.714   0.665   7.570  0.1684 -0.2497  0.4300
 8011SOL    HW135669   2.736   0.755   7.595  1.6467 -0.5406  0.2074
 8011SOL    HW235670   2.736   0.629   7.656 -0.1829 -0.4347  0.4424
 8012SOL     OW35671   4.468   2.860   2.775 -0.3603  0.4331 -0.1175
 8012SOL    HW135672   4.404   2.808   2.824 -0.4540  1.4479  0.8526
 8012SOL    HW235673   4.430   2.948   2.784 -0.4856  0.2377  1.2332
 8013SOL     OW35674   0.706   1.313   2.040 -0.7608 -0.1570  0.2308
 8013SOL    HW135675   0.725   1.257   1.965 -2.5327  2.2972 -2.0716
 8013SOL    HW235676   0.611   1.322   2.045 -0.8719 -0.8988 -0.6234
 8014SOL     OW35677   4.394   3.250  17.724  0.0393  0.3214  0.2395
 8014SOL    HW135678   4.373   3.248   0.078  2.7501  0.2507  0.8237
 8014SOL    HW235679   4.488   3.236  17.732  0.1713  2.3740  2.2518
 8015SOL     OW35680   3.797   4.699  13.385 -0.5203 -0.2562 -0.2806
 8015SOL    HW135681   3.792   0.059  13.392 -1.2973 -0.2850 -0.5398
 8015SOL    HW235682   3.710   4.660  13.386  0.3952 -2.3106 -0.4845
 8016SOL     OW35683   1.173   2.191   3.818  0.0158 -0.2461 -0.0193
 8016SOL    HW135684   1.217   2.123   3.765  1.4756  1.5257 -1.1070
 8016SOL    HW235685   1.230   2.195   3.895 -1.6555 -1.1716  1.2464
 8017SOL     OW35686   1.302   3.912  12.573 -0.4280  0.5182 -0.1705
 8017SOL    HW135687   1.228   3.858  12.599 -1.3430  1.1329 -1.4807
 8017SOL    HW235688   1.284   3.997  12.613  0.9134  0.5500  0.3611
 8018SOL     OW35689   4.093   4.529   2.332  0.4435  0.7061 -0.0117
 8018SOL    HW135690   4.059   4.441   2.318 -0.3209  0.8021  1.1442
 8018SOL    HW235691   4.031   4.586   2.287 -1.8946 -0.7098  1.3789
 8019SOL     OW35692   0.550   4.545   7.111  0.0283 -0.4793 -0.3404
 8019SOL    HW135693   0.510   4.604   7.048 -1.9126 -0.3339  1.0392
 8019SOL    HW235694   0.558   4.462   7.064  0.6565  0.6450 -2.2083
 8020SOL     OW35695   1.878   3.342   1.426 -0.1143 -0.1583  0.4134
 8020SOL    HW135696   1.819   3.344   1.351 -0.8299  0.8915  1.0042
 8020SOL    HW235697   1.905   3.433   1.431  0.5279 -0.3762  0.8799
 8021SOL     OW35698   4.434   3.029   6.773 -0.3377  0.1572  0.1623
 8021SOL    HW135699   4.422   3.058   6.682  0.3295 -0.6256 -0.1695
 8021SOL    HW235700   4.360   2.972   6.791 -0.0853 -0.8342 -1.9415
 8022SOL     OW35701   2.910   1.660  10.521 -0.6639 -0.5641 -0.4143
 8022SOL    HW135702   2.858   1.657  10.601 -2.9714  2.6998 -1.8106
 8022SOL    HW235703   2.944   1.570  10.522  0.7358 -0.0002  2.3618
 8023SOL     OW35704   2.668   3.590   6.830 -0.1392  0.0983 -0.5202
 8023SOL    HW135705   2.722   3.517   6.803  2.9660  3.1995 -2.6485
 8023SOL    HW235706   2.663   3.582   6.925  0.1947  0.3872 -0.4789
 8024SOL     OW35707   2.310   0.741   4.618 -0.1879  0.2925 -0.5291
 8024SOL    HW135708   2.281   0.743   4.527  0.3033  0.3391 -0.6817
 8024SOL    HW235709   2.234   0.783   4.660 -1.0703 -0.9525 -0.8804
 8025SOL     OW35710   4.368   1.776   3.477 -0.1023 -0.0566  0.0613
 8025SOL    HW135711   4.326   1.860   3.459  0.6725 -0.6752 -4.7625
 8025SOL    HW235712   4.433   1.764   3.408 -0.6152 -1.7866 -0.1232
 8026SOL     OW35713   4.697   4.570   9.127 -0.2061  0.5088  0.2019
 8026SOL    HW135714   0.021   4.546   9.056 -0.2553 -0.0332  0.3510
 8026SOL    HW235715   0.001   4.647   9.169  1.5157 -0.1501 -0.1880
 8027SOL     OW35716   4.587   4.571   0.853  0.2436 -0.5196  1.0398
 8027SOL    HW135717   4.584   4.636   0.782  1.1438 -0.4051  1.1058
 8027SOL    HW235718   4.492   4.559   0.858  0.1762 -0.6642 -0.4050
 8028SOL     OW35719   2.006   1.293   6.180 -0.0926  1.1581 -0.2129
 8028SOL    HW135720   2.002   1.369   6.238 -2.6363  0.3811  0.6232
 8028SOL    HW235721   1.984   1.220   6.237 -1.2087 -0.0626 -2.2079
 8029SOL     OW35722   0.955   2.692  14.457  0.2110 -0.4389 -0.1237
 8029SOL    HW135723   0.991   2.670  14.544  2.0371 -0.9516 -1.0006
 8029SOL    HW235724   0.977   2.785  14.448  0.0509 -0.4601 -0.6815
 8030SOL     OW35725   4.182   1.271   1.496  0.3104 -0.1781  0.0118
 8030SOL    HW135726   4.196   1.284   1.403  1.3634 -0.2836  0.1493
 8030SOL    HW235727   4.136   1.348   1.531  0.8273 -0.4044  1.1954
 8031SOL     OW35728   1.702   1.336   2.015  0.1386 -0.4706  0.2410
 8031SOL    HW135729   1.664   1.270   1.958 -1.0921  0.4206  0.0339
 8031SOL    HW235730   1.684   1.416   1.965 -0.8750 -0.5271  0.5154
 8032SOL     OW35731   3.267   3.021   1.292 -0.3311 -0.2972 -0.4388
 8032SOL    HW135732   3.220   3.091   1.248  0.5294  0.2601 -0.4630
 8032SOL    HW235733   3.207   3.003   1.365  0.4738 -1.2074  0.0046
 8033SOL     OW35734   0.714   0.559  14.731  0.5008 -0.4790  0.2882
 8033SOL    HW135735   0.781   0.627  14.723 -0.8802  0.9291  0.7240
 8033SOL    HW235736   0.654   0.614  14.781  1.4169  1.6265 -0.9340
 8034SOL     OW35737   4.507   4.050   6.700 -0.0926  0.1735  0.3061
 8034SOL    HW135738   4.412   4.053   6.687 -0.1331 -1.7526  0.2044
 8034SOL    HW235739   4.509   4.097   6.783  1.1864  0.1709  0.2692
 8035SOL     OW35740   4.577   3.070   8.740 -0.2297 -0.3011 -0.0180
 8035SOL    HW135741   4.601   3.129   8.812 -0.7746 -0.2704  0.1398
 8035SOL    HW235742   4.651   3.010   8.753 -0.5994 -0.5981  0.7725
 8036SOL     OW35743   2.175   0.743   4.350 -0.7241  0.5432  0.2129
 8036SOL    HW135744   2.228   0.821   4.333  0.4314 -0.5782 -1.3614
 8036SOL    HW235745   2.107   0.751   4.283 -1.7598 -1.6762  1.0055
 8037SOL     OW35746   3.540   1.391   6.538 -0.1765 -0.3681  0.1581
 8037SOL    HW135747   3.510   1.393   6.629  0.3268  2.4981  0.2747
 8037SOL    HW235748   3.459   1.378   6.489 -0.3238 -1.4707  0.6831
 8038SOL     OW35749   1.635   4.516   3.996 -0.1724 -0.0183  0.3923
 8038SOL    HW135750   1.641   4.598   3.946  0.0122  0.3232  0.9726
 8038SOL    HW235751   1.716   4.473   3.969  0.3033  0.4016  1.1627
 8039SOL     OW35752   3.790   1.873   4.285 -0.1947 -0.1308 -0.1774
 8039SOL    HW135753   3.770   1.794   4.235  1.5918 -0.4370 -0.3977
 8039SOL    HW235754   3.708   1.923   4.284  0.7817  1.4922 -0.0398
 8040SOL     OW35755   0.844   0.846  13.463 -0.0460  0.4891  0.0906
 8040SOL    HW135756   0.871   0.755  13.473  1.7643  0.9645 -0.5584
 8040SOL    HW235757   0.757   0.845  13.503  1.0056 -1.3948  2.3565
 8041SOL     OW35758   2.634   3.782  13.230  0.1310 -0.5273  0.5058
 8041SOL    HW135759   2.674   3.708  13.277  2.3222 -0.2164 -0.8447
 8041SOL    HW235760   2.649   3.752  13.141  0.5767  0.7461  0.1516
 8042SOL     OW35761   3.821   4.195   6.559 -0.7394  0.1656  0.3209
 8042SOL    HW135762   3.769   4.137   6.503  0.2633 -1.5176  1.1396
 8042SOL    HW235763   3.867   4.248   6.494 -2.0181  2.0787  0.9822
 8043SOL     OW35764   3.573   4.602   3.852  0.0514  0.0178  0.3789
 8043SOL    HW135765   3.595   4.571   3.764  1.2610  1.7591  0.0547
 8043SOL    HW235766   3.482   4.628   3.838  0.5869  1.2735 -0.8188
 8044SOL     OW35767   3.267   1.574   4.927 -0.2732 -0.2802  0.6442
 8044SOL    HW135768   3.219   1.558   5.007  0.8498 -0.6118  1.2498
 8044SOL    HW235769   3.351   1.537   4.954 -0.0067  0.6348  1.0850
 8045SOL     OW35770   0.767   2.396  14.793  0.0960 -0.0973  0.2459
 8045SOL    HW135771   0.845   2.363  14.749 -1.5565 -1.1769 -1.8393
 8045SOL    HW235772   0.743   2.473  14.741  2.3508  0.3698 -0.1220
 8046SOL     OW35773   2.882   3.612   8.154 -0.1087  0.3267  0.5719
 8046SOL    HW135774   2.907   3.700   8.179  2.0530 -0.0658 -0.2355
 8046SOL    HW235775   2.799   3.611   8.202 -0.3008  0.4712  0.2450
 8047SOL     OW35776   0.864   0.346   5.795 -0.5091  0.1698  0.0485
 8047SOL    HW135777   0.836   0.273   5.848 -0.6742  0.3764  0.2423
 8047SOL    HW235778   0.844   0.423   5.848 -0.0042 -0.3955  1.0419
 8048SOL     OW35779   3.247   1.268   7.370  0.2950 -0.2709 -0.1284
 8048SOL    HW135780   3.178   1.255   7.305 -0.1238 -1.0790  0.4908
 8048SOL    HW235781   3.292   1.184   7.377 -0.5903 -0.7316  0.0263
 8049SOL     OW35782   3.770   1.369  15.668 -0.1343 -0.2062 -0.6802
 8049SOL    HW135783   3.692   1.425  15.662  0.8711  1.0385 -1.8393
 8049SOL    HW235784   3.751   1.296  15.610 -3.4782 -1.8480  2.4497
 8050SOL     OW35785   2.830   3.500   3.045 -0.0309  0.3053  0.3188
 8050SOL    HW135786   2.885   3.511   3.123 -0.1429 -0.8531  0.5599
 8050SOL    HW235787   2.792   3.413   3.059 -0.2097  0.2782 -0.3229
 8051SOL     OW35788   1.070   1.280   5.432 -0.7394 -0.3657  0.2275
 8051SOL    HW135789   1.038   1.350   5.489 -2.5206 -0.6061 -0.5035
 8051SOL    HW235790   1.123   1.217   5.481  0.6482  0.3347 -0.3579
 8052SOL     OW35791   4.204   3.262  16.032 -0.1884 -0.2718  0.0729
 8052SOL    HW135792   4.116   3.225  16.045 -0.7998  1.3876  0.6701
 8052SOL    HW235793   4.176   3.354  16.030  2.7677  0.6313  0.5785
 8053SOL     OW35794   4.360   0.172   8.494 -0.2766  0.3613  0.3793
 8053SOL    HW135795   4.322   0.107   8.553 -0.0479 -0.5555 -0.4957
 8053SOL    HW235796   4.425   0.117   8.449 -0.2632  0.4506  0.2901
 8054SOL     OW35797   2.363   0.101   2.479 -0.4049 -0.7936 -0.3522
 8054SOL    HW135798   2.394   0.044   2.550 -1.3836  0.6125  1.1879
 8054SOL    HW235799   2.285   0.137   2.522  1.6433  0.0957  2.6352
 8055SOL     OW35800   2.494   4.686   1.154 -0.2071 -0.1493 -0.0285
 8055SOL    HW135801   2.451   0.015   1.097 -0.8003  0.2450  0.8590
 8055SOL    HW235802   2.411   4.646   1.180  0.1462 -0.8352  0.0400
 8056SOL     OW35803   2.513   4.159   7.240  0.6791  0.4734 -0.1452
 8056SOL    HW135804   2.455   4.093   7.201 -0.2517  1.1480  0.0731
 8056SOL    HW235805   2.557   4.098   7.299 -0.0272 -0.1934 -0.2988
 8057SOL     OW35806   1.874   3.886   0.923  0.3826  0.0584 -0.7086
 8057SOL    HW135807   1.851   3.824   0.853  2.6330 -0.3579 -1.0592
 8057SOL    HW235808   1.962   3.913   0.897 -0.2125  0.1222 -2.6139
 8058SOL     OW35809   2.228   4.458   5.934  0.2469 -0.1726  0.5071
 8058SOL    HW135810   2.136   4.445   5.911 -0.5054  1.7868  2.3523
 8058SOL    HW235811   2.268   4.373   5.950 -0.8446 -0.3012  2.4883
 8059SOL     OW35812   4.514   0.441   5.059 -0.2335 -0.2285  0.0430
 8059SOL    HW135813   4.525   0.440   5.154  0.2111 -1.6222 -0.0223
 8059SOL    HW235814   4.606   0.424   5.037 -0.4683 -0.4259 -0.7811
 8060SOL     OW35815   1.527   0.572   1.768 -0.1644  0.6495  0.0073
 8060SOL    HW135816   1.485   0.656   1.752 -0.5912  0.9547  2.8404
 8060SOL    HW235817   1.609   0.574   1.719  0.6009  0.4060  1.3136
 8061SOL     OW35818   2.996   2.638   4.033  0.5815  0.0636  0.8878
 8061SOL    HW135819   2.967   2.601   3.949  1.6641  1.0544  0.0622
 8061SOL    HW235820   3.024   2.560   4.080 -0.4687 -1.1472 -0.5226
 8062SOL     OW35821   0.475   0.482   6.561  0.2564  0.0003  0.0913
 8062SOL    HW135822   0.458   0.572   6.590 -1.8359 -0.7952  1.3440
 8062SOL    HW235823   0.390   0.447   6.589  0.5155 -1.4110 -0.9311
 8063SOL     OW35824   4.610   3.083  13.120  0.5458  0.3285  0.3716
 8063SOL    HW135825   4.621   3.046  13.207  1.3911  0.3272  0.2637
 8063SOL    HW235826   4.554   3.016  13.081  0.8700  0.1520  0.2101
 8064SOL     OW35827   2.385   4.259  16.885  0.3350  0.3829  0.0998
 8064SOL    HW135828   2.378   4.172  16.844  0.8838 -0.2843  1.4266
 8064SOL    HW235829   2.479   4.265  16.900  0.3564 -0.8296  0.4947
 8065SOL     OW35830   0.707   0.583   9.171 -0.6682 -0.5165 -0.2177
 8065SOL    HW135831   0.758   0.664   9.171  0.2280 -1.0851  0.2820
 8065SOL    HW235832   0.758   0.535   9.236  0.3288 -0.2190 -0.7771
 8066SOL     OW35833   4.218   2.721   4.230  0.0465  0.5518  0.1879
 8066SOL    HW135834   4.226   2.662   4.155 -1.5692  1.1145 -0.4227
 8066SOL    HW235835   4.309   2.749   4.242  0.5359 -0.2025 -1.8269
 8067SOL     OW35836   3.601   3.959   6.902  0.8242  0.0303  0.2079
 8067SOL    HW135837   3.691   3.959   6.870  2.1458  0.9616  3.9165
 8067SOL    HW235838   3.590   3.875   6.946 -0.4521  0.1082  0.0537
 8068SOL     OW35839   0.398   0.581  15.376 -0.0424 -0.0011  0.3066
 8068SOL    HW135840   0.466   0.534  15.328 -0.1896  1.3857 -1.2406
 8068SOL    HW235841   0.391   0.523  15.452  0.2653  0.1901  0.4837
 8069SOL     OW35842   0.214   1.354   1.546  0.1580 -0.3792 -0.3360
 8069SOL    HW135843   0.250   1.286   1.488  0.7589 -1.7487  1.6407
 8069SOL    HW235844   0.294   1.372   1.593 -0.2959  0.8495 -0.0496
 8070SOL     OW35845   0.823   3.289   2.553 -0.4890 -0.5365 -0.0617
 8070SOL    HW135846   0.852   3.329   2.634  1.7971 -1.5939 -0.3491
 8070SOL    HW235847   0.740   3.249   2.578  0.0687 -1.9566 -0.4498
 8071SOL     OW35848   0.937   4.479   3.906  0.1926 -0.1904  0.2188
 8071SOL    HW135849   0.841   4.482   3.912  0.3225  1.5843  1.4101
 8071SOL    HW235850   0.957   4.422   3.980  0.9355 -0.9145 -0.5447
 8072SOL     OW35851   4.657   2.166   7.088 -0.3779  0.6332 -0.2056
 8072SOL    HW135852   4.583   2.176   7.029 -0.3069 -0.7884 -0.5503
 8072SOL    HW235853   4.725   2.207   7.035  0.7963 -1.5815 -0.4096
 8073SOL     OW35854   2.932   3.647  17.659 -0.1786  0.1792  0.3414
 8073SOL    HW135855   2.975   3.613  17.737  2.2768 -0.7835 -1.4368
 8073SOL    HW235856   2.985   3.724  17.639 -3.4799  1.9179 -1.8361
 8074SOL     OW35857   3.507   3.264   0.393 -0.3136 -0.2527 -0.0064
 8074SOL    HW135858   3.547   3.222   0.470  1.2548  0.4352 -0.4550
 8074SOL    HW235859   3.420   3.227   0.406 -0.9432  1.1921 -0.2262
 8075SOL     OW35860   2.218   3.846   5.539  0.1190 -0.7288 -0.1342
 8075SOL    HW135861   2.226   3.893   5.622  1.8020 -2.0356  0.4341
 8075SOL    HW235862   2.257   3.765   5.572  1.2166 -0.0779  0.1765
 8076SOL     OW35863   1.434   2.150   8.176 -0.1649  0.3815  0.6356
 8076SOL    HW135864   1.353   2.151   8.226  2.3797 -1.2679  4.8800
 8076SOL    HW235865   1.448   2.057   8.156  0.4672  0.1327  2.2111
 8077SOL     OW35866   1.107   2.367   2.368 -0.4231 -0.0213 -0.0541
 8077SOL    HW135867   1.122   2.304   2.439 -0.2753 -0.2842 -0.3186
 8077SOL    HW235868   1.144   2.444   2.410  0.3356 -0.4318  0.0245
 8078SOL     OW35869   0.276   1.186   5.575  0.3188 -0.7474  0.0462
 8078SOL    HW135870   0.189   1.223   5.588  0.5775 -0.6674  1.5900
 8078SOL    HW235871   0.294   1.207   5.483 -2.8305  0.1217 -0.3755
 8079SOL     OW35872   2.548   0.308   5.737 -0.0504 -0.0050 -0.1138
 8079SOL    HW135873   2.530   0.215   5.743 -0.4007  0.0055 -1.1062
 8079SOL    HW235874   2.555   0.339   5.827 -0.8582 -0.0183 -0.0458
 8080SOL     OW35875   3.129   3.061   4.219  0.3884 -0.5308 -0.4643
 8080SOL    HW135876   3.122   3.033   4.310 -0.2172 -1.5476 -0.8279
 8080SOL    HW235877   3.182   3.141   4.224 -1.8148  0.7897  1.5225
 8081SOL     OW35878   1.548   2.685   5.008  0.8336 -0.1521 -0.1665
 8081SOL    HW135879   1.510   2.632   4.938 -2.3409  3.8088 -1.4562
 8081SOL    HW235880   1.513   2.768   4.977 -2.6759 -0.9918  1.4989
 8082SOL     OW35881   1.497   3.600   8.525  0.2036  0.3130 -0.1806
 8082SOL    HW135882   1.536   3.585   8.611 -1.2338 -1.7990  0.1200
 8082SOL    HW235883   1.441   3.676   8.538  0.3191  0.7260 -2.1467
 8083SOL     OW35884   1.400   3.891   7.651  0.1579  0.5597 -0.0835
 8083SOL    HW135885   1.315   3.863   7.685 -0.3829  0.4111 -1.5537
 8083SOL    HW235886   1.374   3.966   7.596 -1.1690 -0.6971 -1.1808
 8084SOL     OW35887   4.369   2.352  11.509  0.1621 -0.3337 -0.5119
 8084SOL    HW135888   4.345   2.424  11.451 -1.7990  0.5136  1.3499
 8084SOL    HW235889   4.287   2.303  11.514 -0.1141 -0.1174 -2.8794
 8085SOL     OW35890   1.226   2.107  12.902  0.3371 -0.3594 -0.6925
 8085SOL    HW135891   1.316   2.075  12.896  0.3136 -0.5013 -0.3015
 8085SOL    HW235892   1.209   2.139  12.813 -0.4068  0.5652 -0.2073
 8086SOL     OW35893   1.739   1.791   1.609  0.0545  0.6323 -1.1081
 8086SOL    HW135894   1.815   1.744   1.573  2.2822  1.8479  1.9441
 8086SOL    HW235895   1.780   1.877   1.599  0.4520  0.5393 -0.2512
 8087SOL     OW35896   0.397   3.121   1.618  0.7843  0.2829 -0.6487
 8087SOL    HW135897   0.455   3.145   1.690  0.9257  1.6590 -1.2122
 8087SOL    HW235898   0.317   3.168   1.639 -0.4681 -2.0884 -0.1325
 8088SOL     OW35899   1.721   1.963   5.792  0.3884  0.0661  0.3118
 8088SOL    HW135900   1.691   2.032   5.731  0.7665 -0.7833 -0.8318
 8088SOL    HW235901   1.630   1.950   5.820  0.5528 -1.7573 -0.0249
 8089SOL     OW35902   1.550   0.285   1.409  0.3241 -0.1786  0.2360
 8089SOL    HW135903   1.597   0.314   1.330  0.2910  0.0550  0.3022
 8089SOL    HW235904   1.504   0.365   1.435  0.6213 -0.1320  0.6199
 8090SOL     OW35905   1.983   3.583  15.966  0.6273 -0.1925 -0.1883
 8090SOL    HW135906   2.020   3.664  15.998  1.1189 -0.2861 -0.5212
 8090SOL    HW235907   1.920   3.565  16.036  1.6950 -1.5248  0.4285
 8091SOL     OW35908   3.544   0.435   5.391  0.2029  0.0977 -0.2147
 8091SOL    HW135909   3.625   0.411   5.347  0.3722 -0.2793  0.3096
 8091SOL    HW235910   3.485   0.359   5.392 -1.4149  1.3279 -2.1141
 8092SOL     OW35911   1.193   0.638   7.747 -0.0080 -0.2355 -0.7646
 8092SOL    HW135912   1.286   0.621   7.762  0.1923  1.2941 -0.2181
 8092SOL    HW235913   1.168   0.656   7.838 -3.0210  1.6107 -1.9860
 8093SOL     OW35914   3.393   1.440   9.755 -0.2078  0.1580 -0.4735
 8093SOL    HW135915   3.356   1.401   9.835  1.4552 -2.1343 -0.8167
 8093SOL    HW235916   3.452   1.505   9.793  0.2773  0.6542 -2.0777
 8094SOL     OW35917   1.164   0.544   2.487 -0.5332 -0.5166  0.5617
 8094SOL    HW135918   1.209   0.626   2.466 -2.3682  0.1451 -0.7348
 8094SOL    HW235919   1.204   0.483   2.425  1.2831  1.2930 -0.0480
 8095SOL     OW35920   4.390   1.921   6.510  0.3907 -0.0211  0.1186
 8095SOL    HW135921   4.336   1.975   6.453 -0.5133  0.1074  1.0972
 8095SOL    HW235922   4.337   1.925   6.589 -0.8261 -1.0076 -0.6451
 8096SOL     OW35923   1.501   4.335   4.973 -0.1547  0.4248 -0.3145
 8096SOL    HW135924   1.518   4.333   5.067 -0.3513  3.2244 -0.2109
 8096SOL    HW235925   1.410   4.363   4.984 -0.4786 -0.4302 -0.8221
 8097SOL     OW35926   0.620   4.425   5.271 -0.4460 -0.2511 -0.3637
 8097SOL    HW135927   0.584   4.340   5.244 -1.4933  0.0459  0.0884
 8097SOL    HW235928   0.578   4.447   5.354  1.9311 -0.9833  1.0225
 8098SOL     OW35929   1.766   1.327   4.729  0.3634 -0.2340 -0.0651
 8098SOL    HW135930   1.812   1.319   4.646 -3.6617 -0.0614 -2.3111
 8098SOL    HW235931   1.681   1.285   4.715  0.1032 -0.3769  1.9855
 8099SOL     OW35932   0.862   0.549  13.498  0.0856  0.3228 -0.3714
 8099SOL    HW135933   0.783   0.517  13.542 -0.3611 -0.1903 -1.5666
 8099SOL    HW235934   0.930   0.485  13.521 -0.9945 -0.1075  1.6730
 8100SOL     OW35935   2.805   2.802   5.588 -0.2595 -0.0393 -0.0343
 8100SOL    HW135936   2.798   2.872   5.523 -1.7028 -0.4172 -0.2775
 8100SOL    HW235937   2.758   2.848   5.658 -0.3838  0.2361 -0.2966
 8101SOL     OW35938   1.982   4.064   5.331 -0.4823  0.2290  0.5970
 8101SOL    HW135939   1.952   3.974   5.322 -0.4593  0.4744 -1.9777
 8101SOL    HW235940   2.068   4.054   5.290 -0.3293  1.2179  0.6789
 8102SOL     OW35941   4.704   1.894   1.281  0.1127 -0.0411  0.3742
 8102SOL    HW135942   4.699   1.989   1.286  0.7297  0.0671 -1.0018
 8102SOL    HW235943   4.614   1.873   1.304 -0.1039  0.4766 -0.0021
 8103SOL     OW35944   3.592   0.725   5.828  1.3095 -0.3706 -0.5449
 8103SOL    HW135945   3.521   0.769   5.780  1.5735 -0.8111 -1.3293
 8103SOL    HW235946   3.617   0.662   5.760  0.9270 -0.0958 -0.9451
 8104SOL     OW35947   2.867   2.265   5.057  0.1572 -0.4499 -0.5102
 8104SOL    HW135948   2.932   2.274   5.126 -0.4900  1.9995 -0.2480
 8104SOL    HW235949   2.783   2.274   5.101 -0.0171 -1.5238 -0.6147
 8105SOL     OW35950   4.374   3.495   7.362  0.3071  0.4320  0.0945
 8105SOL    HW135951   4.284   3.525   7.350  0.4078 -0.3403 -2.6313
 8105SOL    HW235952   4.423   3.550   7.301 -0.0097  3.7010  2.7913
 8106SOL     OW35953   0.902   2.516  16.612  0.5289  0.4288 -0.1711
 8106SOL    HW135954   0.996   2.526  16.626  0.4368  2.5758 -0.9961
 8106SOL    HW235955   0.880   2.519  16.705  1.0807 -1.2050  0.0109
 8107SOL     OW35956   2.490   2.334   5.548  0.2105  0.6538 -0.5149
 8107SOL    HW135957   2.581   2.329   5.518 -0.2898 -0.7385 -1.7852
 8107SOL    HW235958   2.468   2.247   5.582  0.3604  0.9103  0.2296
 8108SOL     OW35959   4.020   4.054  16.175  0.3433  0.3681  0.4328
 8108SOL    HW135960   4.098   4.108  16.186 -0.5908  1.5541  1.2491
 8108SOL    HW235961   3.964   4.103  16.235  2.4976  2.1829  0.9437
 8109SOL     OW35962   3.889   3.067   5.150 -0.3470  0.3283 -0.3593
 8109SOL    HW135963   3.832   3.066   5.227 -1.0959 -0.3905 -0.9200
 8109SOL    HW235964   3.973   3.073   5.196 -0.7386  0.7512  0.3031
 8110SOL     OW35965   4.236   3.449   8.473  0.1243  0.0850  0.2632
 8110SOL    HW135966   4.321   3.427   8.510  0.6586  0.4802 -0.7392
 8110SOL    HW235967   4.223   3.534   8.515 -0.0274  1.1336 -1.9209
 8111SOL     OW35968   0.398   0.195   2.877  0.4123  0.3245  0.5630
 8111SOL    HW135969   0.390   0.227   2.967 -0.0323  1.5372  0.0911
 8111SOL    HW235970   0.364   0.108   2.899 -0.7532  0.6026 -0.1506
 8112SOL     OW35971   3.623   2.897  13.494 -0.1729 -0.5826  0.0241
 8112SOL    HW135972   3.645   2.815  13.450 -1.4106 -0.9172  0.0346
 8112SOL    HW235973   3.627   2.961  13.423  0.3669 -1.5140 -0.7864
 8113SOL     OW35974   1.979   0.146   1.738  0.5602 -0.6061  0.3996
 8113SOL    HW135975   1.990   0.054   1.761 -0.3690 -1.1357 -1.2837
 8113SOL    HW235976   2.037   0.188   1.801  0.3357 -0.2923  0.3935
 8114SOL     OW35977   0.904   2.267   3.051  0.3614  0.0049 -0.3689
 8114SOL    HW135978   0.841   2.196   3.033  0.9638 -0.7763  0.6086
 8114SOL    HW235979   0.964   2.224   3.112 -0.1627  0.6468  0.5907
 8115SOL     OW35980   0.087   0.548   7.277 -0.1340 -0.5602 -0.4416
 8115SOL    HW135981   0.090   0.508   7.364 -0.9391 -2.0902 -1.1105
 8115SOL    HW235982   0.174   0.519   7.251  0.7388  2.5587 -0.9829
 8116SOL     OW35983   2.559   1.521  12.956 -0.3556 -0.2845  0.0519
 8116SOL    HW135984   2.621   1.449  12.944  0.6290  0.7292 -0.9681
 8116SOL    HW235985   2.478   1.471  12.968  0.1871 -1.5637 -1.5443
 8117SOL     OW35986   2.685   2.120  15.978  0.0294 -0.3073 -0.2245
 8117SOL    HW135987   2.646   2.199  16.017  3.2431  0.0968  2.1878
 8117SOL    HW235988   2.608   2.081  15.936 -0.3435  0.9359 -0.7053
 8118SOL     OW35989   3.246   4.352  15.443 -0.6498 -0.0777 -0.6878
 8118SOL    HW135990   3.205   4.266  15.449  0.3095 -0.6652 -2.6297
 8118SOL    HW235991   3.250   4.380  15.534 -1.4766 -0.8309 -0.4246
 8119SOL     OW35992   3.025   2.967   3.306  0.0616  0.6850 -0.0777
 8119SOL    HW135993   3.013   3.003   3.219  1.3864  0.5592 -0.3093
 8119SOL    HW235994   2.992   2.877   3.297  1.3091  0.3702 -1.5274
 8120SOL     OW35995   3.619   0.036   7.101 -0.1170 -0.7271 -0.0514
 8120SOL    HW135996   3.524   0.046   7.115  0.2417 -0.3407  2.1068
 8120SOL    HW235997   3.618   4.715   7.023  0.0949  2.5098 -2.3742
 8121SOL     OW35998   3.623   4.586   3.203 -0.2132 -0.1959  0.1275
 8121SOL    HW135999   3.556   4.536   3.158  2.5492 -4.0048  0.2286
 8121SOL    HW236000   3.586   4.617   3.286 -0.6721  0.5903 -0.3724
 8122SOL     OW36001   1.335   1.618  16.410  0.1282  0.6167  0.3225
 8122SOL    HW136002   1.306   1.618  16.502 -1.3064 -2.7835 -0.1029
 8122SOL    HW236003   1.369   1.529  16.399 -1.2244  0.0364  0.7384
 8123SOL     OW36004   2.984   4.115   0.607 -0.2861 -0.2596  0.5518
 8123SOL    HW136005   3.045   4.084   0.674  0.0667  0.4389  0.5566
 8123SOL    HW236006   2.965   4.200   0.647 -1.2993  1.1069 -2.8734
 8124SOL     OW36007   0.264   1.705  16.794 -0.5996  0.6664  0.6164
 8124SOL    HW136008   0.180   1.717  16.749 -0.3933  1.8433  0.5408
 8124SOL    HW236009   0.264   1.611  16.813 -1.6150  0.2721 -1.3704
 8125SOL     OW36010   2.613   2.419   8.085  0.3559 -0.0750  0.2953
 8125SOL    HW136011   2.597   2.325   8.093  0.6725 -0.1281  0.2967
 8125SOL    HW236012   2.706   2.418   8.061  0.7490  1.0677  1.7363
 8126SOL     OW36013   3.424   2.754  16.373 -0.0431 -0.2548  0.2587
 8126SOL    HW136014   3.469   2.839  16.366  0.7767 -0.7677 -0.8160
 8126SOL    HW236015   3.363   2.785  16.440 -0.8685  2.1090 -1.6003
 8127SOL     OW36016   0.046   0.038   9.301  0.5263 -0.1520 -0.5050
 8127SOL    HW136017   0.069   0.069   9.388 -1.3613 -1.4941  0.4576
 8127SOL    HW236018   0.042   0.121   9.253 -0.9184  1.1370  1.8829
 8128SOL     OW36019   2.204   1.971  10.436 -0.5737 -0.1498 -0.2447
 8128SOL    HW136020   2.241   1.888  10.467  1.1315  0.0506 -1.6655
 8128SOL    HW236021   2.263   1.998  10.365 -0.4878  0.1500 -0.0608
 8129SOL     OW36022   2.703   0.344  12.479 -0.6348  0.6080  0.3475
 8129SOL    HW136023   2.668   0.346  12.568  0.7479  1.7405  0.8628
 8129SOL    HW236024   2.690   0.435  12.452  1.0560  0.4072 -1.1278
 8130SOL     OW36025   1.535   4.485  12.021  0.3662 -0.0497  0.2175
 8130SOL    HW136026   1.613   4.467  12.074  0.1096  0.6100  0.8303
 8130SOL    HW236027   1.467   4.499  12.087 -0.5745 -0.7306 -0.6161
 8131SOL     OW36028   2.486   2.487   7.709 -0.0251 -0.8019  0.3991
 8131SOL    HW136029   2.558   2.547   7.729  0.3789 -0.0805 -3.2587
 8131SOL    HW236030   2.416   2.551   7.693  0.2052 -0.3462  1.2259
 8132SOL     OW36031   2.692   2.805   8.005 -0.5392  0.4529 -0.2524
 8132SOL    HW136032   2.763   2.856   7.967 -0.8992  1.1244 -0.0376
 8132SOL    HW236033   2.732   2.721   8.029  0.1693  1.1226  0.9075
 8133SOL     OW36034   0.319   1.682   9.998  0.5347  0.1714  0.1773
 8133SOL    HW136035   0.301   1.647  10.085 -3.7717 -1.6888 -1.5046
 8133SOL    HW236036   0.272   1.616   9.947  0.0090  1.6000 -1.1864
 8134SOL     OW36037   3.629   4.430   1.904 -0.0275  0.2485  0.3398
 8134SOL    HW136038   3.686   4.360   1.934 -1.1542 -0.7034  0.2451
 8134SOL    HW236039   3.662   4.504   1.955  0.5810 -0.2807  0.7067
 8135SOL     OW36040   4.407   1.530   4.435 -0.1648 -0.1163  0.2524
 8135SOL    HW136041   4.487   1.483   4.411  0.2061 -0.0220  1.2814
 8135SOL    HW236042   4.403   1.606   4.377 -1.8665 -0.4259 -0.0386
 8136SOL     OW36043   3.497   1.274  17.132  0.3809 -0.5520 -0.0595
 8136SOL    HW136044   3.556   1.313  17.067 -2.1825  0.8863 -1.5175
 8136SOL    HW236045   3.484   1.354  17.183 -0.5547 -1.3219  0.8827
 8137SOL     OW36046   3.583   0.444   0.633  0.5486 -0.2755 -0.2583
 8137SOL    HW136047   3.608   0.355   0.608  1.4937 -0.2417  0.5659
 8137SOL    HW236048   3.587   0.497   0.553 -1.3232 -0.6760 -0.6050
 8138SOL     OW36049   1.046   3.832  13.732 -0.3785 -0.4438 -0.0169
 8138SOL    HW136050   0.958   3.837  13.769 -0.2313  3.0174 -0.1681
 8138SOL    HW236051   1.037   3.756  13.674 -0.1715 -0.7139  0.3060
 8139SOL     OW36052   3.827   3.870   6.776  0.2826 -0.2364 -0.3089
 8139SOL    HW136053   3.878   3.862   6.857  0.8730  1.3846 -0.5106
 8139SOL    HW236054   3.894   3.908   6.719 -1.3371  3.4543  0.3044
 8140SOL     OW36055   4.285   1.677   4.168  0.1269  0.2149  0.2913
 8140SOL    HW136056   4.249   1.614   4.105  1.7835 -0.7780  0.3155
 8140SOL    HW236057   4.212   1.738   4.175 -0.2886  0.0478 -2.5775
 8141SOL     OW36058   3.426   1.916   6.527 -0.3576 -0.2047  0.2391
 8141SOL    HW136059   3.399   1.987   6.584  0.6389  1.6156 -1.5576
 8141SOL    HW236060   3.359   1.853   6.551 -0.8755  0.0704 -0.5064
 8142SOL     OW36061   4.227   0.036  10.772  0.2799 -0.1069  0.2732
 8142SOL    HW136062   4.181   4.693  10.742  0.4760  0.1024 -0.5924
 8142SOL    HW236063   4.259   0.076  10.690 -0.4255 -0.1022 -0.0001
 8143SOL     OW36064   3.259   3.297   4.276  0.0821 -0.0773  0.0853
 8143SOL    HW136065   3.298   3.338   4.199 -0.9214 -0.2327 -0.5061
 8143SOL    HW236066   3.199   3.364   4.309 -1.7294 -2.7433  2.2027
 8144SOL     OW36067   2.531   4.705  17.347  0.4859 -0.8007  0.2047
 8144SOL    HW136068   2.451   4.664  17.380  0.2517  1.1109  1.9734
 8144SOL    HW236069   2.586   4.688  17.423 -1.3140  1.0444  1.9379
 8145SOL     OW36070   3.210   0.231   4.511 -0.7250 -0.1752  0.0196
 8145SOL    HW136071   3.274   0.174   4.467 -1.9087 -0.8503 -0.8079
 8145SOL    HW236072   3.143   0.221   4.444 -2.0394  0.8584  1.1806
 8146SOL     OW36073   1.192   0.120   8.134  0.1539  0.1444  0.4932
 8146SOL    HW136074   1.211   0.196   8.079 -1.2336  0.0319 -0.1218
 8146SOL    HW236075   1.251   0.144   8.206 -2.1183  2.6826  1.5532
 8147SOL     OW36076   2.051   0.487   5.065 -0.3110 -0.4248  0.4422
 8147SOL    HW136077   1.978   0.534   5.106 -0.0649 -0.6447  1.1318
 8147SOL    HW236078   2.124   0.494   5.126  0.1379 -0.8817 -0.0335
 8148SOL     OW36079   3.570   4.221   8.910 -0.4401 -0.1005  0.0774
 8148SOL    HW136080   3.598   4.142   8.955  0.0574 -0.3017 -0.5975
 8148SOL    HW236081   3.571   4.278   8.987  0.6014 -0.3096  0.2127
 8149SOL     OW36082   2.474   3.502   2.035 -0.8112  0.6769  0.1616
 8149SOL    HW136083   2.398   3.542   1.993 -1.3020 -0.9110 -0.4961
 8149SOL    HW236084   2.535   3.482   1.963 -0.7924 -1.0036  0.6364
 8150SOL     OW36085   1.568   4.475   6.145 -0.8022  0.3032 -0.7084
 8150SOL    HW136086   1.499   4.479   6.212 -0.3167 -2.2973 -0.0588
 8150SOL    HW236087   1.563   4.563   6.106  2.9739  1.3794  1.2337
 8151SOL     OW36088   1.943   3.599  11.145  0.2461 -0.0215  0.3095
 8151SOL    HW136089   1.963   3.576  11.236  1.6391 -1.3246 -0.3294
 8151SOL    HW236090   1.972   3.520  11.100  0.0057  0.9476 -1.5324
 8152SOL     OW36091   1.529   0.905  12.202 -0.0064  0.5328  0.1404
 8152SOL    HW136092   1.606   0.856  12.230 -0.3445 -1.3550 -2.2408
 8152SOL    HW236093   1.564   0.922  12.115 -0.3263 -1.0661 -0.2985
 8153SOL     OW36094   0.377   4.127  13.945 -0.6813 -0.2175  0.4303
 8153SOL    HW136095   0.438   4.064  13.908 -1.2009 -0.9222  0.7829
 8153SOL    HW236096   0.316   4.137  13.873  1.3016 -1.2653 -1.4089
 8154SOL     OW36097   1.914   3.079  15.832 -0.1778 -0.1351 -0.3751
 8154SOL    HW136098   1.870   3.058  15.914 -0.1062 -0.7262 -0.4863
 8154SOL    HW236099   1.889   3.172  15.836 -0.6705 -0.1981 -1.9390
 8155SOL     OW36100   4.676   2.539   6.329  0.5840 -0.2375  0.2170
 8155SOL    HW136101   0.003   2.572   6.264 -2.4913  1.4269 -1.8725
 8155SOL    HW236102   4.591   2.543   6.286  0.7417  1.4732  0.0725
 8156SOL     OW36103   1.943   3.169   6.857  0.5130  0.1725  0.2429
 8156SOL    HW136104   1.963   3.178   6.950  0.5076 -0.3516  0.2933
 8156SOL    HW236105   1.850   3.147   6.852  0.6954  0.6298 -5.0144
 8157SOL     OW36106   2.470   2.689   9.195 -0.0157  0.0989 -0.0044
 8157SOL    HW136107   2.529   2.718   9.264 -1.5591 -0.7570  1.6549
 8157SOL    HW236108   2.534   2.643   9.142  0.9359  0.9042  0.4418
 8158SOL     OW36109   3.015   2.281   6.697 -0.2381 -0.9500  0.2085
 8158SOL    HW136110   3.083   2.294   6.631 -0.3700 -1.1133  0.0364
 8158SOL    HW236111   2.990   2.191   6.674  0.2489 -0.7942 -0.9453
 8159SOL     OW36112   0.017   2.632   8.133  0.4896  0.3811 -0.5479
 8159SOL    HW136113   0.049   2.631   8.043  3.5113 -0.3529  0.5304
 8159SOL    HW236114   0.008   2.724   8.158  0.2401  0.3930 -0.6897
 8160SOL     OW36115   3.175   3.788  12.860 -0.3812  0.0947  0.2188
 8160SOL    HW136116   3.108   3.720  12.851 -0.7912  0.8898 -2.5910
 8160SOL    HW236117   3.155   3.831  12.943  0.6545 -0.2968  0.6723
 8161SOL     OW36118   4.463   0.883  14.776 -0.0595 -0.0919 -0.3176
 8161SOL    HW136119   4.496   0.973  14.765 -0.0434 -0.4023 -2.7680
 8161SOL    HW236120   4.392   0.876  14.712 -0.4440  1.0361 -0.0163
 8162SOL     OW36121   4.276   4.576   3.711  0.5156 -0.1088 -0.0723
 8162SOL    HW136122   4.279   4.564   3.806  0.2037  1.0348  0.0867
 8162SOL    HW236123   4.247   4.667   3.709 -3.1156 -1.3291 -3.8079
 8163SOL     OW36124   1.138   4.711   5.199  0.3899 -0.4453 -0.0987
 8163SOL    HW136125   1.106   4.636   5.248 -0.2146  1.2264  2.0329
 8163SOL    HW236126   1.060   0.024   5.172 -0.4038 -1.9943 -0.5092
 8164SOL     OW36127   0.249   1.410   0.136 -0.0862 -0.3739  0.4810
 8164SOL    HW136128   0.161   1.375   0.142  0.0123 -0.9664 -1.5003
 8164SOL    HW236129   0.256   1.424   0.042 -0.1513  0.7322  0.6431
 8165SOL     OW36130   0.122   0.120   0.694 -0.0830 -0.1963 -0.1283
 8165SOL    HW136131   0.214   0.108   0.720  0.6167  0.6356 -2.2192
 8165SOL    HW236132   0.124   0.179   0.618 -1.5468  0.4406  0.3356
 8166SOL     OW36133   0.988   4.702  15.260  0.2763  0.2039  0.5220
 8166SOL    HW136134   0.939   0.023  15.200  0.1861 -0.6119 -0.1706
 8166SOL    HW236135   1.053   0.025  15.300  0.1579 -0.7352  2.0578
 8167SOL     OW36136   3.011   3.215   1.218  0.3626  0.1567 -0.0552
 8167SOL    HW136137   2.976   3.241   1.133 -3.1430  0.4707  1.4882
 8167SOL    HW236138   3.045   3.300   1.246  3.9705 -0.8471 -1.3214
 8168SOL     OW36139   3.121   1.019   4.223 -0.2783 -0.2702  0.0843
 8168SOL    HW136140   3.055   1.016   4.292  0.0221  0.1822  0.3907
 8168SOL    HW236141   3.074   1.072   4.159  1.6389  0.3308 -0.8124
 8169SOL     OW36142   2.153   0.026   2.918 -0.8182 -0.3271 -0.6857
 8169SOL    HW136143   2.167   0.107   2.868  0.2107  1.9619  3.2759
 8169SOL    HW236144   2.231   0.021   2.973 -0.9773 -2.8588 -0.7029
 8170SOL     OW36145   3.824   4.406   3.418  0.2239 -0.2805  0.6599
 8170SOL    HW136146   3.828   4.501   3.412 -1.0815 -0.2391  0.4263
 8170SOL    HW236147   3.738   4.389   3.380  0.2666 -0.8805  0.8330
 8171SOL     OW36148   3.274   4.669  14.939  0.2602 -0.5951 -0.3572
 8171SOL    HW136149   3.354   4.636  14.979 -0.9575 -2.2765  0.7023
 8171SOL    HW236150   3.315   4.728  14.876 -0.1877 -0.1942 -0.2796
 8172SOL     OW36151   3.756   4.235   1.150  0.4824  0.3100  0.2255
 8172SOL    HW136152   3.828   4.297   1.164  0.6710 -0.4982  2.8848
 8172SOL    HW236153   3.782   4.227   1.058 -1.0123  2.9834 -0.4416
 8173SOL     OW36154   3.358   4.148  14.327  0.0860  0.1960  0.4974
 8173SOL    HW136155   3.289   4.179  14.386 -0.3012 -0.0484  0.1727
 8173SOL    HW236156   3.400   4.224  14.286  1.8254 -0.9532  0.1442
 8174SOL     OW36157   1.432   2.040   2.945  0.0705 -0.1502  0.3880
 8174SOL    HW136158   1.359   1.991   2.907  0.6391  0.3813 -1.3954
 8174SOL    HW236159   1.436   2.114   2.884  0.7670 -0.3253  0.2267
 8175SOL     OW36160   2.743   0.147   4.388  0.1140 -0.3620 -0.1308
 8175SOL    HW136161   2.728   0.057   4.357  0.3957 -0.9927  1.5679
 8175SOL    HW236162   2.700   0.191   4.315 -2.4517 -1.6509  0.6173
 8176SOL     OW36163   0.889   4.715   0.111  0.3282  0.2720  0.1579
 8176SOL    HW136164   0.973   0.009   0.076  1.2388 -1.3234  0.9986
 8176SOL    HW236165   0.935   4.640   0.148 -0.8570 -0.4283  0.2418
 8177SOL     OW36166   1.321   4.194   3.794  0.0690 -0.2551  0.3670
 8177SOL    HW136167   1.385   4.199   3.724 -1.2346 -1.5250 -0.9076
 8177SOL    HW236168   1.365   4.253   3.856  0.4600  1.2192 -1.3100
 8178SOL     OW36169   3.076   0.951   8.376 -0.0891 -0.6254  0.1308
 8178SOL    HW136170   3.141   0.884   8.394 -0.4726 -0.8489  0.6826
 8178SOL    HW236171   3.098   1.012   8.446  1.7427  0.8732 -1.7505
 8179SOL     OW36172   0.433   3.835   0.274 -0.0853  0.0131 -0.7465
 8179SOL    HW136173   0.390   3.789   0.202 -0.2095  1.7273 -1.7425
 8179SOL    HW236174   0.473   3.907   0.227  0.7081  1.7381  2.6124
 8180SOL     OW36175   3.402   2.067   3.281 -0.3950 -0.4399 -0.3200
 8180SOL    HW136176   3.379   2.158   3.299  1.6859 -0.3565  1.8255
 8180SOL    HW236177   3.343   2.043   3.209  0.2800 -1.0129 -0.6887
 8181SOL     OW36178   0.381   3.267   5.617  0.1870 -0.0399 -0.0563
 8181SOL    HW136179   0.412   3.221   5.539  1.2540 -0.6564  0.7393
 8181SOL    HW236180   0.291   3.238   5.629  0.3459 -0.7977 -0.7366
 8182SOL     OW36181   1.492   3.692   5.224  0.0037 -0.2401 -0.5639
 8182SOL    HW136182   1.541   3.642   5.288  1.3132  2.2241  0.3503
 8182SOL    HW236183   1.522   3.781   5.239 -1.2946  0.2728 -0.9474
 8183SOL     OW36184   1.636   1.299   4.269  0.3559 -0.0782  0.1427
 8183SOL    HW136185   1.722   1.291   4.310  1.0879 -0.5269 -1.4661
 8183SOL    HW236186   1.601   1.211   4.279  0.7439 -0.5924 -2.9968
 8184SOL     OW36187   0.569   0.112  10.991 -0.4943  0.1449  0.0495
 8184SOL    HW136188   0.641   0.050  10.999 -0.2278  0.9629  3.9250
 8184SOL    HW236189   0.614   0.175  10.934  2.0749 -1.4731  0.3215
 8185SOL     OW36190   2.478   0.012   8.900 -0.7938  0.4037 -0.2143
 8185SOL    HW136191   2.418   0.033   8.828  0.0341  0.2647 -0.9449
 8185SOL    HW236192   2.439   0.066   8.968 -0.5045  0.7989 -0.3572
 8186SOL     OW36193   2.878   3.812   2.030  0.0957 -0.2998 -0.3913
 8186SOL    HW136194   2.920   3.726   2.034  0.3756 -0.0582  1.7092
 8186SOL    HW236195   2.797   3.801   1.979  0.2151 -0.3491 -0.5674
 8187SOL     OW36196   2.309   1.713   2.449 -0.2726 -0.2850 -0.3514
 8187SOL    HW136197   2.305   1.809   2.440  0.4458 -0.2315 -0.0915
 8187SOL    HW236198   2.237   1.686   2.392 -0.0595  1.1140 -1.2952
 8188SOL     OW36199   1.600   1.731  11.806 -0.4694 -0.7283 -0.0165
 8188SOL    HW136200   1.523   1.715  11.861  0.5092 -0.9490  1.3060
 8188SOL    HW236201   1.579   1.693  11.721 -0.5705 -1.2260  0.2312
 8189SOL     OW36202   2.660   3.769   1.886 -0.4031  0.6263 -0.5908
 8189SOL    HW136203   2.671   3.796   1.795 -2.4042 -1.5856 -1.5068
 8189SOL    HW236204   2.571   3.797   1.909  0.3954  1.8623  1.0162
 8190SOL     OW36205   4.732   4.700  14.095 -0.1582  0.5750 -0.7610
 8190SOL    HW136206   4.646   4.680  14.131  0.1769 -0.0748 -0.3062
 8190SOL    HW236207   0.052   4.648  14.154 -2.2453 -2.0828 -1.1293
 8191SOL     OW36208   0.992   4.257  10.149  0.0529  0.0517  0.1129
 8191SOL    HW136209   1.054   4.312  10.198  2.0809 -0.6891 -1.6476
 8191SOL    HW236210   0.940   4.329  10.111  1.4603  0.9878 -0.0425
 8192SOL     OW36211   3.981   3.367   5.213 -1.2800  0.8023 -0.6475
 8192SOL    HW136212   4.048   3.304   5.241  0.0647  1.7558 -1.7332
 8192SOL    HW236213   4.038   3.441   5.193 -0.2026  0.6691  1.9232
 8193SOL     OW36214   4.469   3.733   3.309  0.0126 -0.1119 -0.6640
 8193SOL    HW136215   4.445   3.787   3.384  1.6145 -1.5709  0.8980
 8193SOL    HW236216   4.563   3.733   3.330  0.0762  3.5164 -0.8946
 8194SOL     OW36217   1.422   2.449   8.268  0.1292 -0.4958 -0.1085
 8194SOL    HW136218   1.389   2.410   8.349 -2.3935  0.9200 -0.4206
 8194SOL    HW236219   1.420   2.368   8.217 -0.6430 -0.4647 -0.1409
 8195SOL     OW36220   0.657   4.517   3.791 -0.1919 -0.5192  0.3014
 8195SOL    HW136221   0.645   4.517   3.696  1.6987  0.4280  0.0638
 8195SOL    HW236222   0.609   4.591   3.828  1.2757  1.3598 -1.5367
 8196SOL     OW36223   0.496   3.792   4.617  0.6706 -0.2539  0.1774
 8196SOL    HW136224   0.502   3.836   4.532 -0.0040 -0.1716  0.1761
 8196SOL    HW236225   0.430   3.725   4.598  0.0316 -0.0912  1.8575
 8197SOL     OW36226   1.519   3.779  10.340  0.1254 -0.3338 -0.3044
 8197SOL    HW136227   1.536   3.736  10.424  0.5718 -3.2873 -1.8885
 8197SOL    HW236228   1.480   3.713  10.282  0.1106  0.6523 -1.4045
 8198SOL     OW36229   2.345   0.395   3.746 -0.1383 -0.1157 -0.6870
 8198SOL    HW136230   2.334   0.343   3.666  0.1184 -3.3382  1.3709
 8198SOL    HW236231   2.269   0.452   3.750 -0.1916 -0.1562 -1.1245
 8199SOL     OW36232   4.554   1.699   3.308  0.4473 -0.0074 -0.3649
 8199SOL    HW136233   4.569   1.620   3.359  1.9562  0.5599  0.0520
 8199SOL    HW236234   4.617   1.683   3.238 -0.3251  0.4604 -1.1831
 8200SOL     OW36235   0.828   4.582   4.965  0.4244  0.1670  0.1369
 8200SOL    HW136236   0.863   4.499   4.995 -0.5753 -0.7817 -1.3036
 8200SOL    HW236237   0.746   4.590   5.013 -0.2124 -1.2982 -0.7108
 8201SOL     OW36238   0.651   2.250   1.485  0.3455  0.4807 -0.0077
 8201SOL    HW136239   0.701   2.324   1.519 -0.5390  1.0906 -0.0196
 8201SOL    HW236240   0.685   2.189   1.550 -2.2420 -0.0572  0.8278
 8202SOL     OW36241   0.706   3.712   4.410 -0.2907 -0.0110  0.4074
 8202SOL    HW136242   0.719   3.642   4.474 -0.5098 -0.6860 -0.2848
 8202SOL    HW236243   0.625   3.679   4.372 -0.4906 -0.9837  1.6718
 8203SOL     OW36244   0.549   1.755   2.566 -0.3728 -0.0569 -0.3037
 8203SOL    HW136245   0.497   1.835   2.562 -0.9121 -0.3943 -0.0601
 8203SOL    HW236246   0.575   1.737   2.475  1.8811 -1.9543  0.7272
 8204SOL     OW36247   2.885   3.951  16.992  0.2138  0.5215 -0.6528
 8204SOL    HW136248   2.889   3.890  17.066  1.3951  1.5502  0.1380
 8204SOL    HW236249   2.874   4.038  17.030 -0.6384  0.7628 -1.4424
 8205SOL     OW36250   4.203   4.502   9.371  0.1108  0.0074  0.4203
 8205SOL    HW136251   4.216   4.570   9.304 -1.1881 -1.3215 -1.1992
 8205SOL    HW236252   4.121   4.469   9.333 -0.9025 -0.2312  2.8042
 8206SOL     OW36253   1.391   0.155  13.147  0.7292  0.5571  0.6906
 8206SOL    HW136254   1.368   0.175  13.056  0.8095 -2.2127  0.0433
 8206SOL    HW236255   1.405   0.236  13.195 -1.8105  2.0407 -1.0730
 8207SOL     OW36256   3.981   3.234   7.202  0.2182  0.5292 -0.6937
 8207SOL    HW136257   3.963   3.318   7.245  0.9094 -0.0005  0.6245
 8207SOL    HW236258   4.076   3.223   7.201 -0.0243 -1.4578 -1.2136
 8208SOL     OW36259   4.335   3.503   4.179  0.1109  0.4753  0.2860
 8208SOL    HW136260   4.284   3.578   4.149 -2.2089 -0.3727  2.0995
 8208SOL    HW236261   4.261   3.444   4.195  0.9759 -0.9174 -0.8151
 8209SOL     OW36262   1.145   1.591   1.093 -0.0383  0.3885 -0.3052
 8209SOL    HW136263   1.103   1.518   1.047  0.1608  0.2265 -0.2323
 8209SOL    HW236264   1.144   1.649   1.017  0.5744  2.5415  1.3504
 8210SOL     OW36265   1.131   2.704   9.022  0.4257 -0.6759 -1.0282
 8210SOL    HW136266   1.175   2.689   9.105 -1.5750 -2.2404 -0.2483
 8210SOL    HW236267   1.156   2.796   9.032  2.8269 -1.6064  1.3594
 8211SOL     OW36268   1.655   3.492   4.320 -0.0859  0.2579  0.0343
 8211SOL    HW136269   1.618   3.405   4.337  0.9118  0.1335  1.5555
 8211SOL    HW236270   1.573   3.541   4.326 -1.3375 -1.8582  0.3273
 8212SOL     OW36271   1.573   4.409   9.885 -0.2931 -0.1076  1.2858
 8212SOL    HW136272   1.587   4.503   9.897 -0.3245  0.1513 -0.7436
 8212SOL    HW236273   1.482   4.418   9.854 -1.5505 -1.3818  4.6544
 8213SOL     OW36274   4.595   3.735   2.133 -0.2902  0.0260  0.3728
 8213SOL    HW136275   4.641   3.692   2.205  0.7976  0.6032  0.0278
 8213SOL    HW236276   4.560   3.817   2.167 -0.6233 -0.1427  0.4307
 8214SOL     OW36277   1.748   0.795   7.984  0.0841  0.3951 -0.4151
 8214SOL    HW136278   1.691   0.779   8.059 -0.6860  1.7294 -0.7254
 8214SOL    HW236279   1.814   0.727   8.001  1.0716  1.3568 -0.3946
 8215SOL     OW36280   4.359   2.667   8.800 -0.4370  0.4539 -0.4547
 8215SOL    HW136281   4.361   2.572   8.815 -0.8123  0.4834 -0.2088
 8215SOL    HW236282   4.268   2.687   8.823 -0.3866  2.7464 -2.2311
 8216SOL     OW36283   1.489   0.928   3.275 -0.0016  0.1175 -0.4283
 8216SOL    HW136284   1.554   0.884   3.330  1.1331 -0.3407 -2.1418
 8216SOL    HW236285   1.549   0.943   3.202 -0.1397 -0.7819 -0.7246
 8217SOL     OW36286   3.458   1.878   2.993  0.0056 -0.5602 -0.4207
 8217SOL    HW136287   3.509   1.858   3.072  2.2653 -0.5262 -1.8808
 8217SOL    HW236288   3.498   1.960   2.966  0.5018 -0.9866 -0.9725
 8218SOL     OW36289   1.358   4.628  13.034 -0.7192 -0.7020  0.0055
 8218SOL    HW136290   1.448   4.656  13.021 -1.4059  0.6817 -1.7486
 8218SOL    HW236291   1.342   4.701  13.094 -0.4209  0.5196 -1.3946
 8219SOL     OW36292   0.246   0.757   8.910  0.0934 -0.5193  0.1298
 8219SOL    HW136293   0.185   0.746   8.982 -1.5684 -2.6186 -1.6105
 8219SOL    HW236294   0.249   0.851   8.891  2.8459 -0.5056  0.6133
 8220SOL     OW36295   1.046   1.663   5.785  0.5175  0.5059 -0.2452
 8220SOL    HW136296   1.095   1.611   5.849  0.8411  1.8460  0.5937
 8220SOL    HW236297   0.967   1.694   5.829  0.7392  1.7308 -0.7084
 8221SOL     OW36298   3.578   0.939   7.728  0.5128  0.2571  0.4332
 8221SOL    HW136299   3.632   0.861   7.746 -4.4727 -3.2075  0.4494
 8221SOL    HW236300   3.552   0.956   7.819 -0.4924  1.3122 -0.0671
 8222SOL     OW36301   0.794   3.698   2.809  0.0019  0.7944  0.5833
 8222SOL    HW136302   0.876   3.744   2.826  0.5621 -0.4402  1.1939
 8222SOL    HW236303   0.727   3.758   2.842 -0.3396  0.4999  0.4195
 8223SOL     OW36304   4.579   2.957  14.994 -0.0938 -0.2605  0.2918
 8223SOL    HW136305   4.569   2.910  14.911  2.3754 -0.8969  0.3276
 8223SOL    HW236306   4.504   2.921  15.042 -0.1573  0.3266  0.6344
 8224SOL     OW36307   0.980   2.595   2.724 -0.3798  0.2830 -0.0771
 8224SOL    HW136308   0.888   2.603   2.747 -0.8926 -1.2951 -1.6057
 8224SOL    HW236309   1.001   2.515   2.774 -0.6015 -0.4467 -1.1521
 8225SOL     OW36310   2.173   0.112  11.175 -0.1224  0.1824 -0.3413
 8225SOL    HW136311   2.233   0.184  11.193 -0.4116  0.3316  0.0060
 8225SOL    HW236312   2.157   0.083  11.265 -2.0555 -1.5809 -1.2409
 8226SOL     OW36313   3.502   1.434   4.617  0.4646 -0.2558 -0.0006
 8226SOL    HW136314   3.433   1.494   4.642  0.7098  0.6671 -1.5506
 8226SOL    HW236315   3.562   1.448   4.691 -0.6580  1.6013  0.5319
 8227SOL     OW36316   0.950   3.574  16.719 -0.1018 -0.4679  0.5623
 8227SOL    HW136317   0.914   3.659  16.692  1.2309 -0.4412 -1.1267
 8227SOL    HW236318   0.965   3.533  16.634  0.7636  2.1522 -0.5512
 8228SOL     OW36319   3.216   1.393   5.681 -0.0228  0.1394  0.3785
 8228SOL    HW136320   3.197   1.342   5.760  0.3394 -0.5430  0.0277
 8228SOL    HW236321   3.242   1.474   5.724  0.5014 -0.0337  0.3908
 8229SOL     OW36322   0.710   1.746   8.139  0.4724  0.1966  0.7674
 8229SOL    HW136323   0.743   1.658   8.159  0.6975  0.3354  1.0195
 8229SOL    HW236324   0.669   1.734   8.053  0.2039 -1.3652  1.1091
 8230SOL     OW36325   1.246   2.068   1.431  0.4870 -0.3580  0.6054
 8230SOL    HW136326   1.294   2.005   1.484 -1.7225 -1.4719  1.3120
 8230SOL    HW236327   1.159   2.049   1.467 -0.5041  0.0601 -1.5593
 8231SOL     OW36328   0.497   2.501  16.870  0.2522 -0.6802 -0.0575
 8231SOL    HW136329   0.423   2.485  16.928 -0.8393 -0.4397 -1.3738
 8231SOL    HW236330   0.520   2.415  16.833  1.1548 -0.2693 -0.4633
 8232SOL     OW36331   2.154   2.036   3.712  0.3071  0.3145 -0.0431
 8232SOL    HW136332   2.064   2.005   3.720  0.8628 -0.8499  1.5917
 8232SOL    HW236333   2.198   1.992   3.785  1.0544 -2.5106 -2.1629
 8233SOL     OW36334   1.983   1.122   0.895 -0.2275 -0.1695 -0.3256
 8233SOL    HW136335   1.924   1.073   0.951 -1.3159  0.3497 -1.0257
 8233SOL    HW236336   1.960   1.213   0.913  0.4809 -0.0218 -0.1708
 8234SOL     OW36337   2.191   3.223   5.317  0.0908 -0.0881 -0.0570
 8234SOL    HW136338   2.106   3.220   5.361  0.0897  0.7996  0.0035
 8234SOL    HW236339   2.199   3.127   5.320 -2.5819 -0.3410 -0.6026
 8235SOL     OW36340   2.779   4.228   9.377  0.5094 -0.2171  0.0605
 8235SOL    HW136341   2.684   4.215   9.378  0.2861  1.2656 -0.5813
 8235SOL    HW236342   2.798   4.200   9.287  1.0787 -0.8357  0.3739
 8236SOL     OW36343   1.939   3.861  15.878  1.0303  0.0572 -0.0564
 8236SOL    HW136344   1.942   3.953  15.907  1.3262 -0.1693  0.6370
 8236SOL    HW236345   2.033   3.844  15.877  1.1360  0.7781 -2.1877
 8237SOL     OW36346   4.028   1.774   4.195 -0.6040  0.3428 -0.2812
 8237SOL    HW136347   3.954   1.820   4.235 -0.0691  2.9056 -2.3080
 8237SOL    HW236348   4.022   1.688   4.238 -0.4709 -0.2723 -1.5139
 8238SOL     OW36349   0.713   4.541  13.316  0.0422  0.4420  0.1417
 8238SOL    HW136350   0.695   4.532  13.222  1.3942  1.2788 -0.1927
 8238SOL    HW236351   0.648   4.488  13.362 -0.4609 -1.0286 -2.2961
 8239SOL     OW36352   2.121   3.720  16.248  0.2117 -0.2307  0.0052
 8239SOL    HW136353   2.186   3.765  16.302 -1.5035  1.9923  0.1860
 8239SOL    HW236354   2.156   3.631  16.253 -0.6152 -0.4622  1.4190
 8240SOL     OW36355   4.375   3.291  11.462 -0.5912 -0.0536 -0.2915
 8240SOL    HW136356   4.335   3.205  11.455  0.5972 -0.5329 -1.2209
 8240SOL    HW236357   4.331   3.329  11.538  0.2558 -1.8272  1.0655
 8241SOL     OW36358   0.499   1.594  12.276  0.4001  0.1127 -0.1999
 8241SOL    HW136359   0.453   1.659  12.330  0.7410  1.0763 -1.0805
 8241SOL    HW236360   0.442   1.592  12.199 -0.9684  1.5128  0.7571
 8242SOL     OW36361   2.504   1.533   7.827  0.1709 -0.0881 -0.4555
 8242SOL    HW136362   2.409   1.530   7.826  0.1911 -0.5464 -1.0633
 8242SOL    HW236363   2.531   1.467   7.763  0.7587  0.3785 -0.6953
 8243SOL     OW36364   1.203   3.373   7.173 -0.9230 -0.1608 -0.7868
 8243SOL    HW136365   1.293   3.407   7.176 -0.7173 -0.8099  0.1951
 8243SOL    HW236366   1.194   3.351   7.265  0.0521  0.4648 -0.5456
 8244SOL     OW36367   0.851   1.223   1.185  0.0642 -0.4370  0.9077
 8244SOL    HW136368   0.863   1.315   1.210 -1.7244 -0.2456  1.0807
 8244SOL    HW236369   0.870   1.224   1.092 -3.1040 -1.1998  0.2491
 8245SOL     OW36370   3.123   2.313   1.684  0.1219  0.0636  1.0511
 8245SOL    HW136371   3.195   2.255   1.706  0.0611 -2.1351 -4.3999
 8245SOL    HW236372   3.164   2.371   1.620  0.3364  1.2668  2.2959
 8246SOL     OW36373   2.395   0.636  17.574  0.0568  0.1776 -0.0142
 8246SOL    HW136374   2.489   0.629  17.560  0.6370  1.1062  3.3964
 8246SOL    HW236375   2.361   0.546  17.571  2.0077 -0.5814  0.3111
 8247SOL     OW36376   2.700   0.460   6.711 -0.0142 -0.5248  0.2847
 8247SOL    HW136377   2.643   0.397   6.756  0.1629 -0.6724  0.3055
 8247SOL    HW236378   2.779   0.427   6.754 -0.6736 -1.8928  0.4694
 8248SOL     OW36379   2.804   2.979   6.569 -0.0428 -0.2288 -0.0972
 8248SOL    HW136380   2.876   3.038   6.594 -1.6201  1.4557  0.4859
 8248SOL    HW236381   2.840   2.940   6.490 -1.4786 -2.1834  0.2358
 8249SOL     OW36382   2.354   0.374  16.401 -0.3935  0.2772 -0.0499
 8249SOL    HW136383   2.371   0.348  16.310  1.2880  0.3009  0.2591
 8249SOL    HW236384   2.409   0.318  16.456 -0.0411  1.9208  1.2368
 8250SOL     OW36385   1.010   2.155   4.614 -0.4052  0.1800  0.0753
 8250SOL    HW136386   0.972   2.076   4.577 -1.6527 -0.3173  2.4310
 8250SOL    HW236387   0.992   2.134   4.706 -2.3926  0.0368 -0.3583
 8251SOL     OW36388   2.377   2.364   0.202  0.2331  0.5378 -0.0216
 8251SOL    HW136389   2.447   2.420   0.235  2.6933 -2.2257 -0.5148
 8251SOL    HW236390   2.332   2.339   0.283  0.2019  2.4814  0.5552
 8252SOL     OW36391   1.227   3.858   3.909 -0.3949  0.1336  0.5040
 8252SOL    HW136392   1.199   3.769   3.885 -2.0712  1.2438 -1.7038
 8252SOL    HW236393   1.148   3.888   3.954 -0.5104 -0.3228  0.6105
 8253SOL     OW36394   0.672   4.440   3.131  0.1495  0.6333  0.1423
 8253SOL    HW136395   0.640   4.359   3.169 -4.0153  1.8344 -0.8596
 8253SOL    HW236396   0.767   4.425   3.131 -0.3642 -2.4595 -1.7954
 8254SOL     OW36397   3.886   1.890   9.036 -0.0104 -0.3247 -0.0744
 8254SOL    HW136398   3.863   1.803   9.003 -0.3647 -0.2360 -0.0655
 8254SOL    HW236399   3.945   1.924   8.969 -0.3692  2.5242  1.0896
 8255SOL     OW36400   0.741   1.557  13.581  0.4851 -0.6387  0.6176
 8255SOL    HW136401   0.836   1.567  13.570  0.7369 -3.1936  0.5088
 8255SOL    HW236402   0.734   1.465  13.607  0.5390 -0.6102  0.7340
 8256SOL     OW36403   0.243   1.697   8.614 -0.4752  0.2551 -0.5537
 8256SOL    HW136404   0.237   1.751   8.535 -1.5675 -0.3030 -0.8473
 8256SOL    HW236405   0.180   1.629   8.593  0.3046 -0.9762  1.0808
 8257SOL     OW36406   3.870   2.309   2.632 -0.1316 -0.3177 -0.2267
 8257SOL    HW136407   3.780   2.317   2.599 -0.1180  0.7576  0.0065
 8257SOL    HW236408   3.878   2.398   2.666 -0.4195  0.3336 -1.8670
 8258SOL     OW36409   0.371   0.898  13.379 -0.4679  0.6135 -0.0011
 8258SOL    HW136410   0.322   0.820  13.355 -0.2363  0.7575 -0.9128
 8258SOL    HW236411   0.430   0.885  13.305  0.5333  0.4836  0.8230
 8259SOL     OW36412   0.550   1.579   8.819  0.1079 -0.0523 -0.0936
 8259SOL    HW136413   0.585   1.620   8.898  0.7639 -0.8231  0.0191
 8259SOL    HW236414   0.568   1.486   8.834  0.3879 -0.1405 -1.0161
 8260SOL     OW36415   0.482   3.041   8.290  0.9270 -0.2595  0.0639
 8260SOL    HW136416   0.575   3.049   8.267  1.0500  0.0973  0.7093
 8260SOL    HW236417   0.493   2.951   8.322  0.1841 -0.0127  1.0077
 8261SOL     OW36418   1.800   2.593   5.962 -0.3752 -0.1189  0.2765
 8261SOL    HW136419   1.773   2.639   5.883  1.2058  1.2126  0.5237
 8261SOL    HW236420   1.863   2.654   6.001 -0.4376  0.5299 -0.6502
 8262SOL     OW36421   4.002   1.102   6.197  0.3529  0.1839  0.4795
 8262SOL    HW136422   4.061   1.070   6.266  1.9454 -0.1571 -1.0493
 8262SOL    HW236423   3.915   1.097   6.236 -0.7777  1.6016 -1.8571
 8263SOL     OW36424   4.198   0.894   7.276  0.8749 -0.2745  0.0322
 8263SOL    HW136425   4.237   0.884   7.189 -2.6249 -2.4920 -1.2409
 8263SOL    HW236426   4.158   0.811   7.300  1.8711 -0.4092  1.2065
 8264SOL     OW36427   4.692   2.017   5.002 -0.4599 -0.1133  0.3482
 8264SOL    HW136428   4.636   1.939   4.999  1.0652 -1.3015  3.1197
 8264SOL    HW236429   4.642   2.069   5.065  2.0849  1.4849  1.0397
 8265SOL     OW36430   1.923   4.081   1.627  0.1470 -0.2539  0.0320
 8265SOL    HW136431   1.896   4.068   1.718 -0.5619  1.5746  0.0903
 8265SOL    HW236432   1.851   4.047   1.576  0.1486  1.3091 -1.0065
 8266SOL     OW36433   0.236   1.421   6.033  0.8020  0.3519  0.3213
 8266SOL    HW136434   0.267   1.347   6.084 -2.2323 -1.1932 -0.0723
 8266SOL    HW236435   0.248   1.489   6.100 -0.2340  0.1784  0.6948
 8267SOL     OW36436   4.148   3.038  10.746  0.0973  0.9201 -0.1005
 8267SOL    HW136437   4.216   2.983  10.708 -1.2881 -0.2435 -0.8718
 8267SOL    HW236438   4.073   2.999  10.702  0.3510  0.7393 -0.3663
 8268SOL     OW36439   3.314   2.912   2.754  0.0063 -0.5048 -0.5835
 8268SOL    HW136440   3.218   2.918   2.758 -0.0952 -1.8325 -0.9124
 8268SOL    HW236441   3.346   2.995   2.791  0.3363 -1.0781  0.4246
 8269SOL     OW36442   2.107   3.356  17.264 -0.0521  0.0304  0.7204
 8269SOL    HW136443   2.121   3.332  17.173 -0.9539  1.2100  0.2677
 8269SOL    HW236444   2.179   3.307  17.304  0.2471  1.5691  2.0888
 8270SOL     OW36445   1.738   3.733   7.513  0.6123 -0.6356 -0.5343
 8270SOL    HW136446   1.796   3.697   7.446  2.0507  1.4138 -0.3937
 8270SOL    HW236447   1.653   3.694   7.493 -0.6668  0.7250  2.2434
 8271SOL     OW36448   3.721   3.807   7.181 -0.0440  0.5198  0.0577
 8271SOL    HW136449   3.739   3.862   7.257  0.4593  0.9430 -0.3658
 8271SOL    HW236450   3.805   3.800   7.135  1.2039  0.7045  2.3189
 8272SOL     OW36451   2.678   3.920   4.348  0.0411 -0.2543 -0.0858
 8272SOL    HW136452   2.642   3.950   4.264  0.0751  2.9482  1.0156
 8272SOL    HW236453   2.749   3.865   4.315  1.8348  0.8428  1.9416
 8273SOL     OW36454   2.192   3.522   3.806 -0.2097 -0.6534  0.1110
 8273SOL    HW136455   2.122   3.507   3.870  1.5721 -1.2948  1.8928
 8273SOL    HW236456   2.144   3.586   3.753  0.9602  1.5358  1.6734
 8274SOL     OW36457   0.957   3.199  14.192 -0.1419  0.1057  0.6193
 8274SOL    HW136458   0.955   3.267  14.124 -0.1373 -0.1080  0.4070
 8274SOL    HW236459   1.051   3.179  14.195 -0.7379 -2.7606  0.2618
 8275SOL     OW36460   1.997   3.130   1.264 -0.4985 -0.1647  0.2187
 8275SOL    HW136461   2.060   3.190   1.224  0.4056 -0.6354  0.9523
 8275SOL    HW236462   1.978   3.172   1.347  0.5212  0.0073  0.3590
 8276SOL     OW36463   1.822   4.271   5.201 -0.2854 -0.7159  0.5237
 8276SOL    HW136464   1.876   4.221   5.262  0.9627 -1.1302 -0.9110
 8276SOL    HW236465   1.880   4.345   5.185 -0.0247 -1.0163  0.0687
 8277SOL     OW36466   4.721   3.929  10.080 -0.6201 -0.2359 -0.0314
 8277SOL    HW136467   0.056   3.917  10.145  0.3448  0.9530 -0.8603
 8277SOL    HW236468   4.671   3.848  10.097  0.5588 -1.1491 -0.9354
 8278SOL     OW36469   4.443   1.267  16.341 -0.3842  0.2052 -0.0843
 8278SOL    HW136470   4.429   1.177  16.311 -2.9793 -0.1985  2.3302
 8278SOL    HW236471   4.373   1.315  16.297  0.6743  1.8634  0.0448
 8279SOL     OW36472   0.048   3.648   4.007  0.0679  0.1192 -0.1340
 8279SOL    HW136473   0.002   3.569   3.983  0.1446  0.0020  0.1014
 8279SOL    HW236474   0.086   3.677   3.924  3.3017 -0.7999  1.0222
 8280SOL     OW36475   1.916   2.639   2.259  0.7788  0.0130  0.6586
 8280SOL    HW136476   2.000   2.672   2.291  0.4790  0.4416  0.9959
 8280SOL    HW236477   1.868   2.716   2.229  0.3832  0.7697  3.2992
 8281SOL     OW36478   2.446   2.419   6.754  0.1558 -0.7826 -0.0032
 8281SOL    HW136479   2.513   2.361   6.788 -1.8582 -2.4921  1.0115
 8281SOL    HW236480   2.444   2.482   6.827 -1.3523 -0.6693 -0.1407
 8282SOL     OW36481   1.045   2.284   7.191 -0.0769  0.7329  0.0594
 8282SOL    HW136482   1.102   2.360   7.185 -1.1620  1.4598 -1.2106
 8282SOL    HW236483   0.975   2.309   7.252 -0.9201  0.4854 -0.8005
 8283SOL     OW36484   1.819   1.461   4.954  0.3608 -0.0110  0.5929
 8283SOL    HW136485   1.790   1.410   4.879 -0.6879  1.1671  0.2033
 8283SOL    HW236486   1.733   1.475   4.993  0.1392  0.1131  0.0525
 8284SOL     OW36487   2.041   3.854   9.081 -0.4412 -0.4241  0.0936
 8284SOL    HW136488   2.133   3.879   9.091 -0.7525  0.5109  0.7184
 8284SOL    HW236489   1.999   3.896   9.156  1.4151  2.1543 -0.3076
 8285SOL     OW36490   1.951   4.095  14.274  0.1850  0.2876  0.2044
 8285SOL    HW136491   1.992   4.076  14.358  2.1964  1.3466 -0.5366
 8285SOL    HW236492   1.867   4.053  14.289  0.6243  0.1931  2.3843
 8286SOL     OW36493   2.329   3.991  17.417  0.2395  0.2191  0.2871
 8286SOL    HW136494   2.364   3.903  17.428 -0.5354 -0.0944  0.2099
 8286SOL    HW236495   2.373   4.008  17.333 -0.5194  1.8128  0.1944
 8287SOL     OW36496   2.471   1.014   8.110 -0.1948  0.0724 -0.2706
 8287SOL    HW136497   2.465   1.106   8.133 -0.0884 -0.4179  1.7313
 8287SOL    HW236498   2.452   1.029   8.018  0.0346 -0.3936 -0.3940
 8288SOL     OW36499   3.520   2.682   6.378 -0.0154  0.0264  0.3143
 8288SOL    HW136500   3.593   2.654   6.322 -1.6239  1.0338 -2.2828
 8288SOL    HW236501   3.561   2.767   6.394 -1.1254  0.5123  0.6105
 8289SOL     OW36502   2.861   3.814  12.956  0.5817  0.0829  0.0882
 8289SOL    HW136503   2.783   3.759  12.955  1.7140 -1.5458  0.9453
 8289SOL    HW236504   2.822   3.897  12.981 -1.2385 -1.1212  1.2610
 8290SOL     OW36505   3.292   1.137  10.403  0.0107 -0.1364 -0.1419
 8290SOL    HW136506   3.355   1.136  10.332 -1.0326 -0.2602 -1.0582
 8290SOL    HW236507   3.251   1.223  10.406  1.1338  0.4170 -1.1524
 8291SOL     OW36508   1.824   4.466  16.921  0.0044 -0.3609 -0.6043
 8291SOL    HW136509   1.882   4.537  16.948  2.3509 -2.6461  0.3576
 8291SOL    HW236510   1.756   4.516  16.875 -0.6561 -1.8602 -1.2478
 8292SOL     OW36511   1.491   3.421  10.761 -0.1311 -0.0033 -0.2479
 8292SOL    HW136512   1.555   3.351  10.773  0.0765  0.5444  1.8749
 8292SOL    HW236513   1.526   3.491  10.816  0.2101 -1.2014  1.0370
 8293SOL     OW36514   3.330   2.861  10.439 -0.1428  0.0654 -0.0170
 8293SOL    HW136515   3.404   2.906  10.397 -1.0073  1.9611  0.4936
 8293SOL    HW236516   3.372   2.816  10.512  0.5889 -0.8985 -1.0424
 8294SOL     OW36517   1.539   3.179  14.315 -0.0592  0.4553 -0.2999
 8294SOL    HW136518   1.477   3.250  14.298 -1.6378 -0.1420  3.0439
 8294SOL    HW236519   1.524   3.125  14.237  0.4023  0.9833 -0.7603
 8295SOL     OW36520   4.177   1.670   9.092  0.0576  0.4195 -0.0480
 8295SOL    HW136521   4.169   1.720   9.173  1.3831  0.5870 -0.0151
 8295SOL    HW236522   4.247   1.723   9.053  1.3357 -0.3164  1.2476
 8296SOL     OW36523   1.544   4.157   4.426  0.2870 -0.3654 -0.3548
 8296SOL    HW136524   1.587   4.158   4.512 -2.4030  1.2630  0.9963
 8296SOL    HW236525   1.621   4.151   4.369 -0.5080 -0.6209 -1.3999
 8297SOL     OW36526   0.103   4.403  12.470 -1.0162 -1.4334 -0.6465
 8297SOL    HW136527   0.102   4.320  12.422  1.5769 -1.3122 -0.9307
 8297SOL    HW236528   0.130   4.468  12.404 -1.2183 -1.5763 -0.8701
 8298SOL     OW36529   0.616   0.237   7.298 -0.2187  0.6406 -0.4432
 8298SOL    HW136530   0.571   0.159   7.329 -1.7345  1.5716 -0.3137
 8298SOL    HW236531   0.601   0.300   7.368 -1.8737 -0.4724  0.1935
 8299SOL     OW36532   0.848   2.323  12.887  0.1160  0.2284  0.1664
 8299SOL    HW136533   0.926   2.363  12.848  1.3890  0.6118  3.1425
 8299SOL    HW236534   0.872   2.231  12.881  2.4919  0.8647 -0.3015
 8300SOL     OW36535   0.032   0.399   7.825 -0.2929 -0.2082  0.1554
 8300SOL    HW136536   0.114   0.354   7.847 -0.1079 -0.6906 -1.4957
 8300SOL    HW236537   0.016   0.442   7.909 -1.2858 -0.4356  0.0840
 8301SOL     OW36538   2.843   1.764  13.657 -0.6963 -0.2644 -0.7905
 8301SOL    HW136539   2.883   1.705  13.593  1.8943  1.9905 -1.2313
 8301SOL    HW236540   2.888   1.740  13.737 -1.3441  0.1616 -0.2917
 8302SOL     OW36541   0.680   2.933   0.194 -0.2084  0.4018  0.2304
 8302SOL    HW136542   0.632   2.987   0.132  0.1683 -0.8528 -1.1348
 8302SOL    HW236543   0.716   3.002   0.250  1.8045  1.0380 -1.8518
 8303SOL     OW36544   2.084   2.083   1.898  0.0568 -0.0594 -0.0384
 8303SOL    HW136545   2.116   2.081   1.808 -0.5140  0.2564 -0.2483
 8303SOL    HW236546   2.002   2.034   1.891  0.0208 -0.3057  2.1106
 8304SOL     OW36547   1.223   3.085   8.471 -0.0255 -0.3123  0.1986
 8304SOL    HW136548   1.303   3.042   8.502 -1.0831 -2.9546 -0.7551
 8304SOL    HW236549   1.166   3.011   8.449  1.0719 -0.8579 -0.7909
 8305SOL     OW36550   2.558   0.806  10.274  0.6922 -0.0766  0.2019
 8305SOL    HW136551   2.646   0.843  10.271  0.1897  1.1929  1.0821
 8305SOL    HW236552   2.516   0.848  10.198  0.6422  2.2003  1.4824
 8306SOL     OW36553   3.119   2.271  15.192  0.5229  0.4171  0.4964
 8306SOL    HW136554   3.044   2.222  15.226  0.4256  1.0342  1.1619
 8306SOL    HW236555   3.182   2.229  15.251  2.3594  1.0531 -1.0255
 8307SOL     OW36556   1.632   0.026   7.251  0.2823  0.0312  0.1755
 8307SOL    HW136557   1.547   0.046   7.290  0.6644  0.9362  0.5626
 8307SOL    HW236558   1.625   4.670   7.224 -1.2324  0.0808  0.4151
 8308SOL     OW36559   4.392   2.207   7.254 -0.1182 -0.6006  0.6821
 8308SOL    HW136560   4.425   2.281   7.307 -0.9200  1.4071 -1.6422
 8308SOL    HW236561   4.422   2.240   7.169  0.6862 -1.4886  0.6282
 8309SOL     OW36562   0.649   3.245  16.998 -0.6132  0.0515 -0.0557
 8309SOL    HW136563   0.603   3.210  16.921 -1.3923 -1.1717  0.9752
 8309SOL    HW236564   0.712   3.307  16.960 -1.3017 -0.2471 -1.6789
 8310SOL     OW36565   0.125   4.049   5.765 -0.5247  0.2998 -0.4943
 8310SOL    HW136566   0.102   4.068   5.856 -1.2822  0.0164 -0.6290
 8310SOL    HW236567   0.097   4.127   5.717  0.4864  1.2997  0.5274
 8311SOL     OW36568   4.487   2.756   5.834  0.5797 -0.1506 -0.1983
 8311SOL    HW136569   4.449   2.799   5.911  0.7157  0.2679 -0.3636
 8311SOL    HW236570   4.538   2.683   5.868  0.7785 -0.8075 -1.9238
 8312SOL     OW36571   3.678   0.997   7.995  0.3945 -0.0939 -0.3238
 8312SOL    HW136572   3.762   1.041   8.002  0.7913 -0.7501 -0.9101
 8312SOL    HW236573   3.617   1.070   8.000  0.4933 -0.0675  0.5472
 8313SOL     OW36574   3.539   4.107   4.082 -0.0261  0.1543  0.2780
 8313SOL    HW136575   3.620   4.059   4.099  0.8858  0.9454 -1.7921
 8313SOL    HW236576   3.572   4.188   4.043 -1.6483 -0.4167 -2.2758
 8314SOL     OW36577   2.973   0.055   1.374 -0.2879 -0.4626 -0.0137
 8314SOL    HW136578   2.969   4.708   1.324  0.3022 -0.0876 -0.6720
 8314SOL    HW236579   2.890   0.090   1.343 -2.0898 -3.3224  1.5533
 8315SOL     OW36580   2.881   1.203   4.386 -0.3998  0.1668 -0.1648
 8315SOL    HW136581   2.974   1.212   4.406 -0.5189 -0.1005  0.4951
 8315SOL    HW236582   2.864   1.113   4.416 -1.0629  0.7661  1.2537
 8316SOL     OW36583   3.860   0.640   8.538  0.1783  0.2930 -0.2089
 8316SOL    HW136584   3.931   0.600   8.588  0.9708  2.2207  0.1726
 8316SOL    HW236585   3.787   0.578   8.533  0.4301 -0.1090  0.9281
 8317SOL     OW36586   0.801   4.339   7.053  0.3056 -0.5075 -0.2690
 8317SOL    HW136587   0.785   4.293   7.136 -3.9995 -0.8383 -1.2930
 8317SOL    HW236588   0.737   4.293   6.999 -0.8109  1.6517 -0.7788
 8318SOL     OW36589   2.698   3.248   3.072 -0.1842 -0.3320  0.2145
 8318SOL    HW136590   2.639   3.246   3.148 -1.2170  2.1671 -0.5318
 8318SOL    HW236591   2.654   3.188   3.013 -3.0066  1.7157  0.2318
 8319SOL     OW36592   3.002   3.490   5.345 -0.0068  0.3689  0.5214
 8319SOL    HW136593   3.058   3.565   5.325 -0.2899  0.1994 -0.8670
 8319SOL    HW236594   2.927   3.536   5.383 -0.4716 -0.5197  0.6829
 8320SOL     OW36595   0.762   3.367   6.782  0.1809  0.2350  0.1656
 8320SOL    HW136596   0.711   3.422   6.723  0.5747  1.5450  1.0734
 8320SOL    HW236597   0.710   3.383   6.861 -0.7273 -0.4334 -0.2918
 8321SOL     OW36598   0.611   2.315   4.384 -0.0901  0.1564 -0.3580
 8321SOL    HW136599   0.647   2.241   4.433 -2.3959 -1.4648 -1.1285
 8321SOL    HW236600   0.524   2.282   4.362 -0.0847 -0.1102  0.0205
 8322SOL     OW36601   1.765   3.459   5.701  0.2089 -0.8603  0.6433
 8322SOL    HW136602   1.806   3.453   5.615  0.4518  0.4502  0.6695
 8322SOL    HW236603   1.753   3.552   5.720  0.3285 -0.8591  0.7083
 8323SOL     OW36604   2.029   0.712   0.928 -0.3915  0.8521 -0.3442
 8323SOL    HW136605   1.941   0.676   0.939 -0.2309  0.6295  0.1821
 8323SOL    HW236606   2.021   0.771   0.853 -0.4281  2.0840  0.6441
 8324SOL     OW36607   0.805   1.019  15.512  0.0942 -0.1522  0.0855
 8324SOL    HW136608   0.819   1.037  15.419 -1.7152 -0.6115 -0.2782
 8324SOL    HW236609   0.712   1.037  15.524 -0.5832 -2.0547 -2.3139
 8325SOL     OW36610   1.128   0.008   7.164 -0.3473 -0.6240  0.3235
 8325SOL    HW136611   1.042   0.049   7.167 -0.0118  0.0039  1.4162
 8325SOL    HW236612   1.102   4.657   7.133  0.8539 -0.1735 -1.9552
 8326SOL     OW36613   3.682   1.451   4.825  0.2908 -0.3061  0.9496
 8326SOL    HW136614   3.769   1.482   4.801 -0.1785 -1.5516 -2.2735
 8326SOL    HW236615   3.678   1.456   4.921 -1.5966  0.6295  0.8214
 8327SOL     OW36616   4.510   4.708   5.090  0.1057  0.0055 -0.3436
 8327SOL    HW136617   4.434   4.722   5.147 -0.3213 -0.2085 -0.8548
 8327SOL    HW236618   4.576   0.033   5.125 -0.0021  0.0198 -0.1632
 8328SOL     OW36619   2.238   4.072  17.661  0.3161  0.1180 -0.4938
 8328SOL    HW136620   2.255   4.049  17.570 -0.0059  0.4271 -0.6347
 8328SOL    HW236621   2.238   3.982  17.694 -0.3811  0.9380  1.7486
 8329SOL     OW36622   1.054   0.826  14.976 -0.2037  0.3197  0.0381
 8329SOL    HW136623   1.101   0.758  15.023 -0.4655 -0.6717 -1.1231
 8329SOL    HW236624   1.100   0.838  14.893  2.3668 -2.6188  1.0610
 8330SOL     OW36625   1.405   2.083   7.111  0.8452 -0.4271  0.9509
 8330SOL    HW136626   1.496   2.060   7.130  0.5920 -2.6074 -0.4805
 8330SOL    HW236627   1.414   2.152   7.045 -0.8447  0.5115  1.7087
 8331SOL     OW36628   4.655   2.149   1.306  0.1202 -0.4450 -0.4792
 8331SOL    HW136629   4.681   2.214   1.240 -2.3669  2.8743  1.8441
 8331SOL    HW236630   4.629   2.193   1.386 -0.6680 -2.0250  0.1282
 8332SOL     OW36631   4.124   3.767   8.493 -0.3049  0.0879  0.4652
 8332SOL    HW136632   4.061   3.826   8.451 -1.4332 -0.6303  1.1613
 8332SOL    HW236633   4.098   3.777   8.584 -1.1847  1.4317  0.0810
 8333SOL     OW36634   0.236   4.386  16.839  0.4277  0.4797 -0.5883
 8333SOL    HW136635   0.201   4.405  16.752 -1.3350  2.6638  0.5928
 8333SOL    HW236636   0.167   4.414  16.899  1.7314  1.7573  0.2989
 8334SOL     OW36637   1.289   2.349   1.445 -0.0203  0.3583 -0.1092
 8334SOL    HW136638   1.284   2.259   1.413 -0.4598 -0.4041  2.1029
 8334SOL    HW236639   1.324   2.392   1.366  0.1643 -0.2163 -0.3433
 8335SOL     OW36640   3.333   4.397   3.494 -0.2930 -0.2046 -0.0137
 8335SOL    HW136641   3.406   4.388   3.432  0.7541  2.7442  0.7781
 8335SOL    HW236642   3.339   4.490   3.516 -2.5926  0.1786 -1.0499
 8336SOL     OW36643   3.166   4.063   2.416 -0.3265 -0.0609  0.1247
 8336SOL    HW136644   3.116   4.106   2.485 -0.3090 -2.5069  1.6716
 8336SOL    HW236645   3.094   4.013   2.377 -1.7859 -1.5913  4.8730
 8337SOL     OW36646   3.423   0.739   8.554  0.4214 -0.1557  0.1805
 8337SOL    HW136647   3.411   0.769   8.464  0.5457  1.3478  0.6621
 8337SOL    HW236648   3.331   0.716   8.569  0.0705 -0.1463 -1.9420
 8338SOL     OW36649   1.053   2.694   3.181  0.2890  0.5597  0.4165
 8338SOL    HW136650   1.013   2.644   3.110  0.9863 -0.5939  0.8198
 8338SOL    HW236651   0.974   2.724   3.227  0.7024  0.6004  1.0972
 8339SOL     OW36652   1.944   1.217  15.442  0.2354 -0.3818 -0.3032
 8339SOL    HW136653   1.964   1.193  15.352  0.2171  0.6596 -0.5912
 8339SOL    HW236654   1.874   1.282  15.432  1.7093  1.7075  3.0351
 8340SOL     OW36655   1.430   1.958   4.767  0.7588  0.2462  0.3372
 8340SOL    HW136656   1.458   2.046   4.743  0.1784  0.5084  0.6050
 8340SOL    HW236657   1.389   1.928   4.686  1.2637  2.7207 -0.8324
 8341SOL     OW36658   4.259   1.584   6.213  0.0619 -0.2957  0.6359
 8341SOL    HW136659   4.170   1.608   6.185  0.7661  0.1262 -1.2206
 8341SOL    HW236660   4.246   1.582   6.308  0.3602  0.7439  0.6997
 8342SOL     OW36661   4.677   2.987   2.558 -0.2026 -0.0837  0.0224
 8342SOL    HW136662   4.639   2.968   2.644 -1.1771 -0.5400 -0.5032
 8342SOL    HW236663   4.605   2.980   2.495  0.0096 -0.2225 -0.2039
 8343SOL     OW36664   1.274   1.099   5.239 -0.0099 -0.6119 -0.0161
 8343SOL    HW136665   1.214   1.172   5.258  1.6461  0.8961 -0.5106
 8343SOL    HW236666   1.266   1.083   5.145 -0.2790 -0.9704  0.0717
 8344SOL     OW36667   0.508   1.391   5.020  0.0352  0.1502  0.1333
 8344SOL    HW136668   0.558   1.389   4.939 -2.0374 -0.0925 -1.1221
 8344SOL    HW236669   0.516   1.305   5.061  0.9276  0.9000  1.5617
 8345SOL     OW36670   0.538   2.245   9.564  0.6657  0.1206  0.7498
 8345SOL    HW136671   0.453   2.286   9.581 -0.3071 -1.7962  0.5139
 8345SOL    HW236672   0.572   2.256   9.652 -0.2944  0.4476  1.0765
 8346SOL     OW36673   3.745   1.599   2.044  0.3671  0.1610 -0.1239
 8346SOL    HW136674   3.747   1.536   1.972  1.6633 -1.0080  0.9143
 8346SOL    HW236675   3.801   1.556   2.109  1.0185  2.7249  0.9793
 8347SOL     OW36676   3.455   2.359  13.845  0.0898  0.0252 -0.3703
 8347SOL    HW136677   3.508   2.320  13.915 -0.7876  0.8970  0.7972
 8347SOL    HW236678   3.380   2.374  13.903  0.0285  3.0503 -1.2117
 8348SOL     OW36679   2.715   0.594   8.093 -0.4382 -0.1053  0.7258
 8348SOL    HW136680   2.679   0.665   8.041  0.7748  0.2140  0.3390
 8348SOL    HW236681   2.807   0.617   8.108  0.2467 -2.2662 -0.0846
 8349SOL     OW36682   4.195   3.009   9.826  0.2329 -0.8867  0.1209
 8349SOL    HW136683   4.220   2.919   9.846  1.9346 -0.7327 -1.3373
 8349SOL    HW236684   4.109   3.011   9.868  0.0556 -1.5294 -0.2106
 8350SOL     OW36685   4.147   0.079   3.740 -0.5828  0.3493 -0.0024
 8350SOL    HW136686   4.131   0.109   3.650  0.7571 -0.7402 -0.6069
 8350SOL    HW236687   4.064   0.049   3.777 -0.5658  1.0004  0.5661
 8351SOL     OW36688   3.638   3.106   0.565  0.7539  0.2668 -0.1670
 8351SOL    HW136689   3.580   3.041   0.606 -0.1101 -0.3115 -2.3014
 8351SOL    HW236690   3.680   3.145   0.642 -2.6183  1.9059  0.8409
 8352SOL     OW36691   0.807   0.346  10.071 -0.1464  0.1464  0.5134
 8352SOL    HW136692   0.860   0.266  10.062 -1.8652 -0.7434 -1.9684
 8352SOL    HW236693   0.738   0.315  10.129  0.3760 -0.8281  0.6175
 8353SOL     OW36694   2.565   4.426   2.874 -0.6263  0.7226  0.4412
 8353SOL    HW136695   2.638   4.488   2.868  1.5030 -2.0490 -2.3813
 8353SOL    HW236696   2.603   4.344   2.842 -1.3417  0.5846 -0.0543
 8354SOL     OW36697   0.651   3.565   6.372 -0.5312 -0.1869  0.1093
 8354SOL    HW136698   0.683   3.529   6.289  1.3590  1.0474  0.3093
 8354SOL    HW236699   0.559   3.542   6.357  0.0079 -1.9480 -0.5895
 8355SOL     OW36700   2.560   3.113   2.330  0.7368 -0.5055  0.2283
 8355SOL    HW136701   2.530   3.096   2.420 -0.0045  2.3265  0.5231
 8355SOL    HW236702   2.636   3.057   2.318  0.7230 -0.8666  1.8385
 8356SOL     OW36703   4.029   4.306   1.489 -0.1280 -0.0416  0.1867
 8356SOL    HW136704   3.991   4.386   1.525 -1.6192 -0.6863  0.0042
 8356SOL    HW236705   4.108   4.309   1.544  0.5400  3.3332 -0.9399
 8357SOL     OW36706   4.661   0.703  10.646  0.1168  0.7122  0.2550
 8357SOL    HW136707   4.675   0.780  10.590 -1.8552  1.1121  0.3249
 8357SOL    HW236708   4.656   0.631  10.582 -0.4840 -0.7764  1.9777
 8358SOL     OW36709   0.214   4.085  17.724 -0.3156  0.1297  0.4447
 8358SOL    HW136710   0.283   4.149  17.704 -1.8607  1.6174 -0.1182
 8358SOL    HW236711   0.188   4.124   0.068  0.6511  0.9036  0.3785
 8359SOL     OW36712   2.334   1.854   5.901  0.0747  0.1791 -0.3527
 8359SOL    HW136713   2.310   1.797   5.974 -1.0751 -0.9740 -1.6275
 8359SOL    HW236714   2.273   1.821   5.835 -1.1921  1.0591  0.3935
 8360SOL     OW36715   2.906   3.278   9.689 -0.7175  0.0855  0.1655
 8360SOL    HW136716   2.948   3.235   9.764 -0.5762  2.8858  1.6981
 8360SOL    HW236717   2.965   3.248   9.620 -0.3649  0.9896  0.0696
 8361SOL     OW36718   1.998   0.299   2.962 -0.0826  0.3655  0.4815
 8361SOL    HW136719   2.087   0.271   2.943  0.7232  2.5024  1.1996
 8361SOL    HW236720   1.959   0.320   2.877  1.5955  2.5841  0.2744
 8362SOL     OW36721   1.913   3.182   5.380  0.3970 -0.2991  0.7116
 8362SOL    HW136722   1.872   3.101   5.410 -0.6155  0.1420  0.5006
 8362SOL    HW236723   1.889   3.189   5.287 -0.5224 -0.3649  0.9460
 8363SOL     OW36724   3.992   3.747   9.308  0.1961 -0.4359 -0.3696
 8363SOL    HW136725   4.048   3.763   9.232  0.4752 -1.2349 -0.3305
 8363SOL    HW236726   4.047   3.689   9.361 -0.2781 -2.6096 -2.2451
 8364SOL     OW36727   1.734   2.927   4.674  0.1536  0.1655  0.3312
 8364SOL    HW136728   1.755   2.845   4.629 -2.2837 -0.2502 -0.0674
 8364SOL    HW236729   1.736   2.903   4.767 -1.1683 -0.5171  0.1917
 8365SOL     OW36730   1.923   3.497   1.728  0.0103 -0.6784  0.3004
 8365SOL    HW136731   1.959   3.559   1.791 -2.9069  1.5766 -0.2654
 8365SOL    HW236732   1.917   3.538   1.642  1.1067  1.9419  1.4795
 8366SOL     OW36733   0.620   0.791  12.620  0.1091  0.4886  0.0633
 8366SOL    HW136734   0.584   0.852  12.556  2.2532  2.1821  0.4793
 8366SOL    HW236735   0.657   0.852  12.683 -0.1447 -0.0990  0.7836
 8367SOL     OW36736   4.320   0.101  17.466  0.2639 -0.2874  0.0063
 8367SOL    HW136737   4.251   0.077  17.405  0.5340 -1.1062  0.0296
 8367SOL    HW236738   4.289   0.070  17.551 -1.9185  0.7126 -0.4267
 8368SOL     OW36739   0.716   0.860   6.744  0.1267  0.3686  0.3348
 8368SOL    HW136740   0.761   0.887   6.663 -1.0599  3.8003  0.8273
 8368SOL    HW236741   0.632   0.831   6.708  0.4325  0.6960 -0.6524
 8369SOL     OW36742   1.049   3.779   1.729  0.8074  0.4584  0.3008
 8369SOL    HW136743   1.126   3.836   1.724  1.2873 -0.2081  0.0004
 8369SOL    HW236744   0.969   3.830   1.722  1.2739  1.2334  0.6147
 8370SOL     OW36745   1.642   4.516   2.338 -0.0350 -0.2925  0.2626
 8370SOL    HW136746   1.639   4.531   2.244 -3.2418  2.2088  0.7716
 8370SOL    HW236747   1.659   4.422   2.341  0.3924 -0.2451 -0.8122
 8371SOL     OW36748   3.463   0.745   2.762  0.3322 -0.0132  0.2476
 8371SOL    HW136749   3.407   0.780   2.693 -0.0706 -1.8523 -0.3669
 8371SOL    HW236750   3.481   0.823   2.815 -2.7188 -1.7221  3.8293
 8372SOL     OW36751   4.448   3.905  14.012  0.0995  0.0392 -0.7997
 8372SOL    HW136752   4.433   3.817  13.979 -0.7229 -0.2915  0.4476
 8372SOL    HW236753   4.390   3.912  14.088  1.2319 -2.6532  0.3031
 8373SOL     OW36754   0.754   0.823   8.971 -1.1682 -0.4456  0.3426
 8373SOL    HW136755   0.713   0.873   9.041  2.2440 -1.2195  2.9183
 8373SOL    HW236756   0.762   0.885   8.900  3.5319 -0.4549  0.8720
 8374SOL     OW36757   1.981   2.247   0.883 -0.0219  0.6340 -0.5650
 8374SOL    HW136758   1.912   2.307   0.854 -1.3301 -0.6495 -0.1315
 8374SOL    HW236759   1.932   2.194   0.947 -1.5240 -0.6403 -2.7423
 8375SOL     OW36760   0.977   4.105   0.909  0.5352 -0.0667 -0.4470
 8375SOL    HW136761   1.008   4.151   0.987 -0.5236 -1.0568  0.5587
 8375SOL    HW236762   0.891   4.146   0.899  0.6361  0.0994 -0.6134
 8376SOL     OW36763   3.657   4.344   5.140 -0.2583 -0.5106  0.6184
 8376SOL    HW136764   3.700   4.338   5.225 -0.6832 -1.9365  0.7289
 8376SOL    HW236765   3.581   4.398   5.164 -0.8695 -0.5414 -1.2447
 8377SOL     OW36766   3.167   0.933   9.747  0.2684 -0.0330 -0.3842
 8377SOL    HW136767   3.117   0.972   9.819  0.2846  2.1149 -1.5391
 8377SOL    HW236768   3.187   1.011   9.695 -1.4789  1.7795  1.6701
 8378SOL     OW36769   2.216   1.237   7.684  0.4796  0.7060 -0.4943
 8378SOL    HW136770   2.135   1.226   7.733 -0.2242  0.5867 -1.6896
 8378SOL    HW236771   2.244   1.321   7.721  1.6675 -0.1700  0.5947
 8379SOL     OW36772   4.481   1.950   7.194 -0.0310  0.1533  0.5598
 8379SOL    HW136773   4.491   2.044   7.207 -1.2402  0.8725 -3.5699
 8379SOL    HW236774   4.408   1.927   7.252  0.9748  2.8440  2.8688
 8380SOL     OW36775   1.818   3.180  12.067 -0.1093 -0.4968 -0.2769
 8380SOL    HW136776   1.748   3.117  12.049  0.1115 -0.3459 -1.6761
 8380SOL    HW236777   1.850   3.185  11.977 -1.6362  3.3681 -0.5894
 8381SOL     OW36778   2.561   3.464   0.171  0.0347 -0.0445  0.4376
 8381SOL    HW136779   2.651   3.441   0.147 -0.8556 -1.2503 -1.7247
 8381SOL    HW236780   2.523   3.385   0.211  0.6125 -0.9556 -0.7907
 8382SOL     OW36781   1.044   4.673   3.144  0.0625  0.5206 -0.1205
 8382SOL    HW136782   1.118   4.715   3.188  0.2236 -1.1011  1.2056
 8382SOL    HW236783   1.088   4.624   3.075 -1.5320  1.0959 -1.5265
 8383SOL     OW36784   2.030   3.696   6.974  0.0308 -0.3544  0.2917
 8383SOL    HW136785   2.016   3.603   6.988  1.7427 -0.7423 -0.6102
 8383SOL    HW236786   2.125   3.686   6.980 -0.3409 -2.4931  2.6733
 8384SOL     OW36787   3.906   2.410  11.360 -0.5219  0.3141  0.0136
 8384SOL    HW136788   3.987   2.441  11.319  0.9142 -2.5210  0.7124
 8384SOL    HW236789   3.931   2.403  11.452 -1.4651  0.7397  0.2978
 8385SOL     OW36790   3.907   2.497  16.598  0.2657 -0.0237  0.3975
 8385SOL    HW136791   3.870   2.434  16.536  0.2954 -0.2465  0.6093
 8385SOL    HW236792   3.824   2.543  16.614  1.0781  1.1498  1.2080
 8386SOL     OW36793   1.434   3.240   6.601 -0.0536  0.5795  0.4269
 8386SOL    HW136794   1.381   3.285   6.666 -1.2952  1.0823 -0.9313
 8386SOL    HW236795   1.457   3.312   6.542  0.7448 -0.3357 -0.3884
 8387SOL     OW36796   3.078   1.575   1.481  0.0052 -0.2514  0.2661
 8387SOL    HW136797   3.026   1.585   1.402 -1.0111 -0.9054  0.8546
 8387SOL    HW236798   3.106   1.484   1.472  2.2578  0.5719 -1.0015
 8388SOL     OW36799   1.059   1.567   4.221  0.3341  0.3771 -0.6641
 8388SOL    HW136800   1.098   1.556   4.134 -1.4197 -0.2282 -1.3596
 8388SOL    HW236801   1.015   1.646   4.190  0.5313  1.1016  0.9013
 8389SOL     OW36802   0.251   3.935  16.389 -0.4634 -0.2434 -0.0559
 8389SOL    HW136803   0.263   3.996  16.317 -0.9154 -2.7312 -2.2333
 8389SOL    HW236804   0.271   3.847  16.358  1.9306  0.0366  0.7569
 8390SOL     OW36805   4.217   0.707   5.596  0.2922 -0.2396  0.0889
 8390SOL    HW136806   4.210   0.757   5.515  0.8864 -1.1591 -0.5197
 8390SOL    HW236807   4.218   0.779   5.660 -0.3136  1.5540 -1.9130
 8391SOL     OW36808   1.181   2.207   7.459  0.1020  0.4448 -0.1601
 8391SOL    HW136809   1.093   2.229   7.490  0.1169  1.3446 -0.7737
 8391SOL    HW236810   1.167   2.116   7.431  1.1298  0.5756 -1.0913
 8392SOL     OW36811   4.729   1.557   8.734 -0.1459  0.1486 -0.7224
 8392SOL    HW136812   0.058   1.485   8.728 -0.3673 -0.0875 -0.2630
 8392SOL    HW236813   4.675   1.514   8.801 -1.6922 -0.3403 -2.2918
 8393SOL     OW36814   2.207   4.673   7.218  0.5090  0.0455 -0.2586
 8393SOL    HW136815   2.189   0.032   7.230 -1.5801 -0.4776  0.7807
 8393SOL    HW236816   2.116   4.644   7.222  0.6662 -0.3888  0.1082
 8394SOL     OW36817   2.625   2.164   1.823 -0.3749  0.2054  0.9416
 8394SOL    HW136818   2.532   2.146   1.813 -0.2977  0.3525  0.0019
 8394SOL    HW236819   2.659   2.077   1.847  1.0349  0.3793 -0.4798
 8395SOL     OW36820   0.624   0.828  11.112  0.0546  0.5029 -0.2318
 8395SOL    HW136821   0.619   0.831  11.208 -1.4279 -1.8661 -0.2238
 8395SOL    HW236822   0.593   0.737  11.113 -0.2218  0.6155  0.9755
 8396SOL     OW36823   1.957   3.858   5.896  0.0861  0.2252  0.6717
 8396SOL    HW136824   1.978   3.823   5.982 -1.4719 -0.0126  0.9657
 8396SOL    HW236825   1.889   3.923   5.916  0.6300  1.2269 -0.7630
 8397SOL     OW36826   2.413   4.657   1.468 -0.4338  0.0296  0.5502
 8397SOL    HW136827   2.326   4.619   1.484 -1.0638  0.9750 -0.7038
 8397SOL    HW236828   2.426   4.702   1.551 -0.0780  1.0640 -0.0730
 8398SOL     OW36829   2.540   0.362  17.665 -0.0022 -0.2963  0.4584
 8398SOL    HW136830   2.485   0.359   0.004  0.4159  1.4713  0.8382
 8398SOL    HW236831   2.481   0.322  17.601  0.3032  0.8411 -0.5448
 8399SOL     OW36832   1.158   3.404   7.721  0.3516  0.2234  0.2308
 8399SOL    HW136833   1.152   3.499   7.710 -0.5433 -0.0350 -1.6530
 8399SOL    HW236834   1.091   3.405   7.789  1.2738 -2.2855  1.1712
 8400SOL     OW36835   4.511   0.789   7.242 -0.0253  0.2279  0.0271
 8400SOL    HW136836   4.465   0.710   7.213 -0.0079 -0.5834  2.1867
 8400SOL    HW236837   4.453   0.862   7.222 -0.2591 -0.0517 -0.3082
 8401SOL     OW36838   4.439   1.822   0.491  0.3566  0.1905 -0.2512
 8401SOL    HW136839   4.510   1.835   0.555 -0.8509  0.6288  1.0087
 8401SOL    HW236840   4.413   1.730   0.497 -1.2378  0.6183 -0.8319
 8402SOL     OW36841   3.010   1.393   0.533 -0.0138 -0.3270 -0.3384
 8402SOL    HW136842   2.988   1.393   0.440 -2.6092 -1.5338  0.2555
 8402SOL    HW236843   3.025   1.485   0.551  0.8225 -0.5911  0.3346
 8403SOL     OW36844   1.412   3.323   7.671 -0.1279  0.1108  0.9183
 8403SOL    HW136845   1.374   3.235   7.667 -1.2456  0.6830 -0.7316
 8403SOL    HW236846   1.335   3.367   7.707 -0.8029  0.5171 -1.0593
 8404SOL     OW36847   2.803   2.756   4.241 -0.0994  0.1657 -0.5866
 8404SOL    HW136848   2.853   2.701   4.181  0.5990  0.3881 -0.2133
 8404SOL    HW236849   2.817   2.843   4.201  2.9364  0.0772  0.2732
 8405SOL     OW36850   0.289   2.818   0.545 -0.2600 -0.8723 -0.3200
 8405SOL    HW136851   0.314   2.909   0.526  0.1346 -0.9359 -0.1036
 8405SOL    HW236852   0.212   2.818   0.488 -1.0296 -2.0554  0.7266
 8406SOL     OW36853   2.311   2.256   2.926  0.2363 -0.4314 -0.6031
 8406SOL    HW136854   2.400   2.220   2.925 -0.0634 -1.1843  0.0666
 8406SOL    HW236855   2.295   2.275   2.833  0.5056  0.3352 -0.4938
 8407SOL     OW36856   4.511   1.286   6.168  0.3273 -0.1034 -0.1710
 8407SOL    HW136857   4.457   1.338   6.109  2.4173 -0.1679 -2.1113
 8407SOL    HW236858   4.441   1.241   6.215  1.0781 -3.0589 -1.8844
 8408SOL     OW36859   4.168   0.320   0.898  0.3060  0.0972 -0.0700
 8408SOL    HW136860   4.201   0.332   0.988  0.8715  2.4423 -0.5832
 8408SOL    HW236861   4.250   0.278   0.870  1.8237  3.0108 -0.0409
 8409SOL     OW36862   0.739   0.509   6.680  0.2093  0.7630 -0.3474
 8409SOL    HW136863   0.658   0.500   6.630  1.1292 -0.2312 -1.6639
 8409SOL    HW236864   0.757   0.602   6.669 -0.1593  1.1620  2.4427
 8410SOL     OW36865   2.091   0.233   1.991 -0.2923  0.1366 -0.2082
 8410SOL    HW136866   2.107   0.226   2.085  2.7334 -1.4312 -0.8418
 8410SOL    HW236867   2.130   0.318   1.969  4.2835 -1.9940 -0.2988
 8411SOL     OW36868   4.691   3.889  14.710 -0.3435 -0.2487  0.7593
 8411SOL    HW136869   4.636   3.834  14.654 -0.2000  1.7279 -1.2977
 8411SOL    HW236870   4.712   3.826  14.779  0.1973 -0.9405 -0.0372
 8412SOL     OW36871   4.396   1.237   8.784  0.4262 -0.4836  0.2783
 8412SOL    HW136872   4.344   1.299   8.835  1.5153  0.4166  0.2870
 8412SOL    HW236873   4.333   1.195   8.725 -1.1949  0.5733  1.2515
 8413SOL     OW36874   2.818   3.879   0.338 -0.2525  0.0406 -0.3141
 8413SOL    HW136875   2.793   3.946   0.401  1.3536 -0.9173  1.3712
 8413SOL    HW236876   2.757   3.808   0.360 -0.8431  0.9189  0.8847
 8414SOL     OW36877   2.803   0.883  11.472  0.4790  0.3144  0.1005
 8414SOL    HW136878   2.833   0.865  11.561  0.6324  0.3750  0.0612
 8414SOL    HW236879   2.711   0.910  11.481  0.1084 -1.3181  1.0935
 8415SOL     OW36880   1.093   0.002   7.818  0.3179 -0.3177 -0.0826
 8415SOL    HW136881   1.013   4.727   7.766 -1.2172  2.2875  1.8224
 8415SOL    HW236882   1.078   4.686   7.897 -2.0638  1.1059  0.3862
 8416SOL     OW36883   3.049   0.915   5.804 -0.2385  0.0153 -0.1664
 8416SOL    HW136884   3.127   0.962   5.832  0.7185 -2.0685  0.6433
 8416SOL    HW236885   3.095   0.840   5.767 -1.5804 -0.8103 -0.1678
 8417SOL     OW36886   1.511   4.025   2.512  0.1240 -0.5367 -0.1137
 8417SOL    HW136887   1.455   4.063   2.580  1.0460 -1.1849  1.0121
 8417SOL    HW236888   1.588   3.986   2.554 -0.8393 -1.0274  1.2002
 8418SOL     OW36889   3.815   2.241   1.764 -0.0012 -0.2056  0.8219
 8418SOL    HW136890   3.811   2.332   1.735  2.1826 -0.6789 -0.9602
 8418SOL    HW236891   3.728   2.203   1.753 -0.2301  0.7984 -0.7365
 8419SOL     OW36892   3.009   2.240  14.375 -0.1738  0.2279 -0.0157
 8419SOL    HW136893   2.936   2.232  14.314  1.8494  0.3537 -2.4525
 8419SOL    HW236894   3.014   2.330  14.406  1.1617 -0.1299  0.8087
 8420SOL     OW36895   2.320   4.017   7.027  0.5566 -0.0728  0.4730
 8420SOL    HW136896   2.239   3.992   7.071  0.6542 -0.5904  0.3648
 8420SOL    HW236897   2.384   3.946   7.038 -1.4179 -1.9050 -0.0053
 8421SOL     OW36898   0.157   3.621   6.649  0.0626  0.1437 -0.4853
 8421SOL    HW136899   0.132   3.617   6.556  0.4189 -0.1769 -0.5690
 8421SOL    HW236900   0.085   3.576   6.694  0.5249  0.4477  0.5531
 8422SOL     OW36901   3.120   2.954  10.615  0.5741  0.0532 -0.2814
 8422SOL    HW136902   3.118   2.891  10.688 -1.0621 -0.6337 -0.9052
 8422SOL    HW236903   3.180   2.910  10.555 -0.6455 -0.5420 -1.0722
 8423SOL     OW36904   1.692   2.540   6.983 -0.3104 -0.0836 -0.3906
 8423SOL    HW136905   1.675   2.498   6.899  0.6399 -2.1914  0.4809
 8423SOL    HW236906   1.602   2.538   7.016  0.7146 -1.9144  2.2295
 8424SOL     OW36907   0.277   4.103   4.029 -0.4081  0.2147  0.3532
 8424SOL    HW136908   0.287   4.009   4.040 -5.1346 -0.2053  0.9014
 8424SOL    HW236909   0.246   4.122   4.118  1.5351  2.5037  0.5463
 8425SOL     OW36910   3.757   3.507   1.876  0.0894  0.2686 -0.2247
 8425SOL    HW136911   3.801   3.458   1.945 -1.1211  0.0073  0.3679
 8425SOL    HW236912   3.703   3.445   1.827  0.5883  1.4327 -2.2439
 8426SOL     OW36913   2.536   1.558   7.421  0.4484  0.2479 -0.5728
 8426SOL    HW136914   2.534   1.492   7.491  3.5650  0.6591 -0.0976
 8426SOL    HW236915   2.464   1.614   7.450 -1.3947 -0.9683 -2.8425
 8427SOL     OW36916   1.098   3.784  17.272 -0.1820  0.0375  0.2242
 8427SOL    HW136917   1.051   3.709  17.234 -2.3508  1.1623  0.6825
 8427SOL    HW236918   1.179   3.733  17.278  0.1715  0.4244 -1.3472
 8428SOL     OW36919   2.758   4.085  14.734 -0.1943 -0.6005  0.0288
 8428SOL    HW136920   2.767   4.178  14.714 -0.5914  0.0931  3.1576
 8428SOL    HW236921   2.852   4.069  14.746 -0.1852  0.1356  0.9900
 8429SOL     OW36922   1.244   3.244  10.145  0.2482  0.4733  0.6474
 8429SOL    HW136923   1.300   3.289  10.083  0.2043  0.5276  0.6472
 8429SOL    HW236924   1.171   3.305  10.154 -0.4229 -0.5213  1.9248
 8430SOL     OW36925   0.807   4.496   7.738  0.1099 -0.5224 -0.6783
 8430SOL    HW136926   0.828   4.581   7.776 -0.3118 -1.0107  0.6695
 8430SOL    HW236927   0.890   4.472   7.698  0.7362  0.7407 -0.1274
 8431SOL     OW36928   3.964   2.897  16.384 -0.2412  0.7439 -0.1452
 8431SOL    HW136929   4.025   2.872  16.454  0.5633  0.5084 -0.9382
 8431SOL    HW236930   3.877   2.877  16.420  0.3434 -3.2293 -0.9354
 8432SOL     OW36931   2.525   4.108  14.875  0.0602 -0.2908 -1.4070
 8432SOL    HW136932   2.555   4.039  14.933  0.1836  0.6481 -0.3728
 8432SOL    HW236933   2.600   4.109  14.816  1.0878  0.6316 -0.0530
 8433SOL     OW36934   4.247   3.081   3.027  0.7962 -0.3887  0.4719
 8433SOL    HW136935   4.341   3.095   3.040  0.3980  2.5576  0.1972
 8433SOL    HW236936   4.236   3.069   2.933  0.2520  1.4732  0.2928
 8434SOL     OW36937   1.185   4.640  16.788  0.0859 -0.5295  0.1948
 8434SOL    HW136938   1.199   4.585  16.711  0.5705 -0.6188  0.3439
 8434SOL    HW236939   1.098   4.610  16.813 -0.2440 -0.8360 -1.3120
 8435SOL     OW36940   0.037   3.104  15.112  1.0394  0.6441 -0.0935
 8435SOL    HW136941   4.712   3.044  15.067 -0.1322  1.4239  0.4333
 8435SOL    HW236942   0.124   3.081  15.081  0.5306  1.3954 -2.1048
 8436SOL     OW36943   2.723   0.978  11.891 -0.3671  0.2192 -0.4203
 8436SOL    HW136944   2.721   0.934  11.805  0.8570 -1.2484  0.3051
 8436SOL    HW236945   2.700   1.068  11.866  1.9910  0.8117 -0.4797
 8437SOL     OW36946   0.317   3.888  14.158  0.6858 -0.0701 -0.4628
 8437SOL    HW136947   0.246   3.904  14.096  0.2306  1.0903  0.3701
 8437SOL    HW236948   0.282   3.909  14.244  3.6977 -0.6382  0.9230
 8438SOL     OW36949   3.866   1.307   3.052 -0.5008 -0.4453 -0.1528
 8438SOL    HW136950   3.916   1.383   3.082 -2.7758 -0.1406  2.8724
 8438SOL    HW236951   3.796   1.298   3.117 -0.1204  1.8147  0.5637
 8439SOL     OW36952   3.874   4.186   2.849 -0.1343  0.0472  0.2206
 8439SOL    HW136953   3.846   4.098   2.825 -1.3409  0.6112 -0.4544
 8439SOL    HW236954   3.793   4.230   2.876 -0.8681 -0.3081 -1.4235
 8440SOL     OW36955   3.507   2.625   7.908 -0.0831 -0.1869 -0.1524
 8440SOL    HW136956   3.432   2.617   7.966  1.2053 -0.2334  1.4980
 8440SOL    HW236957   3.579   2.621   7.971 -2.3714 -3.3951  2.1965
 8441SOL     OW36958   0.328   0.660   0.232 -0.0875  0.0169  0.0153
 8441SOL    HW136959   0.285   0.714   0.298  4.4314 -0.5622  3.4650
 8441SOL    HW236960   0.341   0.579   0.283 -0.7280 -0.1502 -0.0819
 8442SOL     OW36961   3.294   1.080   2.679  0.1053  0.3225  0.1142
 8442SOL    HW136962   3.242   1.141   2.627  0.0933  0.8000  0.6879
 8442SOL    HW236963   3.261   0.991   2.666  1.2038 -0.0065 -0.4358
 8443SOL     OW36964   1.269   4.724   8.612  0.7006  0.0347  0.1247
 8443SOL    HW136965   1.219   4.721   8.694  0.3255 -0.3246 -0.1184
 8443SOL    HW236966   1.197   4.734   8.549  2.1324 -1.2594 -1.7060
 8444SOL     OW36967   1.930   3.755   6.743 -0.0050  0.2000 -0.1946
 8444SOL    HW136968   1.907   3.667   6.714  1.8788 -0.4808  0.4172
 8444SOL    HW236969   1.969   3.739   6.829  1.9572  2.1926 -0.7162
 8445SOL     OW36970   1.030   0.773   7.961 -0.1894  0.1628  0.5015
 8445SOL    HW136971   0.974   0.747   7.887  1.1401 -0.8166 -0.1682
 8445SOL    HW236972   1.009   0.865   7.975 -0.2330  0.1910  0.2604
 8446SOL     OW36973   4.496   4.267   2.946 -0.1605 -0.0610 -0.3459
 8446SOL    HW136974   4.467   4.177   2.940  1.0566 -0.4671 -0.1526
 8446SOL    HW236975   4.591   4.272   2.933  0.3616 -1.0852  3.1590
 8447SOL     OW36976   3.155   3.532  15.254  0.7828 -0.2388 -0.3013
 8447SOL    HW136977   3.092   3.591  15.295  0.4688  0.1106 -1.3000
 8447SOL    HW236978   3.117   3.523  15.167  0.6360 -3.2039  0.0556
 8448SOL     OW36979   2.456   4.563  14.304 -0.1226  0.3835  0.2552
 8448SOL    HW136980   2.501   4.517  14.375 -1.1884 -2.3829 -0.8972
 8448SOL    HW236981   2.376   4.514  14.285  0.2728 -0.9976  2.1073
 8449SOL     OW36982   1.623   2.164  16.709 -0.2759 -0.2441  0.1901
 8449SOL    HW136983   1.645   2.204  16.794  3.2963 -0.4267 -0.6585
 8449SOL    HW236984   1.635   2.235  16.646  0.6794  1.3390  2.1065
 8450SOL     OW36985   0.073   1.068   6.868  0.3166 -0.1555  0.3611
 8450SOL    HW136986   0.117   1.144   6.907  0.6119 -0.5676  0.8283
 8450SOL    HW236987   4.717   1.096   6.872  0.4878  0.6067 -1.0982
 8451SOL     OW36988   2.834   2.135   7.778 -0.2974  0.0802  0.2729
 8451SOL    HW136989   2.875   2.196   7.840  0.5848 -1.1144  0.8461
 8451SOL    HW236990   2.748   2.178   7.776  0.2293  1.1273 -0.6214
 8452SOL     OW36991   2.405   4.607   3.363  0.5150  0.1603  0.1486
 8452SOL    HW136992   2.405   4.512   3.351 -1.0483  0.0026  1.4473
 8452SOL    HW236993   2.476   4.607   3.427 -0.2445 -1.2446  0.9882
 8453SOL     OW36994   4.128   2.041  15.157  0.2134  0.4376  0.4243
 8453SOL    HW136995   4.211   2.086  15.173  1.3142 -0.9903 -1.2143
 8453SOL    HW236996   4.094   2.096  15.087  0.1252  3.2720  2.6904
 8454SOL     OW36997   3.444   2.100   5.297  0.1571 -0.5424 -0.1941
 8454SOL    HW136998   3.475   2.162   5.232 -0.0944  1.2399  1.3968
 8454SOL    HW236999   3.387   2.155   5.350 -1.7753 -1.8475 -0.9337
 8455SOL     OW37000   1.540   2.921   4.406 -0.0652 -0.4229  0.2119
 8455SOL    HW137001   1.514   2.965   4.487  0.9900 -0.1097  0.3754
 8455SOL    HW237002   1.473   2.953   4.345 -1.6543 -1.5853  1.3503
 8456SOL     OW37003   3.808   3.718   5.955  0.2908 -0.0199  0.3968
 8456SOL    HW137004   3.869   3.771   5.903 -0.2897  1.5828  1.3407
 8456SOL    HW237005   3.729   3.751   5.913  0.6997  1.9775  1.1564
 8457SOL     OW37006   1.769   2.232   0.591 -0.2123  0.4397  0.5204
 8457SOL    HW137007   1.724   2.259   0.671 -0.7616  1.5295 -0.1652
 8457SOL    HW237008   1.769   2.303   0.527 -0.1927  0.6163  0.7177
 8458SOL     OW37009   4.629   4.707   1.543  0.0268 -0.4401 -0.1607
 8458SOL    HW137010   4.663   0.036   1.481  1.7905 -1.8002 -0.5719
 8458SOL    HW237011   4.705   4.652   1.557 -0.9169 -1.2199  1.8890
 8459SOL     OW37012   0.853   1.721   3.364  0.2710  0.1287  0.0453
 8459SOL    HW137013   0.873   1.630   3.388 -2.3446 -0.7300 -1.1054
 8459SOL    HW237014   0.943   1.752   3.360  0.5201 -0.6125 -0.1868
 8460SOL     OW37015   2.578   2.730   5.982  0.5705 -0.5975  0.1905
 8460SOL    HW137016   2.659   2.682   5.962  0.5063  0.1744 -1.9350
 8460SOL    HW237017   2.601   2.815   5.945 -2.2003  0.0488 -0.0503
 8461SOL     OW37018   0.439   4.115   3.334  0.0947 -0.2003 -0.0186
 8461SOL    HW137019   0.486   4.182   3.384  1.1620  0.0826 -1.3968
 8461SOL    HW237020   0.475   4.129   3.246 -0.8585  1.4710 -0.1418
 8462SOL     OW37021   2.730   2.286   3.602 -0.8262  0.0386 -0.3110
 8462SOL    HW137022   2.778   2.250   3.677 -0.1523 -0.6552 -1.0838
 8462SOL    HW237023   2.694   2.368   3.638 -1.1413 -0.2227 -0.0307
 8463SOL     OW37024   1.588   3.485  14.713  0.5090  0.2988 -0.3272
 8463SOL    HW137025   1.524   3.545  14.674 -1.7861 -2.9657 -1.5960
 8463SOL    HW237026   1.594   3.424  14.639  1.5029  0.6598 -0.5489
 8464SOL     OW37027   3.485   1.605  10.464 -0.3663  0.0778  0.2610
 8464SOL    HW137028   3.531   1.527  10.435  1.1365 -0.2826  3.6211
 8464SOL    HW237029   3.525   1.632  10.547 -1.6797 -2.9692  1.8727
 8465SOL     OW37030   0.870   1.877   9.089 -0.0650  0.1413 -0.2454
 8465SOL    HW137031   0.801   1.869   9.155  0.0117 -0.0187 -0.1822
 8465SOL    HW237032   0.933   1.829   9.143  1.8372  2.1809 -0.6477
 8466SOL     OW37033   1.616   2.626  13.654 -0.2419 -0.1236  0.2865
 8466SOL    HW137034   1.697   2.599  13.696 -0.9658 -2.6701  0.0374
 8466SOL    HW237035   1.556   2.564  13.696 -0.2327  0.6705  1.4916
 8467SOL     OW37036   4.514   3.527  11.370 -0.3626 -0.3909 -0.4931
 8467SOL    HW137037   4.558   3.563  11.447  0.9186 -3.2788  0.0922
 8467SOL    HW237038   4.461   3.465  11.420  0.9888 -1.4020 -0.3159
 8468SOL     OW37039   3.103   1.074   3.011  0.2613  0.3266  0.2222
 8468SOL    HW137040   3.068   1.127   3.083 -1.1242  0.4950 -0.5813
 8468SOL    HW237041   3.058   1.097   2.930  0.9875  1.4482  0.1251
 8469SOL     OW37042   4.285   0.418   5.730  1.0505 -0.7435  0.6091
 8469SOL    HW137043   4.371   0.446   5.761  1.6812 -2.5794  0.4898
 8469SOL    HW237044   4.278   0.489   5.665  0.5343 -0.9982  0.3893
 8470SOL     OW37045   3.934   3.657   2.810  0.6697  0.2113  0.5615
 8470SOL    HW137046   3.912   3.613   2.892  0.2528  0.0210  0.3456
 8470SOL    HW237047   3.922   3.582   2.752  2.8371  2.5406 -2.8779
 8471SOL     OW37048   1.453   1.061  10.591 -0.1071  0.5208  0.0235
 8471SOL    HW137049   1.522   1.122  10.615 -0.4339  0.3341  1.4554
 8471SOL    HW237050   1.456   1.070  10.496 -0.2416  0.7267  0.0390
 8472SOL     OW37051   0.961   4.396  10.948 -0.1767  0.1777  0.2665
 8472SOL    HW137052   0.929   4.430  11.031 -0.2334  1.0210 -0.1033
 8472SOL    HW237053   1.035   4.453  10.930  0.8111 -0.7241  1.4154
 8473SOL     OW37054   3.155   1.943   9.733  0.1546 -0.0767 -0.2925
 8473SOL    HW137055   3.105   1.993   9.669 -0.4639  0.9730  1.0089
 8473SOL    HW237056   3.108   1.975   9.810 -0.2024 -2.2714  0.4020
 8474SOL     OW37057   3.573   2.131   2.322  0.2267 -0.4234 -0.1990
 8474SOL    HW137058   3.505   2.096   2.264 -0.8667  1.6718 -0.1902
 8474SOL    HW237059   3.627   2.055   2.343  0.9802  0.5282  1.3149
 8475SOL     OW37060   4.618   0.645   3.654  0.2756  0.5350  0.2338
 8475SOL    HW137061   4.694   0.662   3.711  0.6115  1.9642 -0.6322
 8475SOL    HW237062   4.655   0.622   3.569  0.2794  0.7520  0.1764
 8476SOL     OW37063   1.453   2.938   3.310 -0.8229  0.0186  0.0708
 8476SOL    HW137064   1.460   2.889   3.392 -0.4425  0.4733  0.3104
 8476SOL    HW237065   1.407   3.019   3.335  0.8576  1.1373 -0.4584
 8477SOL     OW37066   3.001   1.994   9.503 -0.3279  0.0959 -0.8536
 8477SOL    HW137067   2.945   2.067   9.475  0.2423  0.8888  0.0846
 8477SOL    HW237068   2.935   1.926   9.518 -0.4084  0.3567 -0.0052
 8478SOL     OW37069   4.670   2.220   6.703  0.1921  0.3452  0.0053
 8478SOL    HW137070   4.735   2.252   6.767 -0.5422 -1.1649  1.5062
 8478SOL    HW237071   4.731   2.207   6.630  0.3831 -0.6769  0.3439
 8479SOL     OW37072   3.475   1.200   3.159  0.3030 -0.0163  0.6414
 8479SOL    HW137073   3.411   1.175   3.092 -0.7008  0.3656  1.4670
 8479SOL    HW237074   3.483   1.114   3.199  1.3136 -0.6136 -0.8341
 8480SOL     OW37075   0.820   1.912  17.480 -0.5405  0.2275 -0.7502
 8480SOL    HW137076   0.726   1.896  17.482 -0.3292 -1.1151 -1.1637
 8480SOL    HW237077   0.840   1.899  17.387  0.0264  1.1059 -0.7497
 8481SOL     OW37078   1.514   0.067   0.223  0.3019 -0.1974  0.1829
 8481SOL    HW137079   1.454   4.731   0.202  0.9341 -0.9608  1.0098
 8481SOL    HW237080   1.454   0.142   0.228 -1.9915 -2.0534  0.7067
 8482SOL     OW37081   0.935   2.626   5.275 -0.2386 -0.3032 -0.3038
 8482SOL    HW137082   0.948   2.669   5.359  0.5856  3.3269 -2.2429
 8482SOL    HW237083   0.881   2.553   5.304  0.4409 -1.1003 -1.0225
 8483SOL     OW37084   2.119   3.204   7.338 -0.4261  0.0620  0.3242
 8483SOL    HW137085   2.162   3.257   7.406  0.7021 -0.2625 -0.1455
 8483SOL    HW237086   2.189   3.148   7.304  0.1289  0.0659  1.4357
 8484SOL     OW37087   2.366   1.114  13.308 -0.4442 -0.4604  0.6176
 8484SOL    HW137088   2.341   1.193  13.261 -1.9252 -1.4517 -0.2483
 8484SOL    HW237089   2.461   1.118  13.296 -0.3661  0.5812  1.6448
 8485SOL     OW37090   4.597   0.878   3.235  0.0611 -0.0531 -0.5120
 8485SOL    HW137091   4.553   0.884   3.319  0.1954  0.0170 -0.4462
 8485SOL    HW237092   4.561   0.945   3.177 -0.1522 -1.2218 -1.7512
 8486SOL     OW37093   3.978   1.697   9.440  0.6387  0.3720  0.0779
 8486SOL    HW137094   4.034   1.761   9.396  0.4832  0.4431 -0.0190
 8486SOL    HW237095   4.037   1.622   9.439  2.4408  1.7798  0.5203
 8487SOL     OW37096   1.690   3.404   8.309 -0.2794  0.6075  0.5572
 8487SOL    HW137097   1.631   3.332   8.333  2.3666 -1.6657  0.2199
 8487SOL    HW237098   1.761   3.400   8.374 -1.3564 -0.6034  1.6745
 8488SOL     OW37099   1.157   3.290  13.079  0.5012  0.0215  0.5117
 8488SOL    HW137100   1.097   3.218  13.065 -0.4185  1.0876 -1.1702
 8488SOL    HW237101   1.195   3.291  12.991 -0.3797  1.0221  0.1404
 8489SOL     OW37102   0.893   0.343   9.018  0.0619  0.6440  0.2432
 8489SOL    HW137103   0.980   0.352   8.979  0.1051 -1.8108 -0.2254
 8489SOL    HW237104   0.916   0.388   9.099 -0.9353 -3.9525  3.1269
 8490SOL     OW37105   2.965   0.361   9.160  0.6824  0.1130  0.5125
 8490SOL    HW137106   2.965   0.445   9.113 -3.8545 -1.2635 -1.9781
 8490SOL    HW237107   3.055   0.333   9.142  0.6223  1.2388 -1.6225
 8491SOL     OW37108   3.326   4.105  16.025  0.1974  0.2436 -0.1513
 8491SOL    HW137109   3.246   4.156  16.040 -0.6312 -1.1465  0.2236
 8491SOL    HW237110   3.328   4.121  15.931 -0.4454  1.4154  0.0393
 8492SOL     OW37111   1.990   4.265  15.115  0.3460 -1.0466  0.0061
 8492SOL    HW137112   1.962   4.262  15.207 -0.0662  0.9144 -0.0576
 8492SOL    HW237113   1.940   4.342  15.088 -0.0737 -1.4937 -0.4960
 8493SOL     OW37114   4.331   1.707   1.662 -0.5490 -0.0742 -0.0354
 8493SOL    HW137115   4.335   1.686   1.755  1.9377 -0.1509 -0.1778
 8493SOL    HW237116   4.278   1.787   1.655 -2.6200 -1.2037  2.6642
 8494SOL     OW37117   3.536   1.487   2.252  0.0458 -0.5940  0.4912
 8494SOL    HW137118   3.586   1.523   2.179 -1.4864  1.9499  0.7300
 8494SOL    HW237119   3.597   1.516   2.319  0.8953 -0.4100 -0.3574
 8495SOL     OW37120   1.074   4.717   8.397  0.3596  0.3134  0.3404
 8495SOL    HW137121   0.994   0.030   8.378  1.4877  0.9529 -2.7710
 8495SOL    HW237122   1.052   4.626   8.376  0.7447  0.4044 -0.4482
 8496SOL     OW37123   1.655   1.051   5.871 -0.8716  0.6067  0.0856
 8496SOL    HW137124   1.697   0.965   5.876 -0.1793  1.0931  2.6105
 8496SOL    HW237125   1.583   1.035   5.809 -1.3119  1.4216  0.3842
 8497SOL     OW37126   1.632   0.830   6.910  0.1412 -0.0827 -0.8325
 8497SOL    HW137127   1.566   0.893   6.939  1.0354  1.2250 -1.6798
 8497SOL    HW237128   1.637   0.856   6.819  0.6717  0.9908 -0.4901
 8498SOL     OW37129   1.685   3.954   2.073 -0.1802  0.8568  0.2213
 8498SOL    HW137130   1.605   3.937   2.122 -1.2752 -0.5799 -2.1010
 8498SOL    HW237131   1.748   3.962   2.144 -0.2388  1.4397  0.2110
 8499SOL     OW37132   0.843   1.203   3.167  0.2816  0.1410 -0.0220
 8499SOL    HW137133   0.922   1.245   3.200  0.6147 -2.6494  2.7327
 8499SOL    HW237134   0.876   1.117   3.143  3.4764  0.7448  2.2237
 8500SOL     OW37135   0.651   2.226   3.865 -0.2057 -0.1450  0.3934
 8500SOL    HW137136   0.634   2.216   3.772  0.7568  0.8687  0.1074
 8500SOL    HW237137   0.626   2.319   3.870 -0.7472 -0.3647  1.9197
 8501SOL     OW37138   4.637   4.474   4.699 -0.0937  0.3310  0.6761
 8501SOL    HW137139   4.700   4.545   4.713 -0.1909  0.3676  0.9437
 8501SOL    HW237140   4.621   4.452   4.791 -3.2052 -0.4742 -0.0491
 8502SOL     OW37141   0.723   3.187   6.163 -0.5025 -0.5705  0.0582
 8502SOL    HW137142   0.741   3.267   6.213  0.4489  0.5927 -2.1410
 8502SOL    HW237143   0.642   3.152   6.200 -2.9454  4.2159 -0.8473
 8503SOL     OW37144   0.317   3.302  13.466  0.1544  0.5280 -0.1556
 8503SOL    HW137145   0.281   3.215  13.481 -1.7858  1.7128  1.9505
 8503SOL    HW237146   0.266   3.331  13.390  0.0756 -0.7715 -0.5964
 8504SOL     OW37147   3.502   1.886   8.912 -0.2592  0.3574 -0.5038
 8504SOL    HW137148   3.437   1.840   8.965 -1.7057 -0.1142 -2.7319
 8504SOL    HW237149   3.531   1.811   8.861 -0.5859  0.5946 -1.0368
 8505SOL     OW37150   4.476   1.172   9.744  0.0189 -0.0682  0.2817
 8505SOL    HW137151   4.556   1.210   9.781 -0.4441  1.8465 -0.6755
 8505SOL    HW237152   4.482   1.086   9.787  0.6056 -0.5710 -0.8033
 8506SOL     OW37153   4.658   3.970   7.799 -0.6065 -0.1267  0.1177
 8506SOL    HW137154   4.630   4.033   7.733  0.6424 -2.2666 -2.4622
 8506SOL    HW237155   0.018   3.982   7.797 -0.6941  0.4657 -0.3578
 8507SOL     OW37156   2.895   3.619   2.340  0.6081 -0.5628 -0.2110
 8507SOL    HW137157   2.801   3.609   2.350  0.8507 -0.5072  2.1462
 8507SOL    HW237158   2.928   3.568   2.414 -2.0936  0.9683  2.0289
 8508SOL     OW37159   4.205   1.277   2.726  0.0273  0.4191 -0.2897
 8508SOL    HW137160   4.263   1.211   2.765  0.1837  0.0998 -1.0553
 8508SOL    HW237161   4.245   1.349   2.774  1.7537 -0.5819 -0.2081
 8509SOL     OW37162   1.533   1.281  11.883 -0.1379 -0.1807 -0.0186
 8509SOL    HW137163   1.574   1.267  11.797 -2.3285  1.8473 -1.3711
 8509SOL    HW237164   1.617   1.286  11.930  0.2768 -0.8961 -0.6685
 8510SOL     OW37165   1.489   1.104   6.891 -0.2225  0.0063 -0.7276
 8510SOL    HW137166   1.569   1.157   6.896 -0.9681  1.0700  0.1333
 8510SOL    HW237167   1.441   1.158   6.829  0.3780 -0.7006 -1.7978
 8511SOL     OW37168   1.001   0.335   6.983 -0.1803  0.3069 -0.5863
 8511SOL    HW137169   1.046   0.416   6.960  0.3116  0.5492  1.2250
 8511SOL    HW237170   0.970   0.360   7.070  3.7865  2.0792  0.2845
 8512SOL     OW37171   4.426   0.818   1.806  0.1429  0.0009 -0.7423
 8512SOL    HW137172   4.383   0.892   1.764  2.2919 -0.2916 -3.4884
 8512SOL    HW237173   4.489   0.794   1.738 -0.2729 -1.8497 -0.4814
 8513SOL     OW37174   4.023   0.591   7.127 -0.4716 -0.2485 -0.2662
 8513SOL    HW137175   3.978   0.534   7.064  0.4926 -1.8445  0.4951
 8513SOL    HW237176   4.049   0.665   7.072  1.2884  1.0549  2.3272
 8514SOL     OW37177   0.718   1.889   4.133  0.4876 -0.2502  0.4798
 8514SOL    HW137178   0.681   1.819   4.187  0.1608  1.8535  2.9802
 8514SOL    HW237179   0.636   1.925   4.101  1.5928  0.7391 -1.2338
 8515SOL     OW37180   3.397   2.770   4.210 -0.0330  0.0695 -0.0261
 8515SOL    HW137181   3.346   2.697   4.245  0.0694  1.0999  2.2622
 8515SOL    HW237182   3.487   2.740   4.219 -0.0381  0.4176  1.1089
 8516SOL     OW37183   0.634   1.692   3.181  0.0877  0.7171 -0.0794
 8516SOL    HW137184   0.713   1.669   3.229  0.4179 -0.8194 -1.3547
 8516SOL    HW237185   0.615   1.784   3.198  2.2723  1.3346 -0.8390
 8517SOL     OW37186   1.760   2.296   5.894 -0.2043 -0.4100 -0.3276
 8517SOL    HW137187   1.686   2.281   5.952 -0.7492 -0.1788 -0.9651
 8517SOL    HW237188   1.774   2.389   5.914 -2.3298 -0.1548 -0.0198
 8518SOL     OW37189   0.086   2.720   4.341  0.0659  0.8280 -0.2407
 8518SOL    HW137190   0.096   2.665   4.264  1.3729 -0.5231  0.9180
 8518SOL    HW237191   0.093   2.806   4.298  0.2308  0.0587 -1.7542
 8519SOL     OW37192   3.309   2.478   8.699  0.2223  0.3630  0.0158
 8519SOL    HW137193   3.228   2.469   8.749 -0.7139  0.5759 -1.4475
 8519SOL    HW237194   3.319   2.569   8.726  0.2468  0.6787 -1.0612
 8520SOL     OW37195   0.890   0.155   8.823 -0.2500  0.5216 -0.4481
 8520SOL    HW137196   0.912   0.227   8.881  1.8424 -0.1084 -0.4586
 8520SOL    HW237197   0.812   0.188   8.779 -0.4142  1.0910  0.2865
 8521SOL     OW37198   3.280   0.499  13.172  0.2668  0.3360 -0.6678
 8521SOL    HW137199   3.251   0.414  13.207 -1.6392  0.4253 -2.0442
 8521SOL    HW237200   3.204   0.542  13.133 -1.7655 -2.7164 -0.0992
 8522SOL     OW37201   4.333   2.527   2.488  0.5365 -0.2155 -0.2431
 8522SOL    HW137202   4.401   2.465   2.462  0.6101 -1.3312  2.6131
 8522SOL    HW237203   4.287   2.534   2.405 -0.6273  0.0728  0.4208
 8523SOL     OW37204   3.600   2.799   9.303  0.2641  0.1512  0.3658
 8523SOL    HW137205   3.647   2.870   9.346 -0.0528  0.7906 -0.3622
 8523SOL    HW237206   3.557   2.746   9.371 -0.5550  0.8797  0.4100
 8524SOL     OW37207   3.596   3.611  13.728 -0.2670  0.0198  0.1682
 8524SOL    HW137208   3.523   3.666  13.699  0.4854  1.4889  1.0457
 8524SOL    HW237209   3.562   3.522  13.718 -0.7289 -0.0637  2.4618
 8525SOL     OW37210   3.958   3.802   7.020 -0.0720 -0.0591 -0.2519
 8525SOL    HW137211   3.982   3.866   7.087  0.7817  0.0488 -0.6558
 8525SOL    HW237212   4.042   3.785   6.978 -0.0679 -1.4467  0.3105
 8526SOL     OW37213   1.438   2.097   5.417 -0.2852 -0.4240 -0.3447
 8526SOL    HW137214   1.458   2.068   5.328  1.1084 -0.1292 -0.1285
 8526SOL    HW237215   1.349   2.129   5.407 -0.6325 -1.5059 -0.6623
 8527SOL     OW37216   1.157   0.137   1.139 -0.0380  0.0981 -0.1393
 8527SOL    HW137217   1.181   0.220   1.180 -1.9306  0.2813  0.5926
 8527SOL    HW237218   1.099   0.162   1.068 -0.9535 -1.9408 -0.1090
 8528SOL     OW37219   0.567   1.898   8.957  0.4795 -0.2442 -0.6137
 8528SOL    HW137220   0.652   1.861   8.936  1.9635  1.4883  2.3631
 8528SOL    HW237221   0.545   1.943   8.875 -0.0215 -0.3485 -0.5361
 8529SOL     OW37222   1.366   0.254   8.359 -0.7464  0.8438  0.0184
 8529SOL    HW137223   1.285   0.226   8.402 -0.9172  0.2781 -0.6640
 8529SOL    HW237224   1.359   0.349   8.353 -0.1347  0.9011  0.2157
 8530SOL     OW37225   4.079   2.183   0.451  0.0498  0.4452 -0.3067
 8530SOL    HW137226   4.151   2.125   0.427 -0.1396 -0.1492  0.5636
 8530SOL    HW237227   4.124   2.268   0.453 -0.8600  0.9230 -0.3495
 8531SOL     OW37228   2.487   4.131  14.576 -0.2455 -0.2638  0.0081
 8531SOL    HW137229   2.515   4.040  14.569  0.8460  0.0476  0.2658
 8531SOL    HW237230   2.432   4.138  14.653  1.3920  1.3275  1.0337
 8532SOL     OW37231   3.035   3.286   3.475  0.1955  0.0999  0.0939
 8532SOL    HW137232   3.120   3.277   3.518 -0.4473  0.9630  1.5581
 8532SOL    HW237233   3.062   3.292   3.384 -2.6193 -0.7142 -0.8000
 8533SOL     OW37234   2.995   2.640  10.314 -0.6379 -0.1938  0.1636
 8533SOL    HW137235   3.023   2.730  10.301  0.9392 -0.5937  0.6728
 8533SOL    HW237236   3.060   2.603  10.375  2.1393  2.1489 -1.4093
 8534SOL     OW37237   0.461   2.505   3.711 -0.0754  0.2335  0.8095
 8534SOL    HW137238   0.365   2.511   3.703 -0.1135  0.4853  1.5531
 8534SOL    HW237239   0.486   2.543   3.627  1.4787 -2.3609  0.0977
 8535SOL     OW37240   2.726   2.929   5.827 -0.0609  0.2832  0.2933
 8535SOL    HW137241   2.796   2.979   5.783 -2.2799  2.4391 -0.7880
 8535SOL    HW237242   2.765   2.924   5.914  0.0928  0.6805  0.2449
 8536SOL     OW37243   2.158   1.547   1.858 -0.0193  0.1656  0.8871
 8536SOL    HW137244   2.069   1.541   1.822 -0.2312  1.8295  1.1675
 8536SOL    HW237245   2.190   1.461   1.831 -0.2145  0.4218 -0.1370
 8537SOL     OW37246   2.224   4.120   0.557  0.1074 -0.3656 -0.1464
 8537SOL    HW137247   2.315   4.093   0.569  1.0807  2.1844 -2.0839
 8537SOL    HW237248   2.208   4.093   0.467  0.5394 -1.9935  0.2488
 8538SOL     OW37249   4.530   1.266  10.625 -0.2720  0.5699 -0.0428
 8538SOL    HW137250   4.472   1.196  10.658  0.8919 -1.0276 -1.4125
 8538SOL    HW237251   4.607   1.258  10.681 -0.7494 -0.4806  0.4800
 8539SOL     OW37252   0.221   1.619   6.240  0.3333 -0.0423  0.5363
 8539SOL    HW137253   0.147   1.565   6.267  0.6697 -0.3147  0.9176
 8539SOL    HW237254   0.224   1.689   6.304  1.0086 -0.9172  1.4697
 8540SOL     OW37255   1.694   3.646   4.988  0.5019  0.5482 -0.3670
 8540SOL    HW137256   1.731   3.558   4.992  1.1258  0.8037 -0.6118
 8540SOL    HW237257   1.644   3.656   5.069 -0.4510 -1.9632 -0.6510
 8541SOL     OW37258   1.896   4.507  13.013 -0.3774  0.1924  0.2414
 8541SOL    HW137259   1.962   4.567  12.977  1.0824 -0.9051  1.0926
 8541SOL    HW237260   1.886   4.546  13.099  2.0426 -0.7040  0.9325
 8542SOL     OW37261   4.023   0.520   8.717  0.1173 -0.2143 -0.2417
 8542SOL    HW137262   4.067   0.446   8.676  2.1964  1.3470 -0.8412
 8542SOL    HW237263   3.951   0.471   8.756 -1.6415  2.1954 -0.4615
 8543SOL     OW37264   4.597   0.617  10.361  0.0758  0.4706 -0.1634
 8543SOL    HW137265   4.575   0.524  10.355 -0.1820  0.5681 -0.7437
 8543SOL    HW237266   4.688   0.615  10.334 -0.2747  1.9535 -1.4899
 8544SOL     OW37267   1.413   1.088   1.669 -0.4850 -0.2716 -0.1783
 8544SOL    HW137268   1.377   1.141   1.598  1.8725  3.0851  1.1070
 8544SOL    HW237269   1.496   1.128   1.695 -1.0765  1.0762 -0.3889
 8545SOL     OW37270   4.193   3.883  11.437 -0.4918  0.2793  0.0301
 8545SOL    HW137271   4.263   3.921  11.383 -0.8823  0.6215 -0.2287
 8545SOL    HW237272   4.157   3.814  11.382 -0.5543  0.6325 -0.3637
 8546SOL     OW37273   3.143   0.092   7.825 -0.1500 -0.6582  0.3460
 8546SOL    HW137274   3.092   0.076   7.746  0.1498  0.5992 -0.1034
 8546SOL    HW237275   3.152   0.187   7.828 -2.3382 -0.4875  1.1843
 8547SOL     OW37276   2.653   3.278   1.400  0.6470 -0.3366 -0.3399
 8547SOL    HW137277   2.600   3.201   1.423  1.1141 -0.5677 -0.0376
 8547SOL    HW237278   2.743   3.246   1.396 -0.5723 -3.7483 -0.7391
 8548SOL     OW37279   4.469   4.671  15.975 -0.1983  0.2997 -0.2143
 8548SOL    HW137280   4.540   4.610  15.994  1.0341  1.5131 -0.9297
 8548SOL    HW237281   4.527   0.009  15.955  1.4758 -2.3792 -5.0221
 8549SOL     OW37282   2.816   1.348  10.764 -0.3658  1.0081 -0.1092
 8549SOL    HW137283   2.783   1.437  10.748 -1.3962  0.6725  0.1699
 8549SOL    HW237284   2.911   1.356  10.754 -0.1164 -1.7924 -0.0033
 8550SOL     OW37285   1.056   2.111   3.204  0.2257  0.1079 -0.2429
 8550SOL    HW137286   1.068   2.141   3.295  1.9104 -3.2575  0.6545
 8550SOL    HW237287   1.065   2.016   3.217 -3.1553 -0.1673 -0.0571
 8551SOL     OW37288   0.806   4.656   2.453 -0.1665 -0.3389 -0.3335
 8551SOL    HW137289   0.862   4.592   2.496 -1.6537 -1.4107  0.0005
 8551SOL    HW237290   0.753   4.667   2.532 -0.4395  2.0865 -0.8579
 8552SOL     OW37291   0.186   4.369   6.786  0.0270 -0.1775 -0.0914
 8552SOL    HW137292   0.201   4.463   6.796 -3.6867  0.4291 -0.1872
 8552SOL    HW237293   0.159   4.371   6.694 -0.2087 -3.1476 -0.0937
 8553SOL     OW37294   2.408   2.853   1.278 -0.0586  0.7721 -0.3055
 8553SOL    HW137295   2.352   2.792   1.326  0.5005  0.8280  0.4128
 8553SOL    HW237296   2.371   2.935   1.314  0.3649  0.4069  0.9730
 8554SOL     OW37297   4.341   4.725   7.740  0.1632 -0.2282  0.2973
 8554SOL    HW137298   4.366   4.672   7.664 -1.6689 -1.5583  0.6230
 8554SOL    HW237299   4.331   0.077   7.704 -0.1615 -0.1497  0.5748
 8555SOL     OW37300   0.059   3.653   7.421  0.0706  0.3267  0.3727
 8555SOL    HW137301   4.712   3.643   7.373 -0.6486  1.3691  1.3870
 8555SOL    HW237302   0.045   3.747   7.421 -1.8866  0.0185 -2.2231
 8556SOL     OW37303   4.676   1.149   0.659  0.4630 -0.4826  0.1607
 8556SOL    HW137304   4.706   1.206   0.730 -1.3665  0.5551  0.1011
 8556SOL    HW237305   4.591   1.113   0.683 -0.8953  2.6925  0.0914
 8557SOL     OW37306   4.598   2.724   3.022  0.0726 -0.0608  0.4605
 8557SOL    HW137307   4.504   2.712   3.008  0.1863  0.5704 -0.7765
 8557SOL    HW237308   4.617   2.803   2.973 -0.4401 -1.0402 -1.3279
 8558SOL     OW37309   0.278   1.672   0.677 -0.2655  0.2448  0.0742
 8558SOL    HW137310   0.237   1.585   0.672  1.2479 -0.4386 -0.4607
 8558SOL    HW237311   0.298   1.666   0.770  0.9712  0.5659 -0.1661
 8559SOL     OW37312   1.748   0.061  14.540 -0.3966  0.7733 -0.4459
 8559SOL    HW137313   1.735   0.145  14.585  0.0326  2.3542 -3.2657
 8559SOL    HW237314   1.841   0.062  14.521 -0.1213 -0.3128  0.8529
 8560SOL     OW37315   3.266   3.754  10.147  0.2427  0.3355  0.1680
 8560SOL    HW137316   3.219   3.756  10.063 -0.3515 -0.3187  0.4831
 8560SOL    HW237317   3.193   3.733  10.205  0.1062 -1.5962 -0.6940
 8561SOL     OW37318   3.660   3.478   4.940  0.2518 -0.0110  0.5293
 8561SOL    HW137319   3.726   3.426   4.987 -0.7302 -1.1868  0.6047
 8561SOL    HW237320   3.637   3.429   4.861 -0.7011  0.1920  0.6812
 8562SOL     OW37321   4.267   2.958   8.902  0.0769  0.3413  0.3693
 8562SOL    HW137322   4.297   2.882   8.853 -0.2166  0.4509  0.0202
 8562SOL    HW237323   4.216   2.917   8.972 -2.5835 -1.2743 -2.4806
 8563SOL     OW37324   0.269   1.472   7.456 -0.0210 -0.2947  0.1069
 8563SOL    HW137325   0.249   1.565   7.471  1.0110 -0.0270 -0.1776
 8563SOL    HW237326   0.287   1.478   7.362 -0.2500 -0.7365  0.0340
 8564SOL     OW37327   2.116   2.463  17.593  0.1312 -0.5587  0.3172
 8564SOL    HW137328   2.181   2.399  17.561 -1.6455 -2.5903  0.7794
 8564SOL    HW237329   2.171   2.506  17.659  0.4318  0.2698 -0.4752
 8565SOL     OW37330   0.674   2.466  17.142  0.3900  0.1252 -0.3450
 8565SOL    HW137331   0.758   2.475  17.188  1.1257 -0.8994 -1.4521
 8565SOL    HW237332   0.656   2.558  17.124 -0.4670  0.2455  1.2111
 8566SOL     OW37333   3.749   1.160   4.012  0.2782  0.0276 -0.7817
 8566SOL    HW137334   3.678   1.103   4.042 -0.3536  1.2390 -0.0003
 8566SOL    HW237335   3.814   1.090   4.020 -0.3065 -0.4558 -0.2878
 8567SOL     OW37336   2.531   1.125   1.565  0.2475 -0.2211 -0.0125
 8567SOL    HW137337   2.578   1.069   1.627 -0.9270 -0.2527  0.8529
 8567SOL    HW237338   2.544   1.211   1.606 -0.8589 -0.2202  0.3405
 8568SOL     OW37339   3.916   3.866  11.118 -0.5040  0.3154 -0.0012
 8568SOL    HW137340   4.002   3.834  11.144  0.6993  0.5894 -3.7082
 8568SOL    HW237341   3.855   3.810  11.167 -0.4683 -0.2126 -0.5657
 8569SOL     OW37342   2.993   4.292  12.530 -0.2720 -0.1353 -0.2633
 8569SOL    HW137343   2.954   4.210  12.499 -0.0679 -1.2307  2.3413
 8569SOL    HW237344   2.924   4.357  12.517  0.1892  0.5065  0.5074
 8570SOL     OW37345   1.147   3.642   2.401 -0.4442 -0.4223  0.0146
 8570SOL    HW137346   1.115   3.605   2.483  1.2692 -0.1939  0.7921
 8570SOL    HW237347   1.199   3.714   2.436  1.1412 -2.7396  2.3782
 8571SOL     OW37348   0.575   2.794  16.624  0.3681  0.2287  0.4346
 8571SOL    HW137349   0.546   2.880  16.596 -2.9056 -0.4286  1.8019
 8571SOL    HW237350   0.664   2.794  16.590 -0.0283  3.2794 -0.5590
 8572SOL     OW37351   2.273   0.071   7.613 -0.1825 -0.0947 -0.6681
 8572SOL    HW137352   2.236   4.719   7.611 -2.3096  0.8301 -0.9570
 8572SOL    HW237353   2.350   0.041   7.663 -0.3190  0.7980  0.0997
 8573SOL     OW37354   4.697   1.273  15.280  0.6471 -0.8559  0.1545
 8573SOL    HW137355   4.710   1.201  15.218  1.1755 -0.5418 -0.0989
 8573SOL    HW237356   0.025   1.334  15.240 -1.1205  1.6252  1.1435
 8574SOL     OW37357   1.653   4.492   6.642  0.3579 -0.3153 -0.2770
 8574SOL    HW137358   1.632   4.562   6.581  0.9362  0.9096  0.9293
 8574SOL    HW237359   1.667   4.538   6.725  1.1392  0.0887 -0.6303
 8575SOL     OW37360   1.413   2.255   5.851  0.0255 -0.0774 -0.2216
 8575SOL    HW137361   1.484   2.208   5.808  0.1016 -1.4159  1.3456
 8575SOL    HW237362   1.429   2.339   5.808  1.1913 -0.3139 -0.2338
 8576SOL     OW37363   4.713   0.338   3.463 -0.1799 -0.5156  0.2075
 8576SOL    HW137364   4.655   0.357   3.389 -0.0103 -1.1655 -0.0881
 8576SOL    HW237365   0.031   0.417   3.458 -1.3703  0.2818 -0.0613
 8577SOL     OW37366   2.196   1.806   9.576 -0.2663 -0.4087  0.3795
 8577SOL    HW137367   2.291   1.808   9.560 -0.6046  1.1886 -1.3522
 8577SOL    HW237368   2.195   1.774   9.667 -1.5189 -0.6472  0.2763
 8578SOL     OW37369   0.570   1.412   9.184  0.4970 -0.4329 -0.3381
 8578SOL    HW137370   0.533   1.360   9.256 -0.5145 -1.3269 -1.5013
 8578SOL    HW237371   0.487   1.413   9.136 -0.4556 -0.6769  1.2897
 8579SOL     OW37372   2.130   2.609   3.370  0.1388  0.5178 -0.7768
 8579SOL    HW137373   2.106   2.519   3.348  0.5020  0.6279 -1.6060
 8579SOL    HW237374   2.065   2.632   3.437  2.0290  0.8532  0.9217
 8580SOL     OW37375   0.516   0.862   7.779 -0.4027 -0.0361  0.5105
 8580SOL    HW137376   0.481   0.905   7.856 -0.4676 -0.9169  0.9746
 8580SOL    HW237377   0.513   0.937   7.720  2.2743  1.6272  2.4526
 8581SOL     OW37378   4.611   1.587   9.211  1.0163  0.8464  0.2052
 8581SOL    HW137379   4.674   1.519   9.187  1.2666  0.5621  1.6753
 8581SOL    HW237380   4.662   1.667   9.224  1.3739  0.7812 -0.7982
 8582SOL     OW37381   2.243   4.149   3.180 -0.3704  0.1566 -0.1016
 8582SOL    HW137382   2.285   4.074   3.223  1.6314  1.3302 -0.0478
 8582SOL    HW237383   2.311   4.216   3.177  0.0474 -0.2308  0.5695
 8583SOL     OW37384   3.021   1.912  10.384  0.1581 -0.3788 -0.6484
 8583SOL    HW137385   2.927   1.919  10.369  0.3904  1.2937 -1.3053
 8583SOL    HW237386   3.025   1.832  10.435  0.9985  0.0434 -0.0617
 8584SOL     OW37387   4.066   2.170   3.160 -0.4283  0.5553 -0.3375
 8584SOL    HW137388   4.154   2.156   3.193 -0.9326  0.1669  0.8230
 8584SOL    HW237389   4.057   2.265   3.170  0.6280  0.8356 -1.9795
 8585SOL     OW37390   1.845   2.471   5.589 -0.4421  0.0010 -0.0187
 8585SOL    HW137391   1.840   2.562   5.619  1.3554 -0.0299  0.3836
 8585SOL    HW237392   1.753   2.444   5.591 -0.6828  0.8314  0.0931
 8586SOL     OW37393   1.227   2.127  13.465 -0.1926 -0.4790 -0.0816
 8586SOL    HW137394   1.202   2.214  13.435  1.7743 -0.2659 -1.1367
 8586SOL    HW237395   1.230   2.141  13.559  0.7038 -1.3143  0.0132
 8587SOL     OW37396   4.514   4.075  16.191 -0.0116  0.0081  0.1892
 8587SOL    HW137397   4.568   4.056  16.114  0.1423 -2.0434  0.7963
 8587SOL    HW237398   4.444   4.009  16.191 -1.4864  1.5830 -2.7049
 8588SOL     OW37399   1.963   3.216   8.199 -0.4106 -0.1363  0.3688
 8588SOL    HW137400   1.875   3.180   8.203  0.1811 -1.8856 -2.4113
 8588SOL    HW237401   1.994   3.185   8.284 -2.8579 -2.5692  0.3616
 8589SOL     OW37402   3.539   0.280   1.880  0.6628  0.4686  0.1811
 8589SOL    HW137403   3.490   0.201   1.856  1.9188 -0.3738  0.3768
 8589SOL    HW237404   3.529   0.282   1.975 -0.4774  0.2267  0.0662
 8590SOL     OW37405   1.117   0.085   5.842 -0.5483 -0.6397  0.0426
 8590SOL    HW137406   1.039   0.044   5.807 -0.4465 -1.4328  0.7392
 8590SOL    HW237407   1.178   0.089   5.769  0.4945  0.1828  0.9524
 8591SOL     OW37408   4.587   1.156   3.074 -0.0487 -0.4024  0.3679
 8591SOL    HW137409   4.577   1.244   3.039 -1.1468  0.2813  2.4668
 8591SOL    HW237410   4.583   1.107   2.992  0.1215  0.8501 -0.3898
 8592SOL     OW37411   4.422   4.095   8.407 -0.2545  0.3722  0.0037
 8592SOL    HW137412   4.390   4.062   8.491  0.8807  0.9195  0.6418
 8592SOL    HW237413   4.340   4.112   8.360 -1.2708  0.4479  1.7750
 8593SOL     OW37414   3.606   1.597   3.919  1.0671  0.0359  0.2287
 8593SOL    HW137415   3.524   1.548   3.928  0.4929  0.8573 -0.5747
 8593SOL    HW237416   3.593   1.656   3.845  0.4112  0.7423  0.9258
 8594SOL     OW37417   2.980   3.658  10.640 -0.5353  0.1666 -0.6818
 8594SOL    HW137418   2.994   3.625  10.729  1.4186  0.0865 -1.0081
 8594SOL    HW237419   3.014   3.586  10.587 -0.5393  0.7364 -1.4663
 8595SOL     OW37420   2.537   3.274   3.292 -0.7362  0.3939 -0.2124
 8595SOL    HW137421   2.462   3.229   3.332  0.9584 -1.3010  1.0620
 8595SOL    HW237422   2.608   3.252   3.352 -0.8617 -0.6319 -0.4403
 8596SOL     OW37423   1.279   3.182   9.514 -0.2597 -0.2163 -0.1484
 8596SOL    HW137424   1.242   3.231   9.587  0.2699 -2.1289  1.4295
 8596SOL    HW237425   1.285   3.249   9.446 -0.9040 -1.1631 -1.1266
 8597SOL     OW37426   0.819   1.677   8.794 -0.3243 -0.5250  0.1673
 8597SOL    HW137427   0.774   1.620   8.732  2.7542 -3.7766  0.9010
 8597SOL    HW237428   0.798   1.629   8.874  0.6460  0.3039  0.9249
 8598SOL     OW37429   0.626   0.540   3.230 -0.0889 -0.4304  0.2640
 8598SOL    HW137430   0.669   0.535   3.144 -1.2103  0.3102 -0.3466
 8598SOL    HW237431   0.653   0.617   3.280 -1.5582 -0.8570  1.7157
 8599SOL     OW37432   3.988   0.197   1.491 -0.0140 -0.2347  0.1026
 8599SOL    HW137433   4.062   0.161   1.540 -1.4078 -0.9119  1.7500
 8599SOL    HW237434   4.039   0.239   1.423 -1.7559  2.2153  0.3295
 8600SOL     OW37435   0.699   4.504   6.383 -0.6895 -0.6246  0.0355
 8600SOL    HW137436   0.637   4.575   6.365  0.2149  0.5882  1.7040
 8600SOL    HW237437   0.754   4.495   6.305 -0.0654  2.3765  0.1368
 8601SOL     OW37438   0.199   0.115   3.526 -0.5425  0.0401  0.0468
 8601SOL    HW137439   0.140   0.190   3.519  0.0955  0.4988 -0.4365
 8601SOL    HW237440   0.151   0.035   3.505  0.1820 -0.1451 -0.8799
 8602SOL     OW37441   1.511   4.006   6.605  0.1348  0.0604 -0.3886
 8602SOL    HW137442   1.491   4.064   6.679 -0.8434  1.7428 -2.0014
 8602SOL    HW237443   1.604   3.987   6.611  0.2016  0.9755  1.3891
 8603SOL     OW37444   4.347   3.878   3.539 -0.6561 -0.0681 -0.2496
 8603SOL    HW137445   4.376   3.879   3.630 -1.4358 -1.8413  0.0151
 8603SOL    HW237446   4.321   3.967   3.517 -0.0332 -0.0721 -1.0268
 8604SOL     OW37447   4.105   0.064   4.975  0.3173  0.7904  0.3286
 8604SOL    HW137448   4.074   4.711   4.995 -1.5452  1.2428 -0.5390
 8604SOL    HW237449   4.157   0.093   5.049  0.1641  0.9909  0.3584
 8605SOL     OW37450   4.633   4.725   5.765  0.2981 -0.6108  0.1167
 8605SOL    HW137451   4.694   0.061   5.747 -0.4699 -0.7229 -2.8522
 8605SOL    HW237452   4.560   0.036   5.807 -0.0997  0.8649 -2.2087
 8606SOL     OW37453   3.306   1.227   2.901  0.0840  0.4436 -0.2654
 8606SOL    HW137454   3.242   1.167   2.940  0.0802  0.9610  0.5191
 8606SOL    HW237455   3.319   1.184   2.817  0.6815 -0.4912  0.3005
 8607SOL     OW37456   0.529   2.709   5.953 -0.3906 -0.0455 -0.2162
 8607SOL    HW137457   0.610   2.742   5.914 -0.6438  0.6786 -0.1304
 8607SOL    HW237458   0.462   2.689   5.887 -1.2052 -1.4572  1.0450
 8608SOL     OW37459   1.911   2.902   9.001 -0.4368  0.0123 -0.0877
 8608SOL    HW137460   1.932   2.966   9.069  1.3723 -0.9296  0.2261
 8608SOL    HW237461   1.930   2.927   8.910 -2.6628 -2.3213 -1.1784
 8609SOL     OW37462   1.903   3.127   9.237  0.7079 -0.4133 -0.6522
 8609SOL    HW137463   1.874   3.133   9.329  1.1899  0.4759 -0.5603
 8609SOL    HW237464   1.989   3.167   9.239  0.1346  0.8552 -1.4427
 8610SOL     OW37465   4.500   1.243  13.106 -0.0334 -0.7382 -0.1403
 8610SOL    HW137466   4.444   1.273  13.178  0.3626 -1.5703  0.5235
 8610SOL    HW237467   4.562   1.183  13.148  0.9824  0.2409 -0.2418
 8611SOL     OW37468   2.738   0.939   1.686  0.0461  0.4202 -0.1428
 8611SOL    HW137469   2.777   0.858   1.718  1.7420  0.9001 -0.9348
 8611SOL    HW237470   2.803   0.967   1.621  1.6605 -0.8714  0.9224
 8612SOL     OW37471   2.177   2.012  14.558 -0.3786 -0.5330  0.1203
 8612SOL    HW137472   2.121   1.934  14.552 -1.7915  0.5355 -0.4751
 8612SOL    HW237473   2.142   2.074  14.494 -1.0601  0.1989  1.1857
 8613SOL     OW37474   0.823   1.683   4.572  0.4852  0.3296 -0.1480
 8613SOL    HW137475   0.805   1.674   4.665  0.8311 -0.8761 -0.1866
 8613SOL    HW237476   0.903   1.631   4.579 -0.4154 -1.2683 -1.4585
 8614SOL     OW37477   3.136   3.650   2.157 -0.3708 -0.1671  0.3325
 8614SOL    HW137478   3.201   3.601   2.208  0.7539  1.8530  0.8346
 8614SOL    HW237479   3.064   3.627   2.217  0.1526 -0.0385  1.0152
 8615SOL     OW37480   1.791   0.527   6.651 -0.2541 -0.7667 -0.5079
 8615SOL    HW137481   1.852   0.525   6.578  0.1186 -0.6997 -0.1966
 8615SOL    HW237482   1.719   0.478   6.611  0.6412 -1.0070 -1.8038
 8616SOL     OW37483   2.789   2.265  15.281  0.4147  0.3852  0.0619
 8616SOL    HW137484   2.771   2.239  15.190  3.4585 -2.3342  0.2135
 8616SOL    HW237485   2.721   2.330  15.299 -0.9500 -0.4579 -2.0367
 8617SOL     OW37486   2.318   0.243  11.887 -0.1124 -0.1052 -0.7478
 8617SOL    HW137487   2.250   0.213  11.947  1.3584  2.5795  2.2828
 8617SOL    HW237488   2.379   0.169  11.889 -0.2549 -0.1842  1.3289
 8618SOL     OW37489   4.466   3.378   8.836 -0.5872  0.7371 -0.5258
 8618SOL    HW137490   4.561   3.377   8.850 -0.3408  2.5274 -2.0107
 8618SOL    HW237491   4.457   3.361   8.742  0.0616 -1.6194 -0.1648
 8619SOL     OW37492   1.915   3.089   4.571  0.9110 -0.2513  0.4886
 8619SOL    HW137493   1.994   3.036   4.576  2.1498  1.6703  1.1884
 8619SOL    HW237494   1.862   3.011   4.590 -1.6529  1.2892 -0.3122
 8620SOL     OW37495   1.823   3.300   9.754 -0.2620 -0.2580  0.5485
 8620SOL    HW137496   1.748   3.243   9.739 -1.0752  1.0090 -0.1736
 8620SOL    HW237497   1.892   3.257   9.703  1.6724 -0.8598  3.6804
 8621SOL     OW37498   4.586   1.340   1.484  0.3581  0.0677 -0.2849
 8621SOL    HW137499   4.565   1.425   1.522  1.7506  1.0146 -1.6617
 8621SOL    HW237500   4.561   1.354   1.392  0.3949 -0.3494 -0.3581
 8622SOL     OW37501   2.029   1.822   8.481 -0.7951 -0.5400 -0.3928
 8622SOL    HW137502   1.956   1.827   8.420  2.1189  2.7842 -3.5880
 8622SOL    HW237503   2.081   1.757   8.433 -0.9968 -0.4112 -0.7812
 8623SOL     OW37504   1.563   3.091   5.109  0.1393  0.0662  0.5612
 8623SOL    HW137505   1.657   3.108   5.112  0.0006  1.2311 -1.8608
 8623SOL    HW237506   1.529   3.129   5.190  1.8537  1.5558  0.5890
 8624SOL     OW37507   2.236   1.946   4.467  0.1084  0.1586 -0.1726
 8624SOL    HW137508   2.288   2.002   4.525 -2.2431  0.5695  1.5639
 8624SOL    HW237509   2.173   2.017   4.454 -0.3564  0.0026  1.2844
 8625SOL     OW37510   0.076   1.304   1.090 -0.0945 -0.3437 -0.6351
 8625SOL    HW137511   0.159   1.353   1.090 -1.4233  1.9496 -3.4168
 8625SOL    HW237512   0.105   1.215   1.107  0.8838  0.4735  1.9394
 8626SOL     OW37513   0.710   3.476   7.820  0.5120 -0.1843 -0.0115
 8626SOL    HW137514   0.675   3.393   7.851 -0.6191  0.7654  1.2488
 8626SOL    HW237515   0.755   3.462   7.737 -0.1351  1.8673 -0.7168
 8627SOL     OW37516   2.742   3.079   8.711  0.2200 -0.0900  0.2163
 8627SOL    HW137517   2.808   3.095   8.644 -0.0643 -2.3224 -0.6005
 8627SOL    HW237518   2.697   3.008   8.666  2.7394 -0.5680 -1.5401
 8628SOL     OW37519   3.046   3.811  11.067 -0.8487 -0.6247 -0.5159
 8628SOL    HW137520   3.111   3.781  11.130 -0.6896  0.7413 -0.0254
 8628SOL    HW237521   3.104   3.822  10.992 -1.5819 -0.1635 -1.0234
 8629SOL     OW37522   3.141   0.763  10.938  0.2726  0.8598  0.6561
 8629SOL    HW137523   3.174   0.797  10.855 -0.4612  0.0720  0.0399
 8629SOL    HW237524   3.175   0.837  10.989  0.5234 -0.0702  1.8362
 8630SOL     OW37525   0.469   2.602   2.787  0.4456  0.3689  0.2080
 8630SOL    HW137526   0.483   2.692   2.817 -3.2399  0.7545  0.7589
 8630SOL    HW237527   0.493   2.614   2.695  0.4763 -2.2208 -0.1072
 8631SOL     OW37528   1.252   0.874  11.115 -0.2206  0.9177 -0.4779
 8631SOL    HW137529   1.275   0.803  11.175  0.1011  0.8228 -0.7137
 8631SOL    HW237530   1.163   0.883  11.149 -0.4589  0.3333 -0.9386
 8632SOL     OW37531   3.740   1.108  16.531  0.1105 -0.4482  0.3462
 8632SOL    HW137532   3.798   1.184  16.532 -1.2954  0.6136  1.4631
 8632SOL    HW237533   3.702   1.119  16.444 -0.9298 -1.3588  0.6814
 8633SOL     OW37534   1.792   4.411  14.643 -0.0219 -0.5651 -0.1706
 8633SOL    HW137535   1.741   4.379  14.568  0.7173  0.0268 -0.9255
 8633SOL    HW237536   1.873   4.439  14.599 -0.4232  1.4240  0.3274
 8634SOL     OW37537   0.162   4.448  16.584  0.2318  0.5746  0.7842
 8634SOL    HW137538   0.231   4.514  16.576  0.0910  0.5794 -0.3392
 8634SOL    HW237539   0.163   4.400  16.502  2.8706  1.1489  0.4810
 8635SOL     OW37540   4.541   0.975   9.919 -0.1029 -0.1225 -1.1365
 8635SOL    HW137541   4.515   0.890   9.954  3.5677 -0.7320  0.2100
 8635SOL    HW237542   4.630   0.955   9.891  0.8365  1.7787  0.4846
 8636SOL     OW37543   1.743   3.167   2.241  0.3319  0.6042  0.3597
 8636SOL    HW137544   1.797   3.204   2.171  0.6811 -0.9344 -0.1987
 8636SOL    HW237545   1.765   3.073   2.243 -1.4884  0.1912  0.6564
 8637SOL     OW37546   1.722   3.087   8.224  0.0411  0.1011 -0.6086
 8637SOL    HW137547   1.629   3.091   8.246  0.4855  0.2606  1.2539
 8637SOL    HW237548   1.744   3.022   8.291 -3.6466  1.2251  1.6612
 8638SOL     OW37549   2.866   0.948   2.066  0.5790 -0.3580 -0.2106
 8638SOL    HW137550   2.954   0.977   2.044  0.5252 -0.4169 -0.5007
 8638SOL    HW237551   2.862   0.875   2.004  1.2815  0.4105 -1.1605
 8639SOL     OW37552   1.944   1.192  14.407  0.1622  0.0196 -0.3955
 8639SOL    HW137553   2.008   1.155  14.347  0.9831 -0.6266  0.8780
 8639SOL    HW237554   1.866   1.165  14.358 -0.9103  0.4728  1.0761
 8640SOL     OW37555   0.024   2.180   3.334  0.5165  0.0525  0.1512
 8640SOL    HW137556   0.110   2.211   3.305  0.2259 -0.3712 -1.1842
 8640SOL    HW237557   0.048   2.087   3.336 -1.3625 -0.4389 -0.3457
 8641SOL     OW37558   4.146   3.667   5.787  0.3397 -0.3847 -0.1627
 8641SOL    HW137559   4.194   3.724   5.726  1.0967 -1.4125 -0.5235
 8641SOL    HW237560   4.117   3.598   5.727 -1.5686 -0.6738  1.0968
 8642SOL     OW37561   1.455   0.734   2.691 -0.0684  0.2067 -0.7738
 8642SOL    HW137562   1.543   0.766   2.713  0.5349  0.0322 -2.8969
 8642SOL    HW237563   1.479   0.694   2.607  2.5728  2.3602 -1.0776
 8643SOL     OW37564   2.492   0.155  13.015 -0.0939 -0.3520 -0.1682
 8643SOL    HW137565   2.482   0.062  13.038 -2.9219  0.4299  1.7414
 8643SOL    HW237566   2.535   0.148  12.930  0.4919  1.7756 -0.0296
 8644SOL     OW37567   1.868   2.536   6.548  0.0489  0.8108 -0.0774
 8644SOL    HW137568   1.958   2.516   6.571 -1.0044 -1.2401  2.2474
 8644SOL    HW237569   1.821   2.490   6.618  1.3203  2.3212  1.7831
 8645SOL     OW37570   3.971   3.018   6.586 -0.2188  0.5216 -0.0763
 8645SOL    HW137571   3.914   3.035   6.510 -1.7756  0.3672  1.0687
 8645SOL    HW237572   3.917   3.013   6.665 -0.3253  0.9063 -0.1221
 8646SOL     OW37573   3.158   2.054   5.535 -0.2249  0.8871 -0.0730
 8646SOL    HW137574   3.066   2.026   5.536  0.8040 -2.4666  1.8793
 8646SOL    HW237575   3.159   2.033   5.628  2.0894 -0.6372 -0.4305
 8647SOL     OW37576   3.763   3.159   8.196 -0.2902 -0.7795  0.7251
 8647SOL    HW137577   3.812   3.202   8.126  2.2825 -0.4438  2.7416
 8647SOL    HW237578   3.833   3.139   8.258 -0.9579 -3.1906  0.6999
 8648SOL     OW37579   1.230   3.673  10.352  0.4170  0.4648 -0.2241
 8648SOL    HW137580   1.286   3.639  10.282  0.1256 -1.6346  0.5744
 8648SOL    HW237581   1.199   3.590  10.388  0.4910  0.7264  0.4496
 8649SOL     OW37582   0.655   0.451  13.629 -0.4340  0.0202 -0.1468
 8649SOL    HW137583   0.562   0.465  13.645 -0.2271 -1.2038  2.0891
 8649SOL    HW237584   0.684   0.418  13.714 -1.6561  0.9126  0.6172
 8650SOL     OW37585   0.100   0.762  17.024 -0.2499  0.2462 -0.1080
 8650SOL    HW137586   0.188   0.785  16.993  1.2223 -4.1272  0.7813
 8650SOL    HW237587   0.119   0.756  17.118  0.5646 -1.8217 -0.3967
 8651SOL     OW37588   0.125   1.254   4.305  0.2667  0.1593  0.9696
 8651SOL    HW137589   0.067   1.231   4.233 -0.6353  0.2917  1.6563
 8651SOL    HW237590   0.195   1.305   4.265 -1.1510  0.6182 -0.9360
 8652SOL     OW37591   2.860   4.090  14.412 -0.0963  0.4553 -0.0080
 8652SOL    HW137592   2.847   3.995  14.410 -1.0980  0.6151 -1.0155
 8652SOL    HW237593   2.781   4.122  14.367  0.1668  1.1022 -0.0115
 8653SOL     OW37594   3.705   0.755  13.566 -0.1770 -0.3754  0.3122
 8653SOL    HW137595   3.753   0.692  13.620 -0.1867  0.0385  0.7979
 8653SOL    HW237596   3.756   0.735  13.487 -0.3511 -1.0760  0.3744
 8654SOL     OW37597   4.680   0.143   8.632  0.2006  0.1659  0.3964
 8654SOL    HW137598   4.676   0.048   8.621  0.3991  0.2656 -0.5103
 8654SOL    HW237599   0.026   0.144   8.683  1.0424  1.0984 -0.9747
 8655SOL     OW37600   2.267   3.270   8.997 -0.6247 -0.5434 -0.7991
 8655SOL    HW137601   2.188   3.324   8.996  0.3331  0.8906 -0.3542
 8655SOL    HW237602   2.304   3.326   8.928  0.0029  0.1683  0.1110
 8656SOL     OW37603   3.385   1.692  17.206 -0.1989  0.1305 -0.7582
 8656SOL    HW137604   3.325   1.646  17.146  0.0550 -0.4351 -0.5758
 8656SOL    HW237605   3.456   1.696  17.142 -0.3847  1.2166 -0.8885
 8657SOL     OW37606   1.282   0.469   2.887  0.7726 -0.1652  0.6041
 8657SOL    HW137607   1.369   0.431   2.876 -0.3879 -3.1508  1.9154
 8657SOL    HW237608   1.301   0.538   2.950 -0.0467  1.3893 -0.8476
 8658SOL     OW37609   0.554   4.218  16.570 -0.2987  0.3280  0.3645
 8658SOL    HW137610   0.596   4.162  16.505  0.1572  1.1835 -0.0586
 8658SOL    HW237611   0.488   4.155  16.601 -0.6328 -0.4051 -1.8385
 8659SOL     OW37612   4.535   1.933   4.700 -0.4082  0.0294  0.8371
 8659SOL    HW137613   4.616   1.956   4.745 -0.9650  0.1429  1.7786
 8659SOL    HW237614   4.470   1.960   4.764  0.3919 -0.4148  1.8292
 8660SOL     OW37615   4.505   3.282   4.112  0.3794 -0.1762  0.3821
 8660SOL    HW137616   4.491   3.360   4.165  0.0399 -1.0585  1.5737
 8660SOL    HW237617   4.516   3.203   4.165  0.5700 -0.1673  0.3560
 8661SOL     OW37618   4.405   0.523   7.151 -0.8675  0.0844 -0.5040
 8661SOL    HW137619   4.385   0.440   7.107  0.0586 -0.2757 -0.2513
 8661SOL    HW237620   4.338   0.514   7.219 -0.2065 -1.8597 -0.0978
 8662SOL     OW37621   4.570   0.947   7.742 -0.1865 -0.5507  0.3901
 8662SOL    HW137622   4.563   0.897   7.661 -0.3927  0.6739 -0.3618
 8662SOL    HW237623   4.593   1.032   7.704  1.0893 -1.3247 -0.5435
 8663SOL     OW37624   3.714   1.481  11.132 -0.1453 -0.5719 -0.3934
 8663SOL    HW137625   3.789   1.465  11.074 -1.8991 -0.8723 -2.5858
 8663SOL    HW237626   3.747   1.424  11.201 -0.0795 -0.7526 -0.5731
 8664SOL     OW37627   1.178   0.626  11.232  0.0837  0.1988 -0.3450
 8664SOL    HW137628   1.113   0.627  11.303 -0.8144 -2.4762 -1.1265
 8664SOL    HW237629   1.260   0.631  11.281  0.5476  0.7096 -1.1869
 8665SOL     OW37630   4.311   3.219   2.589  0.5369  0.6467  0.2739
 8665SOL    HW137631   4.399   3.223   2.626  0.4926 -1.0614  0.5518
 8665SOL    HW237632   4.324   3.288   2.524 -2.4699 -1.5935 -2.7122
 8666SOL     OW37633   2.549   4.493  17.645 -0.5322  0.3511 -0.2122
 8666SOL    HW137634   2.609   4.419  17.639 -1.5455 -0.4358 -0.7141
 8666SOL    HW237635   2.473   4.467  17.592  1.8788 -3.9333 -1.5974
 8667SOL     OW37636   3.398   2.918   3.129  0.3314 -0.0397 -0.9179
 8667SOL    HW137637   3.486   2.919   3.092  0.1088 -1.5412 -1.4764
 8667SOL    HW237638   3.389   3.011   3.152 -0.3427 -0.4295  0.3727
 8668SOL     OW37639   3.557   2.620   4.564 -0.1190  0.0808  0.8367
 8668SOL    HW137640   3.489   2.651   4.624 -1.0325  0.5667 -0.4613
 8668SOL    HW237641   3.508   2.596   4.485 -2.6937 -1.5113  2.9210
 8669SOL     OW37642   2.387   3.534   3.246 -0.2643  0.5021 -0.0296
 8669SOL    HW137643   2.395   3.500   3.157 -0.9646 -0.1328  0.1504
 8669SOL    HW237644   2.418   3.463   3.302 -1.6591 -0.0946 -0.0098
 8670SOL     OW37645   3.144   0.599   8.076 -0.5787 -0.0584 -0.5173
 8670SOL    HW137646   3.096   0.523   8.109 -0.4090 -0.1575 -0.5029
 8670SOL    HW237647   3.079   0.637   8.016 -1.9893 -0.2973  0.8702
 8671SOL     OW37648   1.534   1.816   2.540  0.0575 -0.2581  0.5076
 8671SOL    HW137649   1.601   1.837   2.604 -0.6888  3.2652  0.1178
 8671SOL    HW237650   1.476   1.758   2.589  1.5452 -2.6599 -0.5514
 8672SOL     OW37651   4.004   4.091   3.579  0.4804 -0.3742  0.5623
 8672SOL    HW137652   4.009   4.105   3.484  3.7852 -1.7026  0.5177
 8672SOL    HW237653   4.052   4.169   3.609  2.1480 -1.2621  0.2067
 8673SOL     OW37654   3.183   1.205   9.305  0.2813  0.1649 -0.1529
 8673SOL    HW137655   3.188   1.290   9.262 -1.2385 -0.2600 -1.1781
 8673SOL    HW237656   3.245   1.158   9.249  1.3489  2.2115 -0.6519
 8674SOL     OW37657   2.511   3.591   8.650 -0.3571  0.0342 -0.2409
 8674SOL    HW137658   2.543   3.501   8.657 -2.2394 -0.5037  1.1991
 8674SOL    HW237659   2.578   3.644   8.694 -0.8707 -1.9153  2.8484
 8675SOL     OW37660   3.134   3.515   4.374 -0.5369  0.2966  0.7535
 8675SOL    HW137661   3.131   3.588   4.312  1.0476  0.1661  0.5234
 8675SOL    HW237662   3.041   3.503   4.391 -0.3712 -2.2861 -0.1705
 8676SOL     OW37663   1.811   3.889   4.881  0.5221  0.3099  0.1856
 8676SOL    HW137664   1.804   3.956   4.949  1.7007  2.3108 -1.6706
 8676SOL    HW237665   1.775   3.811   4.923 -1.1964  1.3372  0.6535
 8677SOL     OW37666   1.476   2.800   1.910  0.7455 -0.6569 -0.1781
 8677SOL    HW137667   1.543   2.838   1.853 -1.7610  1.5663 -1.6565
 8677SOL    HW237668   1.432   2.731   1.861  1.4287 -0.0189 -1.6660
 8678SOL     OW37669   0.790   1.228  13.931 -0.1072  0.2389  0.0202
 8678SOL    HW137670   0.774   1.267  13.845 -0.0754  1.4652  0.5721
 8678SOL    HW237671   0.701   1.229  13.965 -0.2109 -2.3358 -0.1661
 8679SOL     OW37672   1.245   0.788   4.659 -0.0279  0.2676  0.2618
 8679SOL    HW137673   1.197   0.706   4.644 -0.7887  0.4823  1.5623
 8679SOL    HW237674   1.168   0.844   4.668 -0.5141 -0.3543 -0.0333
 8680SOL     OW37675   0.782   0.576  12.551  0.0816 -0.1805  0.2486
 8680SOL    HW137676   0.769   0.664  12.585  1.1228  0.2621 -0.5027
 8680SOL    HW237677   0.772   0.596  12.458 -0.0298 -1.4310 -0.0132
 8681SOL     OW37678   3.372   2.473   5.542 -0.0274 -0.4167  0.4398
 8681SOL    HW137679   3.460   2.496   5.511 -0.2065  0.8663  0.8603
 8681SOL    HW237680   3.358   2.388   5.500 -0.0223  0.3987 -1.2345
 8682SOL     OW37681   3.635   2.368   8.978 -0.6618  0.1184  0.0810
 8682SOL    HW137682   3.705   2.425   8.947 -0.2119  0.6010  1.9388
 8682SOL    HW237683   3.668   2.278   8.971 -0.2140  0.1374  1.9357
 8683SOL     OW37684   2.990   2.637   7.296 -0.0069  0.4752  0.3633
 8683SOL    HW137685   2.897   2.620   7.277  0.3627  1.0090 -1.8624
 8683SOL    HW237686   3.019   2.574   7.230  0.4976  0.5000  0.5610
 8684SOL     OW37687   1.061   0.282  15.960 -0.1179  0.0739 -0.2250
 8684SOL    HW137688   1.120   0.277  16.035  1.2245 -0.0275 -1.2790
 8684SOL    HW237689   1.083   0.367  15.921 -2.4656 -0.1656 -2.0369
 8685SOL     OW37690   1.029   0.217   4.289  0.0647  0.2945 -0.1437
 8685SOL    HW137691   1.031   0.270   4.209 -2.0048 -1.1051 -1.1195
 8685SOL    HW237692   0.983   0.136   4.266  2.5700 -2.3314  4.0402
 8686SOL     OW37693   4.617   2.966   1.043 -0.2030  0.9290  0.1348
 8686SOL    HW137694   4.531   3.001   1.019 -0.4397  0.5115  0.3771
 8686SOL    HW237695   4.651   2.929   0.962 -1.0426  2.5807 -0.9701
 8687SOL     OW37696   0.209   1.520   3.842  0.2693 -0.1744 -0.3726
 8687SOL    HW137697   0.276   1.467   3.800 -0.4928 -1.4014 -0.0291
 8687SOL    HW237698   0.266   1.562   3.908  1.6532 -2.4230 -0.1308
 8688SOL     OW37699   2.791   4.484  11.970 -0.6280 -0.7805 -0.5151
 8688SOL    HW137700   2.869   4.534  11.948  0.2384 -2.5157 -1.3940
 8688SOL    HW237701   2.767   4.530  12.051 -2.5676 -1.0672 -0.9315
 8689SOL     OW37702   2.913   2.586   2.930  0.2335  0.3261 -0.2765
 8689SOL    HW137703   2.829   2.600   2.884 -0.3578 -0.3551  0.5979
 8689SOL    HW237704   2.887   2.580   3.022  0.0759  3.2585 -0.1249
 8690SOL     OW37705   4.406   1.204  15.001  0.8747  0.5802 -0.2986
 8690SOL    HW137706   4.429   1.190  14.909  1.3867 -2.3212  0.2435
 8690SOL    HW237707   4.392   1.298  14.995 -1.7015  0.1721 -0.7119
 8691SOL     OW37708   4.021   4.085   6.969  0.1934 -0.4459 -0.2812
 8691SOL    HW137709   4.088   4.150   6.990  1.4211 -0.9871 -2.5291
 8691SOL    HW237710   3.977   4.085   7.054 -0.0700 -0.1976 -0.4180
 8692SOL     OW37711   4.134   0.685  11.724  0.3337 -0.3001 -0.2210
 8692SOL    HW137712   4.078   0.757  11.752  0.4701 -1.0099  1.8690
 8692SOL    HW237713   4.212   0.694  11.779 -2.0566  1.3983  2.9062
 8693SOL     OW37714   2.213   3.876   8.416 -0.0135  0.5168  0.4426
 8693SOL    HW137715   2.174   3.857   8.502  0.4988  2.2801  1.0739
 8693SOL    HW237716   2.259   3.954   8.448 -1.3305  2.2306 -1.8194
 8694SOL     OW37717   4.181   0.696  16.743  0.7461  0.1542  0.7367
 8694SOL    HW137718   4.097   0.667  16.779 -0.4203  0.3804 -1.8003
 8694SOL    HW237719   4.211   0.743  16.821  0.7922 -0.2159  0.9421
 8695SOL     OW37720   0.885   0.066   5.149 -0.1810  0.2873  0.0608
 8695SOL    HW137721   0.830   0.133   5.109 -1.4068 -1.7942 -1.7559
 8695SOL    HW237722   0.868   4.733   5.083  1.6346 -0.0568 -0.0543
 8696SOL     OW37723   0.520   0.860   3.775  0.2034  0.0130  0.1008
 8696SOL    HW137724   0.463   0.801   3.824 -1.6569  0.9468 -0.9393
 8696SOL    HW237725   0.461   0.885   3.704 -0.7984 -0.0187  0.9184
 8697SOL     OW37726   3.251   1.406   8.148 -0.1042 -0.1518  0.1457
 8697SOL    HW137727   3.232   1.441   8.235  2.9998  2.0703 -0.0558
 8697SOL    HW237728   3.214   1.320   8.164 -2.4493  0.4484 -2.0815
 8698SOL     OW37729   1.694   3.319  13.526 -0.0210  0.7009 -0.5296
 8698SOL    HW137730   1.747   3.385  13.482  0.9373  1.7505  2.2101
 8698SOL    HW237731   1.710   3.345  13.617 -0.4868 -0.1017 -0.2176
 8699SOL     OW37732   1.177   2.616   6.312 -0.1019 -0.7167 -1.0971
 8699SOL    HW137733   1.234   2.675   6.264  0.1418 -0.2870 -0.2736
 8699SOL    HW237734   1.240   2.560   6.358 -0.6765  0.8289  1.5557
 8700SOL     OW37735   4.081   4.543   7.361 -0.0460 -0.0031 -0.3582
 8700SOL    HW137736   3.999   4.545   7.411  0.3104 -1.6732  0.2751
 8700SOL    HW237737   4.062   4.604   7.290  3.8032 -0.1961 -1.5209
 8701SOL     OW37738   0.584   0.943   9.190 -0.0669  0.5153  0.7093
 8701SOL    HW137739   0.605   0.956   9.283  1.0070 -1.9397  0.8297
 8701SOL    HW237740   0.512   0.883   9.211  0.5421  0.5607  2.9675
 8702SOL     OW37741   2.249   0.486   5.235  0.0468  0.5991 -0.3617
 8702SOL    HW137742   2.296   0.417   5.282 -0.7892  0.2229 -0.0780
 8702SOL    HW237743   2.215   0.540   5.306 -1.6148  1.1483 -1.5654
 8703SOL     OW37744   1.625   0.133  17.629 -0.4751 -0.0399  0.3012
 8703SOL    HW137745   1.676   0.141  17.548 -1.2861  2.6860  0.0692
 8703SOL    HW237746   1.634   0.225  17.654  1.6214 -0.2920  0.4653
 8704SOL     OW37747   0.938   3.597  13.629  0.2478 -0.5126 -0.4245
 8704SOL    HW137748   0.848   3.572  13.609  0.1570  0.5924 -1.3600
 8704SOL    HW237749   0.952   3.565  13.719 -0.5280  1.7234  0.4948
 8705SOL     OW37750   2.209   3.451   7.902 -0.0536 -0.9800 -0.7399
 8705SOL    HW137751   2.216   3.483   7.992  0.9433  1.3265 -1.6345
 8705SOL    HW237752   2.204   3.356   7.918  0.1495 -0.6536  1.3560
 8706SOL     OW37753   2.885   1.120   5.889  0.5608 -0.2590 -0.5951
 8706SOL    HW137754   2.807   1.137   5.836 -0.0863 -0.3299  0.3264
 8706SOL    HW237755   2.910   1.029   5.877  3.6509  0.8000 -2.1289
 8707SOL     OW37756   0.936   1.350   8.063 -0.0409  0.2969  0.5341
 8707SOL    HW137757   0.844   1.345   8.038  0.6512 -3.9180 -1.1997
 8707SOL    HW237758   0.957   1.257   8.053  2.9566  1.0075  0.0895
 8708SOL     OW37759   3.361   3.483   6.968 -0.5414 -0.3539  0.5489
 8708SOL    HW137760   3.444   3.448   7.001 -0.9595  0.7223  2.7324
 8708SOL    HW237761   3.377   3.576   6.984  1.0139 -0.4942 -0.2331
 8709SOL     OW37762   3.206   0.544   8.593 -0.2606 -0.0608 -0.2440
 8709SOL    HW137763   3.169   0.457   8.579  0.3234 -0.8057  2.9269
 8709SOL    HW237764   3.128   0.597   8.574 -0.4398 -0.5196 -0.7872
 8710SOL     OW37765   2.063   2.105   3.077  0.1462  0.2022  0.8807
 8710SOL    HW137766   2.114   2.067   3.005 -0.4139 -1.5407  1.4203
 8710SOL    HW237767   2.022   2.175   3.026 -0.1216 -0.5813  0.0071
 8711SOL     OW37768   3.198   1.398   6.643 -0.0388  0.2523  0.1526
 8711SOL    HW137769   3.212   1.484   6.603  1.6249  0.2621  0.7869
 8711SOL    HW237770   3.203   1.426   6.734  0.5559  1.6382 -0.3067
 8712SOL     OW37771   3.910   2.032   5.324 -0.2614  0.4506  0.2805
 8712SOL    HW137772   3.999   2.068   5.331  0.5231 -1.0609 -2.1229
 8712SOL    HW237773   3.933   1.943   5.350  2.1910  1.1291  0.4808
 8713SOL     OW37774   0.811   3.264   8.370  0.3162 -0.1442  0.0628
 8713SOL    HW137775   0.798   3.187   8.314 -4.0932 -0.6117  1.7092
 8713SOL    HW237776   0.895   3.298   8.340 -0.0452  0.7684  0.0852
 8714SOL     OW37777   4.696   3.751   6.221 -0.3983 -0.4795  0.0251
 8714SOL    HW137778   4.683   3.729   6.129  0.3904 -1.6579  0.2078
 8714SOL    HW237779   4.604   3.756   6.247 -0.1728 -0.5288  0.8289
 8715SOL     OW37780   4.669   0.855   7.998  0.3800  0.5225  0.1032
 8715SOL    HW137781   4.602   0.814   8.053  0.8833 -1.1368 -0.5293
 8715SOL    HW237782   4.639   0.840   7.908  1.7108  1.2983 -0.4798
 8716SOL     OW37783   3.119   4.197   3.146  0.2731  0.3857 -0.0755
 8716SOL    HW137784   3.059   4.179   3.218 -2.6228  0.3103 -2.4858
 8716SOL    HW237785   3.174   4.118   3.148  0.3746  0.5380  2.2495
 8717SOL     OW37786   1.507   4.588   5.174  0.4309  0.1561 -0.3906
 8717SOL    HW137787   1.480   4.497   5.183  0.7957  0.0402 -0.4740
 8717SOL    HW237788   1.547   4.591   5.261  0.6574 -0.1191 -0.4870
 8718SOL     OW37789   3.866   1.639   3.810  0.3240 -0.4051 -0.2500
 8718SOL    HW137790   3.833   1.716   3.764  0.5933  0.5242  1.1029
 8718SOL    HW237791   3.792   1.599   3.856 -0.2276  0.1939 -0.6237
 8719SOL     OW37792   3.975   2.219  17.718 -0.3103 -0.0977 -0.2669
 8719SOL    HW137793   4.065   2.229   0.011 -0.1561 -0.6992 -0.5113
 8719SOL    HW237794   3.927   2.189   0.056 -0.6273 -1.2164 -0.8873
 8720SOL     OW37795   1.422   3.035   4.630  0.0722 -0.4204 -0.1468
 8720SOL    HW137796   1.376   3.100   4.683 -1.1813  1.4684 -3.5445
 8720SOL    HW237797   1.458   2.985   4.703 -2.1475 -2.1758 -0.2560
 8721SOL     OW37798   1.191   1.169  13.588 -0.5447  0.8587 -0.0569
 8721SOL    HW137799   1.181   1.236  13.520  0.4927  1.5397  0.4588
 8721SOL    HW237800   1.105   1.129  13.578  1.0141 -2.2461 -1.0010
 8722SOL     OW37801   3.002   2.112   5.793  0.0724 -0.2258 -0.1059
 8722SOL    HW137802   2.969   2.168   5.863  0.6450  0.1316 -0.1209
 8722SOL    HW237803   2.928   2.059   5.762 -1.0096  3.1144 -3.2494
 8723SOL     OW37804   4.571   1.485   3.598 -1.0839 -0.0319 -0.0458
 8723SOL    HW137805   4.614   1.495   3.683 -1.2244  1.3807 -0.1447
 8723SOL    HW237806   4.479   1.483   3.626 -0.7823  1.1495  1.0344
 8724SOL     OW37807   1.704   2.936  11.105  0.1432  0.2183 -1.0128
 8724SOL    HW137808   1.615   2.952  11.137  1.1647  0.4616  1.7625
 8724SOL    HW237809   1.757   2.949  11.184  0.1314  1.0543 -1.1404
 8725SOL     OW37810   3.989   3.107   2.022  0.1485 -0.4452  0.3827
 8725SOL    HW137811   4.031   3.025   1.998 -1.5751 -0.6123 -2.0270
 8725SOL    HW237812   4.016   3.163   1.949 -0.6612 -1.7702 -0.9242
 8726SOL     OW37813   4.112   3.619   4.025  0.3205  0.1724  0.6494
 8726SOL    HW137814   4.023   3.621   4.059  0.1374  2.4027  0.0335
 8726SOL    HW237815   4.104   3.572   3.943 -1.5313  0.9811  0.3756
 8727SOL     OW37816   2.077   0.776  10.712  0.2963  0.2600 -0.5961
 8727SOL    HW137817   2.015   0.715  10.670  2.3779  0.1784 -3.5555
 8727SOL    HW237818   2.094   0.725  10.792  0.5205  0.5252 -0.4753
 8728SOL     OW37819   1.339   0.756   4.134  0.0545  0.1395  0.3087
 8728SOL    HW137820   1.361   0.794   4.219 -0.6872  0.6614  0.2652
 8728SOL    HW237821   1.249   0.786   4.123  0.0266  0.3533  1.1109
 8729SOL     OW37822   2.183   3.656   5.230 -0.1348 -0.2248  0.2361
 8729SOL    HW137823   2.274   3.651   5.261  0.0671  1.1612 -0.1603
 8729SOL    HW237824   2.199   3.705   5.149  1.2910 -2.8992 -1.1062
 8730SOL     OW37825   0.256   3.808   5.896  0.0167  0.1395  0.5486
 8730SOL    HW137826   0.195   3.776   5.962  0.0350  1.3690  1.1602
 8730SOL    HW237827   0.213   3.890   5.869  0.3336 -0.9565 -3.3392
 8731SOL     OW37828   1.936   0.178   7.648 -0.4776  0.0510  0.4234
 8731SOL    HW137829   1.994   0.248   7.678  1.9297 -0.1801 -3.6616
 8731SOL    HW237830   1.885   0.171   7.728 -0.3004 -1.7289  0.3862
 8732SOL     OW37831   0.887   3.558   9.046 -0.5833  0.1134 -0.1573
 8732SOL    HW137832   0.800   3.539   9.011  0.1017 -2.3369 -0.5394
 8732SOL    HW237833   0.944   3.565   8.969  0.0641  1.7771  0.4589
 8733SOL     OW37834   3.413   2.470   2.214  0.0678  0.2631 -0.5932
 8733SOL    HW137835   3.424   2.564   2.201 -0.7697  0.4041 -0.2651
 8733SOL    HW237836   3.476   2.425   2.157  1.9898  2.2782 -0.0690
 8734SOL     OW37837   3.447   2.087   2.759  0.0107  0.1762  0.2582
 8734SOL    HW137838   3.493   2.020   2.708  0.3274  1.9882 -1.8655
 8734SOL    HW237839   3.508   2.161   2.753  0.6007 -0.2394  1.1096
 8735SOL     OW37840   4.588   0.203  12.667 -0.1318  0.3738  0.5888
 8735SOL    HW137841   4.534   0.180  12.743 -0.6960  0.0339  0.0820
 8735SOL    HW237842   4.666   0.148  12.666  0.7593  1.5999  1.5040
 8736SOL     OW37843   4.683   1.983   5.443  0.5121  0.0636 -0.1332
 8736SOL    HW137844   4.653   1.972   5.534  0.7875 -0.1737 -0.0720
 8736SOL    HW237845   4.720   1.896   5.431  0.7920 -0.1142  2.0582
 8737SOL     OW37846   1.728   4.520   3.505 -0.5606 -0.2315  0.1869
 8737SOL    HW137847   1.736   4.470   3.587 -1.3750 -1.4968 -0.5129
 8737SOL    HW237848   1.820   4.544   3.501 -0.6995 -0.0261 -1.5055
 8738SOL     OW37849   1.767   1.067   1.425 -0.1547  0.0180  0.2815
 8738SOL    HW137850   1.848   1.020   1.404  0.2339  1.6144 -1.7562
 8738SOL    HW237851   1.734   1.012   1.496  0.6039 -0.3095  0.3840
 8739SOL     OW37852   2.057   1.722   2.323  0.2224 -0.2048 -0.2260
 8739SOL    HW137853   2.047   1.637   2.280 -0.6424 -0.2623  0.0763
 8739SOL    HW237854   2.043   1.778   2.247  1.9374 -2.9517 -2.5771
 8740SOL     OW37855   1.419   4.593   6.431  0.4635  0.3819  0.0453
 8740SOL    HW137856   1.381   4.651   6.365 -2.5037 -0.8179  0.7141
 8740SOL    HW237857   1.411   4.640   6.514 -1.3573  0.5395 -0.2223
 8741SOL     OW37858   2.382   3.886  16.398  0.1976  0.2990 -1.0317
 8741SOL    HW137859   2.464   3.838  16.389  1.3096  1.8619  0.6236
 8741SOL    HW237860   2.402   3.969  16.442  0.8503  0.1076 -0.9600
 8742SOL     OW37861   1.115   3.458   4.596  0.5339 -0.0875  0.1870
 8742SOL    HW137862   1.157   3.375   4.618 -0.2089 -0.1327  1.4428
 8742SOL    HW237863   1.179   3.494   4.533 -0.5795  0.6797 -0.5034
 8743SOL     OW37864   0.009   2.450  16.542 -0.3962  0.6301 -0.6974
 8743SOL    HW137865   4.720   2.375  16.488 -4.0004  2.4232 -1.6208
 8743SOL    HW237866   4.720   2.516  16.476  1.0744  0.1658 -1.7013
 8744SOL     OW37867   0.441   0.194  11.474  0.1676  0.1920 -0.3692
 8744SOL    HW137868   0.428   0.159  11.385 -1.4364 -0.4848  0.1336
 8744SOL    HW237869   0.444   0.112  11.523 -0.3698 -0.6476 -1.7293
 8745SOL     OW37870   1.551   1.672  10.424 -0.1551  0.4043  0.1925
 8745SOL    HW137871   1.606   1.594  10.417 -0.2796  0.5023 -1.7445
 8745SOL    HW237872   1.601   1.723  10.489  1.0400  0.9412 -1.1398
 8746SOL     OW37873   2.608   3.223   5.014  0.4766  0.4519 -0.4698
 8746SOL    HW137874   2.576   3.223   4.924  1.9824 -2.1510 -0.9920
 8746SOL    HW237875   2.535   3.254   5.068  1.4741  1.3373  0.3705
 8747SOL     OW37876   4.463   2.031   9.269  1.0183 -0.7564  0.3501
 8747SOL    HW137877   4.426   2.089   9.336 -1.6466 -2.2778  0.1987
 8747SOL    HW237878   4.553   2.036   9.301  1.5884  0.9442 -1.5087
 8748SOL     OW37879   1.099   3.616   4.148  0.0305 -0.3479 -0.1620
 8748SOL    HW137880   1.023   3.669   4.171 -0.4575 -0.9496 -0.4098
 8748SOL    HW237881   1.099   3.614   4.053  1.4933  2.4974 -0.2238
 8749SOL     OW37882   4.509   4.294  17.353 -0.1857  0.0964 -0.0573
 8749SOL    HW137883   4.444   4.363  17.339 -0.8940 -0.8828 -1.5498
 8749SOL    HW237884   4.539   4.304  17.444 -1.5041  1.2509  0.2571
 8750SOL     OW37885   0.662   1.297   9.755  0.0868  0.2524 -0.2067
 8750SOL    HW137886   0.618   1.382   9.752  0.4944  0.4351 -0.9577
 8750SOL    HW237887   0.680   1.293   9.849  0.2486 -0.5338 -0.2745
 8751SOL     OW37888   1.628   2.521  13.386 -0.1703  0.2719 -0.1891
 8751SOL    HW137889   1.629   2.548  13.478 -1.3265  1.5139 -0.5383
 8751SOL    HW237890   1.706   2.568  13.355 -0.0078 -0.4999 -0.9552
 8752SOL     OW37891   0.170   3.969   7.783  0.1269 -0.2208 -0.1281
 8752SOL    HW137892   0.241   3.986   7.722 -1.5226 -0.6547 -2.1596
 8752SOL    HW237893   0.200   3.887   7.823  0.9274  1.0479  1.8919
 8753SOL     OW37894   2.819   0.896   7.711 -0.6077  0.0166 -0.1158
 8753SOL    HW137895   2.777   0.954   7.647  0.5976  0.2753 -0.6751
 8753SOL    HW237896   2.901   0.943   7.731 -0.4125 -0.4171  0.0879
 8754SOL     OW37897   2.428   1.547   5.127  0.6781 -0.2815 -0.7959
 8754SOL    HW137898   2.390   1.616   5.073  1.3722  2.8066  2.6293
 8754SOL    HW237899   2.344   1.505   5.143  0.9837 -0.5871  0.0063
 8755SOL     OW37900   4.028   2.614   8.501  0.0510 -0.3040  0.1679
 8755SOL    HW137901   3.933   2.609   8.492  0.2078 -0.1949 -1.5200
 8755SOL    HW237902   4.049   2.537   8.555 -2.0446 -0.6827  0.4378
 8756SOL     OW37903   1.841   1.473   5.406 -0.0873 -0.7482 -0.9636
 8756SOL    HW137904   1.746   1.474   5.396 -0.0621  1.7796 -1.0203
 8756SOL    HW237905   1.851   1.392   5.456  2.2342 -0.0311 -0.2493
 8757SOL     OW37906   0.936   2.918   8.891 -0.4091  0.0913  0.0718
 8757SOL    HW137907   0.991   2.854   8.938  0.4123  2.1917  1.9606
 8757SOL    HW237908   0.931   2.991   8.953 -1.0683 -0.9848  1.2912
 8758SOL     OW37909   3.601   2.453  12.849  0.1268 -0.3996  0.0305
 8758SOL    HW137910   3.654   2.470  12.928  3.3826 -2.4474 -1.6950
 8758SOL    HW237911   3.579   2.361  12.864 -0.2625 -0.2103  0.6335
 8759SOL     OW37912   3.828   0.545  14.363  0.3549 -0.7418 -0.0639
 8759SOL    HW137913   3.772   0.559  14.439  0.5758 -0.8864  0.1272
 8759SOL    HW237914   3.841   0.452  14.345  3.4313 -0.4502  0.6143
 8760SOL     OW37915   3.181   4.169  17.091 -0.0111  0.2440 -0.2134
 8760SOL    HW137916   3.244   4.098  17.075  1.4203  1.3633  0.4308
 8760SOL    HW237917   3.098   4.139  17.055  0.1150 -1.8972  1.2598
 8761SOL     OW37918   4.545   1.367   9.537  0.0661  0.1963 -0.7316
 8761SOL    HW137919   4.538   1.320   9.620  1.6968  1.2248 -0.0131
 8761SOL    HW237920   4.525   1.458   9.557  0.2088 -0.2058  1.2587
 8762SOL     OW37921   3.769   1.839   2.370 -0.4651  0.0423  0.0572
 8762SOL    HW137922   3.841   1.798   2.417 -0.7467 -0.7314 -0.1815
 8762SOL    HW237923   3.705   1.823   2.440 -0.0245 -0.3012  0.3805
 8763SOL     OW37924   2.826   4.463   4.867 -0.1971  0.2379  0.7074
 8763SOL    HW137925   2.817   4.547   4.822  0.7644  0.5220  1.0289
 8763SOL    HW237926   2.849   4.490   4.956  1.9237 -0.5297  0.4065
 8764SOL     OW37927   2.366   2.729   8.678 -0.7510 -0.4058 -1.0488
 8764SOL    HW137928   2.299   2.673   8.637 -0.9029 -2.9292  2.6903
 8764SOL    HW237929   2.318   2.799   8.722 -0.8856 -1.2787  0.1669
 8765SOL     OW37930   2.477   4.080   9.044 -0.7923 -0.0442  0.2576
 8765SOL    HW137931   2.404   4.138   9.022 -0.7329 -0.2208 -0.4049
 8765SOL    HW237932   2.528   4.095   8.965  0.7813 -1.3598  1.0289
 8766SOL     OW37933   2.403   4.098   2.633 -0.0583 -0.0053  0.0524
 8766SOL    HW137934   2.432   4.042   2.561  3.3579  1.2204  0.4939
 8766SOL    HW237935   2.326   4.050   2.664 -0.6940  0.2444 -1.1349
 8767SOL     OW37936   2.469   4.660   7.099 -1.0581 -0.1668 -0.1638
 8767SOL    HW137937   2.377   4.660   7.128 -0.3949 -0.3620  1.9363
 8767SOL    HW237938   2.461   4.731   7.035  0.7121  0.3134  0.1692
 8768SOL     OW37939   0.474   1.998  17.191  0.2883  0.0626 -0.0462
 8768SOL    HW137940   0.497   2.087  17.165  1.6209 -0.7539 -1.6908
 8768SOL    HW237941   0.421   1.965  17.119  0.1283 -3.1815  1.5432
 8769SOL     OW37942   2.874   1.614   5.063  0.4701  0.5245 -0.2428
 8769SOL    HW137943   2.859   1.520   5.065 -1.6939  0.8744 -0.1091
 8769SOL    HW237944   2.876   1.630   5.157  2.7441 -0.4707 -0.1316
 8770SOL     OW37945   2.304   0.234   3.509  0.4109  0.7596  0.2266
 8770SOL    HW137946   2.263   0.155   3.542 -0.9034  1.1806 -0.4145
 8770SOL    HW237947   2.243   0.259   3.440 -0.6871 -2.3414  0.0946
 8771SOL     OW37948   3.384   3.806   7.616 -0.3120 -0.2547 -0.2397
 8771SOL    HW137949   3.403   3.896   7.589  1.5859 -0.7716 -0.6504
 8771SOL    HW237950   3.321   3.789   7.546  1.0479 -1.1572 -1.2466
 8772SOL     OW37951   2.879   0.633   3.157 -0.4909  0.0454 -0.1999
 8772SOL    HW137952   2.889   0.694   3.084 -1.5443  1.9948  1.2968
 8772SOL    HW237953   2.907   0.552   3.113 -1.4824 -0.2779 -0.2483
 8773SOL     OW37954   3.394   3.778  13.610  0.4576  0.1898  0.0184
 8773SOL    HW137955   3.335   3.850  13.591  0.1877  0.1205  0.5847
 8773SOL    HW237956   3.372   3.713  13.543 -2.0578 -0.6633  1.6725
 8774SOL     OW37957   2.298   0.008   7.994  0.4826 -0.0622 -0.1206
 8774SOL    HW137958   2.234   0.041   8.056 -0.9644  1.8193 -2.6017
 8774SOL    HW237959   2.337   0.088   7.957 -0.1976  0.5381  0.4472
 8775SOL     OW37960   3.095   0.579   1.560  0.6188 -0.2510  0.4265
 8775SOL    HW137961   3.126   0.669   1.566 -0.2891 -0.0691  2.7306
 8775SOL    HW237962   3.101   0.566   1.655 -0.9672  0.5296  0.6300
 8776SOL     OW37963   3.642   0.577   5.593  0.2185 -0.0358 -0.2722
 8776SOL    HW137964   3.591   0.518   5.537  0.8688  0.4624 -1.3879
 8776SOL    HW237965   3.709   0.516   5.625 -1.4320 -2.9623 -2.3472
 8777SOL     OW37966   4.387   0.912   5.131 -0.0108 -0.0323 -0.3093
 8777SOL    HW137967   4.421   0.910   5.042 -0.5886 -2.2286 -0.4619
 8777SOL    HW237968   4.292   0.920   5.118  0.0194 -0.4302 -0.7652
 8778SOL     OW37969   3.701   2.007   2.676  0.2241 -0.2669 -0.3207
 8778SOL    HW137970   3.783   1.958   2.682 -0.3348 -1.2404 -0.5673
 8778SOL    HW237971   3.727   2.095   2.649 -2.0458  0.8505  1.1391
 8779SOL     OW37972   4.389   1.169   4.465 -0.2396 -0.3100 -0.2330
 8779SOL    HW137973   4.468   1.154   4.412  1.0252  0.6990  1.3560
 8779SOL    HW237974   4.346   1.231   4.406 -0.0764 -0.9616 -1.0495
 8780SOL     OW37975   2.980   0.713  17.430  0.5852 -0.1911  0.1008
 8780SOL    HW137976   2.978   0.675  17.342 -0.2346  2.4561 -1.0273
 8780SOL    HW237977   2.913   0.780  17.419 -0.1318 -0.5118  2.7340
 8781SOL     OW37978   4.140   1.173   6.475  0.2538  0.0863 -0.7057
 8781SOL    HW137979   4.071   1.129   6.525  1.0988 -1.5391 -0.9799
 8781SOL    HW237980   4.094   1.252   6.447 -1.0250 -1.4543 -2.9626
 8782SOL     OW37981   2.975   3.723   6.073  0.1542 -0.1363  0.2482
 8782SOL    HW137982   3.033   3.679   6.135 -0.7634  0.0392  1.2312
 8782SOL    HW237983   3.027   3.736   5.994 -2.6272  2.5343 -1.1415
 8783SOL     OW37984   2.332   3.855   0.665  0.0824 -0.0824 -0.4204
 8783SOL    HW137985   2.316   3.789   0.598  0.1266 -0.5860  0.0663
 8783SOL    HW237986   2.379   3.917   0.611  3.1303 -2.3408 -0.3202
 8784SOL     OW37987   3.712   0.307  13.726  0.1626  0.1076  0.4547
 8784SOL    HW137988   3.775   0.257  13.778 -2.6267 -2.7909  1.0754
 8784SOL    HW237989   3.753   0.386  13.691 -0.0789  0.6611  1.4076
 8785SOL     OW37990   4.143   4.325   5.468  0.2562 -0.0175 -0.6152
 8785SOL    HW137991   4.194   4.252   5.502  0.4292 -0.3464 -1.5755
 8785SOL    HW237992   4.188   4.347   5.386  1.3610  2.1831  0.5567
 8786SOL     OW37993   3.590   1.699  17.004 -0.6162  0.1302  0.1043
 8786SOL    HW137994   3.574   1.616  16.959 -2.0605  1.1580 -1.2408
 8786SOL    HW237995   3.667   1.711  16.949 -1.1349  1.5826 -0.2858
 8787SOL     OW37996   1.493   0.468   7.212 -0.4791 -0.3580 -0.2003
 8787SOL    HW137997   1.519   0.559   7.205  1.4922 -0.8834  0.2924
 8787SOL    HW237998   1.550   0.417   7.155 -0.4208 -1.5327  0.8948
 8788SOL     OW37999   2.062   4.707  12.969  0.1808  0.2587  0.2835
 8788SOL    HW138000   2.116   0.034  13.018 -0.3919 -0.1158  1.3824
 8788SOL    HW238001   2.122   4.684  12.898  0.5889  1.3342  0.2730
 8789SOL     OW38002   4.066   2.198   3.510 -0.0475  0.7145  0.5022
 8789SOL    HW138003   4.128   2.136   3.472  0.9168  0.5040  2.4021
 8789SOL    HW238004   4.018   2.222   3.431 -1.5033  0.3403  1.2650
 8790SOL     OW38005   2.320   0.332   7.173  0.0104  0.2853 -0.3950
 8790SOL    HW138006   2.265   0.288   7.237  0.4115 -2.0714 -1.6862
 8790SOL    HW238007   2.408   0.303   7.199  0.4610  2.0380  0.0874
 8791SOL     OW38008   4.433   0.264   2.191  0.2851  0.5827 -0.4990
 8791SOL    HW138009   4.451   0.222   2.275 -1.3396 -0.5667 -0.7270
 8791SOL    HW238010   4.402   0.191   2.138  1.2268 -0.3999  0.3074
 8792SOL     OW38011   0.517   2.051   8.725 -0.3891 -0.3593 -0.2048
 8792SOL    HW138012   0.475   2.130   8.758  0.3434  0.6790 -1.7707
 8792SOL    HW238013   0.463   2.031   8.649  0.6043  1.9568 -1.5244
 8793SOL     OW38014   2.602   0.920   7.254 -0.0028  0.6302  0.2393
 8793SOL    HW138015   2.619   0.916   7.160 -1.5268 -1.6191  0.0575
 8793SOL    HW238016   2.515   0.961   7.244 -0.6211 -0.5962  0.6376
 8794SOL     OW38017   4.220   3.491  11.326  0.5672  0.0745  0.3095
 8794SOL    HW138018   4.273   3.414  11.310  0.8450  0.4508 -0.6206
 8794SOL    HW238019   4.200   3.488  11.419 -0.8231 -0.4937 -0.0052
 8795SOL     OW38020   3.403   3.770   2.310 -0.1129  0.1479 -0.4504
 8795SOL    HW138021   3.352   3.702   2.354 -0.7474  0.7440 -0.2631
 8795SOL    HW238022   3.406   3.841   2.375  0.7116 -0.6277  0.3566
 8796SOL     OW38023   3.890   0.606   3.811 -0.3174  0.5528  0.7491
 8796SOL    HW138024   3.944   0.654   3.749 -1.5938 -0.7748 -1.4004
 8796SOL    HW238025   3.949   0.532   3.823 -3.0210 -1.9741 -1.4264
 8797SOL     OW38026   1.896   1.740  10.326 -0.4901  0.2251  0.6141
 8797SOL    HW138027   1.843   1.805  10.372 -1.2118 -1.7803  2.6712
 8797SOL    HW238028   1.890   1.673  10.395 -0.1705  0.4454  0.8531
 8798SOL     OW38029   4.534   0.000   8.386  0.0663 -0.1366  0.5680
 8798SOL    HW138030   4.618   4.690   8.378 -0.2573 -0.6065 -0.1497
 8798SOL    HW238031   4.512   0.011   8.294 -1.7527  0.5344  1.0846
 8799SOL     OW38032   4.575   1.762   4.388  0.2434 -0.0716 -0.1351
 8799SOL    HW138033   4.626   1.843   4.381  0.3146 -0.1623 -0.6721
 8799SOL    HW238034   4.539   1.749   4.300 -0.1406  0.0384  0.0089
 8800SOL     OW38035   3.909   3.509   3.588 -0.6594  0.1985  0.1418
 8800SOL    HW138036   3.879   3.588   3.545  0.6518  1.5560  1.7218
 8800SOL    HW238037   3.909   3.443   3.519  2.2980  1.1317 -0.7360
 8801SOL     OW38038   4.347   3.354   6.286 -0.1351  0.1123 -0.3821
 8801SOL    HW138039   4.299   3.357   6.369  1.1019 -1.9201  0.4118
 8801SOL    HW238040   4.397   3.275   6.305 -1.4036 -0.7659 -0.6760
 8802SOL     OW38041   3.597   2.936   8.192 -0.8605 -0.0859  0.3667
 8802SOL    HW138042   3.559   2.939   8.105  0.3272 -2.1575 -0.2112
 8802SOL    HW238043   3.629   3.025   8.206  0.3519 -0.6827  1.3774
 8803SOL     OW38044   0.548   3.104   4.931 -0.4858  0.7856 -0.1883
 8803SOL    HW138045   0.600   3.131   5.007 -3.5139 -0.5375  2.3388
 8803SOL    HW238046   0.459   3.107   4.964  0.6757  2.6879  2.7752
 8804SOL     OW38047   0.949   1.931   6.405 -0.4110 -0.1226 -0.0970
 8804SOL    HW138048   0.975   2.023   6.418  0.8037 -0.4940  0.1165
 8804SOL    HW238049   0.965   1.919   6.312 -1.2004 -0.4487 -0.1850
 8805SOL     OW38050   0.206   3.242  12.554 -0.3535  0.0740  0.3137
 8805SOL    HW138051   0.246   3.231  12.640  0.7059  2.7195  0.1386
 8805SOL    HW238052   0.214   3.337  12.544  2.7586 -0.1638  0.8092
 8806SOL     OW38053   0.533   0.093   4.905 -0.1121  0.8026 -0.1710
 8806SOL    HW138054   0.559   0.077   4.814 -0.5081 -0.3080 -0.0896
 8806SOL    HW238055   0.549   0.015   4.958  0.5332  0.7591 -0.4296
 8807SOL     OW38056   0.264   0.295   7.858  0.1392  0.0397  0.4462
 8807SOL    HW138057   0.337   0.239   7.833  1.5780  2.1257 -0.0523
 8807SOL    HW238058   0.309   0.363   7.908 -0.3556 -0.2729  1.3099
 8808SOL     OW38059   0.548   0.115   3.326  0.0381  0.1356 -0.2207
 8808SOL    HW138060   0.643   0.117   3.313 -0.0616  0.9570 -0.7910
 8808SOL    HW238061   0.528   0.025   3.299  2.0632 -0.0286 -1.1360
 8809SOL     OW38062   2.009   3.781   0.315 -0.0290 -0.1197  0.2147
 8809SOL    HW138063   1.943   3.850   0.307  0.3480  0.4673  2.1065
 8809SOL    HW238064   2.012   3.775   0.411 -2.3683 -0.2754  0.2739
 8810SOL     OW38065   3.861   1.875   3.976  0.3566  0.1191  0.2047
 8810SOL    HW138066   3.903   1.956   3.948 -4.4559  2.2735 -0.7760
 8810SOL    HW238067   3.931   1.840   4.031 -0.7156 -1.0005  0.8547
 8811SOL     OW38068   3.253   4.386  16.693  0.2332  0.4610 -0.2574
 8811SOL    HW138069   3.257   4.422  16.781  1.4886  1.1016 -0.5899
 8811SOL    HW238070   3.298   4.449  16.637  0.1575  0.3728 -0.4194
 8812SOL     OW38071   0.570   3.115   7.611 -0.2057 -0.4921 -0.5102
 8812SOL    HW138072   0.498   3.178   7.605 -0.8619 -1.3432 -1.5957
 8812SOL    HW238073   0.636   3.166   7.564 -1.2454  0.9546 -0.4304
 8813SOL     OW38074   0.487   4.643   6.286  0.0081  0.5688 -0.0137
 8813SOL    HW138075   0.437   4.569   6.249 -0.5954  1.8120 -1.6962
 8813SOL    HW238076   0.450   4.655   6.373 -0.4098 -1.2057  0.0601
 8814SOL     OW38077   2.520   1.094  15.060  0.4864  0.2241 -0.0545
 8814SOL    HW138078   2.495   1.167  15.116 -0.5239 -1.1220  1.2726
 8814SOL    HW238079   2.437   1.048  15.044  0.7033  0.1211 -0.8687
 8815SOL     OW38080   1.312   1.164   8.204 -0.0534  0.0544 -0.5209
 8815SOL    HW138081   1.305   1.094   8.139 -0.3082 -1.3473  1.0105
 8815SOL    HW238082   1.405   1.187   8.195  0.0523 -0.0162  0.3475
 8816SOL     OW38083   1.889   1.505   4.109  0.7193  0.6694 -0.4114
 8816SOL    HW138084   1.838   1.449   4.168  0.5903  1.7140  0.4638
 8816SOL    HW238085   1.916   1.581   4.161  0.4957  0.2760  0.2755
 8817SOL     OW38086   2.042   1.626   9.423  0.2043  0.1356 -0.1453
 8817SOL    HW138087   2.093   1.682   9.482 -2.3141 -0.8285  2.9414
 8817SOL    HW238088   2.047   1.544   9.471 -0.7213 -0.9120 -1.8287
 8818SOL     OW38089   2.829   4.607   7.678  0.1620 -0.0123 -0.1072
 8818SOL    HW138090   2.881   4.680   7.644 -0.8641  1.5517  1.6802
 8818SOL    HW238091   2.896   4.564   7.731  0.3923  1.8337  1.0608
 8819SOL     OW38092   1.488   0.178   7.550  0.2357  0.3158  0.2334
 8819SOL    HW138093   1.404   0.222   7.553  0.0412 -0.0272 -0.1835
 8819SOL    HW238094   1.450   0.096   7.518  2.6587 -0.4773 -0.6212
 8820SOL     OW38095   1.526   0.232   7.894 -0.1210 -0.1767 -0.0929
 8820SOL    HW138096   1.504   0.214   7.986 -0.1353 -0.8332 -0.2275
 8820SOL    HW238097   1.438   0.215   7.863 -0.0906  1.9619 -1.3673
 8821SOL     OW38098   1.901   1.497   0.709  0.3879  0.2749  0.2317
 8821SOL    HW138099   1.871   1.588   0.706 -3.9813 -1.2056 -1.0379
 8821SOL    HW238100   1.996   1.506   0.714  0.0752  3.8132 -0.0946
 8822SOL     OW38101   2.936   2.243   4.370 -0.7873 -0.1517 -0.1111
 8822SOL    HW138102   2.984   2.280   4.444  1.5977 -1.7569 -0.8335
 8822SOL    HW238103   2.863   2.192   4.404  0.1679 -1.4436  0.0255
 8823SOL     OW38104   4.135   0.883   6.054  0.0499  0.3083 -0.1846
 8823SOL    HW138105   4.193   0.959   6.048  0.9229 -0.2952  0.5415
 8823SOL    HW238106   4.188   0.808   6.028 -0.4297  0.2244 -0.9100
 8824SOL     OW38107   1.621   0.331   3.321  0.1398  0.0805 -0.3745
 8824SOL    HW138108   1.688   0.333   3.390 -0.5219  1.3645  0.2431
 8824SOL    HW238109   1.667   0.367   3.245 -2.2737 -2.2957 -2.9439
 8825SOL     OW38110   0.014   3.226   3.088  0.2981 -0.4060  0.4654
 8825SOL    HW138111   4.711   3.149   3.129 -2.3175 -0.9319 -2.8909
 8825SOL    HW238112   4.695   3.300   3.117 -0.5604 -0.0494 -2.0348
 8826SOL     OW38113   2.895   2.423   6.341  0.6109 -0.2304  0.4841
 8826SOL    HW138114   2.838   2.387   6.272 -0.3327  1.0121  0.6003
 8826SOL    HW238115   2.941   2.489   6.288  1.2851 -1.4041 -0.3784
 8827SOL     OW38116   1.343   1.786   1.721  0.3557  0.1213  0.4033
 8827SOL    HW138117   1.407   1.741   1.666  0.2275  1.4902 -0.8460
 8827SOL    HW238118   1.358   1.878   1.699 -2.4763  0.3319 -0.6722
 8828SOL     OW38119   2.445   2.081   6.728 -0.3335 -0.1447  0.2234
 8828SOL    HW138120   2.534   2.107   6.755 -0.3621 -0.0597  0.2364
 8828SOL    HW238121   2.395   2.161   6.741  1.2215  1.1675 -1.6837
 8829SOL     OW38122   1.850   2.786   9.333  0.1835 -0.0495  0.0673
 8829SOL    HW138123   1.917   2.762   9.269 -0.4070 -2.6764  0.4104
 8829SOL    HW238124   1.862   2.877   9.361 -1.5453 -0.2505  1.4393
 8830SOL     OW38125   1.535   1.183  16.252 -0.1246  0.5529 -0.1266
 8830SOL    HW138126   1.468   1.114  16.255  2.5984 -2.1146 -0.5380
 8830SOL    HW238127   1.590   1.156  16.179  1.4473  0.9584  0.9143
 8831SOL     OW38128   0.381   2.238   7.106 -0.0426 -0.6237  0.0265
 8831SOL    HW138129   0.467   2.263   7.075  0.2770 -1.0523  0.5656
 8831SOL    HW238130   0.405   2.198   7.190  2.1925 -2.3580 -1.4702
 8832SOL     OW38131   4.396   1.373   8.230  0.2686 -0.1216  0.1183
 8832SOL    HW138132   4.325   1.309   8.240 -0.5933  0.8525  0.2943
 8832SOL    HW238133   4.442   1.352   8.310  3.1132 -2.5717 -2.1787
 8833SOL     OW38134   0.569   2.169   9.077 -0.4640  0.0951 -0.4210
 8833SOL    HW138135   0.651   2.126   9.099 -0.6427  0.5114  1.0410
 8833SOL    HW238136   0.520   2.098   9.037 -2.5349  0.5256  1.3711
 8834SOL     OW38137   0.364   1.873   6.240  0.9514 -0.2337 -0.4638
 8834SOL    HW138138   0.418   1.803   6.203  0.7735  0.6733 -2.4353
 8834SOL    HW238139   0.290   1.869   6.179 -1.0287 -1.0221  1.9839
 8835SOL     OW38140   3.638   0.117  11.438 -0.4140 -0.5890 -0.2816
 8835SOL    HW138141   3.733   0.107  11.449 -0.5142  0.5715  1.6895
 8835SOL    HW238142   3.626   0.200  11.485 -0.8047 -0.7390 -0.1113
 8836SOL     OW38143   2.066   1.012  11.600 -0.4258  0.6408  0.4606
 8836SOL    HW138144   2.148   0.966  11.586 -1.8009 -1.5658 -0.2323
 8836SOL    HW238145   2.095   1.103  11.598  0.9882  0.2162  1.6147
 8837SOL     OW38146   2.991   3.985   4.034 -0.5937 -0.4267 -0.7985
 8837SOL    HW138147   2.944   3.940   4.104  0.0544  1.1629  0.6639
 8837SOL    HW238148   3.016   4.068   4.075  2.2152 -1.0810 -1.1365
 8838SOL     OW38149   1.040   1.046   2.726 -0.4954 -0.3288  0.6185
 8838SOL    HW138150   1.054   1.011   2.638 -1.5628  0.5797  0.0746
 8838SOL    HW238151   1.029   1.140   2.709 -0.8980 -0.2439  1.3467
 8839SOL     OW38152   1.539   0.472   8.825 -0.8414  0.2357  0.1157
 8839SOL    HW138153   1.531   0.427   8.741  0.7291 -0.4679  0.3380
 8839SOL    HW238154   1.601   0.411   8.866  0.3171 -0.3663 -2.5512
 8840SOL     OW38155   0.105   1.891   8.761 -0.7085 -0.4307  0.7486
 8840SOL    HW138156   0.177   1.946   8.732 -0.1236 -1.1842  0.7586
 8840SOL    HW238157   0.133   1.805   8.728  0.0770  0.3591 -0.6149
 8841SOL     OW38158   1.635   4.634   5.862 -0.1076 -0.9369 -0.4982
 8841SOL    HW138159   1.642   4.701   5.929  0.7093 -0.9637 -0.5652
 8841SOL    HW238160   1.675   4.668   5.782 -1.5161 -2.3144 -1.7944
 8842SOL     OW38161   3.891   2.190   2.031 -0.8060  0.0153 -0.4524
 8842SOL    HW138162   3.878   2.097   2.049 -0.5831 -0.2104 -1.4893
 8842SOL    HW238163   3.888   2.196   1.936 -1.7808 -1.2111 -0.5001
 8843SOL     OW38164   2.246   1.230   6.907 -0.0309  0.3716 -0.1006
 8843SOL    HW138165   2.295   1.188   6.978  0.1345 -1.5998 -1.3850
 8843SOL    HW238166   2.289   1.315   6.903  2.8285 -1.1584 -2.1101
 8844SOL     OW38167   2.461   3.858  16.063 -0.0048  0.5340  0.4084
 8844SOL    HW138168   2.377   3.893  16.092  0.2530  1.6430 -0.1844
 8844SOL    HW238169   2.488   3.810  16.141  0.7310  0.8113  0.3236
 8845SOL     OW38170   3.383   1.964   9.539  0.3781  0.5814  0.1473
 8845SOL    HW138171   3.415   2.053   9.553  0.2894  0.6418 -0.0292
 8845SOL    HW238172   3.338   1.940   9.620 -0.6887  0.5200 -0.4564
 8846SOL     OW38173   1.955   1.460   2.874 -0.4219  0.1366  0.5158
 8846SOL    HW138174   1.948   1.447   2.779  1.1054 -0.6893  0.5265
 8846SOL    HW238175   2.049   1.478   2.875 -0.6395  1.0121  3.7015
 8847SOL     OW38176   4.529   2.575   9.415 -0.3056 -0.3422  0.6262
 8847SOL    HW138177   4.582   2.602   9.490 -0.7251 -0.7700  1.0783
 8847SOL    HW238178   4.588   2.556   9.342 -1.4703 -0.2174 -0.3593
 8848SOL     OW38179   4.559   1.957   3.950 -0.4382 -0.3164 -0.2382
 8848SOL    HW138180   4.584   2.045   3.978  0.7152  0.1574 -2.7011
 8848SOL    HW238181   4.542   1.980   3.859 -0.7353 -0.8416 -0.3151
 8849SOL     OW38182   3.076   4.566   3.710  0.4800 -0.1563  0.7480
 8849SOL    HW138183   3.051   4.637   3.650  4.4703 -1.0888 -2.0244
 8849SOL    HW238184   3.164   4.593   3.737  0.8167 -0.7662  0.2729
 8850SOL     OW38185   3.156   1.921  13.447  0.5867 -0.9285  0.0111
 8850SOL    HW138186   3.194   1.986  13.505  0.9512  0.9565 -2.3622
 8850SOL    HW238187   3.153   1.843  13.504 -2.5183 -1.2276 -0.5435
 8851SOL     OW38188   3.944   3.513   3.061  0.3076  0.2371 -0.2170
 8851SOL    HW138189   3.952   3.566   3.140  1.1624  0.0669 -0.1924
 8851SOL    HW238190   4.005   3.443   3.085 -0.9608 -1.6574 -2.5166
 8852SOL     OW38191   1.544   0.444   2.232  0.2055 -0.3353  0.5034
 8852SOL    HW138192   1.548   0.466   2.139  4.0549 -4.2720 -0.2871
 8852SOL    HW238193   1.594   0.363   2.240 -0.8809 -1.0327  0.3000
 8853SOL     OW38194   1.838   2.788   7.545  0.0691  0.0775 -0.4163
 8853SOL    HW138195   1.893   2.856   7.505  1.7887 -0.6681  0.6826
 8853SOL    HW238196   1.776   2.765   7.476 -0.4106  0.2524 -0.0405
 8854SOL     OW38197   2.275   0.585  10.835 -0.3421 -0.0596  0.0750
 8854SOL    HW138198   2.235   0.517  10.781 -1.8081  0.5118  0.4474
 8854SOL    HW238199   2.330   0.637  10.776  0.3770 -0.8498  0.0324
 8855SOL     OW38200   0.954   4.307   6.761  0.2593  0.1280  0.6701
 8855SOL    HW138201   1.021   4.353   6.711 -1.4079 -0.9500 -2.6310
 8855SOL    HW238202   0.910   4.383   6.801  0.7656  1.5559 -1.4713
 8856SOL     OW38203   2.237   0.794  10.480  0.1128 -0.1838  0.7122
 8856SOL    HW138204   2.168   0.806  10.544  0.8379 -0.5387  1.5596
 8856SOL    HW238205   2.310   0.756  10.529  0.7884  0.8748  0.5571
 8857SOL     OW38206   3.806   2.826   4.071  0.0570  0.0081  0.1764
 8857SOL    HW138207   3.745   2.887   4.028  1.6251  0.1950 -1.7854
 8857SOL    HW238208   3.765   2.802   4.154  1.4281 -0.3046  0.7501
 8858SOL     OW38209   0.083   2.961   2.317  0.3196 -0.2998  0.4052
 8858SOL    HW138210   0.049   2.961   2.407  1.8593 -2.7449  0.9731
 8858SOL    HW238211   0.005   2.930   2.272  1.8485  0.1930 -2.5566
 8859SOL     OW38212   4.559   2.394   7.895  0.6465  0.1411 -0.0078
 8859SOL    HW138213   4.617   2.419   7.967 -0.4495 -0.4242  1.0844
 8859SOL    HW238214   4.472   2.396   7.936  0.9710 -0.0512  0.6817
 8860SOL     OW38215   1.010   1.103  10.088 -0.0839  0.0112 -0.1069
 8860SOL    HW138216   1.015   1.093  10.183 -2.7123 -1.3185 -0.0934
 8860SOL    HW238217   0.946   1.174  10.087  0.3640  0.4196  1.0798
 8861SOL     OW38218   1.287   1.015   0.539 -0.4355 -0.2706  0.3909
 8861SOL    HW138219   1.380   0.997   0.523 -1.0756 -1.7396 -1.5919
 8861SOL    HW238220   1.234   0.973   0.472  0.4043  1.1886 -1.1726
 8862SOL     OW38221   4.682   1.843   9.244  0.3881 -0.4489  0.6851
 8862SOL    HW138222   4.698   1.916   9.304 -0.7763  1.7484 -1.7088
 8862SOL    HW238223   0.022   1.853   9.187 -0.2423 -0.9242 -0.2274
 8863SOL     OW38224   1.675   0.956  10.699  0.3023  0.1752  0.0790
 8863SOL    HW138225   1.684   0.872  10.745 -1.5943  1.3176  2.5336
 8863SOL    HW238226   1.581   0.960  10.682  0.4941  3.0051 -0.3239
 8864SOL     OW38227   3.854   3.611   8.478 -0.8284  0.1032  0.5209
 8864SOL    HW138228   3.884   3.647   8.395  0.6911 -1.0776  0.5582
 8864SOL    HW238229   3.925   3.549   8.493 -1.0804 -0.0492  1.0960
 8865SOL     OW38230   3.734   1.270   8.089 -0.9962  0.2805  0.3987
 8865SOL    HW138231   3.692   1.356   8.078 -1.0346  0.1139 -0.7687
 8865SOL    HW238232   3.810   1.286   8.145  0.8164  0.4855 -2.0642
 8866SOL     OW38233   1.861   3.278  14.645 -0.2620 -0.8093 -0.1607
 8866SOL    HW138234   1.809   3.310  14.571  1.5549 -2.9354 -2.3598
 8866SOL    HW238235   1.815   3.319  14.718  1.3045  0.9168 -0.1309
 8867SOL     OW38236   2.741   4.105   0.485 -1.0712 -0.5093 -0.1383
 8867SOL    HW138237   2.725   4.195   0.455  2.1219 -0.4297 -1.5982
 8867SOL    HW238238   2.827   4.104   0.528 -1.4974  1.0888  0.7613
 8868SOL     OW38239   0.213   3.028  13.248  0.4125 -0.3407 -0.3864
 8868SOL    HW138240   0.147   3.047  13.314 -0.0293 -2.9939 -0.0698
 8868SOL    HW238241   0.290   3.016  13.303 -0.6907 -0.7695  1.0634
 8869SOL     OW38242   3.376   4.196   2.970 -0.2947 -0.0152 -0.0824
 8869SOL    HW138243   3.375   4.151   2.886  1.2832  1.7709 -1.0429
 8869SOL    HW238244   3.395   4.122   3.028  1.2799  1.2809  1.0637
 8870SOL     OW38245   4.288   3.826   6.238 -0.6278  0.2599  0.2057
 8870SOL    HW138246   4.216   3.769   6.265  0.6970 -1.8189 -0.7341
 8870SOL    HW238247   4.335   3.857   6.316 -0.5013  0.7272 -0.0508
 8871SOL     OW38248   1.438   0.879   1.874 -0.4097 -0.1902 -0.1274
 8871SOL    HW138249   1.469   0.949   1.931 -2.5227  0.6331  0.0123
 8871SOL    HW238250   1.401   0.926   1.800 -0.4983  0.1728  0.1491
 8872SOL     OW38251   0.296   3.532   0.059 -0.4826  0.4367 -0.2230
 8872SOL    HW138252   0.236   3.522   0.133 -0.9856 -1.0704 -0.8508
 8872SOL    HW238253   0.284   3.625   0.041  0.0821  0.3152 -1.2434
 8873SOL     OW38254   2.032   2.991   2.821  0.2302  0.2357  0.4708
 8873SOL    HW138255   2.018   2.909   2.867  1.4584 -0.2821 -0.0827
 8873SOL    HW238256   2.020   2.975   2.727 -0.7011  1.1262  0.4449
 8874SOL     OW38257   3.096   4.128  17.352 -0.2210 -0.1196 -0.1721
 8874SOL    HW138258   3.078   4.037  17.330  1.3943 -1.4347  4.1181
 8874SOL    HW238259   3.143   4.161  17.275  0.1088  1.5051  0.7295
 8875SOL     OW38260   0.773   0.477   2.606 -0.3744  0.2679  0.3944
 8875SOL    HW138261   0.840   0.447   2.666 -0.6458  0.5573  0.8390
 8875SOL    HW238262   0.826   0.543   2.561  0.7038  0.0480  1.3725
 8876SOL     OW38263   3.241   1.837  11.367 -0.1420  0.1553  0.5742
 8876SOL    HW138264   3.224   1.847  11.461 -3.0717  0.9409 -0.0398
 8876SOL    HW238265   3.152   1.861  11.339  1.1695  2.0757 -1.9401
 8877SOL     OW38266   4.706   1.093  13.532 -0.2240  0.5669 -0.2319
 8877SOL    HW138267   4.693   1.187  13.519 -0.7338  0.8204  2.1398
 8877SOL    HW238268   0.060   1.093  13.497  1.0401  0.1782  3.0395
 8878SOL     OW38269   2.364   3.187  11.434  0.3436 -0.2187 -0.1615
 8878SOL    HW138270   2.449   3.168  11.392 -1.4757 -2.1430 -2.9473
 8878SOL    HW238271   2.305   3.196  11.360  1.0692 -1.2682 -0.8718
 8879SOL     OW38272   4.552   2.490   1.662  0.7915  0.2833 -0.0192
 8879SOL    HW138273   4.581   2.559   1.601  0.5258  0.6381  0.2532
 8879SOL    HW238274   4.624   2.428   1.648  0.4990 -0.1187  0.2962
 8880SOL     OW38275   2.823   1.863   1.477  0.1490  0.2893  0.4013
 8880SOL    HW138276   2.732   1.837   1.492  0.8540 -1.2148  2.1254
 8880SOL    HW238277   2.815   1.931   1.544 -1.7496  0.3036  0.1720
 8881SOL     OW38278   2.339   3.232  17.366  0.6189 -0.7871 -0.4036
 8881SOL    HW138279   2.394   3.234  17.444  1.0620  2.3106 -0.8140
 8881SOL    HW238280   2.293   3.149  17.381 -0.9322  0.2771  0.7493
 8882SOL     OW38281   4.214   0.350   5.234  0.0639  0.4276  0.4040
 8882SOL    HW138282   4.180   0.438   5.223  0.9751  0.7858  0.4931
 8882SOL    HW238283   4.273   0.377   5.304  0.7685 -0.2543  0.0839
 8883SOL     OW38284   1.175   1.658   4.453 -0.0755  0.3795  0.6048
 8883SOL    HW138285   1.254   1.605   4.466  0.7952  1.1989 -1.3951
 8883SOL    HW238286   1.158   1.631   4.363  2.7823  0.5795  0.0100
 8884SOL     OW38287   2.345   4.401   4.807 -0.1820 -0.6112  0.4293
 8884SOL    HW138288   2.431   4.433   4.778 -0.0609 -0.8923  0.4687
 8884SOL    HW238289   2.379   4.311   4.817  0.3851 -0.6031 -1.5113
 8885SOL     OW38290   0.359   2.789   9.224 -0.9029  0.2179 -0.1816
 8885SOL    HW138291   0.422   2.758   9.158 -0.3768 -1.6330  1.1775
 8885SOL    HW238292   0.359   2.884   9.214 -0.7394  0.0304 -1.8558
 8886SOL     OW38293   0.480   0.396   3.787  0.1565  0.2337 -0.1945
 8886SOL    HW138294   0.497   0.317   3.735 -0.9255  0.8543 -1.4671
 8886SOL    HW238295   0.441   0.455   3.723  0.1387 -0.7982 -1.1322
 8887SOL     OW38296   3.633   4.002   7.863  0.5469  0.1924 -0.1702
 8887SOL    HW138297   3.564   3.996   7.929 -0.9866 -2.4936 -2.0266
 8887SOL    HW238298   3.696   3.952   7.915  0.8056  0.3846 -0.2983
 8888SOL     OW38299   4.085   3.229   1.758  0.2723  0.1320 -0.1070
 8888SOL    HW138300   4.075   3.257   1.667  2.9332  1.9715  0.1682
 8888SOL    HW238301   4.136   3.303   1.790  0.3585  0.2920 -0.6182
 8889SOL     OW38302   2.774   2.395  12.833  0.2434 -0.4611 -0.0087
 8889SOL    HW138303   2.734   2.436  12.756  0.7533  1.5489  0.7916
 8889SOL    HW238304   2.847   2.455  12.849 -0.5567  0.6546 -0.5565
 8890SOL     OW38305   1.118   4.471  15.308 -0.2191 -0.2348  0.1185
 8890SOL    HW138306   1.045   4.457  15.369 -0.3375  0.8077  0.2097
 8890SOL    HW238307   1.083   4.554  15.277 -2.9563 -1.0530  1.0202
 8891SOL     OW38308   2.146   2.896   6.566 -0.1014 -0.1949 -0.1978
 8891SOL    HW138309   2.152   2.932   6.655  1.7232  0.9390 -0.7750
 8891SOL    HW238310   2.077   2.829   6.570 -2.6573  2.5276  1.5457
 8892SOL     OW38311   2.067   3.104  11.252  0.3717  0.9792  0.1056
 8892SOL    HW138312   2.041   3.095  11.344  0.6442  2.4886  0.3341
 8892SOL    HW238313   2.057   3.012  11.229  1.2791  1.0232 -0.4856
 8893SOL     OW38314   2.832   0.301   1.672  0.3751 -0.4410 -0.4770
 8893SOL    HW138315   2.768   0.233   1.654 -0.6767  0.6050 -0.6915
 8893SOL    HW238316   2.772   0.375   1.661 -1.2250 -1.7636 -0.6189
 8894SOL     OW38317   2.629   3.613   2.243 -0.3082  0.5303  0.4409
 8894SOL    HW138318   2.708   3.593   2.193  0.0078  0.8771  0.8011
 8894SOL    HW238319   2.565   3.598   2.173 -1.4013  0.6982  1.3986
 8895SOL     OW38320   2.931   3.392   1.640  0.1525 -0.1176 -1.2017
 8895SOL    HW138321   2.996   3.449   1.682  1.0643 -2.0033 -0.0533
 8895SOL    HW238322   2.864   3.457   1.618 -1.4769 -2.3618 -2.9199
 8896SOL     OW38323   2.036   3.291  16.061 -0.1557 -0.0462 -0.3332
 8896SOL    HW138324   1.970   3.314  16.128  0.4528 -0.3930  0.3793
 8896SOL    HW238325   2.054   3.198  16.067 -0.8627 -0.0990  1.0824
 8897SOL     OW38326   1.746   4.263   6.183  1.0545 -0.2985  0.5103
 8897SOL    HW138327   1.718   4.320   6.111  2.0513 -1.6566 -0.9334
 8897SOL    HW238328   1.668   4.263   6.239  0.6125 -0.6044 -0.1085
 8898SOL     OW38329   2.837   2.114  16.326 -0.4174 -0.2188 -0.1241
 8898SOL    HW138330   2.748   2.078  16.323 -0.6749  0.2512  1.8687
 8898SOL    HW238331   2.876   2.053  16.264  1.0123  0.9066 -0.3292
 8899SOL     OW38332   2.820   3.997  17.584 -0.3545 -0.1995 -0.2049
 8899SOL    HW138333   2.825   4.005  17.679 -0.8174  0.0225 -0.1986
 8899SOL    HW238334   2.893   3.937  17.569  0.6562  1.0183 -0.1698
 8900SOL     OW38335   2.308   1.409  15.767 -0.1474 -0.0943  0.1191
 8900SOL    HW138336   2.281   1.342  15.830 -1.9908 -1.1137 -1.7831
 8900SOL    HW238337   2.403   1.400  15.777 -0.2409  1.4682  2.5289
 8901SOL     OW38338   0.333   1.875   7.689 -0.4834  0.3144 -0.5283
 8901SOL    HW138339   0.392   1.950   7.700 -1.6455  1.5211 -2.6227
 8901SOL    HW238340   0.364   1.808   7.750  0.5727  2.3626  1.1942
 8902SOL     OW38341   3.186   0.032   6.892 -0.7352 -0.9790  0.0796
 8902SOL    HW138342   3.278   0.004   6.893 -0.5187 -0.4119 -2.6822
 8902SOL    HW238343   3.152   4.681   6.918 -2.8036 -0.2459 -0.2062
 8903SOL     OW38344   1.802   1.097   3.541 -0.0212  0.2762 -0.3662
 8903SOL    HW138345   1.737   1.042   3.585  1.3657  0.4878  1.9182
 8903SOL    HW238346   1.783   1.182   3.581  2.5402  0.6813 -0.0079
 8904SOL     OW38347   1.939   0.081   4.911  0.3217  0.4384 -0.4961
 8904SOL    HW138348   1.848   0.074   4.941  0.2888 -1.1907 -0.9726
 8904SOL    HW238349   1.979   0.006   4.956 -0.5859  0.9462  1.1809
 8905SOL     OW38350   4.213   2.447   0.489 -0.2402 -0.2189  0.1487
 8905SOL    HW138351   4.242   2.488   0.571  0.4448  1.8050 -1.1154
 8905SOL    HW238352   4.282   2.383   0.473 -1.8051 -1.9731  0.4013
 8906SOL     OW38353   3.344   3.681   3.157  0.3298 -0.5145 -0.0565
 8906SOL    HW138354   3.352   3.603   3.213  0.1866  1.7156  3.0892
 8906SOL    HW238355   3.428   3.724   3.173  1.1335 -1.7069 -0.9910
 8907SOL     OW38356   4.243   1.540  10.398 -0.1368 -0.3676 -0.1823
 8907SOL    HW138357   4.151   1.532  10.423 -0.5628 -1.1798 -1.9905
 8907SOL    HW238358   4.283   1.484  10.464 -0.0171 -0.0540  0.0129
 8908SOL     OW38359   4.193   0.807  11.310 -0.2078  0.0770 -0.2751
 8908SOL    HW138360   4.179   0.716  11.285 -0.2906 -0.1158  0.4728
 8908SOL    HW238361   4.245   0.793  11.390  0.5889 -2.8718 -1.3291
 8909SOL     OW38362   3.116   3.602   1.669  0.6333 -0.2671 -0.0191
 8909SOL    HW138363   3.030   3.639   1.650  0.5981 -0.6573 -0.6103
 8909SOL    HW238364   3.139   3.665   1.737 -3.5518  2.1915 -0.8856
 8910SOL     OW38365   2.804   3.198   9.267 -0.9708  0.0613 -0.1069
 8910SOL    HW138366   2.740   3.127   9.262 -0.3104 -0.5790  0.3768
 8910SOL    HW238367   2.760   3.275   9.302 -1.8551  0.8065 -2.8664
 8911SOL     OW38368   3.842   0.047  12.253 -0.0108 -0.6226 -0.8290
 8911SOL    HW138369   3.868   0.138  12.269  1.4998 -1.3604  0.8358
 8911SOL    HW238370   3.934   0.023  12.262  0.7629  1.7288 -2.3305
 8912SOL     OW38371   0.049   3.262  12.282  0.5544 -0.2840  0.0844
 8912SOL    HW138372   0.104   3.316  12.226  0.2836  0.2087  0.2888
 8912SOL    HW238373   0.108   3.249  12.357  2.3492 -1.6617 -1.5780
 8913SOL     OW38374   3.095   3.830   0.312  0.2145  0.0119 -0.4634
 8913SOL    HW138375   3.003   3.844   0.332  0.8155  2.5872  0.5809
 8913SOL    HW238376   3.094   3.811   0.218 -0.5660  0.3998 -0.5293
 8914SOL     OW38377   3.855   4.117   4.011 -0.5456  0.0372 -0.4733
 8914SOL    HW138378   3.884   4.113   4.102  0.7078 -2.4261 -0.9821
 8914SOL    HW238379   3.890   4.036   3.975 -1.5840 -1.5790  2.0800
 8915SOL     OW38380   1.318   2.890   1.110 -0.4068  0.4921 -0.0179
 8915SOL    HW138381   1.230   2.902   1.073  0.7416  0.0618 -2.9049
 8915SOL    HW238382   1.335   2.799   1.083 -1.3692 -0.4448  2.4808
 8916SOL     OW38383   0.725   4.070   7.193  0.2091  0.3790  0.5619
 8916SOL    HW138384   0.641   4.073   7.149  1.2291  0.5316 -1.3738
 8916SOL    HW238385   0.746   3.979   7.173 -2.4530  0.3047 -1.8566
 8917SOL     OW38386   1.395   1.108  10.331  0.1342  0.0656 -0.7892
 8917SOL    HW138387   1.317   1.054  10.321  0.5803 -0.8991  1.0389
 8917SOL    HW238388   1.359   1.197  10.324  0.0691  0.0212 -0.9997
 8918SOL     OW38389   3.577   4.295   3.324 -0.3778  0.1658 -0.3667
 8918SOL    HW138390   3.513   4.341   3.269  0.1442  0.5288 -0.6593
 8918SOL    HW238391   3.630   4.252   3.257  1.4918  0.4531  0.9404
 8919SOL     OW38392   0.947   0.661   8.392  0.5743 -0.4198 -0.2229
 8919SOL    HW138393   1.018   0.657   8.328 -0.1074  1.3426 -1.1112
 8919SOL    HW238394   0.977   0.724   8.457  2.3010 -0.6955 -0.7694
 8920SOL     OW38395   3.763   1.006  11.563 -0.1164 -0.1737 -0.0265
 8920SOL    HW138396   3.832   0.984  11.500 -1.6185  0.0888 -1.7699
 8920SOL    HW238397   3.722   1.087  11.531  0.1450  0.7743  2.0685
 8921SOL     OW38398   3.363   1.801   8.049  0.4859 -0.4899 -0.2940
 8921SOL    HW138399   3.313   1.876   8.017  0.2985 -0.2343  0.5853
 8921SOL    HW238400   3.350   1.733   7.984 -2.2559 -0.2667  0.0116
 8922SOL     OW38401   1.259   3.725   7.810  0.5011 -0.4523  0.5159
 8922SOL    HW138402   1.349   3.699   7.832  1.7198  1.7225 -1.9829
 8922SOL    HW238403   1.250   3.801   7.868  0.2988  0.8801 -1.2731
 8923SOL     OW38404   1.994   3.381   7.589 -0.6398 -0.1007 -0.3033
 8923SOL    HW138405   1.945   3.301   7.606 -0.5421  0.0482  0.7230
 8923SOL    HW238406   1.977   3.428   7.671 -2.1108 -1.8435  0.3883
 8924SOL     OW38407   1.040   2.483  13.996 -0.0662 -0.5972  0.1414
 8924SOL    HW138408   1.058   2.398  14.037  2.5080  0.4135  1.1871
 8924SOL    HW238409   1.028   2.542  14.071  1.0089 -0.0639 -0.0942
 8925SOL     OW38410   1.124   2.442   5.481 -0.7155 -0.4687  0.4226
 8925SOL    HW138411   1.109   2.359   5.526 -0.7387 -0.7056 -0.0259
 8925SOL    HW238412   1.047   2.486   5.516 -0.5660  1.5918 -1.8828
 8926SOL     OW38413   1.854   1.495   3.136  0.1796  0.6766  0.0148
 8926SOL    HW138414   1.873   1.462   3.048  0.9366  0.5866  0.2097
 8926SOL    HW238415   1.931   1.552   3.146 -0.6204  2.2576 -2.7677
 8927SOL     OW38416   3.136   0.340   6.942  0.7475  0.2677 -0.0125
 8927SOL    HW138417   3.190   0.416   6.962  0.7665 -0.3918  2.3859
 8927SOL    HW238418   3.195   0.271   6.913 -0.5409 -0.6715 -0.4345
 8928SOL     OW38419   1.399   3.640  14.607 -0.7113 -0.3375 -0.4026
 8928SOL    HW138420   1.339   3.701  14.565 -1.6666 -0.8446  0.2064
 8928SOL    HW238421   1.428   3.597  14.527  3.3796  1.3366  0.2071
 8929SOL     OW38422   0.108   2.336   7.521 -0.4166  0.6331 -0.1444
 8929SOL    HW138423   0.137   2.296   7.603 -1.0640 -1.5533 -0.9886
 8929SOL    HW238424   0.140   2.426   7.533  0.7346  0.2163 -0.1046
 8930SOL     OW38425   4.611   1.751   2.651 -0.0279 -0.3551 -0.2308
 8930SOL    HW138426   4.520   1.723   2.648  0.0566 -0.5513 -0.8085
 8930SOL    HW238427   4.637   1.705   2.731 -0.0091 -1.7151 -1.0240
 8931SOL     OW38428   1.429   2.584   1.224 -0.1033  0.0196 -0.1804
 8931SOL    HW138429   1.349   2.586   1.276  0.1727  0.0770  0.2470
 8931SOL    HW238430   1.398   2.577   1.134  0.9327  1.2817 -0.6263
 8932SOL     OW38431   2.902   4.155   9.616  0.0052  0.7196  0.3353
 8932SOL    HW138432   2.852   4.220   9.665 -1.7001  0.6178 -1.2650
 8932SOL    HW238433   2.865   4.172   9.529 -1.0863  1.2744  0.9224
 8933SOL     OW38434   1.048   4.086   1.711  0.0404  0.1738 -0.2895
 8933SOL    HW138435   0.969   4.070   1.658 -0.9929  1.7599  0.7957
 8933SOL    HW238436   1.028   4.128   1.794 -1.9306 -2.6944  0.6978
 8934SOL     OW38437   2.000   3.652   2.066  0.0237  0.3957 -0.1620
 8934SOL    HW138438   1.918   3.632   2.112  0.6561  0.7439  1.1313
 8934SOL    HW238439   2.063   3.584   2.093  0.6311  1.1824  0.4065
 8935SOL     OW38440   3.965   1.490   1.831  0.2032  0.0479  0.2679
 8935SOL    HW138441   4.045   1.503   1.883  1.2928 -1.4153 -1.0818
 8935SOL    HW238442   3.960   1.577   1.792  0.7494 -0.4197 -0.8277
 8936SOL     OW38443   3.739   2.643   3.407 -0.8001  0.1091  0.1536
 8936SOL    HW138444   3.697   2.560   3.430 -0.0549 -0.8581 -1.9732
 8936SOL    HW238445   3.738   2.645   3.311  0.4559  1.2700  0.1652
 8937SOL     OW38446   0.643   4.667   9.614 -0.8678  0.0506 -0.2573
 8937SOL    HW138447   0.713   4.607   9.590 -1.5307 -1.0253  0.4942
 8937SOL    HW238448   0.587   4.618   9.675 -1.7379  0.3425 -0.8225
 8938SOL     OW38449   0.427   4.128   8.282 -0.3536  0.0440  0.1758
 8938SOL    HW138450   0.355   4.067   8.264 -0.6317  0.2203  0.7087
 8938SOL    HW238451   0.413   4.124   8.376  0.0135  3.3506  0.3493
 8939SOL     OW38452   3.504   1.627   7.607 -0.6040  0.0179  0.1105
 8939SOL    HW138453   3.450   1.551   7.630 -1.1658  0.0415 -1.1419
 8939SOL    HW238454   3.578   1.581   7.567  0.3157  1.1490  0.5287
 8940SOL     OW38455   2.763   1.119  12.224  0.0618  0.2166  0.1177
 8940SOL    HW138456   2.857   1.104  12.227 -0.0430 -0.1736  1.5189
 8940SOL    HW238457   2.724   1.032  12.217  0.3265  0.1758 -0.7892
 8941SOL     OW38458   3.588   2.629  12.651 -0.4192  0.0133 -0.1254
 8941SOL    HW138459   3.497   2.629  12.682 -0.4217 -1.4667 -0.1438
 8941SOL    HW238460   3.627   2.588  12.728 -0.8590 -1.9987 -0.9757
 8942SOL     OW38461   3.093   2.946   6.186 -0.0357  0.2231 -0.2363
 8942SOL    HW138462   3.184   2.928   6.207  0.1754  2.9407  1.1855
 8942SOL    HW238463   3.084   3.039   6.209 -0.8663 -0.5464  2.5646
 8943SOL     OW38464   0.534   0.827  15.296  0.5753  0.1177  0.6600
 8943SOL    HW138465   0.516   0.737  15.324  1.4683 -0.5209 -0.8481
 8943SOL    HW238466   0.614   0.842  15.347  0.5252 -4.7931  2.2267
 8944SOL     OW38467   2.587   2.077   8.831  0.3105  0.0333 -0.4444
 8944SOL    HW138468   2.552   2.156   8.873 -0.7438 -0.3940 -0.5260
 8944SOL    HW238469   2.563   2.099   8.741  1.1729  0.3428 -0.5944
 8945SOL     OW38470   1.573   0.504   3.817  0.2409  0.0674 -0.3558
 8945SOL    HW138471   1.554   0.534   3.728  0.8017  1.2272 -0.0952
 8945SOL    HW238472   1.602   0.416   3.795  0.9400  0.5006 -1.1861
 8946SOL     OW38473   2.611   4.428   2.317 -0.0805 -0.3477 -0.2361
 8946SOL    HW138474   2.558   4.416   2.396 -0.5908  0.5912 -0.4238
 8946SOL    HW238475   2.696   4.445   2.356 -0.7603  0.7516  0.7665
 8947SOL     OW38476   2.600   1.700   9.643 -0.4209  0.0919 -0.2799
 8947SOL    HW138477   2.564   1.780   9.682 -0.0566 -0.1626  0.5686
 8947SOL    HW238478   2.520   1.655   9.617 -0.8571 -0.4994  2.1083
 8948SOL     OW38479   4.100   3.815   2.643 -0.5111 -0.8824  0.0203
 8948SOL    HW138480   4.053   3.756   2.701 -1.0979 -1.9228 -1.5030
 8948SOL    HW238481   4.032   3.823   2.576 -1.2470  1.5416  1.0374
 8949SOL     OW38482   2.917   0.569   4.986 -0.8210 -0.1113  0.0180
 8949SOL    HW138483   2.948   0.531   5.068  0.5584 -0.0243 -0.4731
 8949SOL    HW238484   2.923   0.664   4.992 -2.1957 -0.0784  1.0620
 8950SOL     OW38485   2.504   3.310   6.142  0.0219 -0.4719  0.1502
 8950SOL    HW138486   2.445   3.332   6.069  1.2358 -0.1023 -0.7215
 8950SOL    HW238487   2.487   3.216   6.149  0.7903 -0.6417 -0.2293
 8951SOL     OW38488   1.190   3.334   4.005 -0.7147 -0.2422  0.0447
 8951SOL    HW138489   1.143   3.417   4.003 -0.4254 -0.1289 -2.1300
 8951SOL    HW238490   1.278   3.358   4.034 -1.2997  0.1907  1.4761
 8952SOL     OW38491   1.121   4.710   4.676 -0.1715 -0.0635  0.0729
 8952SOL    HW138492   1.196   4.652   4.684  0.2966  0.3538 -1.4394
 8952SOL    HW238493   1.069   4.643   4.632  0.8054 -1.9432  1.7787
 8953SOL     OW38494   4.338   1.101   7.366 -1.3184 -0.0530 -0.4686
 8953SOL    HW138495   4.293   1.117   7.449 -1.1901  2.0794 -0.8090
 8953SOL    HW238496   4.274   1.038   7.332 -0.4037 -1.0426 -0.3478
 8954SOL     OW38497   0.763   0.519   2.969  0.0490 -0.0034  0.2148
 8954SOL    HW138498   0.855   0.491   2.962 -0.4028 -0.2955 -4.3497
 8954SOL    HW238499   0.720   0.440   2.936  0.0215 -0.6596  1.7955
 8955SOL     OW38500   1.684   2.567   5.222  0.5689  0.0165  0.3206
 8955SOL    HW138501   1.699   2.480   5.184 -3.7718  0.9826 -3.6184
 8955SOL    HW238502   1.637   2.606   5.148 -0.0354 -0.7811  0.2892
 8956SOL     OW38503   1.410   0.304   6.346 -0.1349 -0.0982 -0.2062
 8956SOL    HW138504   1.376   0.214   6.349 -2.7135  0.8592 -0.7775
 8956SOL    HW238505   1.326   0.347   6.356  0.0170 -0.2627  1.6379
 8957SOL     OW38506   4.039   0.134  12.673 -0.6778  0.1073  0.6806
 8957SOL    HW138507   4.091   0.148  12.594  1.4245 -4.7885  1.1753
 8957SOL    HW238508   4.070   0.204  12.730  1.5145 -1.0314  0.8660
 8958SOL     OW38509   4.077   0.359   6.541  0.0003 -0.2667 -0.2543
 8958SOL    HW138510   4.084   0.423   6.470 -3.4634  1.1054  0.6482
 8958SOL    HW238511   4.147   0.390   6.599 -0.8744 -1.7712  1.6005
 8959SOL     OW38512   1.464   3.694   4.229  0.3414  0.8306  0.7096
 8959SOL    HW138513   1.373   3.715   4.206 -0.3739 -0.1025  2.7230
 8959SOL    HW238514   1.515   3.747   4.168  2.8846 -0.2436  1.9209
 8960SOL     OW38515   4.243   0.965   5.762  0.5360  0.6664 -0.1896
 8960SOL    HW138516   4.154   0.993   5.781 -0.1980 -1.2669 -0.8328
 8960SOL    HW238517   4.298   1.043   5.761  0.4804  0.7150  1.3288
 8961SOL     OW38518   4.279   2.101  16.760 -0.0922 -0.0227 -0.6596
 8961SOL    HW138519   4.193   2.111  16.719 -0.3863 -2.1604 -0.5759
 8961SOL    HW238520   4.292   2.195  16.773  1.6948 -0.6148  1.6207
 8962SOL     OW38521   1.845   4.124   5.569 -0.1754 -0.0973 -0.2283
 8962SOL    HW138522   1.894   4.120   5.487  0.0738  1.9660 -0.1713
 8962SOL    HW238523   1.920   4.134   5.628 -0.1174 -0.6178 -0.2081
 8963SOL     OW38524   2.481   2.012   4.072  0.4324  0.6399 -0.2921
 8963SOL    HW138525   2.485   2.091   4.018  1.7291  0.1838 -0.8675
 8963SOL    HW238526   2.545   1.955   4.030  2.2440  1.8980  0.7521
 8964SOL     OW38527   3.148   2.969   0.635 -0.2474 -0.3271  0.4851
 8964SOL    HW138528   3.152   2.890   0.581  1.0938  0.2555 -0.2748
 8964SOL    HW238529   3.202   3.030   0.585  1.1894 -1.4630  0.6247
 8965SOL     OW38530   2.544   3.006  11.609 -0.0299  0.0255 -0.1130
 8965SOL    HW138531   2.453   2.979  11.599 -0.0709  0.4135 -0.8258
 8965SOL    HW238532   2.586   2.983  11.526  0.8673  1.5650 -0.0927
 8966SOL     OW38533   1.825   0.955  16.172  0.3719 -0.1382 -0.1044
 8966SOL    HW138534   1.836   1.049  16.187 -1.8325  0.1403 -0.1790
 8966SOL    HW238535   1.900   0.928  16.119  0.5534  2.2095 -1.0117
 8967SOL     OW38536   0.603   3.100   9.125 -0.2736 -0.1237  0.1286
 8967SOL    HW138537   0.679   3.144   9.163  0.2303 -1.3265  0.5408
 8967SOL    HW238538   0.585   3.159   9.053  0.0308  0.5251  0.5871
 8968SOL     OW38539   1.035   1.499   3.398 -0.0385 -0.3546 -0.3885
 8968SOL    HW138540   1.049   1.522   3.307  1.5655 -0.6262 -0.2181
 8968SOL    HW238541   1.046   1.405   3.386  2.6235 -0.0995 -0.1102
 8969SOL     OW38542   2.887   3.154   4.990  0.3689 -0.4814  0.7351
 8969SOL    HW138543   2.929   3.235   5.020 -0.1679  0.4519 -1.0076
 8969SOL    HW238544   2.794   3.170   5.006  0.3666  0.9705 -0.6772
 8970SOL     OW38545   3.143   2.227   6.150 -0.6311 -0.6337  0.2771
 8970SOL    HW138546   3.092   2.304   6.175 -0.6217 -0.8153  0.8614
 8970SOL    HW238547   3.165   2.240   6.058 -0.5634 -1.3841  0.1843
 8971SOL     OW38548   4.678   3.953  10.861 -0.5969  0.0364 -0.2987
 8971SOL    HW138549   4.607   3.971  10.800 -1.0178 -1.6646 -0.2942
 8971SOL    HW238550   4.673   3.858  10.851  0.6769 -0.0377 -0.2527
 8972SOL     OW38551   4.383   4.562   2.631  0.1979  0.1627 -0.2541
 8972SOL    HW138552   4.355   4.485   2.681  2.3900 -0.8730 -0.5737
 8972SOL    HW238553   4.474   4.554   2.661  0.1007 -0.1292 -0.0411
 8973SOL     OW38554   3.148   2.542   7.987  0.3458  0.2786 -0.0538
 8973SOL    HW138555   3.204   2.568   8.060  0.4633  1.0797 -0.4194
 8973SOL    HW238556   3.191   2.560   7.903  3.5576  0.8708  1.7215
 8974SOL     OW38557   3.223   4.208   0.478 -0.2531 -0.2832  0.1758
 8974SOL    HW138558   3.154   4.170   0.533 -0.2513  1.2168  1.2196
 8974SOL    HW238559   3.294   4.201   0.541 -0.9245 -0.9479  0.8585
 8975SOL     OW38560   2.747   4.371   1.638 -0.1705 -0.6771  0.0700
 8975SOL    HW138561   2.755   4.466   1.639 -1.3323 -0.5668 -1.3149
 8975SOL    HW238562   2.829   4.345   1.681 -0.3999 -3.4323 -1.1040
 8976SOL     OW38563   0.115   3.086   2.875 -0.1312  0.3994  0.3681
 8976SOL    HW138564   0.065   3.130   2.944  1.5156  0.7241  1.3653
 8976SOL    HW238565   0.123   3.156   2.810  0.9613  0.2924  0.3898
 8977SOL     OW38566   2.023   2.125   4.823 -0.4431  0.1871  0.3562
 8977SOL    HW138567   1.982   2.050   4.779 -0.6427  0.7626 -0.4407
 8977SOL    HW238568   1.962   2.158   4.888 -1.6102 -0.4981 -0.4038
 8978SOL     OW38569   2.014   3.750   1.812 -0.1540 -0.3441 -0.3430
 8978SOL    HW138570   2.026   3.726   1.904 -4.1975 -0.8861  0.0396
 8978SOL    HW238571   2.100   3.775   1.779 -0.0068 -0.1979  0.1394
 8979SOL     OW38572   1.983   2.272   5.373  0.4606 -0.0389 -0.0227
 8979SOL    HW138573   1.953   2.341   5.314 -1.3592  0.1681  1.1375
 8979SOL    HW238574   1.900   2.225   5.385  2.3984 -3.6348 -0.6737
 8980SOL     OW38575   0.320   3.830   0.006 -0.0433  0.2346  0.7346
 8980SOL    HW138576   0.263   3.907   0.007 -0.3656 -0.0016  0.5737
 8980SOL    HW238577   0.400   3.852  17.698 -1.4234  2.6612 -0.4818
 8981SOL     OW38578   3.852   1.118   1.620  0.3338  0.2778 -0.5689
 8981SOL    HW138579   3.911   1.154   1.687  0.9266 -2.0571  0.1482
 8981SOL    HW238580   3.906   1.056   1.570 -1.8140 -1.0063 -1.2652
 8982SOL     OW38581   2.753   4.458  12.456  0.3390  0.5364 -0.2374
 8982SOL    HW138582   2.735   4.505  12.374 -1.5353 -0.0280 -0.1565
 8982SOL    HW238583   2.698   4.380  12.453  0.5370  0.4075 -0.5448
 8983SOL     OW38584   3.858   0.397   5.669 -0.3958 -0.4083 -0.4196
 8983SOL    HW138585   3.924   0.457   5.633 -1.5987  0.4789 -1.1352
 8983SOL    HW238586   3.898   0.314   5.643  2.7772  1.0070 -0.0952
 8984SOL     OW38587   2.183   2.791   3.113  0.3864  0.5012 -0.2084
 8984SOL    HW138588   2.167   2.705   3.153  1.7838  0.1247 -0.4675
 8984SOL    HW238589   2.089   2.806   3.103  0.5133  0.7603 -1.0081
 8985SOL     OW38590   2.344   3.944   3.405 -0.6630  0.0618  0.0590
 8985SOL    HW138591   2.316   3.868   3.353 -4.9977  0.2734  2.0203
 8985SOL    HW238592   2.432   3.955   3.371 -0.1932 -0.1890  1.2004
 8986SOL     OW38593   2.686   0.109   1.267  0.5122 -0.0996 -0.2235
 8986SOL    HW138594   2.670   0.169   1.194  1.2282  0.8311  0.3820
 8986SOL    HW238595   2.618   0.046   1.244  1.5808 -1.1703 -0.4640
 8987SOL     OW38596   3.715   1.896   1.738  0.2969  0.8376  0.0236
 8987SOL    HW138597   3.638   1.853   1.777  0.9578 -0.6574 -0.3296
 8987SOL    HW238598   3.670   1.981   1.743 -3.6272 -1.2306 -0.4074
 8988SOL     OW38599   3.719   1.129   0.284  0.0983  0.0841  0.4134
 8988SOL    HW138600   3.676   1.072   0.220  0.1951 -0.3622  0.7478
 8988SOL    HW238601   3.795   1.153   0.232 -0.1472  1.0110  0.4716
 8989SOL     OW38602   0.626   3.511   8.971  0.0451  0.4919 -0.2307
 8989SOL    HW138603   0.619   3.580   8.905  1.0052  1.0680  0.2709
 8989SOL    HW238604   0.534   3.488   8.980  0.4393 -0.1821  2.0653
 8990SOL     OW38605   2.356   0.551   4.290 -0.4780 -0.4823 -0.2368
 8990SOL    HW138606   2.281   0.599   4.324  0.3439  2.0435 -1.9616
 8990SOL    HW238607   2.336   0.528   4.200  2.7308  2.5325 -1.7277
 8991SOL     OW38608   2.681   3.880   2.318  0.6161  0.0230  0.1760
 8991SOL    HW138609   2.637   3.926   2.246 -1.0724 -0.0601  1.1423
 8991SOL    HW238610   2.634   3.798   2.304 -1.5788  0.9911  1.8413
 8992SOL     OW38611   3.744   1.918  13.402  1.1626  0.3291  0.1343
 8992SOL    HW138612   3.821   1.861  13.401  0.5152 -0.5746  1.3317
 8992SOL    HW238613   3.733   1.951  13.313 -0.3297 -1.4559 -0.3347
 8993SOL     OW38614   3.083   1.745   6.813 -0.2035 -0.0397 -0.3532
 8993SOL    HW138615   3.124   1.700   6.887  0.7773  2.7183  0.7977
 8993SOL    HW238616   2.993   1.713   6.819 -0.0287 -0.5672 -0.5448
 8994SOL     OW38617   0.261   1.956   7.313 -0.2586 -0.0989 -0.0261
 8994SOL    HW138618   0.314   1.900   7.257 -0.3044 -0.5986  0.4344
 8994SOL    HW238619   0.294   2.046   7.307 -0.2013 -0.0762  0.6097
 8995SOL     OW38620   1.652   4.169  10.404 -0.8212 -0.0757  0.1137
 8995SOL    HW138621   1.677   4.254  10.368  3.3823 -1.2401  0.2981
 8995SOL    HW238622   1.620   4.121  10.328  1.1160 -0.5653 -0.3836
 8996SOL     OW38623   3.928   2.546   0.525  0.3671  0.2383 -0.1133
 8996SOL    HW138624   3.947   2.460   0.562 -2.9297  0.5736  2.4308
 8996SOL    HW238625   3.944   2.536   0.431  1.5097  1.1653 -0.0160
 8997SOL     OW38626   2.377   3.144   6.998  0.2615 -0.0008  0.2489
 8997SOL    HW138627   2.472   3.130   7.001  0.2197 -0.0126  1.7797
 8997SOL    HW238628   2.349   3.112   7.084  0.0183 -0.8599 -0.1468
 8998SOL     OW38629   1.542   4.590   5.450  0.2004  0.2416  0.0347
 8998SOL    HW138630   1.597   4.607   5.527  0.6763 -2.1034  0.2273
 8998SOL    HW238631   1.533   4.495   5.458 -2.6530  0.5401  0.5750
 8999SOL     OW38632   2.178   2.314  16.366 -0.4399  0.0245 -1.0864
 8999SOL    HW138633   2.088   2.321  16.335 -0.6183  1.0924 -0.3295
 8999SOL    HW238634   2.198   2.220  16.359 -2.3872 -0.4651 -0.2637
 9000SOL     OW38635   1.485   1.648   4.251 -0.5713  0.0240  0.1769
 9000SOL    HW138636   1.423   1.691   4.191 -2.1216 -1.7710  0.4839
 9000SOL    HW238637   1.515   1.587   4.184 -0.1239  0.3177  0.1127
 9001SOL     OW38638   4.519   3.191   0.772 -0.3867  0.0418 -0.4191
 9001SOL    HW138639   4.556   3.278   0.785  0.7240 -0.2605 -1.5513
 9001SOL    HW238640   4.466   3.193   0.851  0.5430  0.0417  0.2072
 9002SOL     OW38641   2.859   4.304  16.809  0.1710 -0.1016 -0.5404
 9002SOL    HW138642   2.788   4.258  16.765 -0.9061  0.0557  1.0047
 9002SOL    HW238643   2.936   4.269  16.766  0.2050 -0.1712 -0.4219
 9003SOL     OW38644   0.561   2.066   4.751 -0.0836 -0.3523  0.2789
 9003SOL    HW138645   0.523   2.139   4.801 -0.8964 -0.7070  0.1834
 9003SOL    HW238646   0.627   2.107   4.695 -0.2088  1.1222  1.2060
 9004SOL     OW38647   3.378   2.894  10.757 -0.1924  0.3686 -0.0107
 9004SOL    HW138648   3.369   2.988  10.740  2.0592  0.7302  0.8590
 9004SOL    HW238649   3.317   2.878  10.830  1.8766 -1.0567  1.4035
 9005SOL     OW38650   2.124   3.961   3.556  0.0852 -0.1114 -0.3788
 9005SOL    HW138651   2.123   3.873   3.594  0.5556 -0.0715 -0.2755
 9005SOL    HW238652   2.192   3.948   3.489  1.2035  1.1590  0.4888
 9006SOL     OW38653   2.066   0.203   6.593 -0.2654  0.1555 -0.3199
 9006SOL    HW138654   2.065   0.115   6.631 -2.8973  0.3448  0.0999
 9006SOL    HW238655   2.023   0.254   6.661  0.3290  1.9218 -1.2873
 9007SOL     OW38656   2.096   4.473  12.044  0.1767 -0.0134  0.0716
 9007SOL    HW138657   2.098   4.378  12.038 -2.1511  0.0812 -2.0961
 9007SOL    HW238658   2.060   4.493  11.958  1.8696 -0.2283 -0.6901
 9008SOL     OW38659   3.234   1.151   3.868 -0.1933 -0.5247 -0.1406
 9008SOL    HW138660   3.228   1.210   3.793 -0.1811 -1.2403 -0.7085
 9008SOL    HW238661   3.140   1.133   3.875 -0.8177  2.2292 -1.6532
 9009SOL     OW38662   3.947   4.624   3.154 -0.1674  0.4888  0.1424
 9009SOL    HW138663   4.027   4.612   3.204  0.7169 -0.1379 -1.4301
 9009SOL    HW238664   3.903   4.542   3.177  3.2863 -0.4154  3.3626
 9010SOL     OW38665   3.475   0.670   7.169  0.2340 -0.1741  0.1620
 9010SOL    HW138666   3.561   0.630   7.158  0.5216  0.5465 -0.2285
 9010SOL    HW238667   3.491   0.731   7.242 -0.4309  0.7303 -0.4371
 9011SOL     OW38668   1.358   3.629   7.146  0.5258  0.7449 -0.0481
 9011SOL    HW138669   1.399   3.680   7.077  0.6537  0.9389  0.1694
 9011SOL    HW238670   1.291   3.578   7.099  1.6110 -0.2226 -0.5356
 9012SOL     OW38671   4.219   2.963  12.447  0.3735 -0.4673  0.1884
 9012SOL    HW138672   4.313   2.977  12.447  0.3018  0.0381 -1.2788
 9012SOL    HW238673   4.196   3.051  12.478 -0.2116 -0.3521 -0.5570
 9013SOL     OW38674   4.558   0.167  16.561  0.2181  0.1250  0.0097
 9013SOL    HW138675   4.600   0.113  16.627  1.0122  1.8853  0.9510
 9013SOL    HW238676   4.479   0.188  16.611 -1.0637  0.1916 -2.0230
 9014SOL     OW38677   3.263   4.411  16.957  0.1940  0.5495 -0.2988
 9014SOL    HW138678   3.189   4.461  16.990  0.2748 -0.5877  1.5932
 9014SOL    HW238679   3.257   4.335  17.015 -0.0899 -0.1578 -1.2390
 9015SOL     OW38680   3.339   0.327   4.736 -0.3109 -0.2918  0.2093
 9015SOL    HW138681   3.429   0.297   4.719  0.1952  1.2547  0.1942
 9015SOL    HW238682   3.287   0.297   4.661 -1.5874 -1.2775  1.5005
 9016SOL     OW38683   1.268   1.089   4.933  0.6383 -0.4397  0.0517
 9016SOL    HW138684   1.236   0.999   4.932  1.9889 -0.9102 -0.8874
 9016SOL    HW238685   1.184   1.132   4.921  1.5221  0.9318 -1.1918
 9017SOL     OW38686   2.645   0.205   3.267 -0.2283  0.3668  0.1876
 9017SOL    HW138687   2.627   0.279   3.209 -2.1175  1.5542  2.2773
 9017SOL    HW238688   2.683   0.139   3.209 -1.6573 -0.4139  0.1258
 9018SOL     OW38689   3.055   0.217   3.390 -0.2872  0.9056 -0.2401
 9018SOL    HW138690   3.103   0.274   3.450  1.2763  1.9457 -2.4834
 9018SOL    HW238691   3.066   0.268   3.309  0.7353  2.5402  0.9248
 9019SOL     OW38692   3.395   3.510   8.940 -0.3358  0.3544 -0.6495
 9019SOL    HW138693   3.439   3.457   8.874 -2.3655 -0.8365 -1.0498
 9019SOL    HW238694   3.464   3.568   8.971 -0.1104 -0.1539 -0.2050
 9020SOL     OW38695   2.488   1.452  10.165 -0.0805 -0.1790 -0.1511
 9020SOL    HW138696   2.493   1.516  10.236 -0.8463 -1.6460  1.2094
 9020SOL    HW238697   2.409   1.402  10.183  0.6774 -1.9600 -1.6854
 9021SOL     OW38698   4.709   3.811  17.249 -0.0922  0.2668  0.0637
 9021SOL    HW138699   0.034   3.858  17.306  0.9293 -1.0762  0.0947
 9021SOL    HW238700   0.033   3.804  17.174 -2.9826 -0.8773 -2.1077
 9022SOL     OW38701   0.076   3.719   4.534  0.0398  0.4880 -0.7165
 9022SOL    HW138702   0.092   3.669   4.614 -1.8253  0.2694 -0.4716
 9022SOL    HW238703   4.725   3.680   4.523  0.1080  0.7747 -2.1990
 9023SOL     OW38704   3.907   4.714   3.921 -0.1764  0.1596  0.1916
 9023SOL    HW138705   3.839   0.016   3.866 -0.5835 -0.0002  0.5876
 9023SOL    HW238706   3.890   0.013   4.009  1.7633  1.1109  0.1976
 9024SOL     OW38707   1.913   2.628  14.248  0.0610  0.0113 -0.1285
 9024SOL    HW138708   1.829   2.674  14.250  0.5008  0.8019  0.6534
 9024SOL    HW238709   1.933   2.630  14.155 -1.2079 -3.0530 -0.4404
 9025SOL     OW38710   1.297   1.934   4.514 -0.2292  0.0448 -0.0929
 9025SOL    HW138711   1.252   1.976   4.441  2.0372  1.0159 -0.9366
 9025SOL    HW238712   1.266   1.844   4.503 -1.1184  0.3519 -0.0234
 9026SOL     OW38713   1.560   3.187  12.363  0.6492 -0.0264  0.4276
 9026SOL    HW138714   1.534   3.105  12.405 -1.4673  0.6721  0.4904
 9026SOL    HW238715   1.543   3.164  12.272 -0.6365 -0.2506  0.7173
 9027SOL     OW38716   3.166   2.498   3.143 -0.1134  0.2604  0.9036
 9027SOL    HW138717   3.136   2.438   3.075  1.1895 -0.0415  0.6039
 9027SOL    HW238718   3.186   2.576   3.091  0.2074 -0.9405 -0.7525
 9028SOL     OW38719   4.732   0.291   1.876 -0.0113  0.2748 -0.0517
 9028SOL    HW138720   4.655   0.335   1.841 -0.9505 -0.9590  0.4686
 9028SOL    HW238721   0.056   0.285   1.800 -0.3065 -0.8144 -0.1990
 9029SOL     OW38722   1.242   4.095   9.023  1.1708 -0.5536  0.1063
 9029SOL    HW138723   1.205   4.087   8.936  0.8039  0.2380  0.1953
 9029SOL    HW238724   1.186   4.164   9.059  3.5696 -0.0002  2.8970
 9030SOL     OW38725   2.840   3.619  11.028  0.2393  0.0447 -0.5295
 9030SOL    HW138726   2.899   3.692  11.049 -0.9940  1.9273 -3.7490
 9030SOL    HW238727   2.898   3.568  10.972  1.1927  0.3899  0.1438
 9031SOL     OW38728   3.591   0.553   2.924  0.0163 -0.1582 -0.6539
 9031SOL    HW138729   3.535   0.614   2.875  0.2631 -0.3470 -1.1723
 9031SOL    HW238730   3.662   0.613   2.948 -1.4415  0.4691  2.1206
 9032SOL     OW38731   3.473   2.421  16.834 -0.6993  0.1038 -0.3904
 9032SOL    HW138732   3.446   2.336  16.869  3.4385 -0.1413  2.1124
 9032SOL    HW238733   3.525   2.455  16.906  0.1114 -3.1934  0.5604
 9033SOL     OW38734   3.542   2.776   4.877  0.1725 -0.8224  0.0123
 9033SOL    HW138735   3.515   2.815   4.960 -1.2918  0.4033 -1.0418
 9033SOL    HW238736   3.464   2.732   4.845 -0.1431 -2.8537  3.6243
 9034SOL     OW38737   4.639   4.688   7.994  0.8353 -0.6555  0.1279
 9034SOL    HW138738   4.633   4.619   8.060 -1.7412  0.5755  1.1865
 9034SOL    HW238739   4.734   4.701   7.982  0.6168  1.3176  0.5596
 9035SOL     OW38740   1.784   2.106   1.030 -0.3349  0.2137 -0.6185
 9035SOL    HW138741   1.742   2.165   1.092 -0.8565 -2.4373  1.5862
 9035SOL    HW238742   1.718   2.040   1.004 -0.8848 -0.1116  1.5574
 9036SOL     OW38743   2.762   1.821   8.062  0.1109 -0.4295 -0.2421
 9036SOL    HW138744   2.854   1.795   8.068  0.4515  0.6814 -0.6106
 9036SOL    HW238745   2.749   1.860   7.976  0.9240 -1.4330 -0.8090
 9037SOL     OW38746   3.791   2.027   0.461 -0.5517  0.1013 -0.6527
 9037SOL    HW138747   3.860   2.092   0.447  1.5422 -2.0233 -0.2182
 9037SOL    HW238748   3.767   2.047   0.551  1.4749 -2.3741  0.4345
 9038SOL     OW38749   4.313   2.108   3.233 -0.6744  0.5220 -0.3628
 9038SOL    HW138750   4.376   2.089   3.164 -2.6415 -0.0376 -2.0328
 9038SOL    HW238751   4.359   2.161   3.297  2.0941 -1.1319 -1.0147
 9039SOL     OW38752   2.703   4.638   4.241 -0.5124 -0.5879  0.1501
 9039SOL    HW138753   2.693   4.555   4.287  0.6034 -0.9833 -0.3411
 9039SOL    HW238754   2.773   4.626   4.177 -0.6352  1.6183 -0.4152
 9040SOL     OW38755   3.702   1.167  17.624  0.0292 -0.8130  0.0565
 9040SOL    HW138756   3.672   1.229  17.557  0.2995 -1.3180 -0.5335
 9040SOL    HW238757   3.731   1.099  17.563  0.1827 -0.9435  0.2758
 9041SOL     OW38758   0.351   3.531   3.934  0.1238  0.3384 -0.0669
 9041SOL    HW138759   0.279   3.487   3.888  0.2187  2.0259 -1.8297
 9041SOL    HW238760   0.391   3.465   3.991 -2.3379 -0.6432  0.5295
 9042SOL     OW38761   2.981   0.105   2.972 -0.2538  0.3965 -0.0865
 9042SOL    HW138762   3.031   0.182   3.000 -3.0912  1.9616  0.7269
 9042SOL    HW238763   2.950   0.137   2.888 -0.5177  2.2060  0.6969
 9043SOL     OW38764   0.613   3.609   3.409  0.2846 -0.0775  0.3300
 9043SOL    HW138765   0.648   3.649   3.489  0.3252 -1.1162  0.8266
 9043SOL    HW238766   0.600   3.686   3.354 -0.7458  1.1729  2.3234
 9044SOL     OW38767   2.428   2.891  13.586  0.1515 -0.0403 -0.7165
 9044SOL    HW138768   2.498   2.956  13.580  0.0189  0.3473  1.6708
 9044SOL    HW238769   2.469   2.824  13.642 -2.0055 -1.7985 -1.2425
 9045SOL     OW38770   3.586   0.793   4.934 -0.6153 -0.1326 -0.1151
 9045SOL    HW138771   3.534   0.747   4.868 -0.6205  2.6466 -2.0297
 9045SOL    HW238772   3.615   0.869   4.883  1.3929  0.4638  1.9106
 9046SOL     OW38773   0.338   3.758   9.140  0.1973 -0.0226  0.6718
 9046SOL    HW138774   0.256   3.764   9.189  0.6733 -2.8801  1.8316
 9046SOL    HW238775   0.306   3.731   9.053  2.3651 -1.2452  0.2536
 9047SOL     OW38776   1.081   1.580   7.341  0.1593 -0.2502 -0.6293
 9047SOL    HW138777   1.083   1.600   7.248  2.1379  1.4319 -0.2168
 9047SOL    HW238778   1.174   1.570   7.365 -0.5046 -2.9807  0.8947
 9048SOL     OW38779   0.471   3.077   4.250  0.7643  0.2401 -0.9175
 9048SOL    HW138780   0.546   3.048   4.198  3.8399  2.4334  2.3306
 9048SOL    HW238781   0.510   3.081   4.337 -0.9214  2.3731 -0.2818
 9049SOL     OW38782   2.826   1.687   6.829 -1.0079 -0.3239  0.6670
 9049SOL    HW138783   2.788   1.601   6.813  0.7312 -1.4478  2.6621
 9049SOL    HW238784   2.764   1.744   6.784 -1.2708 -2.0247 -1.1499
 9050SOL     OW38785   2.105   0.667   8.370  0.3994 -0.2407  0.5497
 9050SOL    HW138786   2.041   0.599   8.391  0.8385 -1.1928 -1.2354
 9050SOL    HW238787   2.169   0.655   8.441 -0.4128  2.4902  1.7649
 9051SOL     OW38788   2.775   4.046  16.137 -0.0948  0.0294 -0.1216
 9051SOL    HW138789   2.745   3.970  16.088 -0.4298  0.3791 -0.4537
 9051SOL    HW238790   2.738   4.118  16.085 -1.8461 -0.1388  0.8948
 9052SOL     OW38791   3.224   1.970   7.294 -0.4953 -0.1487  0.6861
 9052SOL    HW138792   3.285   1.898   7.314 -0.3615  0.3508  2.0226
 9052SOL    HW238793   3.245   2.027   7.368  0.0902  0.8492 -0.2482
 9053SOL     OW38794   2.481   1.589   2.606  0.2688 -0.6218 -0.3359
 9053SOL    HW138795   2.408   1.637   2.567  0.5112 -0.0423 -0.0759
 9053SOL    HW238796   2.551   1.654   2.602 -1.2288  0.9287 -1.6922
 9054SOL     OW38797   3.165   1.737   6.551  0.1697 -0.5211 -0.2055
 9054SOL    HW138798   3.140   1.732   6.643 -1.0794  0.6694 -0.4793
 9054SOL    HW238799   3.083   1.769   6.515 -1.4761 -2.9725  1.3597
 9055SOL     OW38800   0.919   3.598  12.451 -0.2290 -0.0191  0.0274
 9055SOL    HW138801   0.925   3.550  12.368 -0.7330 -1.0817  0.6069
 9055SOL    HW238802   0.864   3.670  12.423  0.8362  0.2189 -1.4443
 9056SOL     OW38803   2.035   2.781   2.582 -0.0900 -0.2478  0.0081
 9056SOL    HW138804   1.982   2.768   2.660 -0.5225 -0.1550 -0.2743
 9056SOL    HW238805   2.035   2.695   2.540 -0.4022 -0.4500  0.4325
 9057SOL     OW38806   0.808   3.737   7.784  0.3357  0.1644  0.0163
 9057SOL    HW138807   0.888   3.697   7.751 -0.5535 -2.8268  1.5410
 9057SOL    HW238808   0.766   3.656   7.813  0.8741 -0.6541 -1.4645
 9058SOL     OW38809   0.493   0.486   0.855  0.3148 -0.0836 -0.1806
 9058SOL    HW138810   0.557   0.465   0.923  1.1591  1.4637 -0.4966
 9058SOL    HW238811   0.532   0.567   0.822  1.0517  0.6019  2.3968
 9059SOL     OW38812   1.372   2.530   7.450  0.0434 -0.2587 -0.0882
 9059SOL    HW138813   1.285   2.567   7.464  0.0555 -1.0057  1.9040
 9059SOL    HW238814   1.347   2.448   7.407  2.8900 -2.5464  2.6383
 9060SOL     OW38815   1.952   3.387  15.779  0.9741  0.4912 -0.1068
 9060SOL    HW138816   1.996   3.450  15.723  0.1078  2.8943  1.9352
 9060SOL    HW238817   1.947   3.434  15.862 -1.6694 -1.2133  0.7314
 9061SOL     OW38818   3.887   1.728   6.383  0.4198 -0.1716  0.5427
 9061SOL    HW138819   3.930   1.696   6.303 -0.8145  0.9157 -0.5679
 9061SOL    HW238820   3.813   1.667   6.392  1.4529 -1.9908 -3.2534
 9062SOL     OW38821   3.235   3.733   2.691 -0.1035  0.5062 -0.7583
 9062SOL    HW138822   3.278   3.665   2.744  0.7029 -0.4551 -2.6444
 9062SOL    HW238823   3.233   3.682   2.610 -0.8717 -1.9063  0.7700
 9063SOL     OW38824   0.648   1.908   5.071 -0.2319 -0.2178 -0.0638
 9063SOL    HW138825   0.741   1.883   5.073  0.2880  1.8180  0.7177
 9063SOL    HW238826   0.611   1.849   5.005  0.5641 -1.4851  0.6231
 9064SOL     OW38827   2.629   2.993  15.513  0.1926  0.8444  0.1044
 9064SOL    HW138828   2.704   3.047  15.489  2.1786 -0.7845  2.6467
 9064SOL    HW238829   2.555   3.030  15.465 -0.4335 -0.7499 -0.1565
 9065SOL     OW38830   0.461   0.127   7.805 -0.1107 -0.4221 -0.1101
 9065SOL    HW138831   0.548   0.156   7.833 -0.1268  0.9659 -1.4634
 9065SOL    HW238832   0.487   0.057   7.745  0.4454 -1.5550  1.4607
 9066SOL     OW38833   2.398   2.461   2.280  0.6161  0.2129  0.3852
 9066SOL    HW138834   2.405   2.432   2.189 -1.6455 -2.1475  0.9741
 9066SOL    HW238835   2.396   2.378   2.328  1.0551 -0.6083 -1.0259
 9067SOL     OW38836   1.112   4.120   8.505 -0.2349  0.4235 -0.6382
 9067SOL    HW138837   1.037   4.147   8.451 -1.3431 -0.8016  0.3121
 9067SOL    HW238838   1.182   4.178   8.475 -0.5793  0.4805 -1.3331
 9068SOL     OW38839   3.373   1.758   7.380  0.3869  0.0785  0.3055
 9068SOL    HW138840   3.327   1.754   7.464 -1.8661 -2.6732 -1.0616
 9068SOL    HW238841   3.446   1.699   7.401 -0.0604 -0.8779 -0.8172
 9069SOL     OW38842   4.086   1.265   7.955  0.5261  0.1344 -0.1205
 9069SOL    HW138843   4.032   1.187   7.942  0.7666 -0.4042  2.0769
 9069SOL    HW238844   4.114   1.248   8.046  0.1954  2.1824  0.3634
 9070SOL     OW38845   3.644   1.200   5.692 -0.0726 -0.1108 -0.5067
 9070SOL    HW138846   3.693   1.168   5.617 -1.3960 -2.3419 -0.4271
 9070SOL    HW238847   3.667   1.134   5.757  0.4144  1.2679  0.7066
 9071SOL     OW38848   0.925   1.280   7.362  0.0028  0.6058 -0.3698
 9071SOL    HW138849   1.018   1.285   7.386  0.0440 -0.8620 -0.1757
 9071SOL    HW238850   0.895   1.361   7.403 -1.0742  0.3357 -0.6138
 9072SOL     OW38851   1.623   1.354   3.122  0.0382  0.5071 -0.3279
 9072SOL    HW138852   1.712   1.390   3.124  0.7294 -1.4032  2.0343
 9072SOL    HW238853   1.577   1.413   3.182  0.2188  1.6609 -1.3125
 9073SOL     OW38854   3.792   0.990   6.683  1.0189  0.1633  0.1717
 9073SOL    HW138855   3.784   0.931   6.608 -1.2981  0.6991 -0.0162
 9073SOL    HW238856   3.701   1.022   6.683  1.1511  0.5302  0.9975
 9074SOL     OW38857   2.928   4.330  12.821  0.5300  0.1612  0.4865
 9074SOL    HW138858   3.009   4.287  12.849 -0.5636 -0.3351  2.8549
 9074SOL    HW238859   2.948   4.314  12.729  1.0750 -1.5627  0.8931
 9075SOL     OW38860   4.332   1.877   8.761 -0.4310 -0.3881  0.5929
 9075SOL    HW138861   4.284   1.796   8.749 -2.1942  0.6154  0.9137
 9075SOL    HW238862   4.419   1.838   8.767 -0.4778 -0.7204 -0.9043
 9076SOL     OW38863   2.159   4.098  11.500  0.2325 -0.1486 -0.1578
 9076SOL    HW138864   2.166   4.139  11.586  2.9037  0.8656 -0.8732
 9076SOL    HW238865   2.245   4.055  11.499 -0.4028 -1.4323  0.5003
 9077SOL     OW38866   2.428   3.863  13.387 -0.0390 -0.2832 -0.0338
 9077SOL    HW138867   2.499   3.909  13.432  1.2443 -1.4649 -0.8593
 9077SOL    HW238868   2.479   3.834  13.311 -0.1546 -1.5990  0.3962
 9078SOL     OW38869   2.246   2.073  15.928 -0.2915 -0.8626 -0.8022
 9078SOL    HW138870   2.319   2.065  15.866  0.0237  0.7613 -0.6413
 9078SOL    HW238871   2.230   2.167  15.929 -0.4260 -0.8684 -2.1336
 9079SOL     OW38872   4.243   2.586   3.990 -1.0194  0.3688 -0.2161
 9079SOL    HW138873   4.242   2.650   3.920  2.3097  0.4083 -0.2263
 9079SOL    HW238874   4.205   2.511   3.944  2.6363 -1.1830 -0.7100
 9080SOL     OW38875   0.095   0.179   2.194  0.3014 -0.5661 -0.3872
 9080SOL    HW138876   0.096   0.141   2.106 -1.8261  1.0813 -1.1036
 9080SOL    HW238877   0.016   0.231   2.189  0.7968  0.2606  0.4101
 9081SOL     OW38878   3.311   2.123   4.757  0.1690 -0.0544 -0.8635
 9081SOL    HW138879   3.240   2.170   4.801  0.3796 -0.7840  0.2289
 9081SOL    HW238880   3.377   2.107   4.824 -2.5101 -2.7306  1.1348
 9082SOL     OW38881   0.709   2.091   1.721 -0.3695  0.2488 -0.3338
 9082SOL    HW138882   0.768   2.019   1.744 -0.5306  0.5149  0.9230
 9082SOL    HW238883   0.721   2.153   1.793 -0.3162 -0.2743  0.1028
 9083SOL     OW38884   0.196   0.177   4.116  0.5943  0.3181  0.0349
 9083SOL    HW138885   0.132   0.172   4.045 -0.7947 -2.1219  1.4614
 9083SOL    HW238886   0.142   0.149   4.190  0.9297 -0.6294 -0.0682
 9084SOL     OW38887   2.771   1.193   3.594 -0.0508  0.0304  0.4553
 9084SOL    HW138888   2.832   1.255   3.554 -0.8293  1.1811  1.0478
 9084SOL    HW238889   2.695   1.251   3.589  0.0847  0.1648 -0.0564
 9085SOL     OW38890   1.260   1.240   5.649  0.2490  0.0028 -0.6123
 9085SOL    HW138891   1.278   1.278   5.735  0.7750  1.5482 -1.4105
 9085SOL    HW238892   1.263   1.146   5.669  1.8993 -0.4171 -2.7758
 9086SOL     OW38893   2.082   1.796  10.124  0.6537 -0.1459  0.2195
 9086SOL    HW138894   2.166   1.795  10.168 -0.2456  1.7078  1.9785
 9086SOL    HW238895   2.019   1.798  10.196 -0.5612 -0.6780 -0.8269
 9087SOL     OW38896   0.855   0.346   8.086  0.0200 -0.2246 -0.5893
 9087SOL    HW138897   0.942   0.361   8.121 -0.2377 -1.2349  0.4871
 9087SOL    HW238898   0.804   0.355   8.167  1.7225 -0.5311  0.5101
 9088SOL     OW38899   2.500   4.004   2.172  0.3539 -0.5710  0.4800
 9088SOL    HW138900   2.481   4.095   2.148  0.6625 -1.3050 -2.4574
 9088SOL    HW238901   2.465   3.956   2.097  0.9331  0.7174 -0.6061
 9089SOL     OW38902   3.688   1.466   9.567  0.4342  0.2613 -0.0739
 9089SOL    HW138903   3.638   1.538   9.607 -1.4476 -1.2814  0.3682
 9089SOL    HW238904   3.773   1.497   9.597 -0.9868 -0.0244  4.1821
 9090SOL     OW38905   1.164   3.192   3.217  0.7935  0.4489  0.2789
 9090SOL    HW138906   1.161   3.102   3.185 -0.0362  0.5576  0.0493
 9090SOL    HW238907   1.134   3.240   3.140  0.2820 -0.9723 -0.3875
 9091SOL     OW38908   0.112   2.806   2.800 -0.1122  0.3003  0.1466
 9091SOL    HW138909   0.165   2.787   2.877  0.6922 -1.4863 -0.8550
 9091SOL    HW238910   0.097   2.897   2.826  0.5572  0.4230  0.0838
 9092SOL     OW38911   1.390   0.267   3.464  0.8547 -0.0281 -0.5293
 9092SOL    HW138912   1.467   0.318   3.441 -0.5736  1.2672 -2.4076
 9092SOL    HW238913   1.342   0.258   3.382  0.1401 -0.1580 -0.0963
 9093SOL     OW38914   0.087   1.442  15.054 -0.8511 -0.0488 -0.2604
 9093SOL    HW138915   0.106   1.389  14.976 -1.6986 -1.1816  0.2874
 9093SOL    HW238916   0.037   1.514  15.017 -1.5789 -1.4841 -2.1089
 9094SOL     OW38917   0.042   1.339   5.483  0.3971 -0.4223 -0.0056
 9094SOL    HW138918   4.708   1.327   5.418  0.5862  2.6839 -0.7424
 9094SOL    HW238919   0.007   1.277   5.547 -0.7933  0.1222 -0.1327
 9095SOL     OW38920   3.689   4.016   0.841 -0.5000 -0.2283 -0.3454
 9095SOL    HW138921   3.765   4.063   0.873 -0.9883  0.3772 -0.0799
 9095SOL    HW238922   3.687   3.951   0.911 -3.0927  0.4254  0.2075
 9096SOL     OW38923   0.406   2.284   4.898  0.2617 -0.8845  0.1567
 9096SOL    HW138924   0.361   2.359   4.937  1.1118 -0.0607 -0.4536
 9096SOL    HW238925   0.468   2.263   4.967  1.0148  2.0476  0.3726
 9097SOL     OW38926   4.354   0.370   6.659  0.4371 -0.4914  0.4145
 9097SOL    HW138927   4.433   0.392   6.709  0.4609 -2.1437  1.0999
 9097SOL    HW238928   4.284   0.390   6.721  0.0090 -1.0963  0.1150
 9098SOL     OW38929   2.219   1.341   0.897 -0.2387 -0.6320  0.0006
 9098SOL    HW138930   2.126   1.343   0.874 -0.2217  0.9749  0.0468
 9098SOL    HW238931   2.255   1.414   0.847  0.5994 -0.9806  0.0934
 9099SOL     OW38932   4.343   0.283  12.056 -0.0874 -0.5302 -0.0317
 9099SOL    HW138933   4.370   0.354  12.114 -0.8498  0.2493 -0.6306
 9099SOL    HW238934   4.249   0.301  12.052  0.0500  0.5011  1.1200
 9100SOL     OW38935   1.557   4.411   4.655 -0.1141 -0.3471 -0.5040
 9100SOL    HW138936   1.646   4.379   4.638  1.0028  3.0612 -0.9691
 9100SOL    HW238937   1.525   4.343   4.714  0.1554  0.5196  0.6354
 9101SOL     OW38938   1.190   1.636   3.837 -0.2529 -0.1878  0.6136
 9101SOL    HW138939   1.137   1.615   3.760 -0.0937  0.5178  0.3152
 9101SOL    HW238940   1.206   1.547   3.869 -1.6086  0.0018  1.7830
 9102SOL     OW38941   1.066   1.139   4.413  0.4686 -0.4487 -0.1622
 9102SOL    HW138942   1.044   1.061   4.463  0.5337 -0.3296  0.0539
 9102SOL    HW238943   1.143   1.171   4.460  1.1651 -0.2750 -1.4045
 9103SOL     OW38944   1.490   4.245   6.356 -0.2467  0.3247 -0.3437
 9103SOL    HW138945   1.430   4.319   6.364  1.5553  1.5053  2.1918
 9103SOL    HW238946   1.533   4.238   6.441 -1.7895  2.0116  0.5828
 9104SOL     OW38947   2.374   0.751   6.261 -0.4737  0.0689  0.2476
 9104SOL    HW138948   2.360   0.842   6.289  2.6539  0.6715 -0.0837
 9104SOL    HW238949   2.291   0.719   6.295 -1.8643  1.2858 -2.0178
 9105SOL     OW38950   3.922   1.087  15.102  0.0059 -0.1991 -0.0134
 9105SOL    HW138951   3.857   1.018  15.094  0.4361 -0.6083  0.0185
 9105SOL    HW238952   3.939   1.086  15.196  1.3307  2.1449 -0.2251
 9106SOL     OW38953   2.253   1.695   6.092  0.1303 -0.6240  0.7503
 9106SOL    HW138954   2.244   1.636   6.167  1.0283 -0.0282  1.3313
 9106SOL    HW238955   2.164   1.726   6.073  0.9571  1.9702  1.0199
 9107SOL     OW38956   3.106   2.744   4.907  0.2777  0.5431  0.0868
 9107SOL    HW138957   3.077   2.723   4.818 -0.8832 -2.6485  1.2140
 9107SOL    HW238958   3.032   2.700   4.949  1.4438 -1.7565 -0.2311
 9108SOL     OW38959   2.710   4.276  15.730  0.0968 -0.1273 -0.1672
 9108SOL    HW138960   2.685   4.368  15.737 -2.7653 -1.0687  1.9075
 9108SOL    HW238961   2.698   4.262  15.824  0.5049  0.7447  0.0224
 9109SOL     OW38962   1.863   3.369   2.647  0.3090 -0.2526 -0.3045
 9109SOL    HW138963   1.950   3.330   2.633  0.4423  0.5021 -1.5461
 9109SOL    HW238964   1.814   3.295   2.611 -1.5150  1.7853 -1.9884
 9110SOL     OW38965   1.737   1.003  10.441  0.6528  0.6069 -0.5497
 9110SOL    HW138966   1.744   1.021  10.535  0.5366 -1.1883 -0.1985
 9110SOL    HW238967   1.823   0.966  10.418 -0.7464 -1.8293 -1.8910
 9111SOL     OW38968   1.759   3.767   3.035  0.4056 -0.6521  0.2267
 9111SOL    HW138969   1.757   3.850   3.082 -2.8987 -0.5257 -0.1608
 9111SOL    HW238970   1.808   3.795   2.957  1.0313 -0.3903  0.7156
 9112SOL     OW38971   4.146   3.560   2.162  0.1345  0.3305 -0.3340
 9112SOL    HW138972   4.212   3.621   2.197 -0.1911  1.1392 -1.1371
 9112SOL    HW238973   4.141   3.575   2.068 -1.2751  0.4217 -0.2349
 9113SOL     OW38974   2.792   2.254   9.992 -0.0054 -0.2659 -0.0269
 9113SOL    HW138975   2.789   2.200   9.914  3.0081 -1.1166  0.4643
 9113SOL    HW238976   2.851   2.206  10.050 -0.0328  1.5439  1.5069
 9114SOL     OW38977   1.826   2.669  13.289  0.4144  0.0281 -0.1410
 9114SOL    HW138978   1.890   2.602  13.267 -1.0190 -1.8349  1.3123
 9114SOL    HW238979   1.861   2.750  13.252  2.4540  0.4277  2.6495
 9115SOL     OW38980   1.375   1.539  10.162  0.3099 -0.4395  0.0409
 9115SOL    HW138981   1.368   1.518  10.069 -0.3552  1.0298 -0.2311
 9115SOL    HW238982   1.457   1.588  10.169  1.1378 -1.7333 -0.5389
 9116SOL     OW38983   2.545   3.270  17.630  0.4704 -0.5713  0.2146
 9116SOL    HW138984   2.637   3.288  17.650  0.3280 -0.2123  0.5304
 9116SOL    HW238985   2.537   3.177  17.651  0.4421 -0.3876  0.9867
 9117SOL     OW38986   4.436   2.204   1.910 -0.1108 -0.8731  0.3528
 9117SOL    HW138987   4.513   2.245   1.948 -1.4618  1.8497  0.1088
 9117SOL    HW238988   4.371   2.256   1.957 -1.7958 -1.5847 -1.1738
 9118SOL     OW38989   3.014   4.603  12.342 -0.2353 -0.2690 -0.3459
 9118SOL    HW138990   2.962   4.572  12.417  1.7019  0.2003  1.1699
 9118SOL    HW238991   3.093   4.551  12.353  0.4101  0.6900 -0.4777
 9119SOL     OW38992   2.214   0.715  16.791  0.0823  1.2936 -0.3051
 9119SOL    HW138993   2.259   0.713  16.706  2.0033 -2.1007  0.8057
 9119SOL    HW238994   2.269   0.674  16.857 -1.9073  1.3076  1.3422
 9120SOL     OW38995   1.393   0.045   4.227 -0.5657 -0.4214  0.0764
 9120SOL    HW138996   1.354   4.729   4.298  0.8417 -0.8005  0.5711
 9120SOL    HW238997   1.484   0.018   4.233 -0.3509  0.0077 -1.1391
 9121SOL     OW38998   4.029   1.694  10.668 -0.6028  0.2110  0.1184
 9121SOL    HW138999   3.958   1.653  10.718 -1.2970  3.6617  1.9427
 9121SOL    HW239000   4.022   1.631  10.596 -1.3807 -0.7918  1.0787
 9122SOL     OW39001   2.495   4.053   8.455 -0.2814 -0.3670  0.1727
 9122SOL    HW139002   2.418   4.108   8.471 -1.8428 -3.0042  1.8364
 9122SOL    HW239003   2.506   4.065   8.360 -0.5438  0.2773  0.2250
 9123SOL     OW39004   3.210   0.558   5.257 -0.5558 -0.0750 -0.3044
 9123SOL    HW139005   3.120   0.546   5.287  0.2776 -0.9990  1.8447
 9123SOL    HW239006   3.245   0.482   5.303 -0.4824 -0.3586 -0.8282
 9124SOL     OW39007   4.019   4.014   8.964 -0.3439  0.5976 -0.2579
 9124SOL    HW139008   4.082   3.973   9.023  0.1295 -2.0916 -2.6251
 9124SOL    HW239009   3.974   3.932   8.941  0.8930 -0.0087 -0.5105
 9125SOL     OW39010   1.599   0.546   0.687 -0.2373 -0.3499 -0.1945
 9125SOL    HW139011   1.672   0.526   0.628  1.6843 -0.3596  2.1703
 9125SOL    HW239012   1.528   0.512   0.632 -0.1627 -0.2521 -0.3523
 9126SOL     OW39013   0.870   1.247   1.665  0.4617  0.3358  0.6380
 9126SOL    HW139014   0.785   1.220   1.700  1.9548 -0.9742  3.2352
 9126SOL    HW239015   0.849   1.334   1.631  0.9261 -1.1787 -3.5304
 9127SOL     OW39016   3.921   3.317   6.860 -0.3465 -0.5497  0.3167
 9127SOL    HW139017   4.013   3.326   6.883 -0.2383 -1.7101  0.3345
 9127SOL    HW239018   3.882   3.273   6.935  0.3482 -1.1971  0.2911
 9128SOL     OW39019   2.270   3.540  11.966 -0.4658  0.0583  0.1928
 9128SOL    HW139020   2.311   3.507  12.045  0.7669  0.1597 -0.4112
 9128SOL    HW239021   2.339   3.600  11.937 -1.6957 -0.1588 -3.2060
 9129SOL     OW39022   2.544   0.630   0.125  0.0629  0.2124  0.1798
 9129SOL    HW139023   2.462   0.595   0.091 -0.6078  2.0604 -0.0928
 9129SOL    HW239024   2.607   0.559   0.116 -1.1527 -1.0365  1.6281
 9130SOL     OW39025   2.432   0.316   4.388 -0.0601  0.1706  0.1752
 9130SOL    HW139026   2.383   0.393   4.358  0.4518  0.4122 -0.0522
 9130SOL    HW239027   2.379   0.299   4.465  0.2190 -2.3791 -0.2163
 9131SOL     OW39028   2.507   4.551   4.465 -0.0034 -0.1139 -0.7342
 9131SOL    HW139029   2.588   4.500   4.461 -1.0298 -1.9830  1.7011
 9131SOL    HW239030   2.533   4.610   4.535 -0.2814  1.8776 -2.3242
 9132SOL     OW39031   0.868   4.284   0.322  0.2624 -0.1030 -0.2324
 9132SOL    HW139032   0.857   4.189   0.319 -0.1071 -0.1257  1.6594
 9132SOL    HW239033   0.786   4.318   0.358  1.4789  0.0659  2.4074
 9133SOL     OW39034   4.380   2.638   5.336 -0.2004  0.0771  0.1621
 9133SOL    HW139035   4.453   2.650   5.276  0.5636  0.5131  1.1880
 9133SOL    HW239036   4.410   2.679   5.417  2.0624 -0.2255 -0.5447
 9134SOL     OW39037   3.687   4.025   0.155 -0.0903 -0.2956  0.6218
 9134SOL    HW139038   3.748   4.085   0.199  0.6869 -1.7457  1.5539
 9134SOL    HW239039   3.655   3.961   0.219 -0.1298 -0.3643  0.5333
 9135SOL     OW39040   3.307   1.749   9.138  0.3400  0.0324  0.2570
 9135SOL    HW139041   3.297   1.816   9.205 -0.7108 -0.0139  0.1480
 9135SOL    HW239042   3.259   1.792   9.067  1.6859 -1.4234 -1.5589
 9136SOL     OW39043   0.398   0.442   5.158 -0.1932  0.2647  0.2663
 9136SOL    HW139044   0.435   0.520   5.118  0.8309 -0.5157 -0.3093
 9136SOL    HW239045   0.453   0.440   5.236  0.9430 -1.7546 -0.5715
 9137SOL     OW39046   3.802   4.348   6.821 -0.2113  0.2854 -0.6905
 9137SOL    HW139047   3.843   4.311   6.743  1.0188 -1.1913  0.6651
 9137SOL    HW239048   3.790   4.270   6.875 -2.4933  0.3364 -1.1142
 9138SOL     OW39049   2.967   1.193   0.013  0.1664  0.7913 -0.2208
 9138SOL    HW139050   3.042   1.152  17.710  0.1960  0.5481  0.0668
 9138SOL    HW239051   2.891   1.138  17.730  1.1403 -0.0233 -1.5569
 9139SOL     OW39052   2.670   0.707   4.750  0.4368  0.0140  0.0834
 9139SOL    HW139053   2.665   0.753   4.667  3.6232 -0.9127 -0.6202
 9139SOL    HW239054   2.679   0.617   4.722  0.8270  0.5799 -1.5896
 9140SOL     OW39055   2.525   0.865   6.740 -0.0173  0.2535 -0.3333
 9140SOL    HW139056   2.514   0.925   6.667  0.1832  1.4406  0.6079
 9140SOL    HW239057   2.475   0.791   6.707 -1.5162  0.2612  1.9391
 9141SOL     OW39058   3.577   0.949   2.431 -0.6856 -0.2115  0.0148
 9141SOL    HW139059   3.640   0.948   2.504 -2.4404  0.2067  1.5468
 9141SOL    HW239060   3.587   1.042   2.415 -2.1509 -0.1603 -0.5591
 9142SOL     OW39061   2.744   1.228  16.259 -0.2005  0.5386  0.0059
 9142SOL    HW139062   2.836   1.246  16.279 -0.2077 -0.1451  0.6519
 9142SOL    HW239063   2.726   1.304  16.203  1.9168  0.6741 -0.5256
 9143SOL     OW39064   4.427   2.006   1.275 -0.5186 -0.3779  0.0520
 9143SOL    HW139065   4.501   2.067   1.279 -0.0588 -1.1396  3.6354
 9143SOL    HW239066   4.363   2.071   1.302  0.6952  1.3753 -1.2641
 9144SOL     OW39067   0.292   1.118   8.285 -0.0670 -0.3140 -0.3812
 9144SOL    HW139068   0.380   1.080   8.283  0.8127  1.4832  2.4010
 9144SOL    HW239069   0.291   1.161   8.200 -0.1944 -1.1654 -0.8103
 9145SOL     OW39070   1.298   2.827   3.965  0.1145 -0.2019 -0.1409
 9145SOL    HW139071   1.208   2.828   3.998  0.4348  1.1149  0.7063
 9145SOL    HW239072   1.320   2.917   3.986 -1.0398 -0.0494  0.4120
 9146SOL     OW39073   0.158   3.288   2.706 -0.0392 -0.4592  0.1017
 9146SOL    HW139074   0.239   3.340   2.698 -0.7532  0.8179  1.1787
 9146SOL    HW239075   0.135   3.279   2.614 -1.3485  1.0490  0.2781
 9147SOL     OW39076   0.106   0.337   6.013  0.0466 -0.0328 -0.2815
 9147SOL    HW139077   0.047   0.384   6.071 -1.6427 -1.1063 -1.1435
 9147SOL    HW239078   0.120   0.258   6.065 -2.4612  1.2590  2.3359
 9148SOL     OW39079   4.581   0.762  14.376  0.0237  0.4649 -0.2240
 9148SOL    HW139080   4.599   0.708  14.453  1.3825  0.6135 -0.4229
 9148SOL    HW239081   4.631   0.723  14.303  1.7909 -0.9685  1.7463
 9149SOL     OW39082   1.923   2.137   4.074 -0.2378 -0.0609 -0.2146
 9149SOL    HW139083   1.934   2.232   4.078 -1.3639 -0.0415  2.5731
 9149SOL    HW239084   2.015   2.123   4.054  0.4610  0.3514  2.7338
 9150SOL     OW39085   4.246   1.888   6.740  0.3224 -0.0077  0.5638
 9150SOL    HW139086   4.211   1.971   6.771  1.1752  0.0101  1.5087
 9150SOL    HW239087   4.218   1.841   6.819  1.0825 -0.0170  0.8330
 9151SOL     OW39088   2.842   3.159  15.427  0.4097 -0.0535  0.2426
 9151SOL    HW139089   2.828   3.136  15.336 -0.1965  2.1659 -0.2306
 9151SOL    HW239090   2.925   3.207  15.422 -0.6715  1.9358  1.2115
 9152SOL     OW39091   3.641   1.003   5.868  0.0121 -0.3969  0.1943
 9152SOL    HW139092   3.634   0.909   5.848 -0.9389 -0.2115 -0.3658
 9152SOL    HW239093   3.713   1.002   5.930 -0.0699 -1.3174  0.2880
 9153SOL     OW39094   0.654   1.861   7.427  0.1746  0.0334 -0.2467
 9153SOL    HW139095   0.659   1.953   7.454  0.3744 -0.0183 -0.1079
 9153SOL    HW239096   0.575   1.857   7.374 -0.7730 -1.4472  1.2629
 9154SOL     OW39097   3.290   2.492   3.783 -0.5525  0.2364 -0.2649
 9154SOL    HW139098   3.360   2.449   3.832 -0.9945 -1.9267 -1.5387
 9154SOL    HW239099   3.272   2.563   3.845  0.4283 -0.4205  0.7604
 9155SOL     OW39100   2.444   0.120  14.366 -0.5581  0.3403 -0.7915
 9155SOL    HW139101   2.464   0.047  14.307 -1.5512 -1.3043  0.9417
 9155SOL    HW239102   2.368   0.095  14.417  0.4466  0.0473  0.5746
 9156SOL     OW39103   0.372   2.202   1.464  0.1319 -0.2213 -0.0909
 9156SOL    HW139104   0.353   2.294   1.445  0.7877 -0.0911 -0.0928
 9156SOL    HW239105   0.467   2.195   1.455  0.0635 -0.5753 -0.5915
 9157SOL     OW39106   2.898   3.941   7.995 -0.3966 -0.1577  0.0631
 9157SOL    HW139107   2.923   3.919   8.084  2.2321  0.7714 -0.4486
 9157SOL    HW239108   2.813   3.900   7.981 -0.6074  0.3265 -0.0614
 9158SOL     OW39109   3.953   1.695   3.169 -0.5875 -0.3728 -0.2394
 9158SOL    HW139110   4.046   1.710   3.150 -0.0230 -1.0853  2.0290
 9158SOL    HW239111   3.932   1.778   3.212  1.2196  0.4861 -1.0072
 9159SOL     OW39112   0.149   3.947  14.384 -0.5815 -0.4129  0.0802
 9159SOL    HW139113   0.064   3.914  14.354 -1.2686  0.8149  0.6376
 9159SOL    HW239114   0.124   4.034  14.415 -1.7644 -1.1862  1.3130
 9160SOL     OW39115   1.263   3.296  12.774 -0.1339  0.2650  0.3017
 9160SOL    HW139116   1.184   3.345  12.754 -0.2195  0.1209  0.2826
 9160SOL    HW239117   1.326   3.362  12.804  0.5319 -0.5924  0.7984
 9161SOL     OW39118   0.214   1.914   9.212 -0.1348 -0.9935  0.1316
 9161SOL    HW139119   0.294   1.886   9.166 -0.4760 -0.3177 -0.8826
 9161SOL    HW239120   0.243   1.981   9.274 -0.9818  0.1061 -0.6613
 9162SOL     OW39121   0.423   1.227   1.780 -0.0680 -0.1861 -0.5068
 9162SOL    HW139122   0.359   1.250   1.847  1.5868  1.8771  0.3655
 9162SOL    HW239123   0.431   1.306   1.728 -0.3287 -0.5954 -1.1682
 9163SOL     OW39124   0.799   2.737   9.772  0.1156 -0.2726  0.0590
 9163SOL    HW139125   0.718   2.690   9.753 -0.0281 -0.2127  0.5337
 9163SOL    HW239126   0.869   2.675   9.751 -0.8842 -1.9390  1.6817
 9164SOL     OW39127   0.338   1.180   1.386 -0.2192  0.0295 -0.3877
 9164SOL    HW139128   0.346   1.087   1.408  1.2814  0.1141 -0.6472
 9164SOL    HW239129   0.308   1.177   1.295  0.7750  2.4618 -0.7965
 9165SOL     OW39130   4.565   4.161   4.462  0.1529 -0.0024 -0.0978
 9165SOL    HW139131   4.556   4.248   4.423 -1.2541 -0.7408 -1.4405
 9165SOL    HW239132   4.659   4.157   4.478  0.0622  1.4369  0.8019
 9166SOL     OW39133   3.337   1.297   8.749  0.3531 -0.4102 -0.3516
 9166SOL    HW139134   3.288   1.317   8.828 -0.5875 -0.7779 -0.8342
 9166SOL    HW239135   3.365   1.208   8.769 -1.3329  0.0609  3.9947
 9167SOL     OW39136   4.203   4.705   2.770 -0.3426  0.1443  0.9039
 9167SOL    HW139137   4.131   4.667   2.720  0.5889 -0.2277 -0.1639
 9167SOL    HW239138   4.279   4.667   2.726 -2.1768 -0.7959 -1.4445
 9168SOL     OW39139   4.368   1.748   0.817  0.4040  0.4027 -0.3909
 9168SOL    HW139140   4.385   1.727   0.725  2.1779 -2.7607  0.6345
 9168SOL    HW239141   4.278   1.716   0.823 -0.0336  1.7060 -0.1680
 9169SOL     OW39142   3.741   1.033   0.707 -0.0159 -0.4426  0.7297
 9169SOL    HW139143   3.823   0.984   0.711  2.0531  2.7328 -2.9854
 9169SOL    HW239144   3.688   0.997   0.778 -1.1888  0.8135  0.4947
 9170SOL     OW39145   2.582   3.194   0.737 -0.6840  0.0578  0.2135
 9170SOL    HW139146   2.604   3.274   0.785  1.3832  0.6251 -1.6737
 9170SOL    HW239147   2.654   3.180   0.675  0.3456 -0.8673  1.6306
 9171SOL     OW39148   3.571   0.763   6.524 -0.1509  0.0843  0.2819
 9171SOL    HW139149   3.495   0.760   6.582  0.1351  2.1110  0.7769
 9171SOL    HW239150   3.550   0.703   6.453 -1.4165  1.3305 -0.3967
 9172SOL     OW39151   4.255   3.539  16.387  0.4001 -0.3581  0.3671
 9172SOL    HW139152   4.273   3.445  16.386  1.8466 -0.0890  0.4906
 9172SOL    HW239153   4.329   3.571  16.335  0.8569  0.1282  1.3143
 9173SOL     OW39154   4.282   4.101   5.255  0.3320 -0.1628 -0.7864
 9173SOL    HW139155   4.375   4.102   5.276  0.0942 -0.0843  0.2780
 9173SOL    HW239156   4.275   4.195   5.237 -0.0182  0.1240  0.8463
 9174SOL     OW39157   0.816   2.461   7.869  0.0089 -0.3204 -0.4545
 9174SOL    HW139158   0.881   2.480   7.937 -0.0988 -1.2312 -0.0955
 9174SOL    HW239159   0.734   2.466   7.917 -0.7808 -3.6044 -1.4657
 9175SOL     OW39160   0.595   4.670   5.419  0.2089  0.5475 -0.3154
 9175SOL    HW139161   0.620   0.015   5.372  0.4777 -0.7215 -2.3344
 9175SOL    HW239162   0.578   4.705   5.506  0.5636 -0.2556  0.0683
 9176SOL     OW39163   4.063   1.687   8.012  0.3977 -0.2532  0.4608
 9176SOL    HW139164   4.143   1.655   8.053 -0.2226 -0.6675  1.3652
 9176SOL    HW239165   4.065   1.777   8.046 -1.9952 -0.0086 -0.0375
 9177SOL     OW39166   3.080   4.356   7.629  0.2037  0.4172 -0.2698
 9177SOL    HW139167   3.164   4.372   7.586  0.2968 -0.1258 -0.2864
 9177SOL    HW239168   3.087   4.412   7.706  0.0798  1.5771 -1.1050
 9178SOL     OW39169   3.679   1.439   7.535 -0.0202  0.5039  0.4386
 9178SOL    HW139170   3.671   1.346   7.511 -2.8979  0.7394  0.4786
 9178SOL    HW239171   3.770   1.457   7.512  0.5029  0.2296  2.2401
 9179SOL     OW39172   3.227   1.865   8.705  0.0303  0.1385 -0.4820
 9179SOL    HW139173   3.237   1.782   8.659 -0.2332  0.3536 -0.9310
 9179SOL    HW239174   3.277   1.931   8.656  2.2089  0.1673  1.7962
 9180SOL     OW39175   1.923   3.189  16.996  0.1779  0.1897  0.3506
 9180SOL    HW139176   1.958   3.194  16.907  2.0782  0.6310  1.1363
 9180SOL    HW239177   1.878   3.273  17.004  1.9339  1.0483  1.0759
 9181SOL     OW39178   3.857   3.356   5.750  0.2614 -0.2766  0.0674
 9181SOL    HW139179   3.890   3.417   5.684 -2.4293  0.0423 -0.9973
 9181SOL    HW239180   3.917   3.284   5.731  0.4264 -0.3641  0.9400
 9182SOL     OW39181   2.452   2.419   9.790  0.5146  0.1774  0.2822
 9182SOL    HW139182   2.361   2.440   9.768 -0.0033 -0.5645  1.6893
 9182SOL    HW239183   2.498   2.463   9.719 -1.1760 -2.0164 -2.1486
 9183SOL     OW39184   0.678   2.905   3.795 -0.7602 -0.1958 -0.1930
 9183SOL    HW139185   0.625   2.840   3.841 -0.3126  0.3729  1.1239
 9183SOL    HW239186   0.743   2.837   3.776  0.3524  0.9002 -0.2985
 9184SOL     OW39187   0.252   2.535   7.762 -0.2954 -0.6015  0.1568
 9184SOL    HW139188   0.254   2.440   7.758 -3.1196 -0.6420 -0.1319
 9184SOL    HW239189   0.296   2.571   7.685 -0.8711  0.2038  0.2022
 9185SOL     OW39190   3.606   4.610   3.569  0.2540  0.1861  0.7659
 9185SOL    HW139191   3.697   4.607   3.539 -0.5035 -3.0719 -1.1616
 9185SOL    HW239192   3.583   4.702   3.553  0.4413  0.1734  0.4227
 9186SOL     OW39193   3.199   1.661   8.437  0.1291 -0.5759  0.5236
 9186SOL    HW139194   3.129   1.605   8.406  0.3707 -2.0059  2.5185
 9186SOL    HW239195   3.152   1.743   8.423  1.9699  0.5923  1.0160
 9187SOL     OW39196   2.561   1.353   7.636  0.0822 -0.4474 -0.3352
 9187SOL    HW139197   2.627   1.339   7.569  1.4921 -0.5347  1.0660
 9187SOL    HW239198   2.498   1.288   7.605 -0.8545  0.9443 -1.3191
 9188SOL     OW39199   2.799   0.027   8.928  0.5034  0.3223 -0.3251
 9188SOL    HW139200   2.747   4.685   8.952 -0.0287  0.6595 -0.4004
 9188SOL    HW239201   2.879   4.715   8.904 -0.1643 -0.3084 -1.2976
 9189SOL     OW39202   4.160   2.262   5.868  0.6339 -0.8131  0.5170
 9189SOL    HW139203   4.138   2.205   5.942 -1.4567 -2.2539 -1.2491
 9189SOL    HW239204   4.158   2.205   5.792 -1.0364 -1.4657  1.0534
 9190SOL     OW39205   0.884   3.076   8.649  0.4898 -0.4700  0.3521
 9190SOL    HW139206   0.895   3.033   8.734  1.8223 -0.3511  0.2359
 9190SOL    HW239207   0.900   3.003   8.590 -0.6818 -1.3192  1.0860
 9191SOL     OW39208   1.001   2.285   1.112  0.1527  0.5693 -0.4360
 9191SOL    HW139209   0.918   2.302   1.158 -1.3086 -1.9705 -2.1623
 9191SOL    HW239210   0.975   2.321   1.027  0.8107  0.0432 -0.8620
 9192SOL     OW39211   1.363   2.782   3.700 -0.1799 -0.6604 -0.4636
 9192SOL    HW139212   1.281   2.740   3.675  0.1221 -0.7707 -1.2725
 9192SOL    HW239213   1.356   2.774   3.795  0.3697  2.0200 -0.2003
 9193SOL     OW39214   3.318   2.627  16.727  0.0883 -0.5755  0.0292
 9193SOL    HW139215   3.340   2.654  16.816  2.2969  0.4909 -0.8545
 9193SOL    HW239216   3.352   2.537  16.733 -1.3621 -0.9340  2.7659
 9194SOL     OW39217   0.473   4.019   7.069 -0.0620  0.4514 -0.2134
 9194SOL    HW139218   0.413   3.958   7.113  1.1970  0.1608  1.0898
 9194SOL    HW239219   0.412   4.086   7.038 -0.8284 -1.2641 -2.4539
 9195SOL     OW39220   4.296   3.835   4.724 -0.0882  0.5874  0.6394
 9195SOL    HW139221   4.313   3.901   4.657  1.2603 -0.0468  0.3565
 9195SOL    HW239222   4.201   3.820   4.727  0.1605 -1.5651 -2.0935
 9196SOL     OW39223   4.063   2.009   8.858 -0.0567 -0.1779  0.9191
 9196SOL    HW139224   4.145   2.056   8.874 -0.0641  0.5206 -1.1036
 9196SOL    HW239225   4.094   1.925   8.826 -0.5521  0.1071 -0.2902
 9197SOL     OW39226   2.155   4.203   2.337  0.2138 -0.4171 -0.4570
 9197SOL    HW139227   2.176   4.212   2.244 -0.1256 -0.0104 -0.4963
 9197SOL    HW239228   2.200   4.122   2.359 -1.0662 -1.0683 -0.2392
 9198SOL     OW39229   4.378   4.297   7.737 -0.4565  0.0676  0.6384
 9198SOL    HW139230   4.288   4.304   7.705 -0.7563 -0.4820  1.3799
 9198SOL    HW239231   4.390   4.374   7.792 -1.4461  0.6046  0.1005
 9199SOL     OW39232   3.526   3.185  17.213 -0.2171 -0.0353  0.0782
 9199SOL    HW139233   3.505   3.274  17.183 -2.1620 -0.4957  0.0799
 9199SOL    HW239234   3.618   3.191  17.239  0.4285 -1.4263 -1.9218
 9200SOL     OW39235   2.957   2.186   7.426  0.0162 -0.1418  0.1930
 9200SOL    HW139236   2.868   2.211   7.403  0.5215 -1.0039 -2.7205
 9200SOL    HW239237   2.959   2.091   7.418  0.4591 -0.1516  0.4062
 9201SOL     OW39238   1.560   2.086   2.272 -0.0216 -0.2649 -0.3692
 9201SOL    HW139239   1.578   2.105   2.364 -0.8371 -1.3768  0.0240
 9201SOL    HW239240   1.630   2.130   2.225  1.3448 -0.2344  1.6845
 9202SOL     OW39241   4.583   3.400  16.322  0.4115 -0.4826  0.4176
 9202SOL    HW139242   4.572   3.310  16.354 -0.2065 -1.1645 -1.7521
 9202SOL    HW239243   4.571   3.394  16.227  0.6584 -0.6471  0.3964
 9203SOL     OW39244   0.293   4.530  12.308  0.6561  0.5996  0.3311
 9203SOL    HW139245   0.204   4.547  12.279 -0.4232  0.3708  3.5571
 9203SOL    HW239246   0.350   4.567  12.241 -0.3472 -1.8393 -1.8833
 9204SOL     OW39247   2.924   0.496   4.720  0.6140  0.3251 -0.1026
 9204SOL    HW139248   2.986   0.552   4.673  0.0184  0.0128 -1.2709
 9204SOL    HW239249   2.914   0.543   4.802  0.9142 -2.4384  1.5259
 9205SOL     OW39250   1.982   3.724   9.846  0.2924 -0.2658 -0.3115
 9205SOL    HW139251   1.977   3.644   9.899  1.1603 -1.3784 -1.9197
 9205SOL    HW239252   1.956   3.788   9.912  1.4556 -1.1317  0.9953
 9206SOL     OW39253   1.088   4.661   1.314  0.3169  0.1556  0.1842
 9206SOL    HW139254   1.176   4.676   1.347  0.8220 -2.5896  0.0342
 9206SOL    HW239255   1.091   0.010   1.269 -1.7925 -0.2978 -0.7804
 9207SOL     OW39256   2.328   4.299   5.060 -0.0918  0.2768  0.4255
 9207SOL    HW139257   2.327   4.365   5.129 -0.5058  1.8029 -1.0407
 9207SOL    HW239258   2.317   4.354   4.983  3.3141  0.9152  0.4299
 9208SOL     OW39259   1.617   2.192   3.827  0.4559  0.4794  0.1107
 9208SOL    HW139260   1.632   2.128   3.896 -0.0923 -0.1521 -0.3492
 9208SOL    HW239261   1.642   2.140   3.750 -0.4927 -0.7727  0.6394
 9209SOL     OW39262   2.544   2.827  13.036 -0.2647 -0.0445  0.0761
 9209SOL    HW139263   2.632   2.824  12.999 -0.9534  0.5889 -1.5811
 9209SOL    HW239264   2.528   2.743  13.080  0.5231 -0.0111  0.4274
 9210SOL     OW39265   2.120   1.420   9.574  0.1683 -0.5574 -0.2011
 9210SOL    HW139266   2.127   1.324   9.569  2.1144 -0.4637  0.5742
 9210SOL    HW239267   2.160   1.435   9.660 -0.1724 -1.2058  0.0731
 9211SOL     OW39268   0.312   4.356   5.530  0.1374 -0.5631  0.4446
 9211SOL    HW139269   0.285   4.385   5.443 -3.0628 -0.1378  1.5875
 9211SOL    HW239270   0.237   4.300   5.553 -0.8230  0.7125  0.3992
 9212SOL     OW39271   2.724   1.281   7.437 -0.0920  0.1717 -0.1959
 9212SOL    HW139272   2.797   1.341   7.451  0.9451 -0.4384 -2.8560
 9212SOL    HW239273   2.758   1.238   7.358 -1.6714 -0.0321 -0.7691
 9213SOL     OW39274   4.577   4.169   8.105  0.4720 -0.4352  0.3964
 9213SOL    HW139275   4.587   4.097   8.168  1.3358 -1.6787 -1.1904
 9213SOL    HW239276   4.509   4.133   8.047 -1.3396 -1.1067  2.9046
 9214SOL     OW39277   0.647   3.496   8.305 -0.2504 -0.7702 -0.0068
 9214SOL    HW139278   0.670   3.529   8.392 -4.4348 -2.1692  1.6651
 9214SOL    HW239279   0.697   3.416   8.294 -0.2787 -0.8822  0.6704
 9215SOL     OW39280   4.608   3.514   2.406  0.2085 -0.3461 -0.5564
 9215SOL    HW139281   4.657   3.554   2.478 -0.6179  0.3786 -0.4042
 9215SOL    HW239282   4.616   3.421   2.428 -1.2040  0.2372  2.4811
 9216SOL     OW39283   4.427   3.818   7.747  0.1230  0.0542  0.2755
 9216SOL    HW139284   4.411   3.724   7.741 -0.9393  0.2148  0.5941
 9216SOL    HW239285   4.522   3.821   7.744  0.1414 -1.0386 -0.4394
 9217SOL     OW39286   0.396   2.744   9.488  0.8379  0.2817 -0.4484
 9217SOL    HW139287   0.395   2.787   9.403  0.7318  3.7880  1.3203
 9217SOL    HW239288   0.301   2.743   9.499  0.7844 -0.6355 -0.9736
 9218SOL     OW39289   1.569   3.871   8.887  0.6218 -0.3482  0.1991
 9218SOL    HW139290   1.527   3.876   8.973  0.7926 -0.4597  0.2891
 9218SOL    HW239291   1.587   3.777   8.895 -0.5982 -0.5763  0.1926
 9219SOL     OW39292   0.569   2.160   5.727 -0.0754  0.4759 -0.4699
 9219SOL    HW139293   0.554   2.253   5.740  0.0457  0.2825  0.9678
 9219SOL    HW239294   0.550   2.126   5.814  0.0384  2.5169  0.3370
 9220SOL     OW39295   4.358   3.543   7.680  0.3418 -0.0789  0.4770
 9220SOL    HW139296   4.384   3.452   7.691 -0.1048 -0.3641 -0.7918
 9220SOL    HW239297   4.324   3.532   7.591 -1.3568  0.1220  1.0980
 9221SOL     OW39298   1.842   2.729   0.525  0.0037  0.2105 -0.5723
 9221SOL    HW139299   1.786   2.662   0.565 -0.7093  1.6108  0.7620
 9221SOL    HW239300   1.922   2.715   0.576 -0.4568 -0.3288  0.0055
 9222SOL     OW39301   1.868   1.538   6.995 -1.0018 -0.2441 -1.1428
 9222SOL    HW139302   1.796   1.569   7.049 -1.0556  0.7573 -1.7915
 9222SOL    HW239303   1.821   1.470   6.947  0.0575 -1.5882 -0.2741
 9223SOL     OW39304   0.821   2.211   7.749 -0.1374  0.5273 -0.2578
 9223SOL    HW139305   0.823   2.298   7.791 -1.2594  1.1323 -1.4689
 9223SOL    HW239306   0.909   2.202   7.713 -0.7375 -1.1424 -1.2812
 9224SOL     OW39307   3.876   2.596   7.665 -0.1922 -0.0986  0.5886
 9224SOL    HW139308   3.808   2.542   7.706 -1.0944 -1.8245 -3.1429
 9224SOL    HW239309   3.955   2.565   7.709 -1.1824 -2.1591  0.9188
 9225SOL     OW39310   0.085   0.774   4.876 -0.3425 -0.1693  0.5448
 9225SOL    HW139311   0.124   0.711   4.815  0.3322 -0.0582  0.8678
 9225SOL    HW239312   0.109   0.728   4.956 -1.3114  0.0794  0.9788
 9226SOL     OW39313   3.350   1.170   6.393  0.3501  0.1242  0.4029
 9226SOL    HW139314   3.299   1.114   6.452 -0.0366 -0.8806 -0.8799
 9226SOL    HW239315   3.298   1.249   6.377  0.5850 -0.2268 -2.0417
 9227SOL     OW39316   3.801   1.920   4.821 -0.4634 -0.2402 -0.0458
 9227SOL    HW139317   3.759   1.996   4.781 -0.7275 -0.8995 -1.0089
 9227SOL    HW239318   3.732   1.900   4.883 -1.0096 -0.4053 -0.7035
 9228SOL     OW39319   1.925   1.691   3.430  0.3771  0.1155 -0.3568
 9228SOL    HW139320   1.879   1.612   3.459 -0.2157 -0.0758 -1.8213
 9228SOL    HW239321   1.988   1.697   3.501  0.7750 -0.2990 -0.6726
 9229SOL     OW39322   1.954   4.564   3.033 -0.0805  0.6932 -0.2597
 9229SOL    HW139323   2.005   4.511   3.095  2.7820  1.5517 -1.8897
 9229SOL    HW239324   2.017   4.627   2.998  2.4865 -0.7505  1.7691
 9230SOL     OW39325   0.999   4.246   3.410 -0.1531  0.0484 -0.2235
 9230SOL    HW139326   1.028   4.336   3.394 -0.9742  0.6127  1.5145
 9230SOL    HW239327   0.971   4.251   3.502 -0.5284 -0.0603 -0.3317
 9231SOL     OW39328   3.211   3.593   8.417 -0.4853  0.2215  0.3779
 9231SOL    HW139329   3.192   3.607   8.509 -1.2087  2.6072 -0.1248
 9231SOL    HW239330   3.259   3.673   8.392  2.1325 -1.9002 -1.3585
 9232SOL     OW39331   0.182   0.020   4.492 -0.4990  0.8830  0.0749
 9232SOL    HW139332   0.256   0.080   4.486 -0.5569  0.8388 -1.1918
 9232SOL    HW239333   0.150   0.032   4.402 -1.4078  0.0190  0.2811
 9233SOL     OW39334   3.179   2.577   0.025 -0.0119 -0.2079  0.5695
 9233SOL    HW139335   3.161   2.667  17.736 -2.1044 -1.1939 -1.2179
 9233SOL    HW239336   3.151   2.523  17.691 -1.2952  0.0474  0.8841
 9234SOL     OW39337   0.817   4.118   5.278  0.0173  0.4077  0.0597
 9234SOL    HW139338   0.861   4.035   5.262 -1.5917 -0.8993  2.4693
 9234SOL    HW239339   0.894   4.172   5.296  0.7136 -0.1196 -1.3640
 9235SOL     OW39340   3.384   3.867   7.196  0.6917 -0.2185 -0.0113
 9235SOL    HW139341   3.444   3.935   7.225 -1.1781 -0.5287  4.6362
 9235SOL    HW239342   3.446   3.799   7.171  1.7301  0.3801  0.9371
 9236SOL     OW39343   1.863   2.249  10.092  0.0043  0.2073 -0.4568
 9236SOL    HW139344   1.889   2.253  10.000  0.7374  2.4284 -0.1712
 9236SOL    HW239345   1.788   2.309  10.099  0.1466  0.7071 -3.0113
 9237SOL     OW39346   2.823   1.419   4.234  0.3476  0.4083 -0.3148
 9237SOL    HW139347   2.863   1.456   4.313 -1.5722 -0.4223  1.0641
 9237SOL    HW239348   2.814   1.328   4.261  1.0817  0.7949  1.2225
 9238SOL     OW39349   1.326   3.124   1.248 -0.2993  0.7511  0.4396
 9238SOL    HW139350   1.328   3.038   1.207  1.4345  0.6540  0.7247
 9238SOL    HW239351   1.267   3.115   1.324 -2.8039 -1.0687 -1.7141
 9239SOL     OW39352   4.474   0.978  15.906  0.2646 -0.2877  0.0967
 9239SOL    HW139353   4.504   1.023  15.828  0.3877 -2.1030 -0.8913
 9239SOL    HW239354   4.551   0.996  15.961 -0.5762  1.8201  0.5999
 9240SOL     OW39355   4.660   1.538  16.535 -0.1718 -0.0290 -0.2393
 9240SOL    HW139356   0.017   1.527  16.513 -0.5968 -3.2469 -0.3056
 9240SOL    HW239357   4.624   1.450  16.527 -1.8317  0.5942  0.3108
 9241SOL     OW39358   2.551   3.812   6.994  0.2363  0.2921 -0.1285
 9241SOL    HW139359   2.627   3.860   7.027  0.3206 -0.2877  0.5285
 9241SOL    HW239360   2.582   3.781   6.908  0.0815 -2.2379  0.7215
 9242SOL     OW39361   0.021   3.944   3.718 -0.2401  0.7420 -0.0434
 9242SOL    HW139362   0.072   3.865   3.729  0.1095  1.0383  0.4546
 9242SOL    HW239363   4.721   3.932   3.629  0.8519  1.1158 -0.5223
 9243SOL     OW39364   2.689   3.851   8.448 -0.2391  0.4776 -0.0060
 9243SOL    HW139365   2.632   3.925   8.468 -0.4753 -0.2802  2.1488
 9243SOL    HW239366   2.623   3.781   8.440  2.5073 -1.8502 -2.4413
 9244SOL     OW39367   0.086   1.274   3.786  0.3540 -0.1770  0.4903
 9244SOL    HW139368   0.151   1.264   3.717 -0.6409  2.2301 -0.7984
 9244SOL    HW239369   0.116   1.355   3.826  3.2251 -0.9386 -0.1040
 9245SOL     OW39370   0.206   1.150   4.531 -0.3662 -0.3782  0.0440
 9245SOL    HW139371   0.181   1.179   4.443  1.0994  2.0893  0.4540
 9245SOL    HW239372   0.210   1.054   4.531 -0.2076 -0.3719  1.4272
 9246SOL     OW39373   1.582   2.478   3.632  0.2939  0.8456  0.2593
 9246SOL    HW139374   1.489   2.484   3.608 -0.3150  0.3952  2.4966
 9246SOL    HW239375   1.608   2.435   3.551 -2.1554 -0.1122 -0.0423
 9247SOL     OW39376   1.611   1.313  12.694  0.0739  0.7413  0.4639
 9247SOL    HW139377   1.632   1.252  12.765 -0.1592  2.5386  2.0941
 9247SOL    HW239378   1.700   1.326  12.661  0.4274  0.3177  1.2568
 9248SOL     OW39379   2.940   2.461   6.870  0.6708 -0.1850  0.3339
 9248SOL    HW139380   2.968   2.386   6.818  2.3595  1.8754 -1.7213
 9248SOL    HW239381   2.918   2.425   6.955 -0.8495 -2.3494 -0.9623
 9249SOL     OW39382   2.881   4.595   9.259  0.4374  1.1774 -0.5195
 9249SOL    HW139383   2.922   4.672   9.221 -0.4146  2.4568  1.1370
 9249SOL    HW239384   2.818   4.570   9.191 -0.0025  0.0006  0.3066
 9250SOL     OW39385   3.575   2.865   6.902 -0.2632 -0.4627  0.0965
 9250SOL    HW139386   3.565   2.852   6.996  2.8667 -0.1307  0.4975
 9250SOL    HW239387   3.488   2.892   6.873 -0.4838 -0.7498  0.4961
 9251SOL     OW39388   3.418   2.007   8.355  0.2719  0.4188  0.0823
 9251SOL    HW139389   3.352   2.073   8.335 -1.6640 -1.9792 -1.3954
 9251SOL    HW239390   3.424   1.993   8.449  1.8939  0.8110  0.0475
 9252SOL     OW39391   1.615   3.882   7.792 -0.1891  0.9216 -0.5967
 9252SOL    HW139392   1.583   3.797   7.822  1.5703  1.5285  3.0561
 9252SOL    HW239393   1.554   3.899   7.720 -1.2379  1.0563  0.3276
 9253SOL     OW39394   2.411   2.983  12.890 -0.1107 -0.3589  0.0766
 9253SOL    HW139395   2.454   2.933  12.959  1.4624  2.0315  0.8122
 9253SOL    HW239396   2.487   3.040  12.878  0.9143 -1.2298  2.4208
 9254SOL     OW39397   1.697   2.502   0.627  1.1621 -0.0027  0.4035
 9254SOL    HW139398   1.619   2.558   0.632  0.0929 -1.4542 -0.0684
 9254SOL    HW239399   1.713   2.489   0.720  0.0533  0.6477  0.6877
 9255SOL     OW39400   2.536   0.135   7.341 -1.0984  0.0115  0.1838
 9255SOL    HW139401   2.556   0.070   7.408 -0.2232 -2.9897 -2.9987
 9255SOL    HW239402   2.555   0.070   7.274  0.0446 -1.4089  1.8603
 9256SOL     OW39403   3.354   3.577   0.434 -0.9687  0.0121  0.1099
 9256SOL    HW139404   3.291   3.607   0.499  0.1549 -0.1379  1.2517
 9256SOL    HW239405   3.350   3.641   0.363 -0.3477  0.8287  0.8240
 9257SOL     OW39406   2.091   3.660  15.640  0.5185  0.4054  0.4804
 9257SOL    HW139407   2.086   3.695  15.729  1.4411  0.2824  0.5780
 9257SOL    HW239408   2.182   3.677  15.617  0.6467  0.3759  0.9695
 9258SOL     OW39409   0.758   2.680   5.767 -0.1033 -0.0031  0.0558
 9258SOL    HW139410   0.802   2.752   5.723 -0.0242 -1.1811 -1.7772
 9258SOL    HW239411   0.833   2.628   5.798  1.2478  1.5871 -0.5946
 9259SOL     OW39412   1.722   3.815   0.175  0.5888  0.0947  0.3965
 9259SOL    HW139413   1.631   3.820   0.206  0.3175 -0.2439 -0.3364
 9259SOL    HW239414   1.765   3.890   0.216  0.2011 -0.7471  2.3410
 9260SOL     OW39415   3.521   0.242   7.917  0.2412  0.4781  0.0472
 9260SOL    HW139416   3.581   0.287   7.977 -0.4892  0.1071  1.0663
 9260SOL    HW239417   3.456   0.311   7.904 -0.8233 -0.4307  0.5650
 9261SOL     OW39418   4.265   1.627   8.198  0.3456  0.8008 -0.2877
 9261SOL    HW139419   4.199   1.643   8.266  0.5747 -1.1516  0.3845
 9261SOL    HW239420   4.299   1.542   8.224 -2.8536 -0.0468  1.2235
 9262SOL     OW39421   1.255   3.198   6.277  0.3712  0.0743 -0.0288
 9262SOL    HW139422   1.206   3.245   6.345 -1.2269 -1.7883  0.1044
 9262SOL    HW239423   1.258   3.117   6.328  0.4660  0.3657  0.4328
 9263SOL     OW39424   3.284   2.810   8.058  0.3340  0.4365 -0.1837
 9263SOL    HW139425   3.340   2.855   7.995 -0.6416 -1.4632 -2.4350
 9263SOL    HW239426   3.228   2.878   8.096  0.4358 -1.1609  2.8386
 9264SOL     OW39427   2.863   4.180   4.789 -0.2028  0.3948  0.2812
 9264SOL    HW139428   2.903   4.120   4.852  2.3453  1.7559 -0.0138
 9264SOL    HW239429   2.873   4.268   4.827  1.4471  0.0727  0.5982
 9265SOL     OW39430   1.891   2.105  13.751  0.3713  0.2300 -0.7283
 9265SOL    HW139431   1.920   2.089  13.661  0.0152  1.1843 -1.0149
 9265SOL    HW239432   1.797   2.098  13.736  0.3393  0.6531 -0.7295
 9266SOL     OW39433   1.372   0.041   7.297 -0.2574 -0.0719  0.2363
 9266SOL    HW139434   1.354   4.697   7.348  0.1667  0.7282  1.6153
 9266SOL    HW239435   1.294   0.043   7.241  1.7270 -1.4985 -2.5823
 9267SOL     OW39436   0.834   2.252  14.205 -0.1125 -0.4052  0.2438
 9267SOL    HW139437   0.772   2.319  14.174  2.5019  1.4597 -0.9575
 9267SOL    HW239438   0.875   2.285  14.284  0.8943  1.9443 -1.2464
 9268SOL     OW39439   2.953   4.264   8.516 -0.0675  0.2544  0.0165
 9268SOL    HW139440   2.870   4.302   8.485  1.6438  3.0930 -1.0975
 9268SOL    HW239441   2.915   4.201   8.577  1.2750  1.2410  1.8648
 9269SOL     OW39442   1.730   1.200  16.036  0.8618 -0.3229  0.4049
 9269SOL    HW139443   1.822   1.208  16.011  0.6545  2.7761  0.5830
 9269SOL    HW239444   1.694   1.154  15.960 -0.1097  1.4030 -0.2045
 9270SOL     OW39445   2.169   1.217   8.142  0.5777 -0.2813  0.1729
 9270SOL    HW139446   2.153   1.152   8.210  1.0217 -0.3047  0.2545
 9270SOL    HW239447   2.158   1.167   8.061  1.4077  0.3376 -0.3286
 9271SOL     OW39448   2.707   1.973   4.706 -0.0635  0.4766  0.1537
 9271SOL    HW139449   2.778   2.023   4.746  2.3711 -0.3403 -3.1305
 9271SOL    HW239450   2.713   1.887   4.748  0.3022  1.3122  1.8376
 9272SOL     OW39451   4.064   3.511   6.117  0.0122 -0.4433 -0.2049
 9272SOL    HW139452   4.005   3.436   6.117 -1.8435  1.0145 -0.6755
 9272SOL    HW239453   3.999   3.582   6.119  0.6149  0.0928  0.7935
 9273SOL     OW39454   1.573   3.525  16.396  0.1037  0.6371 -0.4460
 9273SOL    HW139455   1.548   3.527  16.304 -1.4512 -2.3782 -0.0804
 9273SOL    HW239456   1.505   3.466  16.430  2.0463 -2.0612 -1.2651
 9274SOL     OW39457   3.630   0.524   3.453 -0.5059  0.3188 -0.2657
 9274SOL    HW139458   3.557   0.468   3.425  0.3154 -1.4790  1.2052
 9274SOL    HW239459   3.577   0.571   3.518  0.2187  0.8899 -0.0900
 9275SOL     OW39460   2.830   3.698  14.195 -0.4387 -0.6344 -0.2115
 9275SOL    HW139461   2.825   3.718  14.289  0.0163 -0.4515 -0.2264
 9275SOL    HW239462   2.896   3.763  14.168 -1.2384  0.2372 -0.0575
 9276SOL     OW39463   3.163   3.366   2.811  0.6357  0.4388 -0.3520
 9276SOL    HW139464   3.182   3.363   2.717 -0.5786  0.3922 -0.6027
 9276SOL    HW239465   3.200   3.450   2.835  0.7411  0.2165  0.2808
 9277SOL     OW39466   1.502   1.131   5.029 -0.3509  0.1158  0.2663
 9277SOL    HW139467   1.415   1.115   4.991 -0.0377  1.3069 -0.9485
 9277SOL    HW239468   1.492   1.066   5.099  0.5695  0.6300  0.8648
 9278SOL     OW39469   2.643   4.011   4.936 -0.0988  0.3530  0.2482
 9278SOL    HW139470   2.718   4.052   4.978 -1.0086  1.4791  0.7975
 9278SOL    HW239471   2.657   3.917   4.948  0.8038  0.4526 -0.0475
 9279SOL     OW39472   3.859   4.641   9.495  0.5895  0.0652 -0.4726
 9279SOL    HW139473   3.786   4.663   9.554  0.1530  2.5001 -1.9435
 9279SOL    HW239474   3.808   4.605   9.422  0.1962  0.9395 -0.6209
 9280SOL     OW39475   0.165   4.673   2.345 -0.1519 -0.0419  0.0773
 9280SOL    HW139476   0.179   4.732   2.419  1.1329  0.8926 -0.9113
 9280SOL    HW239477   0.128   4.734   2.281 -0.4321  0.9223  1.1533
 9281SOL     OW39478   2.338   1.139   2.470  0.1891  0.2897  0.2425
 9281SOL    HW139479   2.414   1.187   2.503  1.0502 -1.8427  1.3591
 9281SOL    HW239480   2.385   1.113   2.390 -0.7073 -0.2447 -0.1198
 9282SOL     OW39481   3.878   1.053   2.037  0.0745  0.0427  0.5068
 9282SOL    HW139482   3.938   1.089   1.972  2.3562 -3.8762  0.4737
 9282SOL    HW239483   3.919   0.983   2.088 -1.0953 -1.4159 -0.5704
 9283SOL     OW39484   3.632   3.281   0.802 -0.6317  0.6079  0.8999
 9283SOL    HW139485   3.573   3.284   0.878 -0.6581  2.3014  0.8184
 9283SOL    HW239486   3.600   3.349   0.743 -0.4690 -0.8402 -0.8251
 9284SOL     OW39487   1.194   2.629   5.149 -0.1308  0.4172 -0.0050
 9284SOL    HW139488   1.121   2.611   5.209 -1.3635  0.6371 -1.4388
 9284SOL    HW239489   1.192   2.554   5.090 -1.9211 -0.8404  1.6279
 9285SOL     OW39490   0.708   2.227   6.122 -0.3013  0.1485 -0.6428
 9285SOL    HW139491   0.801   2.204   6.112 -0.4203 -0.3332 -0.5968
 9285SOL    HW239492   0.713   2.323   6.129 -0.1077  0.1345 -0.5842
 9286SOL     OW39493   1.906   3.511   4.730  0.0847  0.2051  0.1193
 9286SOL    HW139494   1.828   3.558   4.700 -1.6865 -1.8214  1.5432
 9286SOL    HW239495   1.907   3.436   4.670  1.3940  0.6791 -0.4380
 9287SOL     OW39496   1.877   1.095   4.998  0.0995 -0.3476 -0.4398
 9287SOL    HW139497   1.787   1.071   4.975 -0.9369  0.9992  2.2321
 9287SOL    HW239498   1.859   1.150   5.075  1.7243 -0.0138 -0.3043
 9288SOL     OW39499   0.159   0.029  15.940  0.0168 -0.2782 -0.5613
 9288SOL    HW139500   0.171   4.673  15.912  2.0121 -0.4889  1.0063
 9288SOL    HW239501   0.078   0.035  15.991  0.6187 -1.1056  0.4970
 9289SOL     OW39502   3.636   4.023   6.406 -0.3006  0.5921  0.4472
 9289SOL    HW139503   3.543   4.030   6.382 -0.6540  1.1645  2.0364
 9289SOL    HW239504   3.662   3.971   6.330 -0.6386  0.1415  0.6368
 9290SOL     OW39505   3.112   2.518   5.859  0.0346  0.0021 -0.5671
 9290SOL    HW139506   3.165   2.573   5.917 -1.6409  0.9209  0.0798
 9290SOL    HW239507   3.119   2.564   5.775 -1.6415  0.8494 -0.2306
 9291SOL     OW39508   4.340   0.654  11.490  0.7190 -0.1871  0.2155
 9291SOL    HW139509   4.338   0.665  11.585 -1.8541  1.7526 -0.0300
 9291SOL    HW239510   4.434   0.657  11.477  0.9839 -3.0780  1.6200
 9292SOL     OW39511   2.763   3.796   6.319 -0.4772 -0.3691  0.2951
 9292SOL    HW139512   2.859   3.795   6.325 -0.3797  0.4628 -1.0496
 9292SOL    HW239513   2.758   3.702   6.336  0.7026 -0.0589  2.3452
 9293SOL     OW39514   2.188   3.252   2.395  0.3619  0.1119 -0.4540
 9293SOL    HW139515   2.232   3.180   2.440  0.6501 -0.7653 -2.1239
 9293SOL    HW239516   2.100   3.215   2.404  0.5287  0.0460  0.8368
 9294SOL     OW39517   2.219   2.582   7.169  0.0462  0.2769 -0.2706
 9294SOL    HW139518   2.314   2.579   7.174 -0.0146 -0.8919  0.3388
 9294SOL    HW239519   2.207   2.576   7.074 -0.7728 -0.9978 -0.0902
 9295SOL     OW39520   3.612   1.217   2.393 -0.4173 -1.3317 -0.2528
 9295SOL    HW139521   3.541   1.281   2.398  1.2509  0.3675  1.4099
 9295SOL    HW239522   3.663   1.244   2.317  0.1086 -1.2709  0.1242
 9296SOL     OW39523   2.775   2.757   3.450  0.1307  0.1135  0.2698
 9296SOL    HW139524   2.859   2.724   3.417 -0.3059 -0.4109 -0.3085
 9296SOL    HW239525   2.721   2.686   3.416 -2.4670  2.3523 -0.3224
 9297SOL     OW39526   4.565   3.559   4.430  0.1645 -0.3096 -0.2850
 9297SOL    HW139527   4.496   3.520   4.376  1.2046 -0.6009 -1.4031
 9297SOL    HW239528   4.611   3.480   4.460 -1.2710 -1.6120 -1.5158
 9298SOL     OW39529   0.831   4.611   2.172  0.2781 -0.3299 -0.0422
 9298SOL    HW139530   0.807   4.616   2.265 -0.8264 -0.9020 -0.2961
 9298SOL    HW239531   0.824   4.704   2.150 -2.0966 -0.5599 -0.3263
 9299SOL     OW39532   4.615   4.712  10.842  0.5085 -0.2287  0.0065
 9299SOL    HW139533   4.542   4.704  10.903  2.0899  0.2781  1.9604
 9299SOL    HW239534   4.679   0.035  10.884  0.5766 -1.2835  1.3386
 9300SOL     OW39535   3.641   4.464   2.487 -0.2424  0.2394  0.4877
 9300SOL    HW139536   3.710   4.398   2.490  1.0779  1.6180  0.2895
 9300SOL    HW239537   3.590   4.429   2.415  0.0366  0.0876  0.3650
 9301SOL     OW39538   3.290   2.094  12.918 -0.4577  0.2408 -0.3392
 9301SOL    HW139539   3.274   2.022  12.978  1.1679  0.4978  0.3974
 9301SOL    HW239540   3.228   2.066  12.851  2.0149  0.6978 -2.7917
 9302SOL     OW39541   2.762   2.028  13.670  0.0633  0.5066  0.3903
 9302SOL    HW139542   2.727   2.027  13.759  0.8995 -1.2454  0.6880
 9302SOL    HW239543   2.783   1.936  13.655 -0.5469  0.5678 -0.9156
 9303SOL     OW39544   0.789   0.640  15.388  0.3806 -0.4738  0.0818
 9303SOL    HW139545   0.864   0.590  15.357 -1.4508 -2.6201 -0.8843
 9303SOL    HW239546   0.719   0.588  15.350  0.9437 -1.6826  0.7007
 9304SOL     OW39547   3.365   4.639  11.570  0.5086  0.3141  0.5721
 9304SOL    HW139548   3.317   4.713  11.533  0.2038 -1.3884 -2.4927
 9304SOL    HW239549   3.347   4.657  11.662  1.7737  0.9481  0.7063
 9305SOL     OW39550   0.696   1.490   7.313 -0.1019 -0.4228  0.2127
 9305SOL    HW139551   0.753   1.494   7.236  1.0166 -0.9369  1.0131
 9305SOL    HW239552   0.744   1.531   7.385 -0.0939  1.4108 -0.8385
 9306SOL     OW39553   2.747   2.362   2.569  0.0300 -0.2655  0.1371
 9306SOL    HW139554   2.726   2.452   2.543  4.0032  0.2445 -1.3184
 9306SOL    HW239555   2.797   2.334   2.492  0.4420  0.2272  0.2230
 9307SOL     OW39556   3.795   3.170   7.781  0.8634 -0.2101  1.0618
 9307SOL    HW139557   3.803   3.193   7.689  0.9447 -1.5488  0.7388
 9307SOL    HW239558   3.833   3.082   7.784  2.8536  0.5870 -1.3489
 9308SOL     OW39559   1.706   3.087   3.210  0.0011  0.1536  0.2777
 9308SOL    HW139560   1.698   3.129   3.296  0.0413 -1.4243  1.0662
 9308SOL    HW239561   1.620   3.046   3.201  1.0937 -1.9617 -0.4712
 9309SOL     OW39562   2.222   2.160   4.630  0.5087  0.1849 -0.1207
 9309SOL    HW139563   2.155   2.170   4.698  1.4279 -1.1370  0.9853
 9309SOL    HW239564   2.299   2.184   4.681 -0.2781 -0.4915  1.3981
 9310SOL     OW39565   3.430   3.698   5.802 -0.4308  0.6604  0.1479
 9310SOL    HW139566   3.437   3.774   5.744 -0.5275  2.5292  2.6035
 9310SOL    HW239567   3.451   3.619   5.752  0.3669  1.5042 -0.8562
 9311SOL     OW39568   2.630   2.680   2.572  0.1899 -0.3192 -0.8803
 9311SOL    HW139569   2.595   2.769   2.576  0.2674 -0.3586  0.4024
 9311SOL    HW239570   2.714   2.702   2.531  1.8719 -2.4830  1.4394
 9312SOL     OW39571   1.616   0.592   5.734  0.2211  0.0058  0.1119
 9312SOL    HW139572   1.633   0.534   5.659  1.5766  1.8516 -1.0005
 9312SOL    HW239573   1.579   0.521   5.787 -0.0190 -0.7178 -1.0185
 9313SOL     OW39574   3.899   3.464   2.580  0.5996 -0.4801  0.1836
 9313SOL    HW139575   3.920   3.475   2.488  0.9288 -0.5174  0.2548
 9313SOL    HW239576   3.817   3.414   2.575 -0.0910  0.9901 -2.7764
 9314SOL     OW39577   2.011   2.467   2.960  0.3237  0.2502 -0.1849
 9314SOL    HW139578   2.095   2.496   2.924 -0.4271  1.6886 -0.7826
 9314SOL    HW239579   2.012   2.378   2.926 -0.1044 -0.6369  2.1170
 9315SOL     OW39580   0.622   3.894  11.375 -0.2258  0.4440 -0.5146
 9315SOL    HW139581   0.607   3.858  11.287  0.4275  0.0305 -0.4576
 9315SOL    HW239582   0.629   3.814  11.428 -1.3310  0.8390  0.2360
 9316SOL     OW39583   1.866   1.556   6.609  0.2234  0.0532  0.5728
 9316SOL    HW139584   1.782   1.551   6.655  0.2353  0.5814  0.6563
 9316SOL    HW239585   1.887   1.643   6.644 -1.0788 -0.1898  1.9489
 9317SOL     OW39586   1.026   2.889   3.992  0.0392  0.3677  0.0952
 9317SOL    HW139587   0.962   2.837   4.041  1.4675  0.3247  1.9328
 9317SOL    HW239588   1.007   2.981   4.011  0.7503  0.2797  1.2239
 9318SOL     OW39589   2.968   2.710   9.886 -0.2795 -0.1219 -0.3112
 9318SOL    HW139590   2.900   2.723   9.819 -0.6123 -1.4964 -0.2293
 9318SOL    HW239591   2.931   2.641   9.941 -1.0277  0.7254  0.2512
 9319SOL     OW39592   1.435   2.748   5.871 -0.0296 -0.4852 -0.6972
 9319SOL    HW139593   1.524   2.776   5.849  0.1364  0.1120  0.7192
 9319SOL    HW239594   1.396   2.831   5.845 -0.0198  0.2872  1.7931
 9320SOL     OW39595   3.948   0.022   6.816 -0.4571  0.4552  0.3999
 9320SOL    HW139596   3.916   0.109   6.840  2.4020  1.0865  1.9225
 9320SOL    HW239597   3.974   0.042   6.726 -0.6371  0.9667  0.4635
 9321SOL     OW39598   0.795   0.707   7.808  0.3901 -0.5863  0.1555
 9321SOL    HW139599   0.706   0.677   7.827 -0.6633  1.5035 -1.4796
 9321SOL    HW239600   0.774   0.761   7.732 -0.2689  0.5951  1.1858
 9322SOL     OW39601   3.646   1.859   7.245  0.3686 -0.4178  0.1971
 9322SOL    HW139602   3.637   1.766   7.228 -0.3027 -0.5430  1.2062
 9322SOL    HW239603   3.686   1.848   7.331 -1.2001  1.5927  1.2014
 9323SOL     OW39604   3.148   4.042   5.959 -0.5784 -0.1155 -0.0235
 9323SOL    HW139605   3.118   4.128   5.930 -1.5755  0.2494  2.0600
 9323SOL    HW239606   3.145   4.050   6.054 -3.6337  0.0645 -0.1528
 9324SOL     OW39607   0.220   2.164   9.428  0.7028 -0.4944 -0.5416
 9324SOL    HW139608   0.275   2.173   9.350 -0.0308  1.0059 -0.8683
 9324SOL    HW239609   0.205   2.256   9.448  1.4817 -0.5369  0.2331
 9325SOL     OW39610   2.487   0.370  10.687  0.3083 -0.3441  0.0100
 9325SOL    HW139611   2.476   0.345  10.595  1.7239 -0.6480 -0.0652
 9325SOL    HW239612   2.519   0.459  10.675  0.9224 -0.5669 -0.0071
 9326SOL     OW39613   3.838   4.217   0.283 -0.4774  0.3507 -0.6864
 9326SOL    HW139614   3.877   4.302   0.261  0.6004 -0.4415 -1.8344
 9326SOL    HW239615   3.916   4.163   0.283 -1.6634 -1.3513 -0.4766
 9327SOL     OW39616   2.027   0.959   3.604  0.1778 -0.1195 -0.1039
 9327SOL    HW139617   2.030   0.895   3.533 -2.3536 -1.8215  1.3293
 9327SOL    HW239618   1.952   1.013   3.576  0.5357  1.0850  1.2585
 9328SOL     OW39619   2.650   1.753   3.085 -0.3991  0.5498 -0.4843
 9328SOL    HW139620   2.591   1.686   3.120  2.7221 -1.9848 -0.0451
 9328SOL    HW239621   2.732   1.739   3.132 -0.3346 -0.4607 -0.8833
 9329SOL     OW39622   1.634   0.814   1.202 -0.8582 -0.5505 -0.2761
 9329SOL    HW139623   1.602   0.873   1.271 -0.2819  1.3376 -1.6244
 9329SOL    HW239624   1.621   0.738   1.259  0.2764 -0.6276 -0.1380
 9330SOL     OW39625   1.792   2.732   5.711  0.0580 -0.0546 -0.0039
 9330SOL    HW139626   1.743   2.813   5.727  1.9043  1.1175 -0.1919
 9330SOL    HW239627   1.864   2.765   5.657 -0.0285  0.7449  0.3709
 9331SOL     OW39628   3.989   4.585   5.168 -0.2874 -0.4294 -0.1396
 9331SOL    HW139629   3.978   4.551   5.257  0.7285  0.4593  0.3421
 9331SOL    HW239630   4.048   4.654   5.200 -1.8373  1.1931 -0.8185
 9332SOL     OW39631   1.660   2.960  11.942  0.1108  0.2340  0.1619
 9332SOL    HW139632   1.705   2.993  11.864  0.5189  2.9238  1.5109
 9332SOL    HW239633   1.659   2.866  11.928  1.9898 -0.0196  1.7630
 9333SOL     OW39634   0.255   0.822  11.125  0.2519 -0.2502  0.6450
 9333SOL    HW139635   0.303   0.898  11.093 -0.5963  0.0052 -0.0232
 9333SOL    HW239636   0.316   0.755  11.096 -0.4298 -0.7256  0.3084
 9334SOL     OW39637   3.977   0.900   0.712 -0.0641  0.4632 -0.1151
 9334SOL    HW139638   4.052   0.864   0.761 -0.9084 -1.1362 -0.0080
 9334SOL    HW239639   3.979   0.838   0.639  1.5307  0.3242  0.0274
 9335SOL     OW39640   4.495   2.347   9.589  0.3988 -0.3207 -0.0260
 9335SOL    HW139641   4.426   2.282   9.577 -1.1392  1.3501 -0.2606
 9335SOL    HW239642   4.466   2.424   9.541  1.9085  0.6459  0.5823
 9336SOL     OW39643   0.056   1.377   2.723 -0.3944 -0.4919  0.4114
 9336SOL    HW139644   0.089   1.454   2.769 -3.2565  1.3010 -0.5853
 9336SOL    HW239645   0.112   1.307   2.759 -0.1966 -1.0818 -1.0602
 9337SOL     OW39646   4.637   3.886   2.913 -0.4631 -0.1925  0.2654
 9337SOL    HW139647   4.560   3.836   2.940 -0.9216  0.8271  0.8643
 9337SOL    HW239648   4.705   3.820   2.916 -0.2193  0.1162  1.5798
 9338SOL     OW39649   2.900   1.276  11.612 -0.0919 -0.5814 -0.8528
 9338SOL    HW139650   2.965   1.344  11.598 -1.2043  0.2366 -1.9906
 9338SOL    HW239651   2.918   1.222  11.535  1.5626 -0.5422 -0.4975
 9339SOL     OW39652   0.234   1.288   9.359 -0.4854 -0.0412 -0.2014
 9339SOL    HW139653   0.166   1.253   9.417 -0.5821  1.4354  0.5627
 9339SOL    HW239654   0.279   1.212   9.324 -2.7053 -2.5098  2.2847
 9340SOL     OW39655   1.691   1.851   3.851 -0.4220 -0.1357 -0.2552
 9340SOL    HW139656   1.618   1.791   3.831 -0.3395 -1.0296  2.1208
 9340SOL    HW239657   1.714   1.829   3.941 -2.1070  2.5925  0.8521
 9341SOL     OW39658   2.321   3.876   9.114  0.1873 -0.0914 -0.5116
 9341SOL    HW139659   2.357   3.964   9.130  1.5422 -0.6358 -0.6016
 9341SOL    HW239660   2.399   3.835   9.077  0.2195 -0.7696  0.2952
 9342SOL     OW39661   4.090   1.719   2.200 -0.6176  0.8166 -0.2787
 9342SOL    HW139662   4.051   1.632   2.211  2.4724 -0.7009 -1.6084
 9342SOL    HW239663   4.080   1.760   2.286 -0.9924  0.5230 -0.1788
 9343SOL     OW39664   2.792   2.015   8.537 -0.4139  0.0103 -0.2764
 9343SOL    HW139665   2.723   1.975   8.485 -0.9809 -0.7596  1.0539
 9343SOL    HW239666   2.736   2.065   8.596 -1.6658 -1.7733  0.0400
 9344SOL     OW39667   2.653   0.233   5.393 -0.0579 -0.1443 -0.8922
 9344SOL    HW139668   2.707   0.243   5.471  0.6312 -1.1364 -1.2305
 9344SOL    HW239669   2.585   0.299   5.403  0.1254 -0.2030  0.6226
 9345SOL     OW39670   2.159   0.175  12.264 -0.3715  0.2407  0.3681
 9345SOL    HW139671   2.123   0.183  12.176  0.6914 -2.0232 -0.2580
 9345SOL    HW239672   2.102   0.226  12.322 -1.5488 -1.7797  0.9723
 9346SOL     OW39673   0.062   1.106   7.234 -0.1748 -0.3221 -0.1141
 9346SOL    HW139674   0.072   1.031   7.176 -1.2582  0.0510 -0.7824
 9346SOL    HW239675   0.153   1.118   7.260 -0.2737  0.4832 -0.1423
 9347SOL     OW39676   3.086   2.307   2.964  0.5935  0.2950 -0.5983
 9347SOL    HW139677   3.064   2.312   2.871 -1.9705  2.1671  0.1102
 9347SOL    HW239678   3.002   2.281   3.000  1.5216  0.5668  1.7509
 9348SOL     OW39679   1.485   2.327   4.897  0.1185 -0.2891 -0.1500
 9348SOL    HW139680   1.512   2.266   4.829 -2.1774  0.5575 -1.8499
 9348SOL    HW239681   1.516   2.405   4.849 -1.0679  0.3783  0.1708
 9349SOL     OW39682   3.346   2.148  15.333  0.0325  0.1070  0.0268
 9349SOL    HW139683   3.431   2.129  15.293 -0.3752  0.2863 -0.9230
 9349SOL    HW239684   3.368   2.204  15.407  0.9390 -0.2006 -0.0056
 9350SOL     OW39685   3.662   0.459   6.730  0.1073  0.2255  0.8015
 9350SOL    HW139686   3.568   0.447   6.715  0.6225 -2.5089 -0.2835
 9350SOL    HW239687   3.691   0.520   6.662 -3.0000  0.8323  0.0310
 9351SOL     OW39688   2.935   1.662  16.543 -0.5846  0.7515 -0.1586
 9351SOL    HW139689   2.933   1.581  16.492 -0.9973  1.1107 -0.7133
 9351SOL    HW239690   2.954   1.720  16.470  1.1006 -1.5737 -1.5765
 9352SOL     OW39691   3.648   1.980   7.531 -0.1525 -0.1229  0.4661
 9352SOL    HW139692   3.729   1.938   7.560 -0.5833 -0.7452  0.7662
 9352SOL    HW239693   3.587   1.936   7.590  0.9439 -0.2447  1.4953
 9353SOL     OW39694   1.328   4.701   4.992 -0.3172  0.4038  0.2460
 9353SOL    HW139695   1.261   4.710   5.060 -0.2694  0.4676  0.2851
 9353SOL    HW239696   1.394   4.657   5.045  0.3029 -0.4906 -1.2798
 9354SOL     OW39697   4.083   0.267  13.476 -0.4962 -0.5189 -0.2728
 9354SOL    HW139698   4.085   0.238  13.567 -1.4171 -0.4505 -0.2309
 9354SOL    HW239699   4.124   0.188  13.441 -0.4841  0.4339 -2.4148
 9355SOL     OW39700   1.644   3.400   7.830  0.2752  0.2383 -0.3267
 9355SOL    HW139701   1.580   3.366   7.768 -2.2353  0.7376  2.0085
 9355SOL    HW239702   1.661   3.323   7.886  1.5278  0.0841 -0.9130
 9356SOL     OW39703   1.450   2.091  13.278  0.0646  0.0867 -0.2673
 9356SOL    HW139704   1.377   2.086  13.340  0.7553 -1.7040  0.4058
 9356SOL    HW239705   1.459   2.003  13.242  0.1072  0.0922 -0.2710
 9357SOL     OW39706   3.798   3.724   3.927 -0.6138 -0.2125  0.4888
 9357SOL    HW139707   3.864   3.783   3.891 -0.5022 -0.7375 -0.1531
 9357SOL    HW239708   3.835   3.705   4.013  0.1774 -0.3530  0.1158
 9358SOL     OW39709   2.604   2.256   9.356  0.5314 -0.2574 -0.1755
 9358SOL    HW139710   2.615   2.349   9.338  0.5710  0.4754  3.6077
 9358SOL    HW239711   2.661   2.245   9.432 -0.3416  0.5467  0.5928
 9359SOL     OW39712   1.043   1.570   7.796 -0.3437  0.6002 -0.0475
 9359SOL    HW139713   1.067   1.510   7.867 -2.1726  1.7602  1.5708
 9359SOL    HW239714   1.007   1.646   7.842  1.1350  0.9957  0.4900
 9360SOL     OW39715   0.565   0.573   7.151  0.2615  0.1752  0.3005
 9360SOL    HW139716   0.602   0.644   7.098 -0.0594  0.3803  0.3487
 9360SOL    HW239717   0.558   0.612   7.238  0.8487 -1.6765  1.1851
 9361SOL     OW39718   0.571   1.640  11.478  0.0872 -0.3926 -0.9049
 9361SOL    HW139719   0.496   1.604  11.527  1.0268 -0.1388  0.7280
 9361SOL    HW239720   0.541   1.724  11.445  0.6845  1.0708  2.2573
 9362SOL     OW39721   0.847   2.788  16.563  0.5296 -0.2968 -0.2015
 9362SOL    HW139722   0.874   2.696  16.568  2.7570  0.5771  3.6679
 9362SOL    HW239723   0.927   2.835  16.540  0.4674 -0.2767 -0.3791
 9363SOL     OW39724   3.482   0.520   1.761 -0.4808  0.1383 -0.1614
 9363SOL    HW139725   3.553   0.583   1.753  0.8930 -1.3730  0.2621
 9363SOL    HW239726   3.514   0.441   1.804 -1.4857 -0.1343  0.0947
 9364SOL     OW39727   1.492   1.638  12.050 -0.2188  0.0134  0.0059
 9364SOL    HW139728   1.564   1.679  12.099  1.2964 -1.5769 -0.9176
 9364SOL    HW239729   1.473   1.558  12.098  0.4098  0.9259  1.7836
 9365SOL     OW39730   0.915   3.518  12.965  0.2324 -0.1454  0.2063
 9365SOL    HW139731   0.829   3.557  12.951 -0.5716 -1.4351  1.5269
 9365SOL    HW239732   0.963   3.598  12.988  0.9691 -0.8198  1.0296
 9366SOL     OW39733   3.755   3.678   7.844 -0.1008 -0.3698 -0.5143
 9366SOL    HW139734   3.745   3.638   7.930  1.1708 -2.6152 -1.4017
 9366SOL    HW239735   3.664   3.673   7.813 -0.4020 -1.2094  0.4928
 9367SOL     OW39736   3.194   3.613   8.762 -0.1591  0.6379 -0.3833
 9367SOL    HW139737   3.122   3.587   8.819 -0.3284 -0.1373 -0.9469
 9367SOL    HW239738   3.265   3.566   8.807 -1.3316  0.7448  1.5482
 9368SOL     OW39739   0.754   1.507   5.824  0.4588 -0.1486  0.5308
 9368SOL    HW139740   0.793   1.556   5.896 -0.4709  1.5185 -0.0950
 9368SOL    HW239741   0.697   1.574   5.784 -0.1220 -0.7533  0.3504
 9369SOL     OW39742   2.803   3.129  15.181 -0.1696 -0.1546  1.0294
 9369SOL    HW139743   2.721   3.092  15.148  1.1658 -0.3301 -2.0705
 9369SOL    HW239744   2.800   3.218  15.148  1.6842 -0.7637 -0.7906
 9370SOL     OW39745   3.377   3.842   4.639 -0.3073 -0.0262  1.0887
 9370SOL    HW139746   3.405   3.778   4.705 -2.2647 -3.8896 -1.7902
 9370SOL    HW239747   3.434   3.911   4.673 -0.6692  0.6811  0.2537
 9371SOL     OW39748   0.945   0.685   1.841 -0.5069 -0.0746 -0.1921
 9371SOL    HW139749   0.948   0.712   1.932 -0.5283  2.5298 -0.9668
 9371SOL    HW239750   1.018   0.626   1.857  0.9008  1.1202 -2.2652
 9372SOL     OW39751   0.626   2.788  17.136  0.1842 -0.1542 -0.4002
 9372SOL    HW139752   0.652   2.848  17.067 -4.1705  2.8931  0.5908
 9372SOL    HW239753   0.560   2.833  17.189  1.1925 -0.4970  1.1464
 9373SOL     OW39754   1.932   0.921   5.429  0.1763 -0.4369 -0.3932
 9373SOL    HW139755   2.002   0.896   5.369  0.4620  0.2274 -0.3321
 9373SOL    HW239756   1.962   0.884   5.512  0.7254 -0.2409 -0.5037
 9374SOL     OW39757   0.177   0.669  12.186  0.2231 -0.0620 -0.2875
 9374SOL    HW139758   0.169   0.590  12.132  0.9167 -0.0394 -0.4144
 9374SOL    HW239759   0.253   0.715  12.150 -0.6887  1.7483  0.0592
 9375SOL     OW39760   0.094   3.101  16.400  0.5288  0.3422  0.5386
 9375SOL    HW139761   0.118   3.184  16.359 -1.8675  0.3460 -0.8403
 9375SOL    HW239762   0.058   3.139  16.481 -2.1529 -2.6585  0.7836
 9376SOL     OW39763   1.839   3.076   1.921  0.1596 -0.2014 -0.0062
 9376SOL    HW139764   1.847   3.113   1.833  1.0855 -0.8769 -0.2136
 9376SOL    HW239765   1.881   2.992   1.903 -1.1367 -0.9703  0.5501
 9377SOL     OW39766   2.895   1.661   2.596  0.0707 -0.8588 -0.3223
 9377SOL    HW139767   2.936   1.635   2.679 -2.5848  1.2507  1.6579
 9377SOL    HW239768   2.957   1.609   2.546 -0.2222  1.8503 -3.4844
 9378SOL     OW39769   3.845   0.046   0.029 -0.1148  0.1671  0.2258
 9378SOL    HW139770   3.828   4.689   0.010  1.3276 -0.0826  0.1878
 9378SOL    HW239771   3.792   0.088  17.700 -0.1825 -0.0079  0.1692
 9379SOL     OW39772   0.457   1.487   6.332  0.4743 -0.6234  0.8144
 9379SOL    HW139773   0.490   1.540   6.405 -0.0506  0.6328  0.1487
 9379SOL    HW239774   0.399   1.554   6.296 -0.2497 -1.9409 -0.4717
 9380SOL     OW39775   0.765   1.490  11.925  0.0454 -0.0312 -0.1665
 9380SOL    HW139776   0.720   1.453  12.001 -0.0307 -1.7383 -1.0260
 9380SOL    HW239777   0.836   1.428  11.903 -0.9593 -1.1107 -0.3633
 9381SOL     OW39778   4.587   2.442  14.481 -0.0927  0.0103  0.1866
 9381SOL    HW139779   4.571   2.357  14.441 -0.7935  0.2137  0.0302
 9381SOL    HW239780   4.676   2.433  14.515  0.6867  0.8080 -1.6803
 9382SOL     OW39781   2.650   2.054   1.248  0.2774 -0.4521 -0.4686
 9382SOL    HW139782   2.652   1.962   1.276 -0.7183 -0.4479 -0.3867
 9382SOL    HW239783   2.717   2.088   1.307  0.7240  0.1944 -1.3465
 9383SOL     OW39784   1.861   3.742   2.485 -0.1374 -0.0773 -0.3453
 9383SOL    HW139785   1.820   3.695   2.557 -1.2255  1.2270 -0.1222
 9383SOL    HW239786   1.833   3.696   2.406  0.2872 -1.1707  0.1345
 9384SOL     OW39787   2.247   0.120   6.208  0.4532 -0.0993  0.0934
 9384SOL    HW139788   2.301   0.163   6.273 -0.3266 -0.9477  1.2948
 9384SOL    HW239789   2.159   0.111   6.245  1.0085 -1.2447  1.1122
 9385SOL     OW39790   2.517   2.656   6.894  0.2755 -0.0888  0.4556
 9385SOL    HW139791   2.600   2.657   6.846  0.0247 -1.0849  0.0021
 9385SOL    HW239792   2.474   2.718   6.835  0.6394  0.1142  0.4027
 9386SOL     OW39793   3.645   3.804   3.173  0.7085  0.3915  0.2370
 9386SOL    HW139794   3.694   3.882   3.197 -0.7891  0.6559  2.3836
 9386SOL    HW239795   3.650   3.821   3.079  0.8336  0.6981  0.3012
 9387SOL     OW39796   1.741   0.224   4.524 -0.4844 -0.7765  0.0378
 9387SOL    HW139797   1.701   0.311   4.518 -0.1996 -0.6410  0.0906
 9387SOL    HW239798   1.710   0.206   4.612 -1.1258 -1.1478 -0.2620
 9388SOL     OW39799   0.638   3.865   7.569 -0.0430 -0.3728 -0.2243
 9388SOL    HW139800   0.654   3.791   7.627  1.9578  1.7959  2.0429
 9388SOL    HW239801   0.586   3.834   7.495 -2.1542  3.1774 -0.2356
 9389SOL     OW39802   4.157   3.566   5.184 -0.0581 -0.4900 -0.1519
 9389SOL    HW139803   4.182   3.658   5.172 -3.5532  0.5895  1.0858
 9389SOL    HW239804   4.247   3.534   5.194  0.9620  2.2863 -0.2177
 9390SOL     OW39805   1.303   1.046   6.532 -0.0159  0.6079 -0.2317
 9390SOL    HW139806   1.367   0.995   6.482 -2.3316 -0.8679 -1.6553
 9390SOL    HW239807   1.219   1.043   6.487 -1.8674  3.0928  3.0090
 9391SOL     OW39808   1.270   3.051   4.308 -0.2979  0.3026 -0.7862
 9391SOL    HW139809   1.250   2.978   4.367 -0.8521  1.8153  0.9274
 9391SOL    HW239810   1.193   3.102   4.332  0.5239  1.1833  0.0085
 9392SOL     OW39811   3.900   1.487  16.876  0.2196  0.1070  0.2968
 9392SOL    HW139812   3.851   1.555  16.829 -0.5534 -0.7335 -0.1276
 9392SOL    HW239813   3.865   1.410  16.831  0.6272 -0.4473  0.9337
 9393SOL     OW39814   0.641   2.620  14.669 -0.1245 -0.2651  0.0846
 9393SOL    HW139815   0.649   2.609  14.574 -2.7208  0.2191 -0.1807
 9393SOL    HW239816   0.556   2.662  14.669 -0.0009 -0.0581 -3.6360
 9394SOL     OW39817   3.937   1.893   4.590 -0.0094 -0.2361  0.4608
 9394SOL    HW139818   3.929   1.810   4.544  2.7700 -0.9205  1.2555
 9394SOL    HW239819   3.891   1.874   4.672  0.1390 -2.2028  0.0932
 9395SOL     OW39820   4.649   3.941  11.174 -0.5329 -1.2519  0.3745
 9395SOL    HW139821   4.667   3.922  11.082  0.8727  0.7349  0.2428
 9395SOL    HW239822   4.731   3.921  11.219  0.7166  0.5776 -1.0941
 9396SOL     OW39823   4.312   4.674   8.597 -0.3816 -0.4708  0.4785
 9396SOL    HW139824   4.316   4.609   8.667 -0.3195  0.2692  1.1603
 9396SOL    HW239825   4.388   4.643   8.549  1.4846  0.9557  2.5217
 9397SOL     OW39826   2.133   2.978   1.073  0.2077 -0.5909  0.5544
 9397SOL    HW139827   2.173   3.065   1.077  0.2191 -0.6167  1.0139
 9397SOL    HW239828   2.062   2.990   1.135 -0.2846 -4.6571  0.7734
 9398SOL     OW39829   4.287   1.062   1.754  0.3749 -0.6849 -0.2403
 9398SOL    HW139830   4.362   1.122   1.747  1.2358 -1.5677  1.3779
 9398SOL    HW239831   4.233   1.101   1.686  1.3823 -1.6527 -1.6207
 9399SOL     OW39832   1.979   1.017   6.140  0.6320  0.2762  0.1279
 9399SOL    HW139833   1.954   0.925   6.134 -0.7605  0.7657 -1.6049
 9399SOL    HW239834   2.071   1.002   6.160  0.8115 -0.9234 -1.6419
 9400SOL     OW39835   4.512   3.935   9.373  0.3520  0.1988  0.4223
 9400SOL    HW139836   4.567   3.948   9.450  1.3108  1.0456 -0.4158
 9400SOL    HW239837   4.453   3.864   9.398  1.0657 -0.4750  0.1667
 9401SOL     OW39838   1.293   3.995  10.042 -0.1046 -0.5250 -0.3150
 9401SOL    HW139839   1.292   3.917   9.986  0.7578 -0.2565 -0.7049
 9401SOL    HW239840   1.385   3.992  10.068 -0.5097 -0.6420  1.1079
 9402SOL     OW39841   1.192   3.758   0.579 -0.3338  0.7897  0.6149
 9402SOL    HW139842   1.135   3.802   0.642  0.3423 -0.2081  1.9254
 9402SOL    HW239843   1.192   3.678   0.631 -0.8265  0.9657  0.8809
 9403SOL     OW39844   0.577   0.837   4.620  0.1307  0.0673 -0.2538
 9403SOL    HW139845   0.655   0.892   4.612 -0.0354  0.1144 -1.4541
 9403SOL    HW239846   0.577   0.822   4.715 -2.1964 -1.6458 -0.5146
 9404SOL     OW39847   2.925   2.497   3.813 -0.4616  0.2229  0.6049
 9404SOL    HW139848   2.986   2.543   3.756  0.1020 -0.2209  0.8438
 9404SOL    HW239849   2.841   2.522   3.777 -0.3552 -0.2028  0.0503
 9405SOL     OW39850   1.584   2.408   3.987 -0.0718  0.1128  0.5244
 9405SOL    HW139851   1.640   2.469   3.939  1.2360 -2.4057 -1.1424
 9405SOL    HW239852   1.589   2.326   3.939 -1.1065 -0.1439  0.8553
 9406SOL     OW39853   0.536   1.641   5.706 -0.5154 -0.2816 -0.0571
 9406SOL    HW139854   0.542   1.615   5.614 -0.9154 -0.5923  0.0055
 9406SOL    HW239855   0.460   1.593   5.739 -1.4417  0.8164 -0.5748
 9407SOL     OW39856   0.502   4.299   0.607 -0.2809 -0.1295  0.2368
 9407SOL    HW139857   0.530   4.207   0.603 -0.6097 -0.2084 -0.2657
 9407SOL    HW239858   0.551   4.335   0.533 -0.3321 -0.9458 -0.1923
 9408SOL     OW39859   1.319   3.462   9.719 -0.0933  0.1922  0.1386
 9408SOL    HW139860   1.233   3.422   9.706 -0.0845  0.0782  0.4224
 9408SOL    HW239861   1.317   3.527   9.648  1.5544  1.7412  1.4944
 9409SOL     OW39862   0.914   2.416   1.808 -0.3668 -0.2092  0.2007
 9409SOL    HW139863   0.945   2.402   1.897  0.0789  2.4042  0.4567
 9409SOL    HW239864   0.986   2.380   1.757 -1.9535 -1.2047 -1.3445
 9410SOL     OW39865   4.709   2.115   7.393  0.1337  0.2974 -0.6203
 9410SOL    HW139866   4.691   2.141   7.303 -1.7635  0.6924 -0.1012
 9410SOL    HW239867   0.019   2.196   7.418 -0.7237  1.3032 -2.3433
 9411SOL     OW39868   1.601   3.159  16.982 -0.7152 -0.1034 -0.3061
 9411SOL    HW139869   1.574   3.248  17.005 -0.6108 -0.0522 -0.3791
 9411SOL    HW239870   1.623   3.166  16.889  1.4396  1.8621  0.3320
 9412SOL     OW39871   0.279   4.445   4.173 -0.4213  0.1029 -0.5273
 9412SOL    HW139872   0.278   4.355   4.205  0.8476  0.8630  1.6447
 9412SOL    HW239873   0.230   4.493   4.241  1.0450  0.1090  0.5259
 9413SOL     OW39874   4.702   2.324  17.112 -0.2828  0.4748  0.6263
 9413SOL    HW139875   0.058   2.308  17.139 -0.4326 -0.1160  0.7833
 9413SOL    HW239876   4.720   2.365  17.027  0.9093 -0.0174  0.6369
 9414SOL     OW39877   3.861   0.360   2.921 -0.0287  0.2574 -0.1751
 9414SOL    HW139878   3.892   0.337   2.834  0.5643  0.9427 -0.1414
 9414SOL    HW239879   3.767   0.344   2.916 -0.3173  2.2208 -0.9987
 9415SOL     OW39880   0.085   0.628   1.474 -0.0002 -0.0579  0.4532
 9415SOL    HW139881   4.731   0.651   1.449  0.5848  0.9516 -0.7149
 9415SOL    HW239882   0.109   0.709   1.518  1.2779  0.4515 -1.1773
 9416SOL     OW39883   4.347   1.614  10.137 -0.2137 -0.3162 -0.3727
 9416SOL    HW139884   4.314   1.568  10.214  1.2913 -0.5241  0.1405
 9416SOL    HW239885   4.370   1.698  10.177  0.6040 -1.1687  0.9348
 9417SOL     OW39886   1.124   3.930   6.130 -0.0961  0.5254 -0.0521
 9417SOL    HW139887   1.163   3.996   6.073  0.3859  0.8164  0.6103
 9417SOL    HW239888   1.183   3.859   6.104 -0.8151 -0.1685  0.2144
 9418SOL     OW39889   4.663   3.219   4.863 -0.5491 -0.2321 -0.1357
 9418SOL    HW139890   4.719   3.239   4.937 -2.2463  0.4553  0.9621
 9418SOL    HW239891   4.730   3.194   4.799  0.5480 -0.9085  1.2742
 9419SOL     OW39892   3.490   3.628   7.773 -0.0027 -0.3186 -0.0085
 9419SOL    HW139893   3.473   3.549   7.720 -0.4687 -0.4762  0.3740
 9419SOL    HW239894   3.456   3.693   7.711 -1.0574 -1.7777 -0.9667
 9420SOL     OW39895   3.082   2.271   2.657  0.6221  0.3314 -0.3740
 9420SOL    HW139896   3.125   2.353   2.681  0.0983 -0.1985  2.3946
 9420SOL    HW239897   3.120   2.247   2.573 -0.8752 -1.7952 -0.4412
 9421SOL     OW39898   0.009   1.345   6.540  0.2049  0.2729  0.0886
 9421SOL    HW139899   4.682   1.412   6.570 -0.0641 -0.2071  0.6061
 9421SOL    HW239900   0.040   1.328   6.629 -0.0437  0.3822  0.1977
 9422SOL     OW39901   3.738   1.158   8.848 -0.4943  0.4128 -0.5150
 9422SOL    HW139902   3.673   1.214   8.891 -1.1759  0.5781 -1.7693
 9422SOL    HW239903   3.719   1.087   8.909 -0.3972  0.7045 -0.1415
 9423SOL     OW39904   2.343   1.293   6.225 -0.3229  0.4316 -0.6480
 9423SOL    HW139905   2.435   1.283   6.249 -0.2455 -0.0475 -1.1548
 9423SOL    HW239906   2.355   1.340   6.143 -1.7527 -1.1463 -1.7850
 9424SOL     OW39907   4.395   2.065  17.254 -0.2235  0.1562 -0.0492
 9424SOL    HW139908   4.362   2.032  17.338 -1.0610  1.2856  0.0601
 9424SOL    HW239909   4.403   2.159  17.270 -2.5474  0.3954 -0.2971
 9425SOL     OW39910   0.126   4.528   9.383 -0.2826 -0.9571 -0.3016
 9425SOL    HW139911   0.212   4.536   9.427 -0.5158  0.0632 -0.0221
 9425SOL    HW239912   0.107   4.617   9.355 -3.3135 -2.3900 -2.7151
 9426SOL     OW39913   1.014   3.253   6.788  0.0769  0.3741 -0.4160
 9426SOL    HW139914   0.920   3.267   6.789 -0.0534 -0.6206  0.0749
 9426SOL    HW239915   1.000   3.172   6.739 -0.7149  1.0542 -1.3049
 9427SOL     OW39916   2.135   2.149   9.720 -0.0041 -0.1378  0.0312
 9427SOL    HW139917   2.118   2.071   9.773 -2.4088 -1.0387 -2.0301
 9427SOL    HW239918   2.215   2.130   9.671  0.9839  3.3004  0.3416
 9428SOL     OW39919   4.139   1.887  14.527 -0.4325  0.2344 -0.2162
 9428SOL    HW139920   4.119   1.893  14.433  1.1173  2.0593 -0.4287
 9428SOL    HW239921   4.049   1.902  14.555 -0.4905  1.4448 -1.0189
 9429SOL     OW39922   3.062   3.255   5.293 -0.3519 -0.0771  0.3092
 9429SOL    HW139923   3.033   3.337   5.332  0.6866  0.1542  0.6081
 9429SOL    HW239924   3.051   3.280   5.201 -1.4307 -0.4391  0.3462
 9430SOL     OW39925   2.055   4.202   6.065  0.0683 -0.0014 -0.5158
 9430SOL    HW139926   1.997   4.186   6.139  0.1964  1.3661 -0.1193
 9430SOL    HW239927   1.993   4.231   5.998  0.3839  2.3579  0.2126
 9431SOL     OW39928   3.187   1.787   2.604 -0.7314  0.1484  0.2081
 9431SOL    HW139929   3.241   1.828   2.671 -0.0074  0.5650 -0.6331
 9431SOL    HW239930   3.128   1.744   2.667 -1.7552  0.0855 -0.7982
 9432SOL     OW39931   3.874   0.283   6.753  0.4376 -0.0427  0.2601
 9432SOL    HW139932   3.940   0.313   6.690 -2.3838  2.8921 -1.2555
 9432SOL    HW239933   3.796   0.334   6.733  0.4512 -0.2319 -0.2742
 9433SOL     OW39934   4.012   1.187   1.863 -0.1237  0.4031 -0.4668
 9433SOL    HW139935   4.102   1.167   1.888 -0.3286 -1.0595 -0.9359
 9433SOL    HW239936   4.009   1.278   1.832 -1.1113  0.8362  0.9200
 9434SOL     OW39937   2.040   2.343   7.008 -0.2348 -0.4885  0.5009
 9434SOL    HW139938   1.980   2.361   7.080 -0.9466  1.2055 -0.5167
 9434SOL    HW239939   1.991   2.284   6.951 -1.4429  1.5756 -0.6024
 9435SOL     OW39940   2.044   3.035  11.760 -0.4899  0.4775 -0.7914
 9435SOL    HW139941   2.054   2.991  11.844 -1.3718  0.6677 -0.5868
 9435SOL    HW239942   1.976   3.096  11.786 -0.8592  0.1167 -0.9150
 9436SOL     OW39943   2.852   3.929   3.513  0.2616  0.0070 -0.4062
 9436SOL    HW139944   2.856   3.871   3.437  0.8790 -0.1121 -0.2863
 9436SOL    HW239945   2.780   3.895   3.566  1.0566 -1.2448 -0.1306
 9437SOL     OW39946   4.280   0.487   2.226  0.1400  0.4406 -0.4192
 9437SOL    HW139947   4.326   0.404   2.214 -0.2330  0.1999 -0.1814
 9437SOL    HW239948   4.359   0.540   2.239  0.9651 -0.8869  0.0011
 9438SOL     OW39949   1.951   3.410  13.808 -0.7076 -0.0130  0.4117
 9438SOL    HW139950   2.039   3.375  13.792 -0.4781  0.7164  0.1126
 9438SOL    HW239951   1.963   3.504  13.794  1.3240 -0.4957 -1.1146
 9439SOL     OW39952   1.096   1.431   1.699 -0.4681 -0.4162  0.1696
 9439SOL    HW139953   1.089   1.481   1.618  1.3828 -0.6474 -0.1365
 9439SOL    HW239954   1.029   1.362   1.689 -0.6044 -0.5648  2.1382
 9440SOL     OW39955   2.673   2.252   6.645 -0.3316 -0.6108 -0.5746
 9440SOL    HW139956   2.734   2.188   6.683  1.7581  1.4559 -0.4520
 9440SOL    HW239957   2.672   2.209   6.559 -1.5868 -0.1572 -0.7835
 9441SOL     OW39958   0.523   0.227   7.024 -0.5688 -0.0444  0.2597
 9441SOL    HW139959   0.616   0.238   7.003 -0.6854  1.2654  0.4004
 9441SOL    HW239960   0.528   0.249   7.117  1.3218 -1.3731  0.4683
 9442SOL     OW39961   0.320   4.409   7.188 -0.6415 -0.2418  0.1123
 9442SOL    HW139962   0.373   4.488   7.185 -0.7990 -0.1578 -0.3557
 9442SOL    HW239963   0.337   4.380   7.278 -1.0417 -1.0918 -0.0877
 9443SOL     OW39964   0.004   3.204  16.643  0.2136 -0.3192 -0.1707
 9443SOL    HW139965   4.644   3.194  16.655  0.3742  0.1794  1.4524
 9443SOL    HW239966   0.032   3.193  16.734 -0.8817 -0.0226  0.2081
 9444SOL     OW39967   3.413   4.134   6.245  0.0971  0.4504  0.1437
 9444SOL    HW139968   3.367   4.051   6.248  2.4158 -0.8610 -0.7434
 9444SOL    HW239969   3.380   4.160   6.159  1.0807 -1.0336 -0.6657
 9445SOL     OW39970   3.015   3.682   6.825 -0.4271 -0.4488 -1.2377
 9445SOL    HW139971   2.998   3.594   6.790 -0.3626 -0.4951 -1.1501
 9445SOL    HW239972   3.089   3.662   6.882  1.6158 -0.1390 -3.7722
 9446SOL     OW39973   4.162   1.803   2.938  0.2412  0.1462  0.2467
 9446SOL    HW139974   4.073   1.821   2.968  0.4159 -0.3751  1.0834
 9446SOL    HW239975   4.190   1.888   2.906 -2.1737  1.8350  2.6555
 9447SOL     OW39976   2.551   3.331   4.746  0.0069 -0.2316 -0.4277
 9447SOL    HW139977   2.540   3.409   4.801 -1.1638  0.5440 -1.7385
 9447SOL    HW239978   2.465   3.291   4.748 -0.2311  0.4679  2.3554
 9448SOL     OW39979   2.451   3.671   1.194 -0.0820 -0.1723 -0.5827
 9448SOL    HW139980   2.468   3.596   1.136  0.3778 -1.5971  1.3842
 9448SOL    HW239981   2.379   3.719   1.153  1.1600  1.8415 -0.4039
 9449SOL     OW39982   1.819   4.676   6.935  0.0836  0.1301 -0.6364
 9449SOL    HW139983   1.840   4.601   6.991  1.8822  1.3973  0.3971
 9449SOL    HW239984   1.879   0.005   6.974  1.8386 -2.1382  0.3854
 9450SOL     OW39985   1.624   0.152   6.262 -0.5387  0.1152 -0.4396
 9450SOL    HW139986   1.658   0.109   6.340 -0.7231  0.4472 -0.1792
 9450SOL    HW239987   1.572   0.222   6.301 -1.5828 -0.4701 -0.7975
 9451SOL     OW39988   0.888   1.112   7.148 -0.3747 -0.1354  0.3223
 9451SOL    HW139989   0.905   1.174   7.219  2.0487 -0.6213  0.1558
 9451SOL    HW239990   0.832   1.167   7.094 -2.0847 -1.3295  0.8482
 9452SOL     OW39991   1.345   0.558   3.280 -0.4427 -0.1240 -0.1994
 9452SOL    HW139992   1.327   0.649   3.256  2.2688  0.7539  1.0344
 9452SOL    HW239993   1.413   0.549   3.212 -0.0949  1.2420 -0.0477
 9453SOL     OW39994   3.782   1.701   6.841  0.2149  0.7517 -0.1823
 9453SOL    HW139995   3.741   1.721   6.925  0.5775  1.3033 -0.1362
 9453SOL    HW239996   3.711   1.725   6.780  0.6243  3.1849  0.2970
 9454SOL     OW39997   1.949   3.639   1.496 -0.2966 -0.0106  0.6944
 9454SOL    HW139998   1.876   3.698   1.515 -1.7278 -1.7824  0.7402
 9454SOL    HW239999   2.023   3.696   1.515  0.4420 -0.1935 -1.5542
 9455SOL     OW40000   2.859   1.073  14.257  0.1013 -0.3696 -0.4959
 9455SOL    HW140001   2.845   0.982  14.283 -0.8329  0.1407  0.8214
 9455SOL    HW240002   2.904   1.110  14.333  0.7087  0.5689 -1.3105
 9456SOL     OW40003   3.245   0.301  11.234 -0.0673  0.0002 -0.0437
 9456SOL    HW140004   3.226   0.385  11.192  0.3931  0.7218  1.2030
 9456SOL    HW240005   3.237   0.247  11.154 -1.4710  1.3505 -0.8148
 9457SOL     OW40006   2.161   0.457   5.693  0.6543 -0.0687 -0.3226
 9457SOL    HW140007   2.178   0.387   5.756  1.9973  0.8531  0.3402
 9457SOL    HW240008   2.175   0.533   5.750  0.9689  0.2637 -0.8449
 9458SOL     OW40009   0.189   1.960   6.898  0.5184 -0.5094  0.4851
 9458SOL    HW140010   0.222   1.903   6.968 -1.2269 -3.6002 -1.1784
 9458SOL    HW240011   0.094   1.953   6.907  0.3966  2.5976  1.3399
 9459SOL     OW40012   0.592   2.472   1.999  0.4565  0.2513  0.0559
 9459SOL    HW140013   0.540   2.545   2.031  0.6979  0.1389  0.7130
 9459SOL    HW240014   0.649   2.526   1.944  1.6296 -1.7962 -0.7491
 9460SOL     OW40015   3.159   0.591   2.836  0.5620 -0.0987  0.1090
 9460SOL    HW140016   3.189   0.670   2.882  0.6966 -0.1464  0.1010
 9460SOL    HW240017   3.245   0.555   2.816  0.2249  0.1111 -1.6554
 9461SOL     OW40018   3.808   0.826   6.402 -0.4810 -0.7981  0.1468
 9461SOL    HW140019   3.770   0.826   6.314 -0.0244  2.2790 -0.0833
 9461SOL    HW240020   3.729   0.789   6.441 -0.2593 -1.1693  0.2448
 9462SOL     OW40021   3.720   0.726   8.075  0.3476 -0.4489  0.0860
 9462SOL    HW140022   3.757   0.814   8.076 -0.7442  0.0361 -3.1084
 9462SOL    HW240023   3.681   0.725   7.988  0.2191 -0.6022  0.1431
 9463SOL     OW40024   0.909   1.449   5.130  0.3196 -0.1057  0.1819
 9463SOL    HW140025   0.840   1.405   5.180  1.4543  0.0303  1.8596
 9463SOL    HW240026   0.875   1.501   5.058  0.7366 -0.4328 -0.2456
 9464SOL     OW40027   4.243   4.115   6.739  0.3080 -0.7194 -0.1778
 9464SOL    HW140028   4.253   4.155   6.826  1.3060  1.3268 -1.2264
 9464SOL    HW240029   4.177   4.048   6.754  1.5466 -2.1123 -0.9863
 9465SOL     OW40030   3.773   3.931  16.488  0.2879 -0.4609  0.3770
 9465SOL    HW140031   3.764   4.002  16.552 -0.5067  0.1066 -0.3584
 9465SOL    HW240032   3.745   3.973  16.406 -0.1436 -2.0350 -0.2711
 9466SOL     OW40033   0.006   3.695  10.955 -0.1299 -0.2188 -0.6625
 9466SOL    HW140034   4.720   3.606  10.926  0.5425  0.8247 -4.3939
 9466SOL    HW240035   0.102   3.698  10.947 -0.1211 -0.5877 -0.6907
 9467SOL     OW40036   4.516   2.592   6.854 -0.2249 -0.7059 -0.5436
 9467SOL    HW140037   4.544   2.603   6.764  0.0435 -0.2554 -0.4057
 9467SOL    HW240038   4.584   2.633   6.908 -1.7052  3.1194 -1.6324
 9468SOL     OW40039   1.035   4.144   8.137 -0.2994  0.5927 -0.4248
 9468SOL    HW140040   1.019   4.107   8.050  0.7243 -0.9905  0.0492
 9468SOL    HW240041   1.131   4.148   8.130 -0.0393 -0.6131  2.8145
 9469SOL     OW40042   2.187   4.070   5.123  0.4766  0.0355 -0.2231
 9469SOL    HW140043   2.118   4.077   5.056 -0.3241 -0.9854  0.5049
 9469SOL    HW240044   2.246   4.140   5.095 -0.0016 -0.2029 -1.8500
 9470SOL     OW40045   1.267   3.071   5.499  0.1289  0.1867 -0.6793
 9470SOL    HW140046   1.184   3.114   5.521 -0.1886 -0.4040 -0.7374
 9470SOL    HW240047   1.242   2.995   5.551 -1.4762  0.2789 -1.3287
 9471SOL     OW40048   4.210   4.730   1.419 -0.1304 -0.1707  0.0785
 9471SOL    HW140049   4.243   0.066   1.473  0.6526  0.4422 -1.2097
 9471SOL    HW240050   4.288   4.701   1.373 -0.9613 -1.5279 -0.4897
 9472SOL     OW40051   2.311   0.149   4.154  0.5279 -1.0145 -0.0193
 9472SOL    HW140052   2.220   0.172   4.173  1.4943  0.8082  2.5019
 9472SOL    HW240053   2.366   0.191   4.220  1.4358 -0.2392 -1.2628
 9473SOL     OW40054   3.973   2.027  17.521 -0.1151  0.0315 -0.0180
 9473SOL    HW140055   3.979   2.109  17.569 -1.3365 -0.0887  0.3283
 9473SOL    HW240056   3.917   1.971  17.575 -1.2471 -0.0815 -1.3077
 9474SOL     OW40057   3.704   2.947   4.365  0.5871 -0.2212 -0.4914
 9474SOL    HW140058   3.646   2.945   4.288  0.5073 -0.0905 -0.4353
 9474SOL    HW240059   3.771   3.013   4.346 -0.2769  1.6242  2.9250
 9475SOL     OW40060   1.061   2.202  15.470 -0.0836  0.1974 -0.5948
 9475SOL    HW140061   1.004   2.140  15.515  1.1482 -0.4433  0.0698
 9475SOL    HW240062   1.121   2.236  15.536  1.5672 -1.7009 -1.1084
 9476SOL     OW40063   1.651   2.894   2.452 -0.1059  0.3473 -0.0786
 9476SOL    HW140064   1.575   2.844   2.422  0.4104 -0.1245 -0.5809
 9476SOL    HW240065   1.661   2.872   2.545  0.3981 -1.4645 -0.5675
 9477SOL     OW40066   2.366   3.986   6.184  0.1561 -0.6008  0.0449
 9477SOL    HW140067   2.325   3.944   6.260  3.3843 -0.0623  2.0606
 9477SOL    HW240068   2.461   3.987   6.196  0.3215 -0.8798 -1.2421
 9478SOL     OW40069   0.554   1.918  17.441  0.1796  0.2708 -0.6306
 9478SOL    HW140070   0.524   1.936  17.352 -0.6486  0.1664 -0.3759
 9478SOL    HW240071   0.553   2.008  17.474 -0.2532 -0.4950  1.4724
 9479SOL     OW40072   0.165   0.988   7.734  0.1590 -0.0117  0.0365
 9479SOL    HW140073   0.135   0.940   7.657 -0.6791 -1.1068  1.0486
 9479SOL    HW240074   0.078   1.001   7.773 -0.8671 -1.9451 -1.6347
 9480SOL     OW40075   4.156   4.322  15.986  0.0637  0.0447 -0.2025
 9480SOL    HW140076   4.213   4.296  15.913 -0.4529 -0.1124 -0.5525
 9480SOL    HW240077   4.212   4.313  16.063  0.6970  0.2025 -0.6443
 9481SOL     OW40078   1.398   1.890   8.080  0.1046  0.4428 -0.2643
 9481SOL    HW140079   1.477   1.854   8.040  1.4550  2.2439  0.7572
 9481SOL    HW240080   1.358   1.812   8.118 -0.1753  0.7692  0.1168
 9482SOL     OW40081   0.819   3.079  16.293  0.3057  0.7713 -0.1863
 9482SOL    HW140082   0.840   2.992  16.259  1.4891 -0.0747  2.6870
 9482SOL    HW240083   0.843   3.130  16.216  0.1734  0.6072 -0.3374
 9483SOL     OW40084   3.034   2.727   2.680 -0.2500  0.5619 -0.6451
 9483SOL    HW140085   3.042   2.822   2.674  4.1191  0.2881  1.0746
 9483SOL    HW240086   3.004   2.706   2.769 -1.4005 -0.1208 -1.1900
 9484SOL     OW40087   1.675   4.082   5.042 -0.1863 -0.0023 -0.3193
 9484SOL    HW140088   1.719   4.155   5.085 -1.5740  0.6675 -0.0268
 9484SOL    HW240089   1.614   4.134   4.990 -1.4348 -2.3000 -1.1682
 9485SOL     OW40090   4.170   0.122   2.998 -0.0209 -0.1433  0.7239
 9485SOL    HW140091   4.087   0.166   2.981  0.3249  0.3552  0.3138
 9485SOL    HW240092   4.201   0.088   2.914 -0.4487 -0.1588  0.5742
 9486SOL     OW40093   2.649   0.599  17.486 -0.3696  0.0505  0.0347
 9486SOL    HW140094   2.653   0.599  17.390 -0.1229 -0.0806  0.0460
 9486SOL    HW240095   2.722   0.540  17.501  0.6102  1.8577  2.2701
 9487SOL     OW40096   0.762   2.503   6.084 -0.2775 -0.0477  0.1790
 9487SOL    HW140097   0.822   2.513   6.157 -0.8537 -1.1597  0.7885
 9487SOL    HW240098   0.824   2.523   6.014 -1.0995 -1.9142 -1.0813
 9488SOL     OW40099   3.244   4.630   4.785 -0.3111  0.1942  0.2866
 9488SOL    HW140100   3.315   4.566   4.774  1.3088  1.9992  0.1885
 9488SOL    HW240101   3.279   4.700   4.839  0.0533 -0.6072  1.0909
 9489SOL     OW40102   2.020   1.497   6.370  0.1590 -0.1005  0.0345
 9489SOL    HW140103   1.956   1.536   6.429 -0.8488 -0.3351 -0.8946
 9489SOL    HW240104   2.095   1.469   6.423  2.3824  0.6498 -2.6936
 9490SOL     OW40105   0.961   1.532   3.135  0.3011 -0.0039  0.1579
 9490SOL    HW140106   0.914   1.498   3.060  1.7576  1.2369 -1.3293
 9490SOL    HW240107   0.931   1.623   3.145 -0.0908  0.0814 -1.8491
 9491SOL     OW40108   0.591   3.301  16.441 -0.3560 -0.3093  0.1306
 9491SOL    HW140109   0.545   3.220  16.417 -3.5020  2.0171 -1.7746
 9491SOL    HW240110   0.669   3.300  16.386 -0.6727  0.1285 -0.3306
 9492SOL     OW40111   3.537   2.008  10.161 -0.4120 -0.0331  0.0992
 9492SOL    HW140112   3.491   1.982  10.240  1.1727  2.7853  1.9139
 9492SOL    HW240113   3.477   2.066  10.115  0.3916  0.8192  0.1195
 9493SOL     OW40114   0.760   1.720   7.053  0.3005 -0.2621 -0.0422
 9493SOL    HW140115   0.672   1.734   7.018  0.2138 -1.0565 -0.1285
 9493SOL    HW240116   0.779   1.632   7.020  2.4829 -0.3044  1.3681
 9494SOL     OW40117   0.310   2.131   7.957  0.1603 -0.2502 -0.4091
 9494SOL    HW140118   0.321   2.118   8.051 -1.0442  2.7582  0.1160
 9494SOL    HW240119   0.391   2.095   7.918  0.5175  1.8599 -1.6060
 9495SOL     OW40120   4.441   3.478   5.173  0.1877  0.4154 -0.0594
 9495SOL    HW140121   4.517   3.510   5.222  1.3930 -1.2986 -0.7919
 9495SOL    HW240122   4.477   3.499   5.087 -0.4436  1.6833 -0.0040
 9496SOL     OW40123   2.650   1.908   3.870 -0.5670 -0.1541 -0.0203
 9496SOL    HW140124   2.706   1.832   3.858 -1.5219 -0.8446 -0.1064
 9496SOL    HW240125   2.579   1.879   3.813 -0.3757 -0.7934  0.0734
 9497SOL     OW40126   2.979   1.410   6.247  0.6702  0.3627  0.1870
 9497SOL    HW140127   2.969   1.373   6.159 -0.2576  1.3222 -0.1056
 9497SOL    HW240128   2.957   1.501   6.231 -0.4393  0.3081  1.3867
 9498SOL     OW40129   4.006   3.560   7.789 -0.5027  0.3478 -0.0876
 9498SOL    HW140130   3.913   3.582   7.799  0.2947  3.1543  1.1776
 9498SOL    HW240131   4.050   3.640   7.818 -0.3711  0.8632 -1.7095
 9499SOL     OW40132   1.012   2.503   9.337 -0.3192 -0.7275  0.5881
 9499SOL    HW140133   0.951   2.506   9.411 -0.0738  2.7590  0.6453
 9499SOL    HW240134   0.960   2.553   9.273  2.7010 -1.0388 -2.1029
 9500SOL     OW40135   0.567   2.894   5.675 -0.2982 -0.5101  0.1158
 9500SOL    HW140136   0.546   2.809   5.636 -0.6925 -0.5323  0.3767
 9500SOL    HW240137   0.648   2.931   5.640 -1.1583  1.2283 -0.0310
 9501SOL     OW40138   3.645   1.753  13.094  0.2941  0.1521  0.4240
 9501SOL    HW140139   3.716   1.748  13.030  0.1718 -0.0619  0.3054
 9501SOL    HW240140   3.644   1.847  13.113  1.5231  0.1633  0.4416
 9502SOL     OW40141   0.665   0.963  13.195  0.7328 -0.2221  0.1567
 9502SOL    HW140142   0.644   1.048  13.233  0.0721 -0.6957  0.8391
 9502SOL    HW240143   0.738   0.936  13.250  0.2331  3.1304  2.4413
 9503SOL     OW40144   2.371   2.865   6.832 -0.5359  0.9760 -0.7205
 9503SOL    HW140145   2.402   2.915   6.908 -0.0519  0.9562 -0.9052
 9503SOL    HW240146   2.282   2.902   6.830 -2.0268 -2.5255 -0.5320
 9504SOL     OW40147   0.116   3.186   7.531 -0.0087  0.2167 -0.0532
 9504SOL    HW140148   0.100   3.142   7.448 -0.4093  0.4073 -0.0815
 9504SOL    HW240149   0.040   3.245   7.532 -1.9647 -2.3779  3.7226
 9505SOL     OW40150   2.401   2.066  10.293 -0.6671  0.5745  0.0096
 9505SOL    HW140151   2.345   2.103  10.224 -0.3380  1.9619  0.4843
 9505SOL    HW240152   2.469   2.133  10.300  1.4788 -1.9685  3.3265
 9506SOL     OW40153   0.769   2.154  16.466  0.3456 -0.0137 -0.1130
 9506SOL    HW140154   0.724   2.119  16.543 -0.7631  0.9071 -0.3390
 9506SOL    HW240155   0.861   2.133  16.480  0.0882  0.2240  1.9219
 9507SOL     OW40156   0.194   3.355   7.839 -0.3673  0.2270 -0.0175
 9507SOL    HW140157   0.280   3.394   7.849  0.0456 -0.9985  1.1959
 9507SOL    HW240158   0.164   3.416   7.772 -1.3791  0.5683  0.7446
 9508SOL     OW40159   3.827   2.602  10.499  0.0761 -0.2488 -0.5232
 9508SOL    HW140160   3.798   2.675  10.552  0.0304 -2.1267  2.0460
 9508SOL    HW240161   3.811   2.642  10.413 -1.6903 -2.1491 -1.1130
 9509SOL     OW40162   2.741   1.154   6.570  0.7119  0.1053  0.0907
 9509SOL    HW140163   2.812   1.212   6.543  1.6433 -1.0076  0.1258
 9509SOL    HW240164   2.784   1.077   6.608 -1.6935 -0.3470  1.8855
 9510SOL     OW40165   3.105   1.660   0.584  0.1669 -0.4191 -0.0096
 9510SOL    HW140166   3.035   1.688   0.643  1.2022  3.3485 -0.6009
 9510SOL    HW240167   3.151   1.743   0.572 -1.9276  0.7339 -0.0140
 9511SOL     OW40168   2.867   0.705   2.639  0.8064  0.0944 -0.0943
 9511SOL    HW140169   2.913   0.632   2.598  0.2606  0.8668 -2.0972
 9511SOL    HW240170   2.908   0.782   2.600  1.0166  1.5065  2.9351
 9512SOL     OW40171   0.456   4.679   8.562 -0.7801  0.5469 -0.0191
 9512SOL    HW140172   0.414   4.663   8.478  2.2069  0.0758 -1.4231
 9512SOL    HW240173   0.465   0.039   8.560  1.2035  0.3508 -0.7795
 9513SOL     OW40174   3.928   1.506   9.131  0.5237  0.0118  0.1132
 9513SOL    HW140175   3.855   1.549   9.176  0.1466 -0.3479 -0.1600
 9513SOL    HW240176   3.990   1.578   9.122 -0.2671  0.5885 -0.6964
 9514SOL     OW40177   3.136   3.973   2.101 -0.0718  0.7159 -0.0845
 9514SOL    HW140178   3.181   3.980   2.185 -2.1775  1.2627  0.9871
 9514SOL    HW240179   3.104   3.883   2.093  0.6543  0.4021  0.5845
 9515SOL     OW40180   2.949   0.365  16.477 -0.2192 -0.1151  0.3468
 9515SOL    HW140181   2.866   0.359  16.431  0.1976 -0.8494 -0.3134
 9515SOL    HW240182   2.972   0.458  16.470 -0.3650 -0.0629  0.5458
 9516SOL     OW40183   1.562   0.545   6.234 -0.7845  0.0287 -0.0738
 9516SOL    HW140184   1.479   0.521   6.274 -0.5945  0.1286  0.3840
 9516SOL    HW240185   1.556   0.488   6.158  0.4519  2.2892 -1.8776
 9517SOL     OW40186   3.468   0.365   6.025  0.4914 -0.2126  0.0510
 9517SOL    HW140187   3.515   0.322   5.954 -1.3105 -0.0433 -1.2658
 9517SOL    HW240188   3.404   0.300   6.053 -0.4315  0.1735 -1.1346
 9518SOL     OW40189   1.627   3.747  14.427 -0.5889 -0.3386  0.1721
 9518SOL    HW140190   1.592   3.757  14.516 -1.4393  1.9355 -0.4249
 9518SOL    HW240191   1.580   3.667  14.402  0.5162 -0.9987  0.1980
 9519SOL     OW40192   1.438   0.035  17.415  0.0473  0.0879 -0.2880
 9519SOL    HW140193   1.458   0.120  17.454 -1.0239  0.7542 -1.1837
 9519SOL    HW240194   1.342   0.039  17.421  0.0329  0.9971 -0.9947
 9520SOL     OW40195   3.591   4.557   6.351  0.2112 -0.0500 -0.0943
 9520SOL    HW140196   3.682   4.588   6.344  0.0314  0.7978  1.1886
 9520SOL    HW240197   3.602   4.464   6.336 -0.4984 -0.2905  0.9024
 9521SOL     OW40198   1.359   1.015   0.806  0.2893 -0.0462  0.2022
 9521SOL    HW140199   1.351   0.996   0.713 -0.6773 -1.3744  0.5616
 9521SOL    HW240200   1.448   0.989   0.829  0.7029  1.1001 -0.0822
 9522SOL     OW40201   0.486   0.964  12.455  0.5442 -0.3858  0.0843
 9522SOL    HW140202   0.395   0.936  12.462  1.5706 -3.4372  1.0624
 9522SOL    HW240203   0.477   1.058  12.473  2.1195 -0.2500  0.1830
 9523SOL     OW40204   2.255   2.526   9.081  0.1733 -0.1296  0.3116
 9523SOL    HW140205   2.258   2.473   9.160  0.2861 -1.1813 -0.3961
 9523SOL    HW240206   2.342   2.567   9.085  0.5636 -1.0378  1.2218
 9524SOL     OW40207   3.363   4.652  14.616  0.1157 -0.0413 -0.7240
 9524SOL    HW140208   3.352   4.559  14.640 -3.4652  0.0839 -1.8207
 9524SOL    HW240209   3.285   4.675  14.565  0.6601  1.5598 -0.8302
 9525SOL     OW40210   4.721   2.596   9.198 -0.6570 -0.2350  0.4276
 9525SOL    HW140211   0.072   2.600   9.156 -1.6127  0.4131 -1.4747
 9525SOL    HW240212   4.660   2.604   9.125  0.0845  0.0740 -0.1590
 9526SOL     OW40213   3.526   1.984  16.152  0.3453  0.4260  0.3422
 9526SOL    HW140214   3.579   1.905  16.151  0.0895  0.2601 -0.2984
 9526SOL    HW240215   3.593   2.052  16.157  1.4510 -0.5710 -0.9568
 9527SOL     OW40216   1.808   4.301   4.650  0.3171 -0.5298  0.0939
 9527SOL    HW140217   1.843   4.242   4.584  3.9534 -0.0703  1.5985
 9527SOL    HW240218   1.893   4.336   4.679  0.6704 -1.0777 -0.2907
 9528SOL     OW40219   4.116   2.340   2.081 -0.5608 -0.0606 -0.4463
 9528SOL    HW140220   4.146   2.249   2.071  1.5270  0.4528  1.0157
 9528SOL    HW240221   4.024   2.318   2.070 -0.4622 -0.7230  0.0030
 9529SOL     OW40222   3.740   3.993  10.245 -0.7278  0.1751  0.3744
 9529SOL    HW140223   3.794   3.953  10.177  0.3350  3.3168 -0.6365
 9529SOL    HW240224   3.670   3.930  10.261  0.8722 -1.3927  1.2362
 9530SOL     OW40225   3.907   3.191   3.619  0.1057  0.3823  0.2697
 9530SOL    HW140226   3.981   3.206   3.560  1.2917 -2.3350  1.0794
 9530SOL    HW240227   3.843   3.231   3.560 -0.0915  0.5693  0.6101
 9531SOL     OW40228   3.924   2.511   4.475 -0.4879  0.5523 -0.1937
 9531SOL    HW140229   3.926   2.551   4.388  1.2577 -1.4343 -1.0850
 9531SOL    HW240230   3.949   2.581   4.535  1.5729  0.4977 -0.9536
 9532SOL     OW40231   1.708   3.728   9.176 -0.4153  0.0712 -0.6108
 9532SOL    HW140232   1.646   3.677   9.229 -1.2150  1.5164 -0.1501
 9532SOL    HW240233   1.785   3.728   9.233 -0.4718 -0.3618 -0.5385
 9533SOL     OW40234   1.202   1.987  12.612  0.0807 -0.4814  0.3591
 9533SOL    HW140235   1.240   1.906  12.646  1.1543  0.1274  0.6217
 9533SOL    HW240236   1.110   1.968  12.632 -0.0290  1.1239  1.3757
 9534SOL     OW40237   1.003   2.869   5.815 -0.4505 -0.1932  0.6777
 9534SOL    HW140238   0.970   2.939   5.873 -0.6745  0.0215  0.2930
 9534SOL    HW240239   1.038   2.802   5.873  1.2865 -1.0176 -1.3639
 9535SOL     OW40240   1.615   1.799   1.862  0.2256  0.3487  0.0987
 9535SOL    HW140241   1.664   1.813   1.781  1.2189  0.8328  0.7833
 9535SOL    HW240242   1.673   1.801   1.938  3.3717  0.6249 -2.3200
 9536SOL     OW40243   2.569   4.731   8.261  0.0383  0.5761  0.0978
 9536SOL    HW140244   2.603   0.086   8.262  1.2808  0.1221 -3.0413
 9536SOL    HW240245   2.594   4.717   8.170 -1.8327 -1.4411 -0.1004
 9537SOL     OW40246   0.418   3.104   7.182 -0.5339  0.2782  0.1098
 9537SOL    HW140247   0.412   3.196   7.157 -0.5152  0.5763  1.2051
 9537SOL    HW240248   0.380   3.058   7.107  2.3481 -1.4234 -0.3166
 9538SOL     OW40249   3.308   4.674  11.967  0.5059 -0.4887  0.4442
 9538SOL    HW140250   3.403   4.676  11.976  0.4760 -1.7215  0.9975
 9538SOL    HW240251   3.285   4.714  12.051  1.3161 -2.7268  1.7249
 9539SOL     OW40252   0.087   2.107   2.481 -0.0361 -0.2628  0.8925
 9539SOL    HW140253   0.085   2.142   2.570  0.7987  1.7800  0.1062
 9539SOL    HW240254   0.150   2.167   2.441 -1.3783  1.7577  1.8156
 9540SOL     OW40255   1.070   2.304   3.420 -0.8633  0.2046  0.5863
 9540SOL    HW140256   1.124   2.344   3.351 -1.7089  1.8086  0.8584
 9540SOL    HW240257   1.003   2.371   3.430 -0.5931  0.6676 -0.6476
 9541SOL     OW40258   1.892   3.315  14.062  0.3282  0.1100 -0.9855
 9541SOL    HW140259   1.902   3.220  14.058  1.0638  0.0708  1.4284
 9541SOL    HW240260   1.925   3.343  13.977 -2.1792  0.8693 -1.6830
 9542SOL     OW40261   2.747   3.362   8.395  0.6269 -0.1805  0.2161
 9542SOL    HW140262   2.695   3.427   8.348  0.8255  1.2223  1.9594
 9542SOL    HW240263   2.678   3.324   8.448  0.2182  2.2657  1.4359
 9543SOL     OW40264   1.046   1.183   8.770  0.0848  0.4887  0.6443
 9543SOL    HW140265   1.138   1.181   8.797  0.4076 -1.6401 -0.5786
 9543SOL    HW240266   1.008   1.193   8.857 -1.9018 -0.0398 -0.1762
 9544SOL     OW40267   2.513   0.928   3.810 -0.7560 -0.4952  0.1452
 9544SOL    HW140268   2.438   0.988   3.816  1.6695  2.6071 -0.6515
 9544SOL    HW240269   2.479   0.868   3.877 -2.4931  0.6891  0.3435
 9545SOL     OW40270   2.246   1.148   9.906  0.5271 -0.5533  0.5015
 9545SOL    HW140271   2.262   1.100   9.987  3.0985 -1.5216 -0.5743
 9545SOL    HW240272   2.179   1.104   9.855  0.4435 -0.8185  0.8488
 9546SOL     OW40273   1.050   3.258   3.760 -0.5094  0.1363  0.2222
 9546SOL    HW140274   1.056   3.282   3.852 -1.2862  0.6373  0.1406
 9546SOL    HW240275   0.994   3.330   3.732 -2.0407 -0.7596  0.9929
 9547SOL     OW40276   4.449   3.830   8.993  0.7270 -0.3890  0.2232
 9547SOL    HW140277   4.466   3.759   9.055  0.0345  0.3711  1.2749
 9547SOL    HW240278   4.428   3.783   8.912  0.8269  0.3018 -0.2105
 9548SOL     OW40279   2.971   4.564   8.853  0.2598  0.0396  0.1009
 9548SOL    HW140280   2.999   4.588   8.765  0.0727  3.9046  1.0704
 9548SOL    HW240281   3.049   4.521   8.888  0.9964  0.8607 -0.5145
 9549SOL     OW40282   0.641   1.384   6.140  0.0101 -0.4005 -0.0362
 9549SOL    HW140283   0.683   1.452   6.087 -0.2569 -0.4099 -0.2622
 9549SOL    HW240284   0.563   1.427   6.175  1.0285  0.3651  1.3118
 9550SOL     OW40285   2.355   0.212   2.110  0.2562  0.0051 -0.3101
 9550SOL    HW140286   2.366   0.125   2.073  1.7176 -0.7028  1.7793
 9550SOL    HW240287   2.290   0.189   2.177  0.5107 -1.1357 -0.4640
 9551SOL     OW40288   4.443   0.001   1.760  0.4055 -0.1384  0.2237
 9551SOL    HW140289   4.492   0.015   1.679  1.1510  0.1394  0.7258
 9551SOL    HW240290   4.420   0.093   1.774 -1.2493 -0.6337  0.7774
 9552SOL     OW40291   0.497   1.898  10.815 -0.3017  0.1350  0.2416
 9552SOL    HW140292   0.581   1.945  10.818  0.7216 -1.5674 -1.5772
 9552SOL    HW240293   0.447   1.935  10.887 -0.4331 -0.0108  0.2263
 9553SOL     OW40294   3.063   3.847  13.133 -0.0367 -0.3065  0.1140
 9553SOL    HW140295   3.027   3.915  13.189  0.6411 -1.0683  1.4765
 9553SOL    HW240296   2.994   3.812  13.076 -1.7818  0.4133  1.7907
 9554SOL     OW40297   2.875   2.841  17.516  0.0825  0.9474  0.5029
 9554SOL    HW140298   2.893   2.790  17.437  3.7695 -0.6456  2.3718
 9554SOL    HW240299   2.780   2.835  17.514 -0.0177  1.8423  2.2338
 9555SOL     OW40300   3.892   3.377   2.080  0.4746  0.0654  0.4668
 9555SOL    HW140301   3.969   3.434   2.081  0.4561  0.0904  0.4777
 9555SOL    HW240302   3.924   3.293   2.048 -0.1340 -0.2129  0.6057
 9556SOL     OW40303   1.673   4.355   5.560  0.5250 -0.0358 -0.0884
 9556SOL    HW140304   1.708   4.272   5.528  0.6221 -0.5264  1.3121
 9556SOL    HW240305   1.748   4.395   5.605  0.4270 -0.7180  0.6776
 9557SOL     OW40306   4.579   4.243  17.099  0.0154  0.1736 -0.7492
 9557SOL    HW140307   4.551   4.255  17.190  1.8659  2.2301 -0.4469
 9557SOL    HW240308   4.661   4.291  17.091  0.0618  0.2522  0.1777
 9558SOL     OW40309   4.278   4.262   0.461 -0.1621  0.1123 -0.0851
 9558SOL    HW140310   4.251   4.212   0.538 -0.5439 -0.6945 -0.7426
 9558SOL    HW240311   4.217   4.240   0.390  2.2166 -3.6060 -0.9964
 9559SOL     OW40312   1.065   0.404   9.514  0.5444  0.8591  0.2787
 9559SOL    HW140313   1.070   0.375   9.605  0.9115 -2.0921 -0.6544
 9559SOL    HW240314   1.141   0.356   9.483  0.5254 -0.4490  2.2598
 9560SOL     OW40315   2.983   0.742   7.893  0.1648  0.0543  0.4116
 9560SOL    HW140316   2.935   0.821   7.870  2.8604  1.6702  0.2963
 9560SOL    HW240317   2.981   0.698   7.808  2.1439 -2.0977  1.4763
 9561SOL     OW40318   2.412   2.838   8.028  0.1222  0.6109 -0.5107
 9561SOL    HW140319   2.385   2.812   8.116 -1.1231 -1.3334 -1.4701
 9561SOL    HW240320   2.505   2.815   8.019 -0.3898 -2.2551  1.4830
 9562SOL     OW40321   1.715   3.409  14.942 -0.1427  0.1070 -0.0991
 9562SOL    HW140322   1.683   3.455  14.864 -0.4558 -1.2604 -0.7687
 9562SOL    HW240323   1.629   3.370  14.961  0.1000 -0.3305  0.0950
 9563SOL     OW40324   4.709   2.577   9.650 -0.3047 -0.2500 -0.0465
 9563SOL    HW140325   4.710   2.670   9.673 -2.8391  0.1061 -1.3372
 9563SOL    HW240326   4.689   2.536   9.734  0.2210  3.1174  1.7170
 9564SOL     OW40327   3.946   0.093   9.028  0.4140  0.8427 -0.2450
 9564SOL    HW140328   3.985   0.054   8.950  0.3172  1.7200 -0.7342
 9564SOL    HW240329   3.955   0.016   9.084 -1.2725  2.1194  1.7824
 9565SOL     OW40330   2.450   3.297   5.205 -0.1810  0.6892 -0.4029
 9565SOL    HW140331   2.402   3.280   5.286  0.8208 -2.5534 -0.4918
 9565SOL    HW240332   2.523   3.350   5.238 -1.1901  1.9068 -0.1213
 9566SOL     OW40333   0.476   3.068   9.584  0.0401 -0.2076 -0.0512
 9566SOL    HW140334   0.540   2.997   9.576 -0.2354 -0.5724  0.9271
 9566SOL    HW240335   0.520   3.133   9.639 -0.5031 -0.6037  0.8599
 9567SOL     OW40336   3.094   2.079   2.043 -0.1216 -0.6459  0.1154
 9567SOL    HW140337   3.050   2.008   1.996  0.8390 -0.7623 -0.5924
 9567SOL    HW240338   3.100   2.035   2.127 -1.2403 -2.1257 -0.5810
 9568SOL     OW40339   2.227   1.127   3.564 -0.2266 -0.2935 -0.0226
 9568SOL    HW140340   2.256   1.082   3.486  2.9161  0.4363  0.7109
 9568SOL    HW240341   2.162   1.059   3.583  0.8389 -1.6544 -1.2883
 9569SOL     OW40342   4.469   1.403   3.893  0.2211  0.3549 -0.5877
 9569SOL    HW140343   4.496   1.322   3.850  0.4858  0.1557 -0.0399
 9569SOL    HW240344   4.547   1.437   3.936  1.5991 -1.9023 -1.3435
   4.73508   4.73508  17.73919
